{"builder_meta": null, "nsites": null, "elements": null, "nelements": null, "composition": null, "composition_reduced": null, "formula_pretty": "FePt3", "formula_anonymous": "AB3", "chemsys": null, "volume": 58.90889908037827, "density": 18.071405689104996, "density_atomic": 14.727224770094567, "symmetry": null, "property_name": null, "material_id": "mp-649", "deprecated": null, "deprecation_reasons": null, "last_updated": null, "origins": null, "warnings": null, "structure": {"@module": "pymatgen.core.structure", "@class": "Structure", "charge": 0, "lattice": {"matrix": [[3.89099168, -0.0, 0.0], [0.0, 3.89099168, 0.0], [-0.0, -0.0, 3.89099168]], "pbc": [true, true, true], "a": 3.89099168, "b": 3.89099168, "c": 3.89099168, "alpha": 90.0, "beta": 90.0, "gamma": 90.0, "volume": 58.90889908037827}, "properties": {}, "sites": [{"species": [{"element": "Fe", "occu": 1}], "abc": [0.0, -0.0, 0.0], "properties": {"magmom": 3.549}, "label": "Fe", "xyz": [0.0, 0.0, 0.0]}, {"species": [{"element": "Pt", "occu": 1}], "abc": [-0.0, 0.5, 0.5], "properties": {"magmom": 0.442}, "label": "Pt", "xyz": [0.0, 1.94549584, 1.94549584]}, {"species": [{"element": "Pt", "occu": 1}], "abc": [0.5, 0.5, -0.0], "properties": {"magmom": 0.442}, "label": "Pt", "xyz": [1.94549584, 1.94549584, 0.0]}, {"species": [{"element": "Pt", "occu": 1}], "abc": [0.5, -0.0, 0.5], "properties": {"magmom": 0.442}, "label": "Pt", "xyz": [1.94549584, 0.0, 1.94549584]}]}, "task_ids": null, "uncorrected_energy_per_atom": null, "energy_per_atom": -6.844540965, "formation_energy_per_atom": -0.173685672499999, "energy_above_hull": 0.0, "is_stable": true, "equilibrium_reaction_energy_per_atom": null, "decomposes_to": null, "xas": null, "grain_boundaries": null, "band_gap": 0.0, "cbm": null, "vbm": null, "efermi": 7.45363186, "is_gap_direct": null, "is_metal": null, "es_source_calc_id": null, "bandstructure": null, "dos": null, "dos_energy_up": null, "dos_energy_down": null, "is_magnetic": null, "ordering": null, "total_magnetization": 4.8586263, "total_magnetization_normalized_vol": null, "total_magnetization_normalized_formula_units": null, "num_magnetic_sites": null, "num_unique_magnetic_sites": null, "types_of_magnetic_species": null, "bulk_modulus": null, "shear_modulus": null, "universal_anisotropy": null, "homogeneous_poisson": null, "e_total": null, "e_ionic": null, "e_electronic": null, "n": null, "e_ij_max": null, "weighted_surface_energy_EV_PER_ANG2": null, "weighted_surface_energy": null, "weighted_work_function": null, "surface_anisotropy": null, "shape_factor": null, "has_reconstructed": null, "possible_species": null, "has_props": null, "theoretical": null, "database_IDs": null, "fields_not_requested": ["builder_meta", "nsites", "elements", "nelements", "composition", "composition_reduced", "chemsys", "symmetry", "property_name", "deprecated", "deprecation_reasons", "last_updated", "origins", "warnings", "task_ids", "uncorrected_energy_per_atom", "equilibrium_reaction_energy_per_atom", "decomposes_to", "xas", "grain_boundaries", "cbm", "vbm", "is_gap_direct", "is_metal", "es_source_calc_id", "bandstructure", "dos", "dos_energy_up", "dos_energy_down", "is_magnetic", "ordering", "total_magnetization_normalized_vol", "total_magnetization_normalized_formula_units", "num_magnetic_sites", "num_unique_magnetic_sites", "types_of_magnetic_species", "bulk_modulus", "shear_modulus", "universal_anisotropy", "homogeneous_poisson", "e_total", "e_ionic", "e_electronic", "n", "e_ij_max", "weighted_surface_energy_EV_PER_ANG2", "weighted_surface_energy", "weighted_work_function", "surface_anisotropy", "shape_factor", "has_reconstructed", "possible_species", "has_props", "theoretical", "database_IDs"]}