{
  "builder_meta": null,
  "nsites": null,
  "elements": null,
  "nelements": null,
  "composition": null,
  "composition_reduced": null,
  "formula_pretty": "FeRe3",
  "formula_anonymous": "AB3",
  "chemsys": null,
  "volume": 111.39841336403629,
  "density": 18.31883897238418,
  "density_atomic": 13.924801670504536,
  "symmetry": null,
  "property_name": null,
  "material_id": "mp-1184298",
  "deprecated": null,
  "deprecation_reasons": null,
  "last_updated": null,
  "origins": null,
  "warnings": null,
  "structure": {
    "@module": "pymatgen.core.structure",
    "@class": "Structure",
    "charge": 0,
    "lattice": {
      "matrix": [
        [2.70214606, -4.6802586999999995, 0.0],
        [2.70215433, 4.68026448, 0.0],
        [0.0, 0.0, 4.40422398]
      ],
      "pbc": [true, true, true],
      "a": 5.404295960483586,
      "b": 5.4043051011103564,
      "c": 4.40422398,
      "alpha": 90.0,
      "beta": 90.0,
      "gamma": 120.00000172367018,
      "volume": 111.39841336403629
    },
    "properties": {},
    "sites": [
      {
        "species": [{ "element": "Fe", "occu": 1 }],
        "abc": [0.33332953, 0.66667341, 0.75],
        "properties": { "magmom": 2.279 },
        "label": "Fe",
        "xyz": [2.702159517698517, 1.5601394478340662, 3.303167985]
      },
      {
        "species": [{ "element": "Fe", "occu": 1 }],
        "abc": [0.66665918, 0.33331724, 0.25],
        "properties": { "magmom": 2.279 },
        "label": "Fe",
        "xyz": [2.70208509992948, -1.5601245881862307, 1.101055995]
      },
      {
        "species": [{ "element": "Re", "occu": 1 }],
        "abc": [0.16697595, 0.3339521, 0.25],
        "properties": { "magmom": -0.17500000000000002 },
        "label": "Re",
        "xyz": [1.35358351843485, 0.7814935089731428, 1.101055995]
      },
      {
        "species": [{ "element": "Re", "occu": 1 }],
        "abc": [0.66604252, 0.83303297, 0.25],
        "properties": { "magmom": -0.17500000000000002 },
        "label": "Re",
        "xyz": [4.050727818128731, 0.781563321359982, 1.101055995]
      },
      {
        "species": [{ "element": "Re", "occu": 1 }],
        "abc": [0.16699053, 0.8330319700000001, 0.25],
        "properties": { "magmom": -0.17500000000000002 },
        "label": "Re",
        "xyz": [2.702213747460742, 3.117251059045315, 1.101055995]
      },
      {
        "species": [{ "element": "Re", "occu": 1 }],
        "abc": [0.83303163, 0.66605278, 0.75],
        "properties": { "magmom": -0.17500000000000002 },
        "label": "Re",
        "xyz": [4.050750540345415, -0.7815003656434265, 3.303167985]
      },
      {
        "species": [{ "element": "Re", "occu": 1 }],
        "abc": [0.3339504, 0.16696721, 0.75],
        "properties": { "magmom": -0.17500000000000002 },
        "label": "Re",
        "xyz": [1.3535539270649433, -0.7815235626807788, 3.303167985]
      },
      {
        "species": [{ "element": "Re", "occu": 1 }],
        "abc": [0.83302126, 0.16697433, 0.75],
        "properties": { "magmom": -0.17500000000000002 },
        "label": "Re",
        "xyz": [2.7021355244135843, -3.1172709736291635, 3.303167985]
      }
    ]
  },
  "task_ids": null,
  "uncorrected_energy_per_atom": null,
  "energy_per_atom": -11.444853752500002,
  "formation_energy_per_atom": 0.008737205624996,
  "energy_above_hull": 0.014438050624995001,
  "is_stable": false,
  "equilibrium_reaction_energy_per_atom": null,
  "decomposes_to": null,
  "xas": null,
  "grain_boundaries": null,
  "band_gap": 0.0,
  "cbm": null,
  "vbm": null,
  "efermi": 6.92363006,
  "is_gap_direct": null,
  "is_metal": null,
  "es_source_calc_id": null,
  "bandstructure": null,
  "dos": null,
  "dos_energy_up": null,
  "dos_energy_down": null,
  "is_magnetic": null,
  "ordering": null,
  "total_magnetization": 3.3287181,
  "total_magnetization_normalized_vol": null,
  "total_magnetization_normalized_formula_units": null,
  "num_magnetic_sites": null,
  "num_unique_magnetic_sites": null,
  "types_of_magnetic_species": null,
  "bulk_modulus": null,
  "shear_modulus": null,
  "universal_anisotropy": null,
  "homogeneous_poisson": null,
  "e_total": null,
  "e_ionic": null,
  "e_electronic": null,
  "n": null,
  "e_ij_max": null,
  "weighted_surface_energy_EV_PER_ANG2": null,
  "weighted_surface_energy": null,
  "weighted_work_function": null,
  "surface_anisotropy": null,
  "shape_factor": null,
  "has_reconstructed": null,
  "possible_species": null,
  "has_props": null,
  "theoretical": null,
  "database_IDs": null,
  "fields_not_requested": [
    "builder_meta",
    "nsites",
    "elements",
    "nelements",
    "composition",
    "composition_reduced",
    "chemsys",
    "symmetry",
    "property_name",
    "deprecated",
    "deprecation_reasons",
    "last_updated",
    "origins",
    "warnings",
    "task_ids",
    "uncorrected_energy_per_atom",
    "equilibrium_reaction_energy_per_atom",
    "decomposes_to",
    "xas",
    "grain_boundaries",
    "cbm",
    "vbm",
    "is_gap_direct",
    "is_metal",
    "es_source_calc_id",
    "bandstructure",
    "dos",
    "dos_energy_up",
    "dos_energy_down",
    "is_magnetic",
    "ordering",
    "total_magnetization_normalized_vol",
    "total_magnetization_normalized_formula_units",
    "num_magnetic_sites",
    "num_unique_magnetic_sites",
    "types_of_magnetic_species",
    "bulk_modulus",
    "shear_modulus",
    "universal_anisotropy",
    "homogeneous_poisson",
    "e_total",
    "e_ionic",
    "e_electronic",
    "n",
    "e_ij_max",
    "weighted_surface_energy_EV_PER_ANG2",
    "weighted_surface_energy",
    "weighted_work_function",
    "surface_anisotropy",
    "shape_factor",
    "has_reconstructed",
    "possible_species",
    "has_props",
    "theoretical",
    "database_IDs"
  ]
}
