{"builder_meta": null, "nsites": null, "elements": null, "nelements": null, "composition": null, "composition_reduced": null, "formula_pretty": "FeRh3", "formula_anonymous": "AB3", "chemsys": null, "volume": 107.06461805095587, "density": 11.308471910676959, "density_atomic": 13.383077256369484, "symmetry": null, "property_name": null, "material_id": "mp-1184368", "deprecated": null, "deprecation_reasons": null, "last_updated": null, "origins": null, "warnings": null, "structure": {"@module": "pymatgen.core.structure", "@class": "Structure", "charge": 0, "lattice": {"matrix": [[5.35342357, 3.9e-06, 0.0], [-2.67670837, 4.63619618, 0.0], [0.0, -0.0, 4.31372423]], "pbc": [true, true, true], "a": 5.3534235700014206, "b": 5.35341785380841, "c": 4.31372423, "alpha": 90.0, "beta": 90.0, "gamma": 119.99995137727093, "volume": 107.06461805095587}, "properties": {}, "sites": [{"species": [{"element": "Fe", "occu": 1}], "abc": [0.333333999999999, 0.666667, 0.749999], "properties": {"magmom": 3.391}, "label": "Fe", "xyz": [4.953379584726747e-06, 3.09080029873466, 3.2352888587757698]}, {"species": [{"element": "Fe", "occu": 1}], "abc": [0.666665, 0.333331999999999, 0.25], "properties": {"magmom": 3.391}, "label": "Fe", "xyz": [2.6767075699052127, 1.5453951450652554, 1.0784310575]}, {"species": [{"element": "Rh", "occu": 1}], "abc": [0.16779913, 0.33559626, 0.25], "properties": {"magmom": 0.328}, "label": "Rh", "xyz": [6.499484797917177e-06, 1.5558907530508936, 1.0784310575]}, {"species": [{"element": "Rh", "occu": 1}], "abc": [0.66440074, 0.83219887, 0.25], "properties": {"magmom": 0.41500000000000004}, "label": "Rh", "xyz": [1.3292649006079005, 3.8582398132572027, 1.0784310575]}, {"species": [{"element": "Rh", "occu": 1}], "abc": [0.16779913, 0.8321998700000001, 0.25], "properties": {"magmom": 0.297}, "label": "Rh", "xyz": [-1.3292565399744178, 3.858242512707104, 1.0784310575]}, {"species": [{"element": "Rh", "occu": 1}], "abc": [0.83220083, 0.66440467, 0.749999], "properties": {"magmom": 0.328}, "label": "Rh", "xyz": [2.676705997039475, 3.0803136386113974, 3.2352888587757698]}, {"species": [{"element": "Rh", "occu": 1}], "abc": [0.33559533, 0.16779817, 0.749999], "properties": {"magmom": 0.41500000000000004}, "label": "Rh", "xyz": [1.3474371834942456, 0.7779465435867775, 3.2352888587757698]}, {"species": [{"element": "Rh", "occu": 1}], "abc": [0.83220183, 0.16779817, 0.749999], "properties": {"magmom": 0.297}, "label": "Rh", "xyz": [4.00598212560945, 0.7779484803521276, 3.2352888587757698]}]}, "task_ids": null, "uncorrected_energy_per_atom": null, "energy_per_atom": -7.6709720825000005, "formation_energy_per_atom": -0.030235877499998003, "energy_above_hull": 0.0, "is_stable": true, "equilibrium_reaction_energy_per_atom": null, "decomposes_to": null, "xas": null, "grain_boundaries": null, "band_gap": 0.0, "cbm": null, "vbm": null, "efermi": 6.39826031, "is_gap_direct": null, "is_metal": null, "es_source_calc_id": null, "bandstructure": null, "dos": null, "dos_energy_up": null, "dos_energy_down": null, "is_magnetic": null, "ordering": null, "total_magnetization": 6.8985841, "total_magnetization_normalized_vol": null, "total_magnetization_normalized_formula_units": null, "num_magnetic_sites": null, "num_unique_magnetic_sites": null, "types_of_magnetic_species": null, "bulk_modulus": null, "shear_modulus": null, "universal_anisotropy": null, "homogeneous_poisson": null, "e_total": null, "e_ionic": null, "e_electronic": null, "n": null, "e_ij_max": null, "weighted_surface_energy_EV_PER_ANG2": null, "weighted_surface_energy": null, "weighted_work_function": null, "surface_anisotropy": null, "shape_factor": null, "has_reconstructed": null, "possible_species": null, "has_props": null, "theoretical": null, "database_IDs": null, "fields_not_requested": ["builder_meta", "nsites", "elements", "nelements", "composition", "composition_reduced", "chemsys", "symmetry", "property_name", "deprecated", "deprecation_reasons", "last_updated", "origins", "warnings", "task_ids", "uncorrected_energy_per_atom", "equilibrium_reaction_energy_per_atom", "decomposes_to", "xas", "grain_boundaries", "cbm", "vbm", "is_gap_direct", "is_metal", "es_source_calc_id", "bandstructure", "dos", "dos_energy_up", "dos_energy_down", "is_magnetic", "ordering", "total_magnetization_normalized_vol", "total_magnetization_normalized_formula_units", "num_magnetic_sites", "num_unique_magnetic_sites", "types_of_magnetic_species", "bulk_modulus", "shear_modulus", "universal_anisotropy", "homogeneous_poisson", "e_total", "e_ionic", "e_electronic", "n", "e_ij_max", "weighted_surface_energy_EV_PER_ANG2", "weighted_surface_energy", "weighted_work_function", "surface_anisotropy", "shape_factor", "has_reconstructed", "possible_species", "has_props", "theoretical", "database_IDs"]}