{
  "builder_meta": null,
  "nsites": null,
  "elements": null,
  "nelements": null,
  "composition": null,
  "composition_reduced": null,
  "formula_pretty": "FeS",
  "formula_anonymous": "AB",
  "chemsys": null,
  "volume": 67.99139927450518,
  "density": 4.294013387059193,
  "density_atomic": 16.997849818626296,
  "symmetry": null,
  "property_name": null,
  "material_id": "mp-505531",
  "deprecated": null,
  "deprecation_reasons": null,
  "last_updated": null,
  "origins": null,
  "warnings": null,
  "structure": {
    "@module": "pymatgen.core.structure",
    "@class": "Structure",
    "charge": 0,
    "lattice": {
      "matrix": [
        [3.5924490000000002, 8e-6, 9e-6],
        [8e-6, 3.592451999999999, -6e-6],
        [1.3000000000000001e-5, -1e-5, 5.268323]
      ],
      "pbc": [true, true, true],
      "a": 3.5924490000201814,
      "b": 3.592452000013917,
      "c": 5.2683230000255294,
      "alpha": 90.00020444854053,
      "beta": 89.99971507788963,
      "gamma": 89.99974481719067,
      "volume": 67.99139927450517
    },
    "properties": {},
    "sites": [
      {
        "species": [{ "element": "Fe", "occu": 1 }],
        "abc": [0.25, 0.75, 0.0],
        "properties": { "magmom": 0.0 },
        "label": "Fe",
        "xyz": [0.89811825, 2.694340999999999, -2.25e-6]
      },
      {
        "species": [{ "element": "Fe", "occu": 1 }],
        "abc": [0.75, 0.25, 0.0],
        "properties": { "magmom": 0.0 },
        "label": "Fe",
        "xyz": [2.69433875, 0.8981189999999997, 5.25e-6]
      },
      {
        "species": [{ "element": "S", "occu": 1 }],
        "abc": [0.249999, 0.249999, 0.232104999999999],
        "properties": { "magmom": -0.0 },
        "label": "S",
        "xyz": [0.898113674908, 0.8981090864899998, 1.2228048599119947]
      },
      {
        "species": [{ "element": "S", "occu": 1 }],
        "abc": [0.750000999999999, 0.750000999999999, 0.767895999999999],
        "properties": { "magmom": -0.0 },
        "label": "S",
        "xyz": [2.6943563251049967, 2.694340913499996, 4.0455264084109945]
      }
    ]
  },
  "task_ids": null,
  "uncorrected_energy_per_atom": null,
  "energy_per_atom": -7.0611504925,
  "formation_energy_per_atom": -0.7569601037499991,
  "energy_above_hull": 0.0,
  "is_stable": true,
  "equilibrium_reaction_energy_per_atom": null,
  "decomposes_to": null,
  "xas": null,
  "grain_boundaries": null,
  "band_gap": 0.0,
  "cbm": null,
  "vbm": null,
  "efermi": 4.338625,
  "is_gap_direct": null,
  "is_metal": null,
  "es_source_calc_id": null,
  "bandstructure": null,
  "dos": null,
  "dos_energy_up": null,
  "dos_energy_down": null,
  "is_magnetic": null,
  "ordering": null,
  "total_magnetization": 1.8e-6,
  "total_magnetization_normalized_vol": null,
  "total_magnetization_normalized_formula_units": null,
  "num_magnetic_sites": null,
  "num_unique_magnetic_sites": null,
  "types_of_magnetic_species": null,
  "bulk_modulus": null,
  "shear_modulus": null,
  "universal_anisotropy": null,
  "homogeneous_poisson": null,
  "e_total": null,
  "e_ionic": null,
  "e_electronic": null,
  "n": null,
  "e_ij_max": null,
  "weighted_surface_energy_EV_PER_ANG2": null,
  "weighted_surface_energy": null,
  "weighted_work_function": null,
  "surface_anisotropy": null,
  "shape_factor": null,
  "has_reconstructed": null,
  "possible_species": null,
  "has_props": null,
  "theoretical": null,
  "database_IDs": null,
  "fields_not_requested": [
    "builder_meta",
    "nsites",
    "elements",
    "nelements",
    "composition",
    "composition_reduced",
    "chemsys",
    "symmetry",
    "property_name",
    "deprecated",
    "deprecation_reasons",
    "last_updated",
    "origins",
    "warnings",
    "task_ids",
    "uncorrected_energy_per_atom",
    "equilibrium_reaction_energy_per_atom",
    "decomposes_to",
    "xas",
    "grain_boundaries",
    "cbm",
    "vbm",
    "is_gap_direct",
    "is_metal",
    "es_source_calc_id",
    "bandstructure",
    "dos",
    "dos_energy_up",
    "dos_energy_down",
    "is_magnetic",
    "ordering",
    "total_magnetization_normalized_vol",
    "total_magnetization_normalized_formula_units",
    "num_magnetic_sites",
    "num_unique_magnetic_sites",
    "types_of_magnetic_species",
    "bulk_modulus",
    "shear_modulus",
    "universal_anisotropy",
    "homogeneous_poisson",
    "e_total",
    "e_ionic",
    "e_electronic",
    "n",
    "e_ij_max",
    "weighted_surface_energy_EV_PER_ANG2",
    "weighted_surface_energy",
    "weighted_work_function",
    "surface_anisotropy",
    "shape_factor",
    "has_reconstructed",
    "possible_species",
    "has_props",
    "theoretical",
    "database_IDs"
  ]
}
