{
  "builder_meta": null,
  "nsites": null,
  "elements": null,
  "nelements": null,
  "composition": null,
  "composition_reduced": null,
  "formula_pretty": "FeS2",
  "formula_anonymous": "AB2",
  "chemsys": null,
  "volume": 80.66959748929806,
  "density": 4.9392380950398245,
  "density_atomic": 13.44493291488301,
  "symmetry": null,
  "property_name": null,
  "material_id": "mp-1522",
  "deprecated": null,
  "deprecation_reasons": null,
  "last_updated": null,
  "origins": null,
  "warnings": null,
  "structure": {
    "@module": "pymatgen.core.structure",
    "@class": "Structure",
    "charge": 0,
    "lattice": {
      "matrix": [
        [3.37769817, 0.0, 0.0],
        [0.0, 4.42562487, -0.0],
        [0.0, 0.0, 5.39652822]
      ],
      "pbc": [true, true, true],
      "a": 3.37769817,
      "b": 4.42562487,
      "c": 5.39652822,
      "alpha": 90.0,
      "beta": 90.0,
      "gamma": 90.0,
      "volume": 80.66959748929806
    },
    "properties": {},
    "sites": [
      {
        "species": [{ "element": "Fe", "occu": 1 }],
        "abc": [0.5, 0.5, 0.5],
        "properties": { "magmom": 0.0 },
        "label": "Fe",
        "xyz": [1.688849085, 2.212812435, 2.69826411]
      },
      {
        "species": [{ "element": "Fe", "occu": 1 }],
        "abc": [0.0, 0.0, 0.0],
        "properties": { "magmom": 0.0 },
        "label": "Fe",
        "xyz": [0.0, 0.0, 0.0]
      },
      {
        "species": [{ "element": "S", "occu": 1 }],
        "abc": [0.5, 0.29959281, 0.87818467],
        "properties": { "magmom": 0.0 },
        "label": "S",
        "xyz": [1.688849085, 1.3258853908091845, 4.739148354026388]
      },
      {
        "species": [{ "element": "S", "occu": 1 }],
        "abc": [0.5, 0.7004071900000001, 0.12181533],
        "properties": { "magmom": 0.0 },
        "label": "S",
        "xyz": [1.688849085, 3.0997394791908155, 0.6573798659736126]
      },
      {
        "species": [{ "element": "S", "occu": 1 }],
        "abc": [-0.0, 0.20040719, 0.37818467],
        "properties": { "magmom": 0.0 },
        "label": "S",
        "xyz": [0.0, 0.8869270441908154, 2.0408842440263877]
      },
      {
        "species": [{ "element": "S", "occu": 1 }],
        "abc": [-0.0, 0.79959281, 0.62181533],
        "properties": { "magmom": 0.0 },
        "label": "S",
        "xyz": [0.0, 3.538697825809185, 3.3556439759736127]
      }
    ]
  },
  "task_ids": null,
  "uncorrected_energy_per_atom": null,
  "energy_per_atom": -6.429082515,
  "formation_energy_per_atom": -0.8468357333333321,
  "energy_above_hull": 0.0,
  "is_stable": true,
  "equilibrium_reaction_energy_per_atom": null,
  "decomposes_to": null,
  "xas": null,
  "grain_boundaries": null,
  "band_gap": 0.8770000000000001,
  "cbm": null,
  "vbm": null,
  "efermi": 7.70109249,
  "is_gap_direct": null,
  "is_metal": null,
  "es_source_calc_id": null,
  "bandstructure": null,
  "dos": null,
  "dos_energy_up": null,
  "dos_energy_down": null,
  "is_magnetic": null,
  "ordering": null,
  "total_magnetization": 0.0,
  "total_magnetization_normalized_vol": null,
  "total_magnetization_normalized_formula_units": null,
  "num_magnetic_sites": null,
  "num_unique_magnetic_sites": null,
  "types_of_magnetic_species": null,
  "bulk_modulus": null,
  "shear_modulus": null,
  "universal_anisotropy": null,
  "homogeneous_poisson": null,
  "e_total": null,
  "e_ionic": null,
  "e_electronic": null,
  "n": null,
  "e_ij_max": null,
  "weighted_surface_energy_EV_PER_ANG2": null,
  "weighted_surface_energy": null,
  "weighted_work_function": null,
  "surface_anisotropy": null,
  "shape_factor": null,
  "has_reconstructed": null,
  "possible_species": null,
  "has_props": null,
  "theoretical": null,
  "database_IDs": null,
  "fields_not_requested": [
    "builder_meta",
    "nsites",
    "elements",
    "nelements",
    "composition",
    "composition_reduced",
    "chemsys",
    "symmetry",
    "property_name",
    "deprecated",
    "deprecation_reasons",
    "last_updated",
    "origins",
    "warnings",
    "task_ids",
    "uncorrected_energy_per_atom",
    "equilibrium_reaction_energy_per_atom",
    "decomposes_to",
    "xas",
    "grain_boundaries",
    "cbm",
    "vbm",
    "is_gap_direct",
    "is_metal",
    "es_source_calc_id",
    "bandstructure",
    "dos",
    "dos_energy_up",
    "dos_energy_down",
    "is_magnetic",
    "ordering",
    "total_magnetization_normalized_vol",
    "total_magnetization_normalized_formula_units",
    "num_magnetic_sites",
    "num_unique_magnetic_sites",
    "types_of_magnetic_species",
    "bulk_modulus",
    "shear_modulus",
    "universal_anisotropy",
    "homogeneous_poisson",
    "e_total",
    "e_ionic",
    "e_electronic",
    "n",
    "e_ij_max",
    "weighted_surface_energy_EV_PER_ANG2",
    "weighted_surface_energy",
    "weighted_work_function",
    "surface_anisotropy",
    "shape_factor",
    "has_reconstructed",
    "possible_species",
    "has_props",
    "theoretical",
    "database_IDs"
  ]
}
