{"builder_meta": null, "nsites": null, "elements": null, "nelements": null, "composition": null, "composition_reduced": null, "formula_pretty": "FeSb3", "formula_anonymous": "AB3", "chemsys": null, "volume": 384.72751687714106, "density": 7.270543267589957, "density_atomic": 24.045469804821316, "symmetry": null, "property_name": null, "material_id": "mp-971669", "deprecated": null, "deprecation_reasons": null, "last_updated": null, "origins": null, "warnings": null, "structure": {"@module": "pymatgen.core.structure", "@class": "Structure", "charge": 0, "lattice": {"matrix": [[-4.58170245, -4.58194183, 4.58154761], [-4.58160981, 4.58152827, -4.58181939], [4.5817282200000005, -4.58214861, -4.58125877]], "pbc": [true, true, true], "a": 7.93579024272545, "b": 7.935654898146554, "c": 7.935757763677721, "alpha": 109.47375130601982, "beta": 109.46549115542622, "gamma": 109.47184715013745, "volume": 384.72751687714106}, "properties": {}, "sites": [{"species": [{"element": "Fe", "occu": 1}], "abc": [0.5, 0.5, 0.5], "properties": {"magmom": 1.263}, "label": "Fe", "xyz": [-2.2907920199999996, -2.291281085, -2.2907652749999996]}, {"species": [{"element": "Fe", "occu": 1}], "abc": [0.5, -0.0, 0.0], "properties": {"magmom": 1.2610000000000001}, "label": "Fe", "xyz": [-2.290851225, -2.290970915, 2.290773805]}, {"species": [{"element": "Fe", "occu": 1}], "abc": [0.0, -0.0, 0.5], "properties": {"magmom": 1.263}, "label": "Fe", "xyz": [2.2908641100000002, -2.291074305, -2.290629385]}, {"species": [{"element": "Fe", "occu": 1}], "abc": [0.0, 0.5, 0.0], "properties": {"magmom": 1.263}, "label": "Fe", "xyz": [-2.290804905, 2.290764135, -2.290909695]}, {"species": [{"element": "Sb", "occu": 1}], "abc": [0.66313498, 0.84191827, 0.50504038], "properties": {"magmom": -0.054}, "label": "Sb", "xyz": [-4.581670406311406, -1.4953436239745925, -3.133053641633989]}, {"species": [{"element": "Sb", "occu": 1}], "abc": [0.84193693, 0.5050198300000001, 0.66310979], "properties": {"magmom": -0.055}, "label": "Sb", "xyz": [-3.133119464497736, -4.5824110122590795, -1.494413060926624]}, {"species": [{"element": "Sb", "occu": 1}], "abc": [0.50517687, 0.6632647700000001, 0.84195193], "properties": {"magmom": -0.054}, "label": "Sb", "xyz": [-1.4957955622572596, -3.133873603687741, -4.581667165745036]}, {"species": [{"element": "Sb", "occu": 1}], "abc": [0.66321431, 0.15801586, 0.821257199999999], "properties": {"magmom": -0.055}, "label": "Sb", "xyz": [0.00015964580453387, -6.077977796977713, -1.4478439443028654]}, {"species": [{"element": "Sb", "occu": 1}], "abc": [0.84192051, 0.17868533, 0.33676139], "properties": {"magmom": -0.055}, "label": "Sb", "xyz": [-3.133146560233911, -4.582069646564822, 1.4958039193630426]}, {"species": [{"element": "Sb", "occu": 1}], "abc": [0.15807949000000002, 0.82131467, 0.6632386100000001], "properties": {"magmom": -0.055}, "label": "Sb", "xyz": [-1.4484374797660884, -0.0004925234351782493, -6.077334469363042]}, {"species": [{"element": "Sb", "occu": 1}], "abc": [0.17881903, 0.33690449, 0.841936999999999], "properties": {"magmom": -0.055}, "label": "Sb", "xyz": [1.4946660080874654, -3.133681402589658, -4.581498890378528]}, {"species": [{"element": "Sb", "occu": 1}], "abc": [0.15806307, 0.49498017, 0.33689021], "properties": {"magmom": -0.055}, "label": "Sb", "xyz": [-1.4484645755022627, -0.00015115774092056, -3.087117489073375]}, {"species": [{"element": "Sb", "occu": 1}], "abc": [0.33686502, 0.15808173, 0.49495962], "properties": {"magmom": -0.054}, "label": "Sb", "xyz": [8.636631140657158e-05, -3.0872185460254076, -1.4484769083660094]}, {"species": [{"element": "Sb", "occu": 1}], "abc": [0.49482313, 0.33673523, 0.15804807], "properties": {"magmom": -0.054}, "label": "Sb", "xyz": [-3.0857884777427396, -1.4486885663122586, 0.00013661574503609497]}, {"species": [{"element": "Sb", "occu": 1}], "abc": [0.33678569, 0.84198414, 0.178742799999999], "properties": {"magmom": -0.055}, "label": "Sb", "xyz": [-4.5817436858045415, 1.4954156269777212, -3.133686605697125]}, {"species": [{"element": "Sb", "occu": 1}], "abc": [0.82118097, 0.66309551, 0.158062999999999], "properties": {"magmom": -0.055}, "label": "Sb", "xyz": [-6.076250048087474, -1.448880767410333, -3.1659621462343246e-05]}]}, "task_ids": null, "uncorrected_energy_per_atom": null, "energy_per_atom": -5.381266320624999, "formation_energy_per_atom": -0.167010088124998, "energy_above_hull": 0.0, "is_stable": true, "equilibrium_reaction_energy_per_atom": null, "decomposes_to": null, "xas": null, "grain_boundaries": null, "band_gap": 0.0, "cbm": null, "vbm": null, "efermi": 6.97665143, "is_gap_direct": null, "is_metal": null, "es_source_calc_id": null, "bandstructure": null, "dos": null, "dos_energy_up": null, "dos_energy_down": null, "is_magnetic": null, "ordering": null, "total_magnetization": 3.9818335, "total_magnetization_normalized_vol": null, "total_magnetization_normalized_formula_units": null, "num_magnetic_sites": null, "num_unique_magnetic_sites": null, "types_of_magnetic_species": null, "bulk_modulus": null, "shear_modulus": null, "universal_anisotropy": null, "homogeneous_poisson": null, "e_total": null, "e_ionic": null, "e_electronic": null, "n": null, "e_ij_max": null, "weighted_surface_energy_EV_PER_ANG2": null, "weighted_surface_energy": null, "weighted_work_function": null, "surface_anisotropy": null, "shape_factor": null, "has_reconstructed": null, "possible_species": null, "has_props": null, "theoretical": null, "database_IDs": null, "fields_not_requested": ["builder_meta", "nsites", "elements", "nelements", "composition", "composition_reduced", "chemsys", "symmetry", "property_name", "deprecated", "deprecation_reasons", "last_updated", "origins", "warnings", "task_ids", "uncorrected_energy_per_atom", "equilibrium_reaction_energy_per_atom", "decomposes_to", "xas", "grain_boundaries", "cbm", "vbm", "is_gap_direct", "is_metal", "es_source_calc_id", "bandstructure", "dos", "dos_energy_up", "dos_energy_down", "is_magnetic", "ordering", "total_magnetization_normalized_vol", "total_magnetization_normalized_formula_units", "num_magnetic_sites", "num_unique_magnetic_sites", "types_of_magnetic_species", "bulk_modulus", "shear_modulus", "universal_anisotropy", "homogeneous_poisson", "e_total", "e_ionic", "e_electronic", "n", "e_ij_max", "weighted_surface_energy_EV_PER_ANG2", "weighted_surface_energy", "weighted_work_function", "surface_anisotropy", "shape_factor", "has_reconstructed", "possible_species", "has_props", "theoretical", "database_IDs"]}