{"builder_meta": null, "nsites": null, "elements": null, "nelements": null, "composition": null, "composition_reduced": null, "formula_pretty": "FeSe", "formula_anonymous": "AB", "chemsys": null, "volume": 90.60598544313967, "density": 4.941151906868024, "density_atomic": 22.65149636078492, "symmetry": null, "property_name": null, "material_id": "mp-20311", "deprecated": null, "deprecation_reasons": null, "last_updated": null, "origins": null, "warnings": null, "structure": {"@module": "pymatgen.core.structure", "@class": "Structure", "charge": 0, "lattice": {"matrix": [[3.93329079, -5.04e-06, 4.48e-06], [-3.95e-06, 3.9332895, 1.1e-07], [-1.669999999999999e-06, 4.55e-06, 5.85659133]], "pbc": [true, true, true], "a": 3.9332907900057803, "b": 3.933289500001985, "c": 5.856591330002005, "alpha": 89.99995388439615, "beta": 89.9999510782523, "gamma": 90.0001309562787, "volume": 90.60598544313967}, "properties": {}, "sites": [{"species": [{"element": "Fe", "occu": 1}], "abc": [0.25, 0.75, -0.0], "properties": {"magmom": 3.445}, "label": "Fe", "xyz": [0.983319735, 2.949965865, 1.2025000000000001e-06]}, {"species": [{"element": "Fe", "occu": 1}], "abc": [0.75, 0.25, -0.0], "properties": {"magmom": 3.445}, "label": "Fe", "xyz": [2.949967105, 0.983318595, 3.3875e-06]}, {"species": [{"element": "Se", "occu": 1}], "abc": [0.249999, 0.25, 0.25764554], "properties": {"magmom": 0.22}, "label": "Se", "xyz": [0.9833173464411582, 0.9833222872922469, 1.5089257832726881]}, {"species": [{"element": "Se", "occu": 1}], "abc": [0.750000999999999, 0.75, 0.74235446], "properties": {"magmom": 0.22}, "label": "Se", "xyz": [2.949967823558838, 2.9499667227077526, 4.347670136727311]}]}, "task_ids": null, "uncorrected_energy_per_atom": null, "energy_per_atom": -6.490885105, "formation_energy_per_atom": -0.5079187611718751, "energy_above_hull": 0.0, "is_stable": true, "equilibrium_reaction_energy_per_atom": null, "decomposes_to": null, "xas": null, "grain_boundaries": null, "band_gap": 0.0, "cbm": null, "vbm": null, "efermi": 4.00925635, "is_gap_direct": null, "is_metal": null, "es_source_calc_id": null, "bandstructure": null, "dos": null, "dos_energy_up": null, "dos_energy_down": null, "is_magnetic": null, "ordering": null, "total_magnetization": 7.7262373, "total_magnetization_normalized_vol": null, "total_magnetization_normalized_formula_units": null, "num_magnetic_sites": null, "num_unique_magnetic_sites": null, "types_of_magnetic_species": null, "bulk_modulus": null, "shear_modulus": null, "universal_anisotropy": null, "homogeneous_poisson": null, "e_total": null, "e_ionic": null, "e_electronic": null, "n": null, "e_ij_max": null, "weighted_surface_energy_EV_PER_ANG2": null, "weighted_surface_energy": null, "weighted_work_function": null, "surface_anisotropy": null, "shape_factor": null, "has_reconstructed": null, "possible_species": null, "has_props": null, "theoretical": null, "database_IDs": null, "fields_not_requested": ["builder_meta", "nsites", "elements", "nelements", "composition", "composition_reduced", "chemsys", "symmetry", "property_name", "deprecated", "deprecation_reasons", "last_updated", "origins", "warnings", "task_ids", "uncorrected_energy_per_atom", "equilibrium_reaction_energy_per_atom", "decomposes_to", "xas", "grain_boundaries", "cbm", "vbm", "is_gap_direct", "is_metal", "es_source_calc_id", "bandstructure", "dos", "dos_energy_up", "dos_energy_down", "is_magnetic", "ordering", "total_magnetization_normalized_vol", "total_magnetization_normalized_formula_units", "num_magnetic_sites", "num_unique_magnetic_sites", "types_of_magnetic_species", "bulk_modulus", "shear_modulus", "universal_anisotropy", "homogeneous_poisson", "e_total", "e_ionic", "e_electronic", "n", "e_ij_max", "weighted_surface_energy_EV_PER_ANG2", "weighted_surface_energy", "weighted_work_function", "surface_anisotropy", "shape_factor", "has_reconstructed", "possible_species", "has_props", "theoretical", "database_IDs"]}