{"builder_meta": null, "nsites": null, "elements": null, "nelements": null, "composition": null, "composition_reduced": null, "formula_pretty": "FeSi2", "formula_anonymous": "AB2", "chemsys": null, "volume": 292.7460250559444, "density": 5.083093963068341, "density_atomic": 12.197751043997684, "symmetry": null, "property_name": null, "material_id": "mp-1714", "deprecated": null, "deprecation_reasons": null, "last_updated": null, "origins": null, "warnings": null, "structure": {"@module": "pymatgen.core.structure", "@class": "Structure", "charge": 0, "lattice": {"matrix": [[6.23643629, -0.02154149, 1.6600000000000004e-05], [-1.46496742, 6.06196959, 1.5740000000000002e-05], [1.9990000000000003e-05, 2.5440000000000004e-05, 7.750031]], "pbc": [true, true, true], "a": 6.236473493513458, "b": 6.2364737514074395, "c": 7.750031000067534, "alpha": 89.99970729401302, "beta": 89.99970035731323, "gamma": 103.7838212714613, "volume": 292.7460250559445}, "properties": {}, "sites": [{"species": [{"element": "Fe", "occu": 1}], "abc": [0.19320295, 0.19320309, 0.81220737], "properties": {"magmom": 0.0}, "label": "Fe", "xyz": [0.9218778924470542, 1.1670500394141305, 6.294638544114076]}, {"species": [{"element": "Fe", "occu": 1}], "abc": [0.30679151, 0.30679152, 0.31217883], "properties": {"magmom": 0.0}, "label": "Fe", "xyz": [1.4638523653504312, 1.8531600602945622, 2.4194055316813206]}, {"species": [{"element": "Fe", "occu": 1}], "abc": [0.69320851, 0.6932086, 0.68782127], "properties": {"magmom": 0.0}, "label": "Fe", "xyz": [3.307636443584204, 4.187294206713503, 5.3306585833239994]}, {"species": [{"element": "Fe", "occu": 1}], "abc": [0.80679659, 0.8067966, 0.18779234], "properties": {"magmom": 0.0}, "label": "Fe", "xyz": [3.8496085529263557, 4.873401631277004, 1.4554225483644179]}, {"species": [{"element": "Fe", "occu": 1}], "abc": [0.7170223800000001, 0.28297756, 0.50000042], "properties": {"magmom": -0.0}, "label": "Fe", "xyz": [4.057121480391472, 1.699968352954539, 3.8750351116513224]}, {"species": [{"element": "Fe", "occu": 1}], "abc": [0.78298415, 0.21701556, -2.6e-07], "properties": {"magmom": -0.0}, "label": "Fe", "xyz": [4.565110042516551, 1.2986750800328224, 1.4398353744400002e-05]}, {"species": [{"element": "Fe", "occu": 1}], "abc": [0.28297751, 0.71702245, 0.50000036], "properties": {"magmom": -0.0}, "label": "Fe", "xyz": [0.7143666789664554, 4.340485250054564, 3.875034273371189]}, {"species": [{"element": "Fe", "occu": 1}], "abc": [0.2170155, 0.78298417, -2.2e-07], "properties": {"magmom": -0.0}, "label": "Fe", "xyz": [0.20635704026235605, 4.741751390762699, 1.4221621315800002e-05]}, {"species": [{"element": "Si", "occu": 1}], "abc": [0.67103569, 0.41770269, 0.22705789], "properties": {"magmom": 0.0}, "label": "Si", "xyz": [3.5729550357920514, 2.5176516721881406, 1.7597234001273847]}, {"species": [{"element": "Si", "occu": 1}], "abc": [0.82896867, 0.0822961, 0.72709265], "properties": {"magmom": 0.0}, "label": "Si", "xyz": [5.049263726150047, 0.48103773249749676, 5.635005633592686]}, {"species": [{"element": "Si", "occu": 1}], "abc": [0.91770379, 0.17103121000000002, 0.27290746], "properties": {"magmom": -0.0}, "label": "Si", "xyz": [5.472651524393487, 1.0170242297114396, 2.115059201045419]}, {"species": [{"element": "Si", "occu": 1}], "abc": [0.58229769, 0.32896458, 0.77294206], "properties": {"magmom": -0.0}, "label": "Si", "xyz": [3.149555504576966, 1.9816493839269707, 5.990339770248003]}, {"species": [{"element": "Si", "occu": 1}], "abc": [0.32896447, 0.58229763, 0.7729421200000001], "properties": {"magmom": 0.0}, "label": "Si", "xyz": [1.1985343532483808, 3.522803804195745, 5.9903400173806185]}, {"species": [{"element": "Si", "occu": 1}], "abc": [0.17103122, 0.91770384, 0.27290752], "properties": {"magmom": -0.0}, "label": "Si", "xyz": [-0.2777754642565943, 5.559415446158217, 2.1150590239098137]}, {"species": [{"element": "Si", "occu": 1}], "abc": [0.08229601, 0.8289687800000001, 0.72709268], "properties": {"magmom": 0.0}, "label": "Si", "xyz": [-0.7011638970282715, 5.023429253980725, 5.635005223955443]}, {"species": [{"element": "Si", "occu": 1}], "abc": [0.41770271000000003, 0.67103576, 0.22705771], "properties": {"magmom": 0.0}, "label": "Si", "xyz": [1.6219353519040298, 4.0588062085202425, 1.7597217872568585]}, {"species": [{"element": "Si", "occu": 1}], "abc": [0.40155617, 0.14524061, 0.04936191], "properties": {"magmom": -0.0}, "label": "Si", "xyz": [2.291507696095064, 0.871795298599547, 0.38256528463883344]}, {"species": [{"element": "Si", "occu": 1}], "abc": [0.09844845, 0.35474651, 0.54936948], "properties": {"magmom": -0.0}, "label": "Si", "xyz": [0.09428638866145156, 2.148355805437012, 4.257637718408217]}, {"species": [{"element": "Si", "occu": 1}], "abc": [0.64525348, 0.9015514, 0.45063041000000004], "properties": {"magmom": 0.0}, "label": "Si", "xyz": [2.703347798567298, 5.451288913272672, 3.4924245486695145]}, {"species": [{"element": "Si", "occu": 1}], "abc": [0.85475924, 0.598444, 0.95063758], "properties": {"magmom": 0.0}, "label": "Si", "xyz": [4.453969584099564, 3.6093607259171274, 7.367494323276923]}, {"species": [{"element": "Si", "occu": 1}], "abc": [0.59844396, 0.85475923, 0.95063766], "properties": {"magmom": -0.0}, "label": "Si", "xyz": [2.4799822090278454, 5.168657268673986, 7.367494722847476]}, {"species": [{"element": "Si", "occu": 1}], "abc": [0.90155131, 0.64525345, 0.45063037], "properties": {"magmom": 0.0}, "label": "Si", "xyz": [4.6772010331895375, 3.892097497250347, 3.4924244590825193]}, {"species": [{"element": "Si", "occu": 1}], "abc": [0.35474635, 0.098448399999999, 0.54936946], "properties": {"magmom": 0.0}, "label": "Si", "xyz": [2.0681402942294205, 0.5891634179921509, 4.257637783820486]}, {"species": [{"element": "Si", "occu": 1}], "abc": [0.14524069, 0.40155624, 0.04936193], "properties": {"magmom": -0.0}, "label": "Si", "xyz": [0.31751848774792013, 2.431094270451013, 0.3825652192105016]}]}, "task_ids": null, "uncorrected_energy_per_atom": null, "energy_per_atom": -6.835854183333333, "formation_energy_per_atom": -0.395635093333333, "energy_above_hull": 0.0, "is_stable": true, "equilibrium_reaction_energy_per_atom": null, "decomposes_to": null, "xas": null, "grain_boundaries": null, "band_gap": 0.6966000000000001, "cbm": null, "vbm": null, "efermi": 9.10604776, "is_gap_direct": null, "is_metal": null, "es_source_calc_id": null, "bandstructure": null, "dos": null, "dos_energy_up": null, "dos_energy_down": null, "is_magnetic": null, "ordering": null, "total_magnetization": 0.0, "total_magnetization_normalized_vol": null, "total_magnetization_normalized_formula_units": null, "num_magnetic_sites": null, "num_unique_magnetic_sites": null, "types_of_magnetic_species": null, "bulk_modulus": null, "shear_modulus": null, "universal_anisotropy": null, "homogeneous_poisson": null, "e_total": null, "e_ionic": null, "e_electronic": null, "n": null, "e_ij_max": null, "weighted_surface_energy_EV_PER_ANG2": null, "weighted_surface_energy": null, "weighted_work_function": null, "surface_anisotropy": null, "shape_factor": null, "has_reconstructed": null, "possible_species": null, "has_props": null, "theoretical": null, "database_IDs": null, "fields_not_requested": ["builder_meta", "nsites", "elements", "nelements", "composition", "composition_reduced", "chemsys", "symmetry", "property_name", "deprecated", "deprecation_reasons", "last_updated", "origins", "warnings", "task_ids", "uncorrected_energy_per_atom", "equilibrium_reaction_energy_per_atom", "decomposes_to", "xas", "grain_boundaries", "cbm", "vbm", "is_gap_direct", "is_metal", "es_source_calc_id", "bandstructure", "dos", "dos_energy_up", "dos_energy_down", "is_magnetic", "ordering", "total_magnetization_normalized_vol", "total_magnetization_normalized_formula_units", "num_magnetic_sites", "num_unique_magnetic_sites", "types_of_magnetic_species", "bulk_modulus", "shear_modulus", "universal_anisotropy", "homogeneous_poisson", "e_total", "e_ionic", "e_electronic", "n", "e_ij_max", "weighted_surface_energy_EV_PER_ANG2", "weighted_surface_energy", "weighted_work_function", "surface_anisotropy", "shape_factor", "has_reconstructed", "possible_species", "has_props", "theoretical", "database_IDs"]}