{
  "builder_meta": null,
  "nsites": null,
  "elements": null,
  "nelements": null,
  "composition": null,
  "composition_reduced": null,
  "formula_pretty": "FeSn3",
  "formula_anonymous": "AB3",
  "chemsys": null,
  "volume": 174.35265600048106,
  "density": 7.847320455624691,
  "density_atomic": 21.794082000060133,
  "symmetry": null,
  "property_name": null,
  "material_id": "mp-1184775",
  "deprecated": null,
  "deprecation_reasons": null,
  "last_updated": null,
  "origins": null,
  "warnings": null,
  "structure": {
    "@module": "pymatgen.core.structure",
    "@class": "Structure",
    "charge": 0,
    "lattice": {
      "matrix": [
        [3.321211, -5.752507, 0.0],
        [3.321211, 5.752507, 0.0],
        [0.0, 0.0, 4.562942]
      ],
      "pbc": [true, true, true],
      "a": 6.642422697447821,
      "b": 6.642422697447821,
      "c": 4.562942,
      "alpha": 90.0,
      "beta": 90.0,
      "gamma": 120.00000694667864,
      "volume": 174.35265600048106
    },
    "properties": {},
    "sites": [
      {
        "species": [{ "element": "Fe", "occu": 1 }],
        "abc": [0.333333, 0.666667, 0.75],
        "properties": { "magmom": 2.519 },
        "label": "Fe",
        "xyz": [3.321211, 1.917506168338, 3.4222064999999997]
      },
      {
        "species": [{ "element": "Fe", "occu": 1 }],
        "abc": [0.666667, 0.333333, 0.25],
        "properties": { "magmom": 2.512 },
        "label": "Fe",
        "xyz": [3.321211, -1.917506168338, 1.1407355]
      },
      {
        "species": [{ "element": "Sn", "occu": 1 }],
        "abc": [0.182111, 0.364222, 0.25],
        "properties": { "magmom": -0.01 },
        "label": "Sn",
        "xyz": [1.8144871692629998, 1.0475948022769999, 1.1407355]
      },
      {
        "species": [{ "element": "Sn", "occu": 1 }],
        "abc": [0.635778, 0.817889, 0.25],
        "properties": { "magmom": -0.01 },
        "label": "Sn",
        "xyz": [4.827934830737, 1.0475948022770005, 1.1407355]
      },
      {
        "species": [{ "element": "Sn", "occu": 1 }],
        "abc": [0.182111, 0.817889, 0.25],
        "properties": { "magmom": -0.011 },
        "label": "Sn",
        "xyz": [3.321211, 3.6573173954460003, 1.1407355]
      },
      {
        "species": [{ "element": "Sn", "occu": 1 }],
        "abc": [0.817889, 0.635778, 0.75],
        "properties": { "magmom": -0.01 },
        "label": "Sn",
        "xyz": [4.827934830737, -1.0475948022770005, 3.4222064999999997]
      },
      {
        "species": [{ "element": "Sn", "occu": 1 }],
        "abc": [0.364222, 0.182111, 0.75],
        "properties": { "magmom": -0.009000000000000001 },
        "label": "Sn",
        "xyz": [1.8144871692629998, -1.0475948022769999, 3.4222064999999997]
      },
      {
        "species": [{ "element": "Sn", "occu": 1 }],
        "abc": [0.817889, 0.182111, 0.75],
        "properties": { "magmom": -0.01 },
        "label": "Sn",
        "xyz": [3.321211, -3.6573173954460003, 3.4222064999999997]
      }
    ]
  },
  "task_ids": null,
  "uncorrected_energy_per_atom": null,
  "energy_per_atom": -4.64937190125,
  "formation_energy_per_atom": 0.4753122925,
  "energy_above_hull": 0.47667475874999904,
  "is_stable": false,
  "equilibrium_reaction_energy_per_atom": null,
  "decomposes_to": null,
  "xas": null,
  "grain_boundaries": null,
  "band_gap": 0.0,
  "cbm": null,
  "vbm": null,
  "efermi": 8.42577871,
  "is_gap_direct": null,
  "is_metal": null,
  "es_source_calc_id": null,
  "bandstructure": null,
  "dos": null,
  "dos_energy_up": null,
  "dos_energy_down": null,
  "is_magnetic": null,
  "ordering": null,
  "total_magnetization": 5.1078244,
  "total_magnetization_normalized_vol": null,
  "total_magnetization_normalized_formula_units": null,
  "num_magnetic_sites": null,
  "num_unique_magnetic_sites": null,
  "types_of_magnetic_species": null,
  "bulk_modulus": null,
  "shear_modulus": null,
  "universal_anisotropy": null,
  "homogeneous_poisson": null,
  "e_total": null,
  "e_ionic": null,
  "e_electronic": null,
  "n": null,
  "e_ij_max": null,
  "weighted_surface_energy_EV_PER_ANG2": null,
  "weighted_surface_energy": null,
  "weighted_work_function": null,
  "surface_anisotropy": null,
  "shape_factor": null,
  "has_reconstructed": null,
  "possible_species": null,
  "has_props": null,
  "theoretical": null,
  "database_IDs": null,
  "fields_not_requested": [
    "builder_meta",
    "nsites",
    "elements",
    "nelements",
    "composition",
    "composition_reduced",
    "chemsys",
    "symmetry",
    "property_name",
    "deprecated",
    "deprecation_reasons",
    "last_updated",
    "origins",
    "warnings",
    "task_ids",
    "uncorrected_energy_per_atom",
    "equilibrium_reaction_energy_per_atom",
    "decomposes_to",
    "xas",
    "grain_boundaries",
    "cbm",
    "vbm",
    "is_gap_direct",
    "is_metal",
    "es_source_calc_id",
    "bandstructure",
    "dos",
    "dos_energy_up",
    "dos_energy_down",
    "is_magnetic",
    "ordering",
    "total_magnetization_normalized_vol",
    "total_magnetization_normalized_formula_units",
    "num_magnetic_sites",
    "num_unique_magnetic_sites",
    "types_of_magnetic_species",
    "bulk_modulus",
    "shear_modulus",
    "universal_anisotropy",
    "homogeneous_poisson",
    "e_total",
    "e_ionic",
    "e_electronic",
    "n",
    "e_ij_max",
    "weighted_surface_energy_EV_PER_ANG2",
    "weighted_surface_energy",
    "weighted_work_function",
    "surface_anisotropy",
    "shape_factor",
    "has_reconstructed",
    "possible_species",
    "has_props",
    "theoretical",
    "database_IDs"
  ]
}
