{
  "builder_meta": null,
  "nsites": null,
  "elements": null,
  "nelements": null,
  "composition": null,
  "composition_reduced": null,
  "formula_pretty": "Ga2Au7",
  "formula_anonymous": "A2B7",
  "chemsys": null,
  "volume": 463.5966070840176,
  "density": 16.314077393764432,
  "density_atomic": 17.170244706815467,
  "symmetry": null,
  "property_name": null,
  "material_id": "mp-571598",
  "deprecated": null,
  "deprecation_reasons": null,
  "last_updated": null,
  "origins": null,
  "warnings": null,
  "structure": {
    "@module": "pymatgen.core.structure",
    "@class": "Structure",
    "charge": 0,
    "lattice": {
      "matrix": [
        [7.7234633, -0.0, 0.0],
        [-3.86173216, 6.68871513, -0.0],
        [0.0, -0.0, 8.97398753]
      ],
      "pbc": [true, true, true],
      "a": 7.7234633,
      "b": 7.723463301257357,
      "c": 8.97398753,
      "alpha": 90.0,
      "beta": 90.0,
      "gamma": 120.00000436329337,
      "volume": 463.5966070840176
    },
    "properties": {},
    "sites": [
      {
        "species": [{ "element": "Ga", "occu": 1 }],
        "abc": [0.333333, 0.666667, 0.19108084],
        "properties": { "magmom": -0.0 },
        "label": "Ga",
        "xyz": [-4.20173181980843e-6, 4.459145649571711, 1.7147570753819252]
      },
      {
        "species": [{ "element": "Ga", "occu": 1 }],
        "abc": [0.0, 0.0, 0.69598168],
        "properties": { "magmom": 0.0 },
        "label": "Ga",
        "xyz": [0.0, 0.0, 6.245730917428451]
      },
      {
        "species": [{ "element": "Ga", "occu": 1 }],
        "abc": [0.333333, 0.666667, 0.80891916],
        "properties": { "magmom": -0.0 },
        "label": "Ga",
        "xyz": [-4.20173181980843e-6, 4.459145649571711, 7.259230454618075]
      },
      {
        "species": [{ "element": "Ga", "occu": 1 }],
        "abc": [0.666667, 0.333333, 0.80891916],
        "properties": { "magmom": -0.0 },
        "label": "Ga",
        "xyz": [3.86173534173182, 2.22956948042829, 7.259230454618075]
      },
      {
        "species": [{ "element": "Ga", "occu": 1 }],
        "abc": [0.666667, 0.333333, 0.19108084],
        "properties": { "magmom": -0.0 },
        "label": "Ga",
        "xyz": [3.86173534173182, 2.22956948042829, 1.7147570753819252]
      },
      {
        "species": [{ "element": "Ga", "occu": 1 }],
        "abc": [0.0, 0.0, 0.30401832],
        "properties": { "magmom": 0.0 },
        "label": "Ga",
        "xyz": [0.0, 0.0, 2.72825661257155]
      },
      {
        "species": [{ "element": "Au", "occu": 1 }],
        "abc": [0.0, 0.35717549, 0.33014736],
        "properties": { "magmom": -0.0 },
        "label": "Au",
        "xyz": [-1.3793160764967582, 2.3890451040281637, 2.9627382917024208]
      },
      {
        "species": [{ "element": "Au", "occu": 1 }],
        "abc": [0.68269746, 0.0, 0.83207105],
        "properties": { "magmom": -0.0 },
        "label": "Au",
        "xyz": [5.272788777313218, 0.0, 7.466995226774007]
      },
      {
        "species": [{ "element": "Au", "occu": 1 }],
        "abc": [-0.0, 0.72845432, 0.5],
        "properties": { "magmom": -0.0 },
        "label": "Au",
        "xyz": [-2.813095474634931, 4.872423431697862, 4.486993765]
      },
      {
        "species": [{ "element": "Au", "occu": 1 }],
        "abc": [0.0, 0.68269746, 0.83207105],
        "properties": { "magmom": -0.0 },
        "label": "Au",
        "xyz": [-2.6363947368323135, 4.56636882991457, 7.466995226774007]
      },
      {
        "species": [{ "element": "Au", "occu": 1 }],
        "abc": [0.31730254, 0.31730254, 0.16792895],
        "properties": { "magmom": -0.0 },
        "label": "Au",
        "xyz": [1.2253370995190958, 2.1223463000854306, 1.5069923032259935]
      },
      {
        "species": [{ "element": "Au", "occu": 1 }],
        "abc": [0.27154568, 0.27154568, 0.5],
        "properties": { "magmom": -0.0 },
        "label": "Au",
        "xyz": [1.0486364083884752, 1.8162916983021387, 4.486993765]
      },
      {
        "species": [{ "element": "Au", "occu": 1 }],
        "abc": [0.0, 0.68269746, 0.16792895],
        "properties": { "magmom": -0.0 },
        "label": "Au",
        "xyz": [-2.6363947368323135, 4.56636882991457, 1.5069923032259935]
      },
      {
        "species": [{ "element": "Au", "occu": 1 }],
        "abc": [0.72845432, -0.0, 0.5],
        "properties": { "magmom": -0.0 },
        "label": "Au",
        "xyz": [5.626190206246456, 0.0, 4.486993765]
      },
      {
        "species": [{ "element": "Au", "occu": 1 }],
        "abc": [0.35717549, 0.0, 0.33014736],
        "properties": { "magmom": -0.0 },
        "label": "Au",
        "xyz": [2.7586317886745166, 0.0, 2.9627382917024208]
      },
      {
        "species": [{ "element": "Au", "occu": 1 }],
        "abc": [0.64282451, 0.64282451, 0.66985264],
        "properties": { "magmom": -0.0 },
        "label": "Au",
        "xyz": [2.4824154278222412, 4.299670025971836, 6.011249238297579]
      },
      {
        "species": [{ "element": "Au", "occu": 1 }],
        "abc": [0.3696892, -0.0, -0.0],
        "properties": { "magmom": -0.0 },
        "label": "Au",
        "xyz": [2.85528096860636, 0.0, 0.0]
      },
      {
        "species": [{ "element": "Au", "occu": 1 }],
        "abc": [0.666667, 0.333333, 0.5],
        "properties": { "magmom": 0.0 },
        "label": "Au",
        "xyz": [3.86173534173182, 2.22956948042829, 4.486993765]
      },
      {
        "species": [{ "element": "Au", "occu": 1 }],
        "abc": [0.35717549, 0.0, 0.66985264],
        "properties": { "magmom": -0.0 },
        "label": "Au",
        "xyz": [2.7586317886745166, 0.0, 6.011249238297579]
      },
      {
        "species": [{ "element": "Au", "occu": 1 }],
        "abc": [0.0, 0.0, -0.0],
        "properties": { "magmom": 0.0 },
        "label": "Au",
        "xyz": [0.0, 0.0, 0.0]
      },
      {
        "species": [{ "element": "Au", "occu": 1 }],
        "abc": [0.31730254, 0.31730254, 0.83207105],
        "properties": { "magmom": -0.0 },
        "label": "Au",
        "xyz": [1.2253370995190958, 2.1223463000854306, 7.466995226774007]
      },
      {
        "species": [{ "element": "Au", "occu": 1 }],
        "abc": [0.6303108, 0.6303108, -0.0],
        "properties": { "magmom": -0.0 },
        "label": "Au",
        "xyz": [2.434090844238312, 4.2159693845624036, 0.0]
      },
      {
        "species": [{ "element": "Au", "occu": 1 }],
        "abc": [0.68269746, 0.0, 0.16792895],
        "properties": { "magmom": -0.0 },
        "label": "Au",
        "xyz": [5.272788777313218, 0.0, 1.5069923032259935]
      },
      {
        "species": [{ "element": "Au", "occu": 1 }],
        "abc": [0.64282451, 0.64282451, 0.33014736],
        "properties": { "magmom": -0.0 },
        "label": "Au",
        "xyz": [2.4824154278222412, 4.299670025971836, 2.9627382917024208]
      },
      {
        "species": [{ "element": "Au", "occu": 1 }],
        "abc": [-0.0, 0.3696892, -0.0],
        "properties": { "magmom": -0.0 },
        "label": "Au",
        "xyz": [-1.427640672844672, 2.4727457454375963, 0.0]
      },
      {
        "species": [{ "element": "Au", "occu": 1 }],
        "abc": [0.333333, 0.666667, 0.5],
        "properties": { "magmom": 0.0 },
        "label": "Au",
        "xyz": [-4.20173181980843e-6, 4.459145649571711, 4.486993765]
      },
      {
        "species": [{ "element": "Au", "occu": 1 }],
        "abc": [0.0, 0.35717549, 0.66985264],
        "properties": { "magmom": -0.0 },
        "label": "Au",
        "xyz": [-1.3793160764967582, 2.3890451040281637, 6.011249238297579]
      }
    ]
  },
  "task_ids": null,
  "uncorrected_energy_per_atom": null,
  "energy_per_atom": -41.971631744074074,
  "formation_energy_per_atom": -0.08493474962962701,
  "energy_above_hull": 0.017660370925923003,
  "is_stable": false,
  "equilibrium_reaction_energy_per_atom": null,
  "decomposes_to": null,
  "xas": null,
  "grain_boundaries": null,
  "band_gap": 0.0,
  "cbm": null,
  "vbm": null,
  "efermi": 5.09873612,
  "is_gap_direct": null,
  "is_metal": null,
  "es_source_calc_id": null,
  "bandstructure": null,
  "dos": null,
  "dos_energy_up": null,
  "dos_energy_down": null,
  "is_magnetic": null,
  "ordering": null,
  "total_magnetization": 0.0,
  "total_magnetization_normalized_vol": null,
  "total_magnetization_normalized_formula_units": null,
  "num_magnetic_sites": null,
  "num_unique_magnetic_sites": null,
  "types_of_magnetic_species": null,
  "bulk_modulus": null,
  "shear_modulus": null,
  "universal_anisotropy": null,
  "homogeneous_poisson": null,
  "e_total": null,
  "e_ionic": null,
  "e_electronic": null,
  "n": null,
  "e_ij_max": null,
  "weighted_surface_energy_EV_PER_ANG2": null,
  "weighted_surface_energy": null,
  "weighted_work_function": null,
  "surface_anisotropy": null,
  "shape_factor": null,
  "has_reconstructed": null,
  "possible_species": null,
  "has_props": null,
  "theoretical": null,
  "database_IDs": null,
  "fields_not_requested": [
    "builder_meta",
    "nsites",
    "elements",
    "nelements",
    "composition",
    "composition_reduced",
    "chemsys",
    "symmetry",
    "property_name",
    "deprecated",
    "deprecation_reasons",
    "last_updated",
    "origins",
    "warnings",
    "task_ids",
    "uncorrected_energy_per_atom",
    "equilibrium_reaction_energy_per_atom",
    "decomposes_to",
    "xas",
    "grain_boundaries",
    "cbm",
    "vbm",
    "is_gap_direct",
    "is_metal",
    "es_source_calc_id",
    "bandstructure",
    "dos",
    "dos_energy_up",
    "dos_energy_down",
    "is_magnetic",
    "ordering",
    "total_magnetization_normalized_vol",
    "total_magnetization_normalized_formula_units",
    "num_magnetic_sites",
    "num_unique_magnetic_sites",
    "types_of_magnetic_species",
    "bulk_modulus",
    "shear_modulus",
    "universal_anisotropy",
    "homogeneous_poisson",
    "e_total",
    "e_ionic",
    "e_electronic",
    "n",
    "e_ij_max",
    "weighted_surface_energy_EV_PER_ANG2",
    "weighted_surface_energy",
    "weighted_work_function",
    "surface_anisotropy",
    "shape_factor",
    "has_reconstructed",
    "possible_species",
    "has_props",
    "theoretical",
    "database_IDs"
  ]
}
