{"builder_meta": null, "nsites": null, "elements": null, "nelements": null, "composition": null, "composition_reduced": null, "formula_pretty": "Ga2Ir", "formula_anonymous": "AB2", "chemsys": null, "volume": 276.0057303931409, "density": 11.972346392836538, "density_atomic": 15.333651688507826, "symmetry": null, "property_name": null, "material_id": "mp-31253", "deprecated": null, "deprecation_reasons": null, "last_updated": null, "origins": null, "warnings": null, "structure": {"@module": "pymatgen.core.structure", "@class": "Structure", "charge": 0, "lattice": {"matrix": [[3.89007816, -0.00110143, 0.0], [-1.9468731300000002, 6.5022534400000005, 0.0], [0.0, 0.0, 10.9127121]], "pbc": [true, true, true], "a": 3.890078315928489, "b": 6.787460112759988, "c": 10.9127121, "alpha": 90.0, "beta": 90.0, "gamma": 106.68471883487014, "volume": 276.00573039314094}, "properties": {}, "sites": [{"species": [{"element": "Ga", "occu": 1}], "abc": [0.44190882000000004, 0.88308483, 0.6050007], "properties": {"magmom": -0.0}, "label": "Ga", "xyz": [-0.000194277644246732, 5.741554642047704, 6.60219845939847]}, {"species": [{"element": "Ga", "occu": 1}], "abc": [0.55807997, 0.11692845, 0.39494387000000003], "properties": {"magmom": 0.0}, "label": "Ga", "xyz": [1.9433298453929064, 0.759683730225011, 4.309908748969828]}, {"species": [{"element": "Ga", "occu": 1}], "abc": [0.55807997, 0.11692845, 0.10505713], "properties": {"magmom": 0.0}, "label": "Ga", "xyz": [1.9433298453929064, 0.759683730225011, 1.146458213742273]}, {"species": [{"element": "Ga", "occu": 1}], "abc": [0.44190882000000004, 0.88308483, 0.894999299999999], "properties": {"magmom": -0.0}, "label": "Ga", "xyz": [-0.000194277644246732, 5.741554642047704, 9.76686969060152]}, {"species": [{"element": "Ga", "occu": 1}], "abc": [0.82122682, 0.64245191, 0.5180784900000001], "properties": {"magmom": -0.0}, "label": "Ga", "xyz": [1.9438641559920729, 4.176480617975718, 5.65364140657273]}, {"species": [{"element": "Ga", "occu": 1}], "abc": [0.17880439, 0.35754648, 0.48191404], "properties": {"magmom": -0.0}, "label": "Ga", "xyz": [-0.0005345821869601197, 2.3246608890206133, 5.258989175467884]}, {"species": [{"element": "Ga", "occu": 1}], "abc": [0.23239655, 0.46441541000000003, 0.75], "properties": {"magmom": -0.0}, "label": "Ga", "xyz": [-0.00011713927258549806, 3.019490728729444, 8.184534075]}, {"species": [{"element": "Ga", "occu": 1}], "abc": [0.76758201, 0.53557006, 0.25], "properties": {"magmom": -0.0}, "label": "Ga", "xyz": [1.9432670540634138, 3.481566827142732, 2.728178025]}, {"species": [{"element": "Ga", "occu": 1}], "abc": [0.03981188, 0.07954498, 0.75], "properties": {"magmom": 0.0}, "label": "Ga", "xyz": [7.340708153363851e-06, 0.5171777698407428, 8.184534075]}, {"species": [{"element": "Ga", "occu": 1}], "abc": [0.9601702400000001, 0.92043836, 0.25], "properties": {"magmom": 0.0}, "label": "Ga", "xyz": [1.9431605696006915, 5.983865932310516, 2.728178025]}, {"species": [{"element": "Ga", "occu": 1}], "abc": [0.82122682, 0.64245191, 0.98192151], "properties": {"magmom": -0.0}, "label": "Ga", "xyz": [1.9438641559920729, 4.176480617975718, 10.715426743427273]}, {"species": [{"element": "Ga", "occu": 1}], "abc": [0.17880439, 0.35754648, 0.01808596], "properties": {"magmom": -0.0}, "label": "Ga", "xyz": [-0.0005345821869601197, 2.3246608890206133, 0.19736687453211602]}, {"species": [{"element": "Ir", "occu": 1}], "abc": [0.63991043, 0.27991332, 0.62204411], "properties": {"magmom": 0.0}, "label": "Ir", "xyz": [1.944345866662117, 1.8193625313269062, 6.788188285930731]}, {"species": [{"element": "Ir", "occu": 1}], "abc": [0.36011191000000004, 0.72011205, 0.37794511000000003], "properties": {"magmom": 0.0}, "label": "Ir", "xyz": [-0.001103324487330859, 4.6819544162369215, 4.124406175032831]}, {"species": [{"element": "Ir", "occu": 1}], "abc": [0.36011191000000004, 0.72011205, 0.12205489], "properties": {"magmom": 0.0}, "label": "Ir", "xyz": [-0.001103324487330859, 4.6819544162369215, 1.331949874967169]}, {"species": [{"element": "Ir", "occu": 1}], "abc": [0.63991043, 0.27991332, 0.8779558900000001], "properties": {"magmom": 0.0}, "label": "Ir", "xyz": [1.944345866662117, 1.8193625313269062, 9.58087986406927]}, {"species": [{"element": "Ir", "occu": 1}], "abc": [0.14881783, 0.29873758, 0.25], "properties": {"magmom": 0.0}, "label": "Ir", "xyz": [-0.002691177121632582, 1.9423035447897785, 2.728178025]}, {"species": [{"element": "Ir", "occu": 1}], "abc": [0.85113479, 0.70121853, 0.75], "properties": {"magmom": -0.0}, "label": "Ir", "xyz": [1.9457973434800873, 4.558563133492494, 8.184534075]}]}, "task_ids": null, "uncorrected_energy_per_atom": null, "energy_per_atom": -25.598923693333333, "formation_energy_per_atom": -0.51728857666667, "energy_above_hull": 0.0, "is_stable": true, "equilibrium_reaction_energy_per_atom": null, "decomposes_to": null, "xas": null, "grain_boundaries": null, "band_gap": 0.0, "cbm": null, "vbm": null, "efermi": 5.92259464, "is_gap_direct": null, "is_metal": null, "es_source_calc_id": null, "bandstructure": null, "dos": null, "dos_energy_up": null, "dos_energy_down": null, "is_magnetic": null, "ordering": null, "total_magnetization": 1e-07, "total_magnetization_normalized_vol": null, "total_magnetization_normalized_formula_units": null, "num_magnetic_sites": null, "num_unique_magnetic_sites": null, "types_of_magnetic_species": null, "bulk_modulus": null, "shear_modulus": null, "universal_anisotropy": null, "homogeneous_poisson": null, "e_total": null, "e_ionic": null, "e_electronic": null, "n": null, "e_ij_max": null, "weighted_surface_energy_EV_PER_ANG2": null, "weighted_surface_energy": null, "weighted_work_function": null, "surface_anisotropy": null, "shape_factor": null, "has_reconstructed": null, "possible_species": null, "has_props": null, "theoretical": null, "database_IDs": null, "fields_not_requested": ["builder_meta", "nsites", "elements", "nelements", "composition", "composition_reduced", "chemsys", "symmetry", "property_name", "deprecated", "deprecation_reasons", "last_updated", "origins", "warnings", "task_ids", "uncorrected_energy_per_atom", "equilibrium_reaction_energy_per_atom", "decomposes_to", "xas", "grain_boundaries", "cbm", "vbm", "is_gap_direct", "is_metal", "es_source_calc_id", "bandstructure", "dos", "dos_energy_up", "dos_energy_down", "is_magnetic", "ordering", "total_magnetization_normalized_vol", "total_magnetization_normalized_formula_units", "num_magnetic_sites", "num_unique_magnetic_sites", "types_of_magnetic_species", "bulk_modulus", "shear_modulus", "universal_anisotropy", "homogeneous_poisson", "e_total", "e_ionic", "e_electronic", "n", "e_ij_max", "weighted_surface_energy_EV_PER_ANG2", "weighted_surface_energy", "weighted_work_function", "surface_anisotropy", "shape_factor", "has_reconstructed", "possible_species", "has_props", "theoretical", "database_IDs"]}