{"builder_meta": null, "nsites": null, "elements": null, "nelements": null, "composition": null, "composition_reduced": null, "formula_pretty": "Ga2I3", "formula_anonymous": "A2B3", "chemsys": null, "volume": 790.5244090935928, "density": 4.370491340830161, "density_atomic": 39.52622045467964, "symmetry": null, "property_name": null, "material_id": "mp-636675", "deprecated": null, "deprecation_reasons": null, "last_updated": null, "origins": null, "warnings": null, "structure": {"@module": "pymatgen.core.structure", "@class": "Structure", "charge": 0, "lattice": {"matrix": [[7.7596337, 0.0, -0.22611492], [0.0, 8.5939961, 0.0], [-0.030041580000000002, 0.0, 11.85525723]], "pbc": [true, true, true], "a": 7.762927483573597, "b": 8.5939961, "c": 11.855295293074574, "alpha": 90.0, "beta": 91.81430966055267, "gamma": 90.0, "volume": 790.5244090935929}, "properties": {}, "sites": [{"species": [{"element": "Ga", "occu": 1}], "abc": [0.56341934, 0.59529686, 0.44020603], "properties": {"magmom": -0.0}, "label": "Ga", "xyz": [4.358703213229031, 5.1159788931822465, 5.091358200856544]}, {"species": [{"element": "Ga", "occu": 1}], "abc": [0.53363829, 0.88896285, 0.80529024], "properties": {"magmom": 0.0}, "label": "Ga", "xyz": [4.116645467526194, 7.639743265944885, 9.426259360756148]}, {"species": [{"element": "Ga", "occu": 1}], "abc": [0.96636171, 0.38896285, 0.6947097600000001], "properties": {"magmom": 0.0}, "label": "Ga", "xyz": [7.477742712473806, 3.3427452159448854, 8.017454104243852]}, {"species": [{"element": "Ga", "occu": 1}], "abc": [0.06341934, 0.9047031400000001, 0.94020603], "properties": {"magmom": -0.0}, "label": "Ga", "xyz": [0.46386557322903066, 7.775015256817754, 11.132044275856543]}, {"species": [{"element": "Ga", "occu": 1}], "abc": [0.9365806600000001, 0.09529686, 0.05979397], "properties": {"magmom": -0.0}, "label": "Ga", "xyz": [7.26572654677097, 0.818980843182246, 0.4970980341434559]}, {"species": [{"element": "Ga", "occu": 1}], "abc": [0.46636271, 0.11103715, 0.19470976], "properties": {"magmom": 0.0}, "label": "Ga", "xyz": [3.612954412107506, 0.954252834055115, 2.2028827231289316]}, {"species": [{"element": "Ga", "occu": 1}], "abc": [0.03363829, 0.61103715, 0.30529024], "properties": {"magmom": 0.0}, "label": "Ga", "xyz": [0.2518494075261938, 5.251250884055115, 3.611688205756148]}, {"species": [{"element": "Ga", "occu": 1}], "abc": [0.43658066, 0.40470314, 0.55979397], "properties": {"magmom": -0.0}, "label": "Ga", "xyz": [3.3708889067709698, 3.478017206817754, 6.5377841091434545]}, {"species": [{"element": "I", "occu": 1}], "abc": [0.148569099999999, 0.0200727, 0.7457164], "properties": {"magmom": 0.0}, "label": "I", "xyz": [1.1304392962507503, 0.17250470551646999, 8.807066052468599]}, {"species": [{"element": "I", "occu": 1}], "abc": [0.3514309, 0.520072699999999, 0.754283599999999], "properties": {"magmom": 0.0}, "label": "I", "xyz": [2.7043151837492423, 4.469502755516462, 8.862762332531387]}, {"species": [{"element": "I", "occu": 1}], "abc": [0.14871451, 0.29515981, 0.46483731], "properties": {"magmom": 0.0}, "label": "I", "xyz": [1.1400056762396373, 2.5366022560167414, 5.477139310619761]}, {"species": [{"element": "I", "occu": 1}], "abc": [0.64871451, 0.20484019, 0.9648373100000001], "properties": {"magmom": 0.0}, "label": "I", "xyz": [5.004801736239637, 1.760395793983259, 11.291710465619763]}, {"species": [{"element": "I", "occu": 1}], "abc": [0.6485691, 0.4799273, 0.2457164], "properties": {"magmom": 0.0}, "label": "I", "xyz": [5.0252769362507586, 4.12449334448353, 2.7663799774686]}, {"species": [{"element": "I", "occu": 1}], "abc": [0.85721426, 0.66971429, 0.9052906900000001], "properties": {"magmom": 0.0}, "label": "I", "xyz": [6.624472297329672, 5.755521996374269, 10.538625064051429]}, {"species": [{"element": "I", "occu": 1}], "abc": [0.8514309, 0.9799273, 0.2542836], "properties": {"magmom": 0.0}, "label": "I", "xyz": [6.599152823749242, 8.42149139448353, 2.8220762575314]}, {"species": [{"element": "I", "occu": 1}], "abc": [0.64278574, 0.16971429, 0.59470931], "properties": {"magmom": 0.0}, "label": "I", "xyz": [4.969915882670328, 1.458523946374269, 6.905088400948571]}, {"species": [{"element": "I", "occu": 1}], "abc": [0.35721426, 0.8302857100000001, 0.40529069], "properties": {"magmom": 0.0}, "label": "I", "xyz": [2.7596762373296717, 7.135472153625732, 4.724053909051429]}, {"species": [{"element": "I", "occu": 1}], "abc": [0.85128549, 0.70484019, 0.53516269], "properties": {"magmom": 0.0}, "label": "I", "xyz": [6.589586443760363, 6.057393843983259, 6.152002999380238]}, {"species": [{"element": "I", "occu": 1}], "abc": [0.35128549000000003, 0.79515981, 0.03516269], "properties": {"magmom": 0.0}, "label": "I", "xyz": [2.724790383760363, 6.833600306016741, 0.3374318443802379]}, {"species": [{"element": "I", "occu": 1}], "abc": [0.14278574, 0.33028571, 0.09470931], "properties": {"magmom": 0.0}, "label": "I", "xyz": [1.1051198226703283, 2.8384741036257313, 1.0905172459485704]}]}, "task_ids": null, "uncorrected_energy_per_atom": null, "energy_per_atom": -2.784268818499998, "formation_energy_per_atom": -0.6586228404999981, "energy_above_hull": 0.0, "is_stable": true, "equilibrium_reaction_energy_per_atom": null, "decomposes_to": null, "xas": null, "grain_boundaries": null, "band_gap": 2.2709, "cbm": null, "vbm": null, "efermi": 1.34446583, "is_gap_direct": null, "is_metal": null, "es_source_calc_id": null, "bandstructure": null, "dos": null, "dos_energy_up": null, "dos_energy_down": null, "is_magnetic": null, "ordering": null, "total_magnetization": 2e-07, "total_magnetization_normalized_vol": null, "total_magnetization_normalized_formula_units": null, "num_magnetic_sites": null, "num_unique_magnetic_sites": null, "types_of_magnetic_species": null, "bulk_modulus": null, "shear_modulus": null, "universal_anisotropy": null, "homogeneous_poisson": null, "e_total": null, "e_ionic": null, "e_electronic": null, "n": null, "e_ij_max": null, "weighted_surface_energy_EV_PER_ANG2": null, "weighted_surface_energy": null, "weighted_work_function": null, "surface_anisotropy": null, "shape_factor": null, "has_reconstructed": null, "possible_species": null, "has_props": null, "theoretical": null, "database_IDs": null, "fields_not_requested": ["builder_meta", "nsites", "elements", "nelements", "composition", "composition_reduced", "chemsys", "symmetry", "property_name", "deprecated", "deprecation_reasons", "last_updated", "origins", "warnings", "task_ids", "uncorrected_energy_per_atom", "equilibrium_reaction_energy_per_atom", "decomposes_to", "xas", "grain_boundaries", "cbm", "vbm", "is_gap_direct", "is_metal", "es_source_calc_id", "bandstructure", "dos", "dos_energy_up", "dos_energy_down", "is_magnetic", "ordering", "total_magnetization_normalized_vol", "total_magnetization_normalized_formula_units", "num_magnetic_sites", "num_unique_magnetic_sites", "types_of_magnetic_species", "bulk_modulus", "shear_modulus", "universal_anisotropy", "homogeneous_poisson", "e_total", "e_ionic", "e_electronic", "n", "e_ij_max", "weighted_surface_energy_EV_PER_ANG2", "weighted_surface_energy", "weighted_work_function", "surface_anisotropy", "shape_factor", "has_reconstructed", "possible_species", "has_props", "theoretical", "database_IDs"]}