{
  "builder_meta": null,
  "nsites": null,
  "elements": null,
  "nelements": null,
  "composition": null,
  "composition_reduced": null,
  "formula_pretty": "Ga2O3",
  "formula_anonymous": "A2B3",
  "chemsys": null,
  "volume": 105.73376293730534,
  "density": 5.887587999533202,
  "density_atomic": 10.573376293730535,
  "symmetry": null,
  "property_name": null,
  "material_id": "mp-886",
  "deprecated": null,
  "deprecation_reasons": null,
  "last_updated": null,
  "origins": null,
  "warnings": null,
  "structure": {
    "@module": "pymatgen.core.structure",
    "@class": "Structure",
    "charge": 0,
    "lattice": {
      "matrix": [
        [2.95750664, 0.0, -0.73540549],
        [-0.33516007000000003, 5.64917218, -1.34788054],
        [0.0029406700000000003, 0.00521092, 6.32648304]
      ],
      "pbc": [true, true, true],
      "a": 3.0475673512436487,
      "b": 5.817410123235171,
      "c": 6.326485869472479,
      "alpha": 103.35150867726189,
      "beta": 103.93717564812003,
      "gamma": 89.99999800764238,
      "volume": 105.73376293730534
    },
    "properties": {},
    "sites": [
      {
        "species": [{ "element": "Ga", "occu": 1 }],
        "abc": [0.6588383, 0.31473034, 0.31767659],
        "properties": { "magmom": 0.0 },
        "label": "Ga",
        "xyz": [1.8439677861687036, 1.779621268226304, 1.1010433553641832]
      },
      {
        "species": [{ "element": "Ga", "occu": 1 }],
        "abc": [0.3411617, 0.68526966, 0.68232341],
        "properties": { "magmom": 0.0 },
        "label": "Ga",
        "xyz": [0.7813194538312965, 3.874761831773696, 3.1421536546358166]
      },
      {
        "species": [{ "element": "Ga", "occu": 1 }],
        "abc": [0.0904734, 0.794786, 0.18094879],
        "properties": { "magmom": 0.0 },
        "label": "Ga",
        "xyz": [0.0017272605266452476, 4.490825869922267, 0.0069582331201156755]
      },
      {
        "species": [{ "element": "Ga", "occu": 1 }],
        "abc": [0.9095266, 0.205213999999999, 0.81905121],
        "properties": { "magmom": 0.0 },
        "label": "Ga",
        "xyz": [2.6235599794733546, 1.1635572300777275, 4.236238776879886]
      },
      {
        "species": [{ "element": "O", "occu": 1 }],
        "abc": [0.49646913000000004, 0.25666409, 0.99293825],
        "properties": { "magmom": -0.0 },
        "label": "O",
        "xyz": [1.3852070978827646, 1.4551137586187062, 5.570748342346948]
      },
      {
        "species": [{ "element": "O", "occu": 1 }],
        "abc": [0.50353087, 0.74333591, 0.00706175],
        "properties": { "magmom": -0.0 },
        "label": "O",
        "xyz": [1.2400801421172356, 4.199269341381294, -1.3275513323469477]
      },
      {
        "species": [{ "element": "O", "occu": 1 }],
        "abc": [0.17337106, 0.56323016, 0.34674212],
        "properties": { "magmom": -0.0 },
        "label": "O",
        "xyz": [0.3249934554321476, 3.1835909962568993, 1.306993139897439]
      },
      {
        "species": [{ "element": "O", "occu": 1 }],
        "abc": [0.82662894, 0.43676984, 0.6532578800000001],
        "properties": { "magmom": -0.0 },
        "label": "O",
        "xyz": [2.3002937845678524, 2.4707921037431007, 2.9362038701025615]
      },
      {
        "species": [{ "element": "O", "occu": 1 }],
        "abc": [0.83549552, 0.8908459200000001, 0.67099003],
        "properties": { "magmom": -0.0 },
        "label": "O",
        "xyz": [2.174380727435359, 5.036038463297633, 2.4298251728192897]
      },
      {
        "species": [{ "element": "O", "occu": 1 }],
        "abc": [0.16450448, 0.10915408, 0.32900997],
        "properties": { "magmom": -0.0 },
        "label": "O",
        "xyz": [0.45090651256464154, 0.6183446367023668, 1.8133718371807106]
      }
    ]
  },
  "task_ids": null,
  "uncorrected_energy_per_atom": null,
  "energy_per_atom": -6.449011680999999,
  "formation_energy_per_atom": -2.268996668999999,
  "energy_above_hull": 0.0,
  "is_stable": true,
  "equilibrium_reaction_energy_per_atom": null,
  "decomposes_to": null,
  "xas": null,
  "grain_boundaries": null,
  "band_gap": 2.007799999999999,
  "cbm": null,
  "vbm": null,
  "efermi": 2.06965603,
  "is_gap_direct": null,
  "is_metal": null,
  "es_source_calc_id": null,
  "bandstructure": null,
  "dos": null,
  "dos_energy_up": null,
  "dos_energy_down": null,
  "is_magnetic": null,
  "ordering": null,
  "total_magnetization": 0.0,
  "total_magnetization_normalized_vol": null,
  "total_magnetization_normalized_formula_units": null,
  "num_magnetic_sites": null,
  "num_unique_magnetic_sites": null,
  "types_of_magnetic_species": null,
  "bulk_modulus": null,
  "shear_modulus": null,
  "universal_anisotropy": null,
  "homogeneous_poisson": null,
  "e_total": null,
  "e_ionic": null,
  "e_electronic": null,
  "n": null,
  "e_ij_max": null,
  "weighted_surface_energy_EV_PER_ANG2": null,
  "weighted_surface_energy": null,
  "weighted_work_function": null,
  "surface_anisotropy": null,
  "shape_factor": null,
  "has_reconstructed": null,
  "possible_species": null,
  "has_props": null,
  "theoretical": null,
  "database_IDs": null,
  "fields_not_requested": [
    "builder_meta",
    "nsites",
    "elements",
    "nelements",
    "composition",
    "composition_reduced",
    "chemsys",
    "symmetry",
    "property_name",
    "deprecated",
    "deprecation_reasons",
    "last_updated",
    "origins",
    "warnings",
    "task_ids",
    "uncorrected_energy_per_atom",
    "equilibrium_reaction_energy_per_atom",
    "decomposes_to",
    "xas",
    "grain_boundaries",
    "cbm",
    "vbm",
    "is_gap_direct",
    "is_metal",
    "es_source_calc_id",
    "bandstructure",
    "dos",
    "dos_energy_up",
    "dos_energy_down",
    "is_magnetic",
    "ordering",
    "total_magnetization_normalized_vol",
    "total_magnetization_normalized_formula_units",
    "num_magnetic_sites",
    "num_unique_magnetic_sites",
    "types_of_magnetic_species",
    "bulk_modulus",
    "shear_modulus",
    "universal_anisotropy",
    "homogeneous_poisson",
    "e_total",
    "e_ionic",
    "e_electronic",
    "n",
    "e_ij_max",
    "weighted_surface_energy_EV_PER_ANG2",
    "weighted_surface_energy",
    "weighted_work_function",
    "surface_anisotropy",
    "shape_factor",
    "has_reconstructed",
    "possible_species",
    "has_props",
    "theoretical",
    "database_IDs"
  ]
}
