{
  "builder_meta": null,
  "nsites": null,
  "elements": null,
  "nelements": null,
  "composition": null,
  "composition_reduced": null,
  "formula_pretty": "Ga2Pd5",
  "formula_anonymous": "A2B5",
  "chemsys": null,
  "volume": 411.99560269591376,
  "density": 10.826604562981405,
  "density_atomic": 14.714128667711206,
  "symmetry": null,
  "property_name": null,
  "material_id": "mp-405",
  "deprecated": null,
  "deprecation_reasons": null,
  "last_updated": null,
  "origins": null,
  "warnings": null,
  "structure": {
    "@module": "pymatgen.core.structure",
    "@class": "Structure",
    "charge": 0,
    "lattice": {
      "matrix": [
        [4.07776418, 0.0, 0.0],
        [0.0, 5.46635589, 0.0],
        [0.0, 0.0, 18.48300457]
      ],
      "pbc": [true, true, true],
      "a": 4.07776418,
      "b": 5.46635589,
      "c": 18.48300457,
      "alpha": 90.0,
      "beta": 90.0,
      "gamma": 90.0,
      "volume": 411.99560269591376
    },
    "properties": {},
    "sites": [
      {
        "species": [{ "element": "Ga", "occu": 1 }],
        "abc": [0.75, 0.20236373, 0.956183999999999],
        "properties": { "magmom": -0.0 },
        "label": "Ga",
        "xyz": [3.058323135, 1.1061921674078696, 17.67315324176086]
      },
      {
        "species": [{ "element": "Ga", "occu": 1 }],
        "abc": [0.25, 0.79763627, 0.043816],
        "properties": { "magmom": -0.0 },
        "label": "Ga",
        "xyz": [1.019441045, 4.36016372259213, 0.80985132823912]
      },
      {
        "species": [{ "element": "Ga", "occu": 1 }],
        "abc": [0.75, 0.70236373, 0.543816],
        "properties": { "magmom": -0.0 },
        "label": "Ga",
        "xyz": [3.058323135, 3.8393701124078694, 10.051353613239119]
      },
      {
        "species": [{ "element": "Ga", "occu": 1 }],
        "abc": [0.25, 0.29763627, 0.456184],
        "properties": { "magmom": -0.0 },
        "label": "Ga",
        "xyz": [1.019441045, 1.6269857775921301, 8.43165095676088]
      },
      {
        "species": [{ "element": "Ga", "occu": 1 }],
        "abc": [0.75, 0.667262, 0.82396544],
        "properties": { "magmom": 0.0 },
        "label": "Ga",
        "xyz": [3.058323135, 3.64749156387318, 15.22935699304206]
      },
      {
        "species": [{ "element": "Ga", "occu": 1 }],
        "abc": [0.25, 0.332738, 0.17603456],
        "properties": { "magmom": 0.0 },
        "label": "Ga",
        "xyz": [1.019441045, 1.8188643261268198, 3.253647576957939]
      },
      {
        "species": [{ "element": "Ga", "occu": 1 }],
        "abc": [0.75, 0.167262, 0.6760345600000001],
        "properties": { "magmom": 0.0 },
        "label": "Ga",
        "xyz": [3.058323135, 0.91431361887318, 12.49514986195794]
      },
      {
        "species": [{ "element": "Ga", "occu": 1 }],
        "abc": [0.25, 0.832738, 0.32396544],
        "properties": { "magmom": 0.0 },
        "label": "Ga",
        "xyz": [1.019441045, 4.55204227112682, 5.98785470804206]
      },
      {
        "species": [{ "element": "Pd", "occu": 1 }],
        "abc": [0.75, 0.14095088, 0.2332236],
        "properties": { "magmom": -0.0 },
        "label": "Pd",
        "xyz": [3.058323135, 0.7704876730886832, 4.310672864631852]
      },
      {
        "species": [{ "element": "Pd", "occu": 1 }],
        "abc": [0.25, 0.85904912, 0.766776399999999],
        "properties": { "magmom": -0.0 },
        "label": "Pd",
        "xyz": [1.019441045, 4.695868216911316, 14.172331705368128]
      },
      {
        "species": [{ "element": "Pd", "occu": 1 }],
        "abc": [0.75, 0.64095088, 0.266776399999999],
        "properties": { "magmom": -0.0 },
        "label": "Pd",
        "xyz": [3.058323135, 3.503665618088683, 4.93082942036813]
      },
      {
        "species": [{ "element": "Pd", "occu": 1 }],
        "abc": [0.25, 0.35904912, 0.7332236],
        "properties": { "magmom": -0.0 },
        "label": "Pd",
        "xyz": [1.019441045, 1.9626902719113168, 13.55217514963185]
      },
      {
        "species": [{ "element": "Pd", "occu": 1 }],
        "abc": [0.75, 0.66793099, 0.9694696700000001],
        "properties": { "magmom": 0.0 },
        "label": "Pd",
        "xyz": [3.058323135, 3.6511485013000313, 17.91871234108639]
      },
      {
        "species": [{ "element": "Pd", "occu": 1 }],
        "abc": [0.25, 0.33206901, 0.03053033],
        "properties": { "magmom": 0.0 },
        "label": "Pd",
        "xyz": [1.019441045, 1.815207388699969, 0.5642922289136081]
      },
      {
        "species": [{ "element": "Pd", "occu": 1 }],
        "abc": [0.75, 0.16793099, 0.53053033],
        "properties": { "magmom": 0.0 },
        "label": "Pd",
        "xyz": [3.058323135, 0.9179705563000311, 9.80579451391361]
      },
      {
        "species": [{ "element": "Pd", "occu": 1 }],
        "abc": [0.25, 0.83206901, 0.46946967],
        "properties": { "magmom": 0.0 },
        "label": "Pd",
        "xyz": [1.019441045, 4.548385333699969, 8.677210056086391]
      },
      {
        "species": [{ "element": "Pd", "occu": 1 }],
        "abc": [0.75, 0.03366317, 0.087424099999999],
        "properties": { "magmom": 0.0 },
        "label": "Pd",
        "xyz": [3.058323135, 0.1840148676055713, 1.6158600398281184]
      },
      {
        "species": [{ "element": "Pd", "occu": 1 }],
        "abc": [0.25, 0.96633683, 0.9125759],
        "properties": { "magmom": 0.0 },
        "label": "Pd",
        "xyz": [1.019441045, 5.282341022394429, 16.86714453017186]
      },
      {
        "species": [{ "element": "Pd", "occu": 1 }],
        "abc": [0.75, 0.53366317, 0.4125759],
        "properties": { "magmom": 0.0 },
        "label": "Pd",
        "xyz": [3.058323135, 2.9171928126055713, 7.625642245171862]
      },
      {
        "species": [{ "element": "Pd", "occu": 1 }],
        "abc": [0.25, 0.46633683000000004, 0.5874241],
        "properties": { "magmom": 0.0 },
        "label": "Pd",
        "xyz": [1.019441045, 2.5491630773944287, 10.857362324828136]
      },
      {
        "species": [{ "element": "Pd", "occu": 1 }],
        "abc": [0.75, 0.16409781, 0.81994119],
        "properties": { "magmom": -0.0 },
        "label": "Pd",
        "xyz": [3.058323135, 0.897017030229601, 15.154976761901237]
      },
      {
        "species": [{ "element": "Pd", "occu": 1 }],
        "abc": [0.25, 0.83590219, 0.18005881],
        "properties": { "magmom": -0.0 },
        "label": "Pd",
        "xyz": [1.019441045, 4.569338859770399, 3.3280278080987618]
      },
      {
        "species": [{ "element": "Pd", "occu": 1 }],
        "abc": [0.75, 0.66409781, 0.68005881],
        "properties": { "magmom": -0.0 },
        "label": "Pd",
        "xyz": [3.058323135, 3.630194975229601, 12.569530093098761]
      },
      {
        "species": [{ "element": "Pd", "occu": 1 }],
        "abc": [0.25, 0.33590219, 0.31994119],
        "properties": { "magmom": -0.0 },
        "label": "Pd",
        "xyz": [1.019441045, 1.836160914770399, 5.9134744769012375]
      },
      {
        "species": [{ "element": "Pd", "occu": 1 }],
        "abc": [0.75, 0.03533784, 0.38140207],
        "properties": { "magmom": 0.0 },
        "label": "Pd",
        "xyz": [3.058323135, 0.1931692098238776, 7.049456202817459]
      },
      {
        "species": [{ "element": "Pd", "occu": 1 }],
        "abc": [0.25, 0.96466216, 0.61859793],
        "properties": { "magmom": 0.0 },
        "label": "Pd",
        "xyz": [1.019441045, 5.2731866801761225, 11.433548367182539]
      },
      {
        "species": [{ "element": "Pd", "occu": 1 }],
        "abc": [0.75, 0.5353378400000001, 0.11859793],
        "properties": { "magmom": 0.0 },
        "label": "Pd",
        "xyz": [3.058323135, 2.926347154823878, 2.19204608218254]
      },
      {
        "species": [{ "element": "Pd", "occu": 1 }],
        "abc": [0.25, 0.46466216, 0.88140207],
        "properties": { "magmom": 0.0 },
        "label": "Pd",
        "xyz": [1.019441045, 2.5400087351761225, 16.29095848781746]
      }
    ]
  },
  "task_ids": null,
  "uncorrected_energy_per_atom": null,
  "energy_per_atom": -20.237021358214285,
  "formation_energy_per_atom": -0.5673327939285691,
  "energy_above_hull": 0.0,
  "is_stable": true,
  "equilibrium_reaction_energy_per_atom": null,
  "decomposes_to": null,
  "xas": null,
  "grain_boundaries": null,
  "band_gap": 0.0,
  "cbm": null,
  "vbm": null,
  "efermi": 4.61827072,
  "is_gap_direct": null,
  "is_metal": null,
  "es_source_calc_id": null,
  "bandstructure": null,
  "dos": null,
  "dos_energy_up": null,
  "dos_energy_down": null,
  "is_magnetic": null,
  "ordering": null,
  "total_magnetization": 0.0,
  "total_magnetization_normalized_vol": null,
  "total_magnetization_normalized_formula_units": null,
  "num_magnetic_sites": null,
  "num_unique_magnetic_sites": null,
  "types_of_magnetic_species": null,
  "bulk_modulus": null,
  "shear_modulus": null,
  "universal_anisotropy": null,
  "homogeneous_poisson": null,
  "e_total": null,
  "e_ionic": null,
  "e_electronic": null,
  "n": null,
  "e_ij_max": null,
  "weighted_surface_energy_EV_PER_ANG2": null,
  "weighted_surface_energy": null,
  "weighted_work_function": null,
  "surface_anisotropy": null,
  "shape_factor": null,
  "has_reconstructed": null,
  "possible_species": null,
  "has_props": null,
  "theoretical": null,
  "database_IDs": null,
  "fields_not_requested": [
    "builder_meta",
    "nsites",
    "elements",
    "nelements",
    "composition",
    "composition_reduced",
    "chemsys",
    "symmetry",
    "property_name",
    "deprecated",
    "deprecation_reasons",
    "last_updated",
    "origins",
    "warnings",
    "task_ids",
    "uncorrected_energy_per_atom",
    "equilibrium_reaction_energy_per_atom",
    "decomposes_to",
    "xas",
    "grain_boundaries",
    "cbm",
    "vbm",
    "is_gap_direct",
    "is_metal",
    "es_source_calc_id",
    "bandstructure",
    "dos",
    "dos_energy_up",
    "dos_energy_down",
    "is_magnetic",
    "ordering",
    "total_magnetization_normalized_vol",
    "total_magnetization_normalized_formula_units",
    "num_magnetic_sites",
    "num_unique_magnetic_sites",
    "types_of_magnetic_species",
    "bulk_modulus",
    "shear_modulus",
    "universal_anisotropy",
    "homogeneous_poisson",
    "e_total",
    "e_ionic",
    "e_electronic",
    "n",
    "e_ij_max",
    "weighted_surface_energy_EV_PER_ANG2",
    "weighted_surface_energy",
    "weighted_work_function",
    "surface_anisotropy",
    "shape_factor",
    "has_reconstructed",
    "possible_species",
    "has_props",
    "theoretical",
    "database_IDs"
  ]
}
