{
  "builder_meta": null,
  "nsites": null,
  "elements": null,
  "nelements": null,
  "composition": null,
  "composition_reduced": null,
  "formula_pretty": "Ga2Ru",
  "formula_anonymous": "AB2",
  "chemsys": null,
  "volume": 84.09379008953094,
  "density": 9.498589936716057,
  "density_atomic": 14.01563168158849,
  "symmetry": null,
  "property_name": null,
  "material_id": "mp-1072429",
  "deprecated": null,
  "deprecation_reasons": null,
  "last_updated": null,
  "origins": null,
  "warnings": null,
  "structure": {
    "@module": "pymatgen.core.structure",
    "@class": "Structure",
    "charge": 0,
    "lattice": {
      "matrix": [
        [4.09469823, 2.36344028, -0.00014324],
        [-4.09469823, 2.36344028, -0.00014324],
        [0.0, -2.36371287, 4.34491932]
      ],
      "pbc": [true, true, true],
      "a": 4.727832862148292,
      "b": 4.727832862148292,
      "c": 4.946257416381894,
      "alpha": 103.82268972021188,
      "beta": 103.82268972021188,
      "gamma": 120.01332557975434,
      "volume": 84.09379008953094
    },
    "properties": {},
    "sites": [
      {
        "species": [{ "element": "Ga", "occu": 1 }],
        "abc": [0.080861599999999, 0.919138399999999, 0.5],
        "properties": { "magmom": 0.0 },
        "label": "Ga",
        "xyz": [-3.432490529210064, 1.1815838449999954, 2.17231642]
      },
      {
        "species": [{ "element": "Ga", "occu": 1 }],
        "abc": [0.41909077, 0.58090923, 0.5],
        "properties": { "magmom": -0.0 },
        "label": "Ga",
        "xyz": [-0.6625977617433259, 1.1815838449999998, 2.17231642]
      },
      {
        "species": [{ "element": "Ga", "occu": 1 }],
        "abc": [0.6691384, 0.3308616, -0.0],
        "properties": { "magmom": 0.0 },
        "label": "Ga",
        "xyz": [1.3851414142100642, 2.36344028, -0.00014324]
      },
      {
        "species": [{ "element": "Ga", "occu": 1 }],
        "abc": [0.33090823, 0.66909177, 0.0],
        "properties": { "magmom": -0.0 },
        "label": "Ga",
        "xyz": [-1.3847595426531338, 2.36344028, -0.00014324]
      },
      {
        "species": [{ "element": "Ru", "occu": 1 }],
        "abc": [0.74999573, 0.25000427000000003, 0.5],
        "properties": { "magmom": 0.0 },
        "label": "Ru",
        "xyz": [2.047314146277116, 1.1815838449999998, 2.17231642]
      },
      {
        "species": [{ "element": "Ru", "occu": 1 }],
        "abc": [4.27e-6, 0.99999573, 0.0],
        "properties": { "magmom": 0.0 },
        "label": "Ru",
        "xyz": [-4.094663261277115, 2.36344028, -0.00014324]
      }
    ]
  },
  "task_ids": null,
  "uncorrected_energy_per_atom": null,
  "energy_per_atom": -16.546943346666666,
  "formation_energy_per_atom": -0.44358094833333406,
  "energy_above_hull": 0.0,
  "is_stable": true,
  "equilibrium_reaction_energy_per_atom": null,
  "decomposes_to": null,
  "xas": null,
  "grain_boundaries": null,
  "band_gap": 0.1293,
  "cbm": null,
  "vbm": null,
  "efermi": 6.26227078,
  "is_gap_direct": null,
  "is_metal": null,
  "es_source_calc_id": null,
  "bandstructure": null,
  "dos": null,
  "dos_energy_up": null,
  "dos_energy_down": null,
  "is_magnetic": null,
  "ordering": null,
  "total_magnetization": 0.0,
  "total_magnetization_normalized_vol": null,
  "total_magnetization_normalized_formula_units": null,
  "num_magnetic_sites": null,
  "num_unique_magnetic_sites": null,
  "types_of_magnetic_species": null,
  "bulk_modulus": null,
  "shear_modulus": null,
  "universal_anisotropy": null,
  "homogeneous_poisson": null,
  "e_total": null,
  "e_ionic": null,
  "e_electronic": null,
  "n": null,
  "e_ij_max": null,
  "weighted_surface_energy_EV_PER_ANG2": null,
  "weighted_surface_energy": null,
  "weighted_work_function": null,
  "surface_anisotropy": null,
  "shape_factor": null,
  "has_reconstructed": null,
  "possible_species": null,
  "has_props": null,
  "theoretical": null,
  "database_IDs": null,
  "fields_not_requested": [
    "builder_meta",
    "nsites",
    "elements",
    "nelements",
    "composition",
    "composition_reduced",
    "chemsys",
    "symmetry",
    "property_name",
    "deprecated",
    "deprecation_reasons",
    "last_updated",
    "origins",
    "warnings",
    "task_ids",
    "uncorrected_energy_per_atom",
    "equilibrium_reaction_energy_per_atom",
    "decomposes_to",
    "xas",
    "grain_boundaries",
    "cbm",
    "vbm",
    "is_gap_direct",
    "is_metal",
    "es_source_calc_id",
    "bandstructure",
    "dos",
    "dos_energy_up",
    "dos_energy_down",
    "is_magnetic",
    "ordering",
    "total_magnetization_normalized_vol",
    "total_magnetization_normalized_formula_units",
    "num_magnetic_sites",
    "num_unique_magnetic_sites",
    "types_of_magnetic_species",
    "bulk_modulus",
    "shear_modulus",
    "universal_anisotropy",
    "homogeneous_poisson",
    "e_total",
    "e_ionic",
    "e_electronic",
    "n",
    "e_ij_max",
    "weighted_surface_energy_EV_PER_ANG2",
    "weighted_surface_energy",
    "weighted_work_function",
    "surface_anisotropy",
    "shape_factor",
    "has_reconstructed",
    "possible_species",
    "has_props",
    "theoretical",
    "database_IDs"
  ]
}
