{"builder_meta": null, "nsites": null, "elements": null, "nelements": null, "composition": null, "composition_reduced": null, "formula_pretty": "Ga2S3", "formula_anonymous": "A2B3", "chemsys": null, "volume": 219.106108358102, "density": 3.571704039881657, "density_atomic": 21.9106108358102, "symmetry": null, "property_name": null, "material_id": "mp-539", "deprecated": null, "deprecation_reasons": null, "last_updated": null, "origins": null, "warnings": null, "structure": {"@module": "pymatgen.core.structure", "@class": "Structure", "charge": 0, "lattice": {"matrix": [[6.45523076, 1e-08, 0.0], [-3.22761436, 4.8121616, -2.8934126300000003], [0.0, 4.2430000000000005e-05, 7.05343939]], "pbc": [true, true, true], "a": 6.45523076, "b": 6.476590952718589, "c": 7.053439390127619, "alpha": 116.53502819836484, "beta": 89.99999999999946, "gamma": 119.89095037027656, "volume": 219.106108358102}, "properties": {}, "sites": [{"species": [{"element": "Ga", "occu": 1}], "abc": [0.13653814, 0.40574596, 0.61964728], "properties": {"magmom": -0.0}, "label": "Ga", "xyz": [-0.4282062857667992, 1.9525414210666077, 3.196654047422885]}, {"species": [{"element": "Ga", "occu": 1}], "abc": [0.26920781, 0.40574596, 0.11964728000000001], "properties": {"magmom": -0.0}, "label": "Ga", "xyz": [0.42820704893624995, 1.9525202073933046, -0.33006564757711565]}, {"species": [{"element": "Ga", "occu": 1}], "abc": [0.44718999, 0.08814768, 0.62905923], "properties": {"magmom": -0.0}, "label": "Ga", "xyz": [2.6022078612434076, 0.4242075762801168, 4.181983540907871]}, {"species": [{"element": "Ga", "occu": 1}], "abc": [0.6409587, 0.08814768, 0.12905923], "properties": {"magmom": -0.0}, "label": "Ga", "xyz": [3.8530295983609273, 0.42418636321780384, 0.6552638459078712]}, {"species": [{"element": "S", "occu": 1}], "abc": [0.42851516, 0.67989794, 0.50284171], "properties": {"magmom": 0.0}, "label": "S", "xyz": [0.5717158874799031, 3.2718000986460107, 1.5795382375419746]}, {"species": [{"element": "S", "occu": 1}], "abc": [0.25138278000000003, 0.67989794, 0.00284171], "properties": {"magmom": 0.0}, "label": "S", "xyz": [-0.5717145004881057, 3.271778881874687, -1.9471814574580255]}, {"species": [{"element": "S", "occu": 1}], "abc": [0.76053466, 0.34699161, 0.51185829], "properties": {"magmom": -0.0}, "label": "S", "xyz": [3.789471628042622, 1.6698014269167671, 2.606371517906009]}, {"species": [{"element": "S", "occu": 1}], "abc": [0.5864579600000001, 0.34699161, 0.01185829], "properties": {"magmom": -0.0}, "label": "S", "xyz": [2.6657663596033303, 1.6697802101760004, -0.9203481770939914]}, {"species": [{"element": "S", "occu": 1}], "abc": [0.91099758, 0.00121681, 0.98559649], "properties": {"magmom": 0.0}, "label": "S", "xyz": [5.876772207272169, 0.005897314325542499, 6.948324371789432]}, {"species": [{"element": "S", "occu": 1}], "abc": [0.09021723, 0.00121681, 0.48559649], "properties": {"magmom": 0.0}, "label": "S", "xyz": [0.5784456447486032, 0.005876091117739, 3.4216046767894306]}]}, "task_ids": null, "uncorrected_energy_per_atom": null, "energy_per_atom": -10.195047055, "formation_energy_per_atom": -0.7969372256875, "energy_above_hull": 0.0, "is_stable": true, "equilibrium_reaction_energy_per_atom": null, "decomposes_to": null, "xas": null, "grain_boundaries": null, "band_gap": 1.7106, "cbm": null, "vbm": null, "efermi": 2.33866981, "is_gap_direct": null, "is_metal": null, "es_source_calc_id": null, "bandstructure": null, "dos": null, "dos_energy_up": null, "dos_energy_down": null, "is_magnetic": null, "ordering": null, "total_magnetization": 0.0, "total_magnetization_normalized_vol": null, "total_magnetization_normalized_formula_units": null, "num_magnetic_sites": null, "num_unique_magnetic_sites": null, "types_of_magnetic_species": null, "bulk_modulus": null, "shear_modulus": null, "universal_anisotropy": null, "homogeneous_poisson": null, "e_total": null, "e_ionic": null, "e_electronic": null, "n": null, "e_ij_max": null, "weighted_surface_energy_EV_PER_ANG2": null, "weighted_surface_energy": null, "weighted_work_function": null, "surface_anisotropy": null, "shape_factor": null, "has_reconstructed": null, "possible_species": null, "has_props": null, "theoretical": null, "database_IDs": null, "fields_not_requested": ["builder_meta", "nsites", "elements", "nelements", "composition", "composition_reduced", "chemsys", "symmetry", "property_name", "deprecated", "deprecation_reasons", "last_updated", "origins", "warnings", "task_ids", "uncorrected_energy_per_atom", "equilibrium_reaction_energy_per_atom", "decomposes_to", "xas", "grain_boundaries", "cbm", "vbm", "is_gap_direct", "is_metal", "es_source_calc_id", "bandstructure", "dos", "dos_energy_up", "dos_energy_down", "is_magnetic", "ordering", "total_magnetization_normalized_vol", "total_magnetization_normalized_formula_units", "num_magnetic_sites", "num_unique_magnetic_sites", "types_of_magnetic_species", "bulk_modulus", "shear_modulus", "universal_anisotropy", "homogeneous_poisson", "e_total", "e_ionic", "e_electronic", "n", "e_ij_max", "weighted_surface_energy_EV_PER_ANG2", "weighted_surface_energy", "weighted_work_function", "surface_anisotropy", "shape_factor", "has_reconstructed", "possible_species", "has_props", "theoretical", "database_IDs"]}