{
  "builder_meta": null,
  "nsites": null,
  "elements": null,
  "nelements": null,
  "composition": null,
  "composition_reduced": null,
  "formula_pretty": "Ga2Se3",
  "formula_anonymous": "A2B3",
  "chemsys": null,
  "volume": 251.7131984069082,
  "density": 4.965206661647674,
  "density_atomic": 25.17131984069082,
  "symmetry": null,
  "property_name": null,
  "material_id": "mp-1340",
  "deprecated": null,
  "deprecation_reasons": null,
  "last_updated": null,
  "origins": null,
  "warnings": null,
  "structure": {
    "@module": "pymatgen.core.structure",
    "@class": "Structure",
    "charge": 0,
    "lattice": {
      "matrix": [
        [5.83812223, 0.02720824, 3.3374307500000002],
        [1.8381809900000001, 6.34717335, 1.05078105],
        [-0.01172187, 0.01357144, 6.79533622]
      ],
      "pbc": [true, true, true],
      "a": 6.7247940839693845,
      "b": 6.691013353893916,
      "c": 6.79535988223316,
      "alpha": 80.88226341936253,
      "beta": 60.34368504968918,
      "gamma": 71.32026060390828,
      "volume": 251.7131984069082
    },
    "properties": {},
    "sites": [
      {
        "species": [{ "element": "Ga", "occu": 1 }],
        "abc": [0.7206283, 0.50424219, 0.49702354],
        "properties": { "magmom": 0.0 },
        "label": "Ga",
        "xyz": [5.128178460488257, 3.2268649432025263, 6.312337249157343]
      },
      {
        "species": [{ "element": "Ga", "occu": 1 }],
        "abc": [0.21765582, 0.00424918, 0.50298829],
        "properties": { "magmom": -0.0 },
        "label": "Ga",
        "xyz": [1.2726160797830643, 0.039718589241747405, 4.148850729679368]
      },
      {
        "species": [{ "element": "Ga", "occu": 1 }],
        "abc": [0.41457165, 0.50132712, 0.17106752],
        "properties": { "magmom": 0.0 },
        "label": "Ga",
        "xyz": [3.3398447163175664, 3.195611533230277, 3.072850525056888]
      },
      {
        "species": [{ "element": "Ga", "occu": 1 }],
        "abc": [0.58565258, 0.00133234, 0.82894377],
        "properties": { "magmom": 0.0 },
        "label": "Ga",
        "xyz": [3.41184365730582, 0.035641129532326996, 7.588926551557342]
      },
      {
        "species": [{ "element": "Se", "occu": 1 }],
        "abc": [0.25958749000000003, 0.88678089, 0.15656495],
        "properties": { "magmom": 0.0 },
        "label": "Se",
        "xyz": [3.1437320363017274, 5.637739762851227, 2.8620793016729413]
      },
      {
        "species": [{ "element": "Se", "occu": 1 }],
        "abc": [0.41616766, 0.38677797, 0.84341771],
        "properties": { "magmom": -0.0 },
        "label": "Se",
        "xyz": [3.1307191463055544, 2.4777164059708205, 7.526656620425469]
      },
      {
        "species": [{ "element": "Se", "occu": 1 }],
        "abc": [0.78156398, 0.36395532, 0.17005395],
        "properties": { "magmom": 0.0 },
        "label": "Se",
        "xyz": [5.2298884459437565, 2.3336603650171055, 4.14642677903614]
      },
      {
        "species": [{ "element": "Se", "occu": 1 }],
        "abc": [0.95162002, 0.86400301, 0.82992869],
        "properties": { "magmom": 0.0 },
        "label": "Se",
        "xyz": [7.134139585346374, 5.521132112705362, 9.72348839428873]
      },
      {
        "species": [{ "element": "Se", "occu": 1 }],
        "abc": [0.09843246, 0.39127649000000003, 0.51528636],
        "properties": { "magmom": -0.0 },
        "label": "Se",
        "xyz": [1.2878576189068178, 2.493171061722571, 4.24120150558462]
      },
      {
        "species": [{ "element": "Se", "occu": 1 }],
        "abc": [0.61372005, 0.8912565, 0.48472322],
        "properties": { "magmom": -0.0 },
        "label": "Se",
        "xyz": [5.215581559844825, 5.680236139324324, 6.278620861191891]
      }
    ]
  },
  "task_ids": null,
  "uncorrected_energy_per_atom": null,
  "energy_per_atom": -13.864913983000001,
  "formation_energy_per_atom": -0.700867464437499,
  "energy_above_hull": 0.0,
  "is_stable": true,
  "equilibrium_reaction_energy_per_atom": null,
  "decomposes_to": null,
  "xas": null,
  "grain_boundaries": null,
  "band_gap": 1.043599999999999,
  "cbm": null,
  "vbm": null,
  "efermi": 1.84569574,
  "is_gap_direct": null,
  "is_metal": null,
  "es_source_calc_id": null,
  "bandstructure": null,
  "dos": null,
  "dos_energy_up": null,
  "dos_energy_down": null,
  "is_magnetic": null,
  "ordering": null,
  "total_magnetization": 0.0,
  "total_magnetization_normalized_vol": null,
  "total_magnetization_normalized_formula_units": null,
  "num_magnetic_sites": null,
  "num_unique_magnetic_sites": null,
  "types_of_magnetic_species": null,
  "bulk_modulus": null,
  "shear_modulus": null,
  "universal_anisotropy": null,
  "homogeneous_poisson": null,
  "e_total": null,
  "e_ionic": null,
  "e_electronic": null,
  "n": null,
  "e_ij_max": null,
  "weighted_surface_energy_EV_PER_ANG2": null,
  "weighted_surface_energy": null,
  "weighted_work_function": null,
  "surface_anisotropy": null,
  "shape_factor": null,
  "has_reconstructed": null,
  "possible_species": null,
  "has_props": null,
  "theoretical": null,
  "database_IDs": null,
  "fields_not_requested": [
    "builder_meta",
    "nsites",
    "elements",
    "nelements",
    "composition",
    "composition_reduced",
    "chemsys",
    "symmetry",
    "property_name",
    "deprecated",
    "deprecation_reasons",
    "last_updated",
    "origins",
    "warnings",
    "task_ids",
    "uncorrected_energy_per_atom",
    "equilibrium_reaction_energy_per_atom",
    "decomposes_to",
    "xas",
    "grain_boundaries",
    "cbm",
    "vbm",
    "is_gap_direct",
    "is_metal",
    "es_source_calc_id",
    "bandstructure",
    "dos",
    "dos_energy_up",
    "dos_energy_down",
    "is_magnetic",
    "ordering",
    "total_magnetization_normalized_vol",
    "total_magnetization_normalized_formula_units",
    "num_magnetic_sites",
    "num_unique_magnetic_sites",
    "types_of_magnetic_species",
    "bulk_modulus",
    "shear_modulus",
    "universal_anisotropy",
    "homogeneous_poisson",
    "e_total",
    "e_ionic",
    "e_electronic",
    "n",
    "e_ij_max",
    "weighted_surface_energy_EV_PER_ANG2",
    "weighted_surface_energy",
    "weighted_work_function",
    "surface_anisotropy",
    "shape_factor",
    "has_reconstructed",
    "possible_species",
    "has_props",
    "theoretical",
    "database_IDs"
  ]
}
