{
  "builder_meta": null,
  "nsites": null,
  "elements": null,
  "nelements": null,
  "composition": null,
  "composition_reduced": null,
  "formula_pretty": "Ga2Te5",
  "formula_anonymous": "A2B5",
  "chemsys": null,
  "volume": 228.92146841272137,
  "density": 5.639398803979377,
  "density_atomic": 32.703066916103054,
  "symmetry": null,
  "property_name": null,
  "material_id": "mp-2371",
  "deprecated": null,
  "deprecation_reasons": null,
  "last_updated": null,
  "origins": null,
  "warnings": null,
  "structure": {
    "@module": "pymatgen.core.structure",
    "@class": "Structure",
    "charge": 0,
    "lattice": {
      "matrix": [
        [6.46662796, -0.0468843, -1.8052021200000001],
        [-3.73575518, 5.27930526, -1.80458055],
        [0.023914130000000002, 0.04535697, 6.70873062]
      ],
      "pbc": [true, true, true],
      "a": 6.714032320795957,
      "b": 6.714420433261444,
      "c": 6.708926566304539,
      "alpha": 105.3920064961135,
      "beta": 105.39525172512216,
      "gamma": 117.97618317542356,
      "volume": 228.92146841272137
    },
    "properties": {},
    "sites": [
      {
        "species": [{ "element": "Ga", "occu": 1 }],
        "abc": [0.25002969, 0.749964699999999, 0.5000125400000001],
        "properties": { "magmom": -0.0 },
        "label": "Ga",
        "xyz": [-1.1728781637748196, 3.970249172305854, 1.5497236002244492]
      },
      {
        "species": [{ "element": "Ga", "occu": 1 }],
        "abc": [0.74997031, 0.2500353, 0.49998746],
        "properties": { "magmom": -0.0 },
        "label": "Ga",
        "xyz": [3.9276650737748238, 1.3075287576941412, 1.5492243497755527]
      },
      {
        "species": [{ "element": "Te", "occu": 1 }],
        "abc": [0.177954199999999, 0.67128296, 0.84966733],
        "properties": { "magmom": 0.0 },
        "label": "Te",
        "xyz": [-1.336666134759934, 3.5741027391741, 4.167561761319314]
      },
      {
        "species": [{ "element": "Te", "occu": 1 }],
        "abc": [0.822045799999999, 0.32871704, 0.15033267],
        "properties": { "magmom": 0.0 },
        "label": "Te",
        "xyz": [4.0914530447599216, 1.7036751908259005, -1.0686138113193109]
      },
      {
        "species": [{ "element": "Te", "occu": 1 }],
        "abc": [0.67135282, 0.82183523, 0.49301331000000004],
        "properties": { "magmom": 0.0 },
        "label": "Te",
        "xyz": [1.2830036836449263, 4.329604735484855, 0.6124980835697977]
      },
      {
        "species": [{ "element": "Te", "occu": 1 }],
        "abc": [0.32864718, 0.17816477, 0.50698669],
        "properties": { "magmom": 0.0 },
        "label": "Te",
        "xyz": [1.4717832263550739, 0.9481731945151455, 2.4864498664302026]
      },
      {
        "species": [{ "element": "Te", "occu": 1 }],
        "abc": [0.0, 0.0, 0.0],
        "properties": { "magmom": -0.0 },
        "label": "Te",
        "xyz": [0.0, 0.0, 0.0]
      }
    ]
  },
  "task_ids": null,
  "uncorrected_energy_per_atom": null,
  "energy_per_atom": -21.72335594,
  "formation_energy_per_atom": -0.298831161428572,
  "energy_above_hull": 0.0,
  "is_stable": true,
  "equilibrium_reaction_energy_per_atom": null,
  "decomposes_to": null,
  "xas": null,
  "grain_boundaries": null,
  "band_gap": 0.7230999999999991,
  "cbm": null,
  "vbm": null,
  "efermi": 3.76635341,
  "is_gap_direct": null,
  "is_metal": null,
  "es_source_calc_id": null,
  "bandstructure": null,
  "dos": null,
  "dos_energy_up": null,
  "dos_energy_down": null,
  "is_magnetic": null,
  "ordering": null,
  "total_magnetization": 0.0,
  "total_magnetization_normalized_vol": null,
  "total_magnetization_normalized_formula_units": null,
  "num_magnetic_sites": null,
  "num_unique_magnetic_sites": null,
  "types_of_magnetic_species": null,
  "bulk_modulus": null,
  "shear_modulus": null,
  "universal_anisotropy": null,
  "homogeneous_poisson": null,
  "e_total": null,
  "e_ionic": null,
  "e_electronic": null,
  "n": null,
  "e_ij_max": null,
  "weighted_surface_energy_EV_PER_ANG2": null,
  "weighted_surface_energy": null,
  "weighted_work_function": null,
  "surface_anisotropy": null,
  "shape_factor": null,
  "has_reconstructed": null,
  "possible_species": null,
  "has_props": null,
  "theoretical": null,
  "database_IDs": null,
  "fields_not_requested": [
    "builder_meta",
    "nsites",
    "elements",
    "nelements",
    "composition",
    "composition_reduced",
    "chemsys",
    "symmetry",
    "property_name",
    "deprecated",
    "deprecation_reasons",
    "last_updated",
    "origins",
    "warnings",
    "task_ids",
    "uncorrected_energy_per_atom",
    "equilibrium_reaction_energy_per_atom",
    "decomposes_to",
    "xas",
    "grain_boundaries",
    "cbm",
    "vbm",
    "is_gap_direct",
    "is_metal",
    "es_source_calc_id",
    "bandstructure",
    "dos",
    "dos_energy_up",
    "dos_energy_down",
    "is_magnetic",
    "ordering",
    "total_magnetization_normalized_vol",
    "total_magnetization_normalized_formula_units",
    "num_magnetic_sites",
    "num_unique_magnetic_sites",
    "types_of_magnetic_species",
    "bulk_modulus",
    "shear_modulus",
    "universal_anisotropy",
    "homogeneous_poisson",
    "e_total",
    "e_ionic",
    "e_electronic",
    "n",
    "e_ij_max",
    "weighted_surface_energy_EV_PER_ANG2",
    "weighted_surface_energy",
    "weighted_work_function",
    "surface_anisotropy",
    "shape_factor",
    "has_reconstructed",
    "possible_species",
    "has_props",
    "theoretical",
    "database_IDs"
  ]
}
