{
  "builder_meta": null,
  "nsites": null,
  "elements": null,
  "nelements": null,
  "composition": null,
  "composition_reduced": null,
  "formula_pretty": "Ga2Te3",
  "formula_anonymous": "A2B3",
  "chemsys": null,
  "volume": 320.9027447491865,
  "density": 5.404814384204682,
  "density_atomic": 32.09027447491865,
  "symmetry": null,
  "property_name": null,
  "material_id": "mp-38970",
  "deprecated": null,
  "deprecation_reasons": null,
  "last_updated": null,
  "origins": null,
  "warnings": null,
  "structure": {
    "@module": "pymatgen.core.structure",
    "@class": "Structure",
    "charge": 0,
    "lattice": {
      "matrix": [
        [8.48251041, 0.02365322, 0.01616168],
        [6.38459805, 10.95206681, -0.08905292000000001],
        [4.25618179, 4.8397371, 3.42328585]
      ],
      "pbc": [true, true, true],
      "a": 8.482558784380757,
      "b": 12.677491474788216,
      "c": 7.297741064017977,
      "alpha": 30.305558832351274,
      "beta": 54.12924980490899,
      "gamma": 59.601610909757824,
      "volume": 320.9027447491866
    },
    "properties": {},
    "sites": [
      {
        "species": [{ "element": "Ga", "occu": 1 }],
        "abc": [0.12244274000000001, 0.99241544, 0.24584503],
        "properties": { "magmom": 0.0 },
        "label": "Ga",
        "xyz": [8.42115663954082, 12.061721679763783, 0.7551992000889439]
      },
      {
        "species": [{ "element": "Ga", "occu": 1 }],
        "abc": [0.12482126, 0.66456348, 0.26440865],
        "properties": { "magmom": 0.0 },
        "label": "Ga",
        "xyz": [6.427139617097014, 8.56096441013547, 0.8479823930045578]
      },
      {
        "species": [{ "element": "Ga", "occu": 1 }],
        "abc": [0.62184474, 0.34057286000000003, 0.22401544],
        "properties": { "magmom": -0.0 },
        "label": "Ga",
        "xyz": [8.402675734699503, 4.828861182774664, 0.7465899339753361]
      },
      {
        "species": [{ "element": "Ga", "occu": 1 }],
        "abc": [0.62513696, 0.66886725, 0.25780492],
        "properties": { "magmom": -0.0 },
        "label": "Ga",
        "xyz": [10.670443916811024, 8.587973346952515, 0.8330786164952049]
      },
      {
        "species": [{ "element": "Te", "occu": 1 }],
        "abc": [0.9817544300000001, -0.00319812, 0.01024733],
        "properties": { "magmom": 0.0 },
        "label": "Te",
        "xyz": [8.350937961165073, 0.037790012789310407, 0.051231142650033305]
      },
      {
        "species": [{ "element": "Te", "occu": 1 }],
        "abc": [0.00817828, 0.31981224, 0.03399358],
        "properties": { "magmom": -0.0 },
        "label": "Te",
        "xyz": [2.2559278052789353, 3.667318452079634, 0.08802170232541259]
      },
      {
        "species": [{ "element": "Te", "occu": 1 }],
        "abc": [0.50855353, 0.013715380000000001, -0.0063637400000000005],
        "properties": { "magmom": 0.0 },
        "label": "Te",
        "xyz": [4.374292566365962, 0.1314418580386504, -0.0147872163182582]
      },
      {
        "species": [{ "element": "Te", "occu": 1 }],
        "abc": [0.01312373, 0.6437229, 0.01898165],
        "properties": { "magmom": 0.0 },
        "label": "Te",
        "xyz": [4.302023501497528, 7.142272822124074, 0.00786631146345089]
      },
      {
        "species": [{ "element": "Te", "occu": 1 }],
        "abc": [0.48157409, 0.336749199999999, 0.000246199999999],
        "properties": { "magmom": 0.0 },
        "label": "Te",
        "xyz": [6.236013389227024, 3.700682057785126, -0.021362640252526138]
      },
      {
        "species": [{ "element": "Te", "occu": 1 }],
        "abc": [0.5125702400000001, 0.68944837, 0.95081694],
        "properties": { "magmom": 0.0 },
        "label": "Te",
        "xyz": [12.796582860985403, 12.164712566764248, 3.2018047823009623]
      }
    ]
  },
  "task_ids": null,
  "uncorrected_energy_per_atom": null,
  "energy_per_atom": -20.229681385,
  "formation_energy_per_atom": -0.402236419000001,
  "energy_above_hull": 0.0,
  "is_stable": true,
  "equilibrium_reaction_energy_per_atom": null,
  "decomposes_to": null,
  "xas": null,
  "grain_boundaries": null,
  "band_gap": 0.6375000000000001,
  "cbm": null,
  "vbm": null,
  "efermi": 3.515628,
  "is_gap_direct": null,
  "is_metal": null,
  "es_source_calc_id": null,
  "bandstructure": null,
  "dos": null,
  "dos_energy_up": null,
  "dos_energy_down": null,
  "is_magnetic": null,
  "ordering": null,
  "total_magnetization": 0.0,
  "total_magnetization_normalized_vol": null,
  "total_magnetization_normalized_formula_units": null,
  "num_magnetic_sites": null,
  "num_unique_magnetic_sites": null,
  "types_of_magnetic_species": null,
  "bulk_modulus": null,
  "shear_modulus": null,
  "universal_anisotropy": null,
  "homogeneous_poisson": null,
  "e_total": null,
  "e_ionic": null,
  "e_electronic": null,
  "n": null,
  "e_ij_max": null,
  "weighted_surface_energy_EV_PER_ANG2": null,
  "weighted_surface_energy": null,
  "weighted_work_function": null,
  "surface_anisotropy": null,
  "shape_factor": null,
  "has_reconstructed": null,
  "possible_species": null,
  "has_props": null,
  "theoretical": null,
  "database_IDs": null,
  "fields_not_requested": [
    "builder_meta",
    "nsites",
    "elements",
    "nelements",
    "composition",
    "composition_reduced",
    "chemsys",
    "symmetry",
    "property_name",
    "deprecated",
    "deprecation_reasons",
    "last_updated",
    "origins",
    "warnings",
    "task_ids",
    "uncorrected_energy_per_atom",
    "equilibrium_reaction_energy_per_atom",
    "decomposes_to",
    "xas",
    "grain_boundaries",
    "cbm",
    "vbm",
    "is_gap_direct",
    "is_metal",
    "es_source_calc_id",
    "bandstructure",
    "dos",
    "dos_energy_up",
    "dos_energy_down",
    "is_magnetic",
    "ordering",
    "total_magnetization_normalized_vol",
    "total_magnetization_normalized_formula_units",
    "num_magnetic_sites",
    "num_unique_magnetic_sites",
    "types_of_magnetic_species",
    "bulk_modulus",
    "shear_modulus",
    "universal_anisotropy",
    "homogeneous_poisson",
    "e_total",
    "e_ionic",
    "e_electronic",
    "n",
    "e_ij_max",
    "weighted_surface_energy_EV_PER_ANG2",
    "weighted_surface_energy",
    "weighted_work_function",
    "surface_anisotropy",
    "shape_factor",
    "has_reconstructed",
    "possible_species",
    "has_props",
    "theoretical",
    "database_IDs"
  ]
}
