{
  "builder_meta": null,
  "nsites": null,
  "elements": null,
  "nelements": null,
  "composition": null,
  "composition_reduced": null,
  "formula_pretty": "Ga3Co",
  "formula_anonymous": "AB3",
  "chemsys": null,
  "volume": 244.26072030190545,
  "density": 7.290474998820155,
  "density_atomic": 15.26629501886909,
  "symmetry": null,
  "property_name": null,
  "material_id": "mp-20559",
  "deprecated": null,
  "deprecation_reasons": null,
  "last_updated": null,
  "origins": null,
  "warnings": null,
  "structure": {
    "@module": "pymatgen.core.structure",
    "@class": "Structure",
    "charge": 0,
    "lattice": {
      "matrix": [
        [6.18072931, 0.0, 0.0],
        [-0.0, 6.18072931, -0.0],
        [0.0, 0.0, 6.39402288]
      ],
      "pbc": [true, true, true],
      "a": 6.18072931,
      "b": 6.18072931,
      "c": 6.39402288,
      "alpha": 90.0,
      "beta": 90.0,
      "gamma": 90.0,
      "volume": 244.26072030190545
    },
    "properties": {},
    "sites": [
      {
        "species": [{ "element": "Ga", "occu": 1 }],
        "abc": [0.0, -0.0, 0.25],
        "properties": { "magmom": -0.0 },
        "label": "Ga",
        "xyz": [0.0, 0.0, 1.59850572]
      },
      {
        "species": [{ "element": "Ga", "occu": 1 }],
        "abc": [0.0, -0.0, 0.75],
        "properties": { "magmom": -0.0 },
        "label": "Ga",
        "xyz": [0.0, 0.0, 4.795517159999999]
      },
      {
        "species": [{ "element": "Ga", "occu": 1 }],
        "abc": [0.5, 0.5, 0.25],
        "properties": { "magmom": -0.0 },
        "label": "Ga",
        "xyz": [3.090364655, 3.090364655, 1.59850572]
      },
      {
        "species": [{ "element": "Ga", "occu": 1 }],
        "abc": [0.5, 0.5, 0.75],
        "properties": { "magmom": -0.0 },
        "label": "Ga",
        "xyz": [3.090364655, 3.090364655, 4.795517159999999]
      },
      {
        "species": [{ "element": "Ga", "occu": 1 }],
        "abc": [0.15173663, 0.34826337, 0.9929850800000001],
        "properties": { "magmom": 0.0 },
        "label": "Ga",
        "xyz": [0.9378430364416254, 2.152521618558375, 6.34916932101863]
      },
      {
        "species": [{ "element": "Ga", "occu": 1 }],
        "abc": [0.34826337, 0.8482633700000001, 0.00701492],
        "properties": { "magmom": 0.0 },
        "label": "Ga",
        "xyz": [2.152521618558375, 5.242886273558375, 0.0448535589813696]
      },
      {
        "species": [{ "element": "Ga", "occu": 1 }],
        "abc": [0.65173663, 0.15173663, 0.00701492],
        "properties": { "magmom": 0.0 },
        "label": "Ga",
        "xyz": [4.028207691441626, 0.9378430364416254, 0.0448535589813696]
      },
      {
        "species": [{ "element": "Ga", "occu": 1 }],
        "abc": [0.8482633700000001, 0.65173663, 0.9929850800000001],
        "properties": { "magmom": 0.0 },
        "label": "Ga",
        "xyz": [5.242886273558375, 4.028207691441626, 6.34916932101863]
      },
      {
        "species": [{ "element": "Ga", "occu": 1 }],
        "abc": [0.8482633700000001, 0.65173663, 0.50701492],
        "properties": { "magmom": 0.0 },
        "label": "Ga",
        "xyz": [5.242886273558375, 4.028207691441626, 3.2418649989813697]
      },
      {
        "species": [{ "element": "Ga", "occu": 1 }],
        "abc": [0.15173663, 0.34826337, 0.50701492],
        "properties": { "magmom": 0.0 },
        "label": "Ga",
        "xyz": [0.9378430364416254, 2.152521618558375, 3.2418649989813697]
      },
      {
        "species": [{ "element": "Ga", "occu": 1 }],
        "abc": [0.34826337, 0.8482633700000001, 0.49298508],
        "properties": { "magmom": 0.0 },
        "label": "Ga",
        "xyz": [2.152521618558375, 5.242886273558375, 3.1521578810186304]
      },
      {
        "species": [{ "element": "Ga", "occu": 1 }],
        "abc": [0.65173663, 0.15173663, 0.49298508],
        "properties": { "magmom": 0.0 },
        "label": "Ga",
        "xyz": [4.028207691441626, 0.9378430364416254, 3.1521578810186304]
      },
      {
        "species": [{ "element": "Co", "occu": 1 }],
        "abc": [0.34409123, 0.15590877, 0.25],
        "properties": { "magmom": -0.0 },
        "label": "Co",
        "xyz": [2.1267347505749514, 0.9636299044250487, 1.59850572]
      },
      {
        "species": [{ "element": "Co", "occu": 1 }],
        "abc": [0.15590877, 0.65590877, 0.75],
        "properties": { "magmom": -0.0 },
        "label": "Co",
        "xyz": [0.9636299044250487, 4.053994559425049, 4.795517159999999]
      },
      {
        "species": [{ "element": "Co", "occu": 1 }],
        "abc": [0.84409123, 0.34409123, 0.75],
        "properties": { "magmom": -0.0 },
        "label": "Co",
        "xyz": [5.2170994055749516, 2.1267347505749514, 4.795517159999999]
      },
      {
        "species": [{ "element": "Co", "occu": 1 }],
        "abc": [0.65590877, 0.84409123, 0.25],
        "properties": { "magmom": -0.0 },
        "label": "Co",
        "xyz": [4.053994559425049, 5.2170994055749516, 1.59850572]
      }
    ]
  },
  "task_ids": null,
  "uncorrected_energy_per_atom": null,
  "energy_per_atom": -12.091302928125,
  "formation_energy_per_atom": -0.200663183125,
  "energy_above_hull": 0.0,
  "is_stable": true,
  "equilibrium_reaction_energy_per_atom": null,
  "decomposes_to": null,
  "xas": null,
  "grain_boundaries": null,
  "band_gap": 0.0,
  "cbm": null,
  "vbm": null,
  "efermi": 4.26989521,
  "is_gap_direct": null,
  "is_metal": null,
  "es_source_calc_id": null,
  "bandstructure": null,
  "dos": null,
  "dos_energy_up": null,
  "dos_energy_down": null,
  "is_magnetic": null,
  "ordering": null,
  "total_magnetization": 1e-7,
  "total_magnetization_normalized_vol": null,
  "total_magnetization_normalized_formula_units": null,
  "num_magnetic_sites": null,
  "num_unique_magnetic_sites": null,
  "types_of_magnetic_species": null,
  "bulk_modulus": null,
  "shear_modulus": null,
  "universal_anisotropy": null,
  "homogeneous_poisson": null,
  "e_total": null,
  "e_ionic": null,
  "e_electronic": null,
  "n": null,
  "e_ij_max": null,
  "weighted_surface_energy_EV_PER_ANG2": null,
  "weighted_surface_energy": null,
  "weighted_work_function": null,
  "surface_anisotropy": null,
  "shape_factor": null,
  "has_reconstructed": null,
  "possible_species": null,
  "has_props": null,
  "theoretical": null,
  "database_IDs": null,
  "fields_not_requested": [
    "builder_meta",
    "nsites",
    "elements",
    "nelements",
    "composition",
    "composition_reduced",
    "chemsys",
    "symmetry",
    "property_name",
    "deprecated",
    "deprecation_reasons",
    "last_updated",
    "origins",
    "warnings",
    "task_ids",
    "uncorrected_energy_per_atom",
    "equilibrium_reaction_energy_per_atom",
    "decomposes_to",
    "xas",
    "grain_boundaries",
    "cbm",
    "vbm",
    "is_gap_direct",
    "is_metal",
    "es_source_calc_id",
    "bandstructure",
    "dos",
    "dos_energy_up",
    "dos_energy_down",
    "is_magnetic",
    "ordering",
    "total_magnetization_normalized_vol",
    "total_magnetization_normalized_formula_units",
    "num_magnetic_sites",
    "num_unique_magnetic_sites",
    "types_of_magnetic_species",
    "bulk_modulus",
    "shear_modulus",
    "universal_anisotropy",
    "homogeneous_poisson",
    "e_total",
    "e_ionic",
    "e_electronic",
    "n",
    "e_ij_max",
    "weighted_surface_energy_EV_PER_ANG2",
    "weighted_surface_energy",
    "weighted_work_function",
    "surface_anisotropy",
    "shape_factor",
    "has_reconstructed",
    "possible_species",
    "has_props",
    "theoretical",
    "database_IDs"
  ]
}
