{
  "builder_meta": null,
  "nsites": null,
  "elements": null,
  "nelements": null,
  "composition": null,
  "composition_reduced": null,
  "formula_pretty": "Ga3Fe",
  "formula_anonymous": "AB3",
  "chemsys": null,
  "volume": 248.47301477035109,
  "density": 7.084328261604737,
  "density_atomic": 15.529563423146943,
  "symmetry": null,
  "property_name": null,
  "material_id": "mp-636368",
  "deprecated": null,
  "deprecation_reasons": null,
  "last_updated": null,
  "origins": null,
  "warnings": null,
  "structure": {
    "@module": "pymatgen.core.structure",
    "@class": "Structure",
    "charge": 0,
    "lattice": {
      "matrix": [
        [6.18354969, -1.4830000000000002e-5, 1.7330000000000002e-5],
        [-1.6830000000000003e-5, 6.18354917, 2.7510000000000006e-5],
        [-1.9540000000000003e-5, -3.1840000000000014e-5, 6.49835684]
      ],
      "pbc": [true, true, true],
      "a": 6.183549690042068,
      "b": 6.183549170084098,
      "c": 6.49835684010738,
      "alpha": 90.0000258284022,
      "beta": 90.00001170580683,
      "gamma": 90.00029335578007,
      "volume": 248.47301477035109
    },
    "properties": {},
    "sites": [
      {
        "species": [{ "element": "Ga", "occu": 1 }],
        "abc": [0.34455749, 0.65543948, 0.7634950500000001],
        "properties": { "magmom": -0.0 },
        "label": "Ga",
        "xyz": [2.1305624107369527, 4.052912833069262, 4.961487282795038]
      },
      {
        "species": [{ "element": "Ga", "occu": 1 }],
        "abc": [0.15541194, 0.15539946000000002, 0.73644181],
        "properties": { "magmom": 0.0 },
        "label": "Ga",
        "xyz": [0.9609804479634194, 0.9608944488351477, 4.785668641603545]
      },
      {
        "species": [{ "element": "Ga", "occu": 1 }],
        "abc": [0.65543112, 0.34456612000000003, 0.23650099],
        "properties": { "magmom": 0.0 },
        "label": "Ga",
        "xyz": [4.052880478615209, 2.1306242951010894, 1.5368886636685424]
      },
      {
        "species": [{ "element": "Ga", "occu": 1 }],
        "abc": [0.65543119, 0.34456547, 0.76349977],
        "properties": { "magmom": 0.0 },
        "label": "Ga",
        "xyz": [4.052870613918466, 2.1306034961519353, 4.961514790336529]
      },
      {
        "species": [{ "element": "Ga", "occu": 1 }],
        "abc": [0.49999504, -1.762e-5, 3.799999999999998e-7],
        "properties": { "magmom": -0.0 },
        "label": "Ga",
        "xyz": [3.091744174882657, -0.0001163690749178, 1.11338049162e-5]
      },
      {
        "species": [{ "element": "Ga", "occu": 1 }],
        "abc": [0.84459941, 0.84458685, 0.26355572],
        "properties": { "magmom": -0.0 },
        "label": "Ga",
        "xyz": [5.222603055604229, 5.22252339828704, 1.7127169872751435]
      },
      {
        "species": [{ "element": "Ga", "occu": 1 }],
        "abc": [1.1530000000000001e-5, 0.49999299, 0.50000035],
        "properties": { "magmom": -0.0 },
        "label": "Ga",
        "xyz": [5.3111439065000015e-5, 3.0917153181381845, 3.2491944494318634]
      },
      {
        "species": [{ "element": "Ga", "occu": 1 }],
        "abc": [0.15541342, 0.15540135, 0.26355952],
        "properties": { "magmom": 0.0 },
        "label": "Ga",
        "xyz": [0.9609988397050986, 0.9609211922932441, 1.7127107779448238]
      },
      {
        "species": [{ "element": "Ga", "occu": 1 }],
        "abc": [0.34455612, 0.65544052, 0.23650307],
        "properties": { "magmom": -0.0 },
        "label": "Ga",
        "xyz": [2.1305642366796635, 4.052936043405359, 1.5369053449417636]
      },
      {
        "species": [{ "element": "Ga", "occu": 1 }],
        "abc": [0.84459837, 0.84458605, 0.73644336],
        "properties": { "magmom": -0.0 },
        "label": "Ga",
        "xyz": [5.222587384501529, 5.222503394720669, 4.7857096171805695]
      },
      {
        "species": [{ "element": "Ga", "occu": 1 }],
        "abc": [0.49999961, -6.65e-6, 0.49999982],
        "properties": { "magmom": -0.0 },
        "label": "Ga",
        "xyz": [3.0917626635310573, -6.44555904656e-5, 3.2491859151060685]
      },
      {
        "species": [{ "element": "Ga", "occu": 1 }],
        "abc": [-1.063e-5, 0.50000343, 0.99999928],
        "properties": { "magmom": -0.0 },
        "label": "Ga",
        "xyz": [-9.368617686280002e-5, 3.091763954754221, 6.498365916093217]
      },
      {
        "species": [{ "element": "Fe", "occu": 1 }],
        "abc": [0.84318958, 0.15681985, 0.50000014],
        "properties": { "magmom": -0.0 },
        "label": "Fe",
        "xyz": [5.2138922567394195, 0.9696748288010956, 3.2491982563594526]
      },
      {
        "species": [{ "element": "Fe", "occu": 1 }],
        "abc": [0.1568155, 0.84319415, 0.49999997],
        "properties": { "magmom": 0.0 },
        "label": "Fe",
        "xyz": [0.9696524754552367, 5.213914240808446, 3.2492041389329764]
      },
      {
        "species": [{ "element": "Fe", "occu": 1 }],
        "abc": [0.34316419, 0.34317778, 3.5e-7],
        "properties": { "magmom": -0.0 },
        "label": "Fe",
        "xyz": [2.1219670450047246, 2.1220515875453607, 1.76622810345e-5]
      },
      {
        "species": [{ "element": "Fe", "occu": 1 }],
        "abc": [0.65683712, 0.65685077, -5.8e-7],
        "properties": { "magmom": 0.0 },
        "label": "Fe",
        "xyz": [4.061573914969368, 4.061659292771339, 2.5683905005100006e-5]
      }
    ]
  },
  "task_ids": null,
  "uncorrected_energy_per_atom": null,
  "energy_per_atom": -4.626824463125,
  "formation_energy_per_atom": -0.23824714374999903,
  "energy_above_hull": 0.0,
  "is_stable": true,
  "equilibrium_reaction_energy_per_atom": null,
  "decomposes_to": null,
  "xas": null,
  "grain_boundaries": null,
  "band_gap": 0.22150000000000003,
  "cbm": null,
  "vbm": null,
  "efermi": 4.01970796,
  "is_gap_direct": null,
  "is_metal": null,
  "es_source_calc_id": null,
  "bandstructure": null,
  "dos": null,
  "dos_energy_up": null,
  "dos_energy_down": null,
  "is_magnetic": null,
  "ordering": null,
  "total_magnetization": 0.0,
  "total_magnetization_normalized_vol": null,
  "total_magnetization_normalized_formula_units": null,
  "num_magnetic_sites": null,
  "num_unique_magnetic_sites": null,
  "types_of_magnetic_species": null,
  "bulk_modulus": null,
  "shear_modulus": null,
  "universal_anisotropy": null,
  "homogeneous_poisson": null,
  "e_total": null,
  "e_ionic": null,
  "e_electronic": null,
  "n": null,
  "e_ij_max": null,
  "weighted_surface_energy_EV_PER_ANG2": null,
  "weighted_surface_energy": null,
  "weighted_work_function": null,
  "surface_anisotropy": null,
  "shape_factor": null,
  "has_reconstructed": null,
  "possible_species": null,
  "has_props": null,
  "theoretical": null,
  "database_IDs": null,
  "fields_not_requested": [
    "builder_meta",
    "nsites",
    "elements",
    "nelements",
    "composition",
    "composition_reduced",
    "chemsys",
    "symmetry",
    "property_name",
    "deprecated",
    "deprecation_reasons",
    "last_updated",
    "origins",
    "warnings",
    "task_ids",
    "uncorrected_energy_per_atom",
    "equilibrium_reaction_energy_per_atom",
    "decomposes_to",
    "xas",
    "grain_boundaries",
    "cbm",
    "vbm",
    "is_gap_direct",
    "is_metal",
    "es_source_calc_id",
    "bandstructure",
    "dos",
    "dos_energy_up",
    "dos_energy_down",
    "is_magnetic",
    "ordering",
    "total_magnetization_normalized_vol",
    "total_magnetization_normalized_formula_units",
    "num_magnetic_sites",
    "num_unique_magnetic_sites",
    "types_of_magnetic_species",
    "bulk_modulus",
    "shear_modulus",
    "universal_anisotropy",
    "homogeneous_poisson",
    "e_total",
    "e_ionic",
    "e_electronic",
    "n",
    "e_ij_max",
    "weighted_surface_energy_EV_PER_ANG2",
    "weighted_surface_energy",
    "weighted_work_function",
    "surface_anisotropy",
    "shape_factor",
    "has_reconstructed",
    "possible_species",
    "has_props",
    "theoretical",
    "database_IDs"
  ]
}
