{
  "builder_meta": null,
  "nsites": null,
  "elements": null,
  "nelements": null,
  "composition": null,
  "composition_reduced": null,
  "formula_pretty": "Ga3Ir",
  "formula_anonymous": "AB3",
  "chemsys": null,
  "volume": 281.19564591089505,
  "density": 9.481187116211787,
  "density_atomic": 17.57472786943094,
  "symmetry": null,
  "property_name": null,
  "material_id": "mp-1189634",
  "deprecated": null,
  "deprecation_reasons": null,
  "last_updated": null,
  "origins": null,
  "warnings": null,
  "structure": {
    "@module": "pymatgen.core.structure",
    "@class": "Structure",
    "charge": 0,
    "lattice": {
      "matrix": [
        [6.52093372, 0.0, 0.0],
        [-0.0, 6.52093372, 0.0],
        [0.0, 0.0, 6.6128553]
      ],
      "pbc": [true, true, true],
      "a": 6.52093372,
      "b": 6.52093372,
      "c": 6.6128553,
      "alpha": 90.0,
      "beta": 90.0,
      "gamma": 90.0,
      "volume": 281.19564591089505
    },
    "properties": {},
    "sites": [
      {
        "species": [{ "element": "Ga", "occu": 1 }],
        "abc": [0.0, 0.5, 0.5],
        "properties": { "magmom": -0.0 },
        "label": "Ga",
        "xyz": [0.0, 3.26046686, 3.30642765]
      },
      {
        "species": [{ "element": "Ga", "occu": 1 }],
        "abc": [0.5, 0.0, -0.0],
        "properties": { "magmom": -0.0 },
        "label": "Ga",
        "xyz": [3.26046686, 0.0, 0.0]
      },
      {
        "species": [{ "element": "Ga", "occu": 1 }],
        "abc": [0.5, 0.0, 0.5],
        "properties": { "magmom": -0.0 },
        "label": "Ga",
        "xyz": [3.26046686, 0.0, 3.30642765]
      },
      {
        "species": [{ "element": "Ga", "occu": 1 }],
        "abc": [0.0, 0.5, -0.0],
        "properties": { "magmom": -0.0 },
        "label": "Ga",
        "xyz": [0.0, 3.26046686, 0.0]
      },
      {
        "species": [{ "element": "Ga", "occu": 1 }],
        "abc": [0.36223589, 0.63776411, 0.25837275],
        "properties": { "magmom": 0.0 },
        "label": "Ga",
        "xyz": [2.362116229695211, 4.15881749030479, 1.7085816092130748]
      },
      {
        "species": [{ "element": "Ga", "occu": 1 }],
        "abc": [0.63776411, 0.36223589, 0.25837275],
        "properties": { "magmom": 0.0 },
        "label": "Ga",
        "xyz": [4.15881749030479, 2.362116229695211, 1.7085816092130748]
      },
      {
        "species": [{ "element": "Ga", "occu": 1 }],
        "abc": [0.13776411, 0.13776411, 0.75837275],
        "properties": { "magmom": 0.0 },
        "label": "Ga",
        "xyz": [0.8983506303047892, 0.8983506303047892, 5.015009259213075]
      },
      {
        "species": [{ "element": "Ga", "occu": 1 }],
        "abc": [0.86223589, 0.86223589, 0.75837275],
        "properties": { "magmom": 0.0 },
        "label": "Ga",
        "xyz": [5.622583089695211, 5.622583089695211, 5.015009259213075]
      },
      {
        "species": [{ "element": "Ga", "occu": 1 }],
        "abc": [0.63776411, 0.36223589, 0.74162725],
        "properties": { "magmom": 0.0 },
        "label": "Ga",
        "xyz": [4.15881749030479, 2.362116229695211, 4.904273690786924]
      },
      {
        "species": [{ "element": "Ga", "occu": 1 }],
        "abc": [0.36223589, 0.63776411, 0.74162725],
        "properties": { "magmom": 0.0 },
        "label": "Ga",
        "xyz": [2.362116229695211, 4.15881749030479, 4.904273690786924]
      },
      {
        "species": [{ "element": "Ga", "occu": 1 }],
        "abc": [0.86223589, 0.86223589, 0.24162725000000002],
        "properties": { "magmom": 0.0 },
        "label": "Ga",
        "xyz": [5.622583089695211, 5.622583089695211, 1.597846040786925]
      },
      {
        "species": [{ "element": "Ga", "occu": 1 }],
        "abc": [0.13776411, 0.13776411, 0.24162725000000002],
        "properties": { "magmom": 0.0 },
        "label": "Ga",
        "xyz": [0.8983506303047892, 0.8983506303047892, 1.597846040786925]
      },
      {
        "species": [{ "element": "Ir", "occu": 1 }],
        "abc": [0.16030357, 0.83969643, 0.5],
        "properties": { "magmom": 0.0 },
        "label": "Ir",
        "xyz": [1.0453289550493805, 5.47560476495062, 3.30642765]
      },
      {
        "species": [{ "element": "Ir", "occu": 1 }],
        "abc": [0.83969643, 0.16030357, 0.5],
        "properties": { "magmom": 0.0 },
        "label": "Ir",
        "xyz": [5.47560476495062, 1.0453289550493805, 3.30642765]
      },
      {
        "species": [{ "element": "Ir", "occu": 1 }],
        "abc": [0.33969643, 0.33969643, -0.0],
        "properties": { "magmom": 0.0 },
        "label": "Ir",
        "xyz": [2.2151379049506197, 2.2151379049506197, 0.0]
      },
      {
        "species": [{ "element": "Ir", "occu": 1 }],
        "abc": [0.6603035700000001, 0.6603035700000001, -0.0],
        "properties": { "magmom": 0.0 },
        "label": "Ir",
        "xyz": [4.305795815049381, 4.305795815049381, 0.0]
      }
    ]
  },
  "task_ids": null,
  "uncorrected_energy_per_atom": null,
  "energy_per_atom": -22.060565744375,
  "formation_energy_per_atom": -0.388645419374999,
  "energy_above_hull": 0.022756848625000003,
  "is_stable": false,
  "equilibrium_reaction_energy_per_atom": null,
  "decomposes_to": null,
  "xas": null,
  "grain_boundaries": null,
  "band_gap": 0.0,
  "cbm": null,
  "vbm": null,
  "efermi": 4.82439749,
  "is_gap_direct": null,
  "is_metal": null,
  "es_source_calc_id": null,
  "bandstructure": null,
  "dos": null,
  "dos_energy_up": null,
  "dos_energy_down": null,
  "is_magnetic": null,
  "ordering": null,
  "total_magnetization": 0.0,
  "total_magnetization_normalized_vol": null,
  "total_magnetization_normalized_formula_units": null,
  "num_magnetic_sites": null,
  "num_unique_magnetic_sites": null,
  "types_of_magnetic_species": null,
  "bulk_modulus": null,
  "shear_modulus": null,
  "universal_anisotropy": null,
  "homogeneous_poisson": null,
  "e_total": null,
  "e_ionic": null,
  "e_electronic": null,
  "n": null,
  "e_ij_max": null,
  "weighted_surface_energy_EV_PER_ANG2": null,
  "weighted_surface_energy": null,
  "weighted_work_function": null,
  "surface_anisotropy": null,
  "shape_factor": null,
  "has_reconstructed": null,
  "possible_species": null,
  "has_props": null,
  "theoretical": null,
  "database_IDs": null,
  "fields_not_requested": [
    "builder_meta",
    "nsites",
    "elements",
    "nelements",
    "composition",
    "composition_reduced",
    "chemsys",
    "symmetry",
    "property_name",
    "deprecated",
    "deprecation_reasons",
    "last_updated",
    "origins",
    "warnings",
    "task_ids",
    "uncorrected_energy_per_atom",
    "equilibrium_reaction_energy_per_atom",
    "decomposes_to",
    "xas",
    "grain_boundaries",
    "cbm",
    "vbm",
    "is_gap_direct",
    "is_metal",
    "es_source_calc_id",
    "bandstructure",
    "dos",
    "dos_energy_up",
    "dos_energy_down",
    "is_magnetic",
    "ordering",
    "total_magnetization_normalized_vol",
    "total_magnetization_normalized_formula_units",
    "num_magnetic_sites",
    "num_unique_magnetic_sites",
    "types_of_magnetic_species",
    "bulk_modulus",
    "shear_modulus",
    "universal_anisotropy",
    "homogeneous_poisson",
    "e_total",
    "e_ionic",
    "e_electronic",
    "n",
    "e_ij_max",
    "weighted_surface_energy_EV_PER_ANG2",
    "weighted_surface_energy",
    "weighted_work_function",
    "surface_anisotropy",
    "shape_factor",
    "has_reconstructed",
    "possible_species",
    "has_props",
    "theoretical",
    "database_IDs"
  ]
}
