{
  "builder_meta": null,
  "nsites": null,
  "elements": null,
  "nelements": null,
  "composition": null,
  "composition_reduced": null,
  "formula_pretty": "Ga3Ni5",
  "formula_anonymous": "A3B5",
  "chemsys": null,
  "volume": 91.8533943569053,
  "density": 9.086726953567513,
  "density_atomic": 11.481674294613162,
  "symmetry": null,
  "property_name": null,
  "material_id": "mp-11398",
  "deprecated": null,
  "deprecation_reasons": null,
  "last_updated": null,
  "origins": null,
  "warnings": null,
  "structure": {
    "@module": "pymatgen.core.structure",
    "@class": "Structure",
    "charge": 0,
    "lattice": {
      "matrix": [
        [3.693486199999999, 0.0, 0.0],
        [0.0, 4.97084257, -0.54574882],
        [0.0, 0.02105405, 5.00066794]
      ],
      "pbc": [true, true, true],
      "a": 3.693486199999999,
      "b": 5.00071171237211,
      "c": 5.000712261184924,
      "alpha": 96.02418212428807,
      "beta": 90.0,
      "gamma": 90.0,
      "volume": 91.85339435690526
    },
    "properties": {},
    "sites": [
      {
        "species": [{ "element": "Ga", "occu": 1 }],
        "abc": [0.5, 0.71913779, 0.28086221],
        "properties": { "magmom": 0.0 },
        "label": "Ga",
        "xyz": [1.8467430999999994, 3.580634027240171, 1.0120300487946394]
      },
      {
        "species": [{ "element": "Ga", "occu": 1 }],
        "abc": [0.5, 0.28086221, 0.71913779],
        "properties": { "magmom": 0.0 },
        "label": "Ga",
        "xyz": [1.8467430999999994, 1.4112625927598292, 3.44288907120536]
      },
      {
        "species": [{ "element": "Ga", "occu": 1 }],
        "abc": [-0.0, 0.0, -0.0],
        "properties": { "magmom": -0.0 },
        "label": "Ga",
        "xyz": [0.0, 0.0, 0.0]
      },
      {
        "species": [{ "element": "Ni", "occu": 1 }],
        "abc": [0.5, 0.77475327, 0.77475327],
        "properties": { "magmom": -0.0 },
        "label": "Ni",
        "xyz": [1.8467430999999994, 3.867488229846948, 3.451463155805522]
      },
      {
        "species": [{ "element": "Ni", "occu": 1 }],
        "abc": [0.5, 0.22524673, 0.22524673],
        "properties": { "magmom": -0.0 },
        "label": "Ni",
        "xyz": [1.8467430999999994, 1.1244083901530526, 1.0034559641944776]
      },
      {
        "species": [{ "element": "Ni", "occu": 1 }],
        "abc": [-0.0, 0.0, 0.5],
        "properties": { "magmom": -0.0 },
        "label": "Ni",
        "xyz": [0.0, 0.010527025, 2.50033397]
      },
      {
        "species": [{ "element": "Ni", "occu": 1 }],
        "abc": [-0.0, 0.5, 0.5],
        "properties": { "magmom": 0.0 },
        "label": "Ni",
        "xyz": [0.0, 2.49594831, 2.22745956]
      },
      {
        "species": [{ "element": "Ni", "occu": 1 }],
        "abc": [-0.0, 0.5, -0.0],
        "properties": { "magmom": -0.0 },
        "label": "Ni",
        "xyz": [0.0, 2.485421285, -0.27287441]
      }
    ]
  },
  "task_ids": null,
  "uncorrected_energy_per_atom": null,
  "energy_per_atom": -12.1391213325,
  "formation_energy_per_atom": -0.35950712624999903,
  "energy_above_hull": 0.0,
  "is_stable": true,
  "equilibrium_reaction_energy_per_atom": null,
  "decomposes_to": null,
  "xas": null,
  "grain_boundaries": null,
  "band_gap": 0.0,
  "cbm": null,
  "vbm": null,
  "efermi": 7.02996943,
  "is_gap_direct": null,
  "is_metal": null,
  "es_source_calc_id": null,
  "bandstructure": null,
  "dos": null,
  "dos_energy_up": null,
  "dos_energy_down": null,
  "is_magnetic": null,
  "ordering": null,
  "total_magnetization": 1e-7,
  "total_magnetization_normalized_vol": null,
  "total_magnetization_normalized_formula_units": null,
  "num_magnetic_sites": null,
  "num_unique_magnetic_sites": null,
  "types_of_magnetic_species": null,
  "bulk_modulus": null,
  "shear_modulus": null,
  "universal_anisotropy": null,
  "homogeneous_poisson": null,
  "e_total": null,
  "e_ionic": null,
  "e_electronic": null,
  "n": null,
  "e_ij_max": null,
  "weighted_surface_energy_EV_PER_ANG2": null,
  "weighted_surface_energy": null,
  "weighted_work_function": null,
  "surface_anisotropy": null,
  "shape_factor": null,
  "has_reconstructed": null,
  "possible_species": null,
  "has_props": null,
  "theoretical": null,
  "database_IDs": null,
  "fields_not_requested": [
    "builder_meta",
    "nsites",
    "elements",
    "nelements",
    "composition",
    "composition_reduced",
    "chemsys",
    "symmetry",
    "property_name",
    "deprecated",
    "deprecation_reasons",
    "last_updated",
    "origins",
    "warnings",
    "task_ids",
    "uncorrected_energy_per_atom",
    "equilibrium_reaction_energy_per_atom",
    "decomposes_to",
    "xas",
    "grain_boundaries",
    "cbm",
    "vbm",
    "is_gap_direct",
    "is_metal",
    "es_source_calc_id",
    "bandstructure",
    "dos",
    "dos_energy_up",
    "dos_energy_down",
    "is_magnetic",
    "ordering",
    "total_magnetization_normalized_vol",
    "total_magnetization_normalized_formula_units",
    "num_magnetic_sites",
    "num_unique_magnetic_sites",
    "types_of_magnetic_species",
    "bulk_modulus",
    "shear_modulus",
    "universal_anisotropy",
    "homogeneous_poisson",
    "e_total",
    "e_ionic",
    "e_electronic",
    "n",
    "e_ij_max",
    "weighted_surface_energy_EV_PER_ANG2",
    "weighted_surface_energy",
    "weighted_work_function",
    "surface_anisotropy",
    "shape_factor",
    "has_reconstructed",
    "possible_species",
    "has_props",
    "theoretical",
    "database_IDs"
  ]
}
