{"builder_meta": null, "nsites": null, "elements": null, "nelements": null, "composition": null, "composition_reduced": null, "formula_pretty": "Ga3Os", "formula_anonymous": "AB3", "chemsys": null, "volume": 285.8497993541225, "density": 9.280645208210931, "density_atomic": 17.865612459632658, "symmetry": null, "property_name": null, "material_id": "mp-570844", "deprecated": null, "deprecation_reasons": null, "last_updated": null, "origins": null, "warnings": null, "structure": {"@module": "pymatgen.core.structure", "@class": "Structure", "charge": 0, "lattice": {"matrix": [[6.48603931, 0.0, 0.0], [-0.0, 6.48603931, -0.0], [-0.0, 0.0, 6.79483224]], "pbc": [true, true, true], "a": 6.48603931, "b": 6.48603931, "c": 6.79483224, "alpha": 90.0, "beta": 90.0, "gamma": 90.0, "volume": 285.8497993541225}, "properties": {}, "sites": [{"species": [{"element": "Ga", "occu": 1}], "abc": [0.15438456, 0.34561544, 0.9839046300000001], "properties": {"magmom": 0.0}, "label": "Ga", "xyz": [1.0013443250170535, 2.241675329982946, 6.6854669010092715]}, {"species": [{"element": "Ga", "occu": 1}], "abc": [0.15438456, 0.34561544, 0.51609537], "properties": {"magmom": 0.0}, "label": "Ga", "xyz": [1.0013443250170535, 2.241675329982946, 3.506781458990729]}, {"species": [{"element": "Ga", "occu": 1}], "abc": [0.34561544, 0.84561544, 0.01609537], "properties": {"magmom": 0.0}, "label": "Ga", "xyz": [2.241675329982946, 5.484694984982946, 0.10936533899072881]}, {"species": [{"element": "Ga", "occu": 1}], "abc": [0.65438456, 0.15438456, 0.01609537], "properties": {"magmom": 0.0}, "label": "Ga", "xyz": [4.244363980017053, 1.0013443250170535, 0.10936533899072881]}, {"species": [{"element": "Ga", "occu": 1}], "abc": [0.5, 0.5, 0.25], "properties": {"magmom": 0.0}, "label": "Ga", "xyz": [3.243019655, 3.243019655, 1.69870806]}, {"species": [{"element": "Ga", "occu": 1}], "abc": [-0.0, 0.0, 0.75], "properties": {"magmom": 0.0}, "label": "Ga", "xyz": [0.0, 0.0, 5.09612418]}, {"species": [{"element": "Ga", "occu": 1}], "abc": [0.34561544, 0.84561544, 0.48390463], "properties": {"magmom": 0.0}, "label": "Ga", "xyz": [2.241675329982946, 5.484694984982946, 3.288050781009271]}, {"species": [{"element": "Ga", "occu": 1}], "abc": [0.84561544, 0.65438456, 0.9839046300000001], "properties": {"magmom": 0.0}, "label": "Ga", "xyz": [5.484694984982946, 4.244363980017053, 6.6854669010092715]}, {"species": [{"element": "Ga", "occu": 1}], "abc": [0.65438456, 0.15438456, 0.48390463], "properties": {"magmom": 0.0}, "label": "Ga", "xyz": [4.244363980017053, 1.0013443250170535, 3.288050781009271]}, {"species": [{"element": "Ga", "occu": 1}], "abc": [-0.0, 0.0, 0.25], "properties": {"magmom": 0.0}, "label": "Ga", "xyz": [0.0, 0.0, 1.69870806]}, {"species": [{"element": "Ga", "occu": 1}], "abc": [0.84561544, 0.65438456, 0.51609537], "properties": {"magmom": 0.0}, "label": "Ga", "xyz": [5.484694984982946, 4.244363980017053, 3.506781458990729]}, {"species": [{"element": "Ga", "occu": 1}], "abc": [0.5, 0.5, 0.75], "properties": {"magmom": 0.0}, "label": "Ga", "xyz": [3.243019655, 3.243019655, 5.09612418]}, {"species": [{"element": "Os", "occu": 1}], "abc": [0.33877359, 0.16122641000000001, 0.25], "properties": {"magmom": -0.0}, "label": "Os", "xyz": [2.197298821929823, 1.0457208330701773, 1.69870806]}, {"species": [{"element": "Os", "occu": 1}], "abc": [0.16122641000000001, 0.66122641, 0.75], "properties": {"magmom": -0.0}, "label": "Os", "xyz": [1.0457208330701773, 4.288740488070177, 5.09612418]}, {"species": [{"element": "Os", "occu": 1}], "abc": [0.66122641, 0.8387735900000001, 0.25], "properties": {"magmom": -0.0}, "label": "Os", "xyz": [4.288740488070177, 5.440318476929823, 1.69870806]}, {"species": [{"element": "Os", "occu": 1}], "abc": [0.8387735900000001, 0.33877359, 0.75], "properties": {"magmom": -0.0}, "label": "Os", "xyz": [5.440318476929823, 2.197298821929823, 5.09612418]}]}, "task_ids": null, "uncorrected_energy_per_atom": null, "energy_per_atom": -22.14267585625, "formation_energy_per_atom": -0.31428668125000303, "energy_above_hull": 0.0, "is_stable": true, "equilibrium_reaction_energy_per_atom": null, "decomposes_to": null, "xas": null, "grain_boundaries": null, "band_gap": 0.676999999999999, "cbm": null, "vbm": null, "efermi": 3.79161854, "is_gap_direct": null, "is_metal": null, "es_source_calc_id": null, "bandstructure": null, "dos": null, "dos_energy_up": null, "dos_energy_down": null, "is_magnetic": null, "ordering": null, "total_magnetization": 0.0, "total_magnetization_normalized_vol": null, "total_magnetization_normalized_formula_units": null, "num_magnetic_sites": null, "num_unique_magnetic_sites": null, "types_of_magnetic_species": null, "bulk_modulus": null, "shear_modulus": null, "universal_anisotropy": null, "homogeneous_poisson": null, "e_total": null, "e_ionic": null, "e_electronic": null, "n": null, "e_ij_max": null, "weighted_surface_energy_EV_PER_ANG2": null, "weighted_surface_energy": null, "weighted_work_function": null, "surface_anisotropy": null, "shape_factor": null, "has_reconstructed": null, "possible_species": null, "has_props": null, "theoretical": null, "database_IDs": null, "fields_not_requested": ["builder_meta", "nsites", "elements", "nelements", "composition", "composition_reduced", "chemsys", "symmetry", "property_name", "deprecated", "deprecation_reasons", "last_updated", "origins", "warnings", "task_ids", "uncorrected_energy_per_atom", "equilibrium_reaction_energy_per_atom", "decomposes_to", "xas", "grain_boundaries", "cbm", "vbm", "is_gap_direct", "is_metal", "es_source_calc_id", "bandstructure", "dos", "dos_energy_up", "dos_energy_down", "is_magnetic", "ordering", "total_magnetization_normalized_vol", "total_magnetization_normalized_formula_units", "num_magnetic_sites", "num_unique_magnetic_sites", "types_of_magnetic_species", "bulk_modulus", "shear_modulus", "universal_anisotropy", "homogeneous_poisson", "e_total", "e_ionic", "e_electronic", "n", "e_ij_max", "weighted_surface_energy_EV_PER_ANG2", "weighted_surface_energy", "weighted_work_function", "surface_anisotropy", "shape_factor", "has_reconstructed", "possible_species", "has_props", "theoretical", "database_IDs"]}