{
  "builder_meta": null,
  "nsites": null,
  "elements": null,
  "nelements": null,
  "composition": null,
  "composition_reduced": null,
  "formula_pretty": "Ga3Pt2",
  "formula_anonymous": "A2B3",
  "chemsys": null,
  "volume": 81.84367138009907,
  "density": 12.160042258329582,
  "density_atomic": 16.368734276019815,
  "symmetry": null,
  "property_name": null,
  "material_id": "mp-21400",
  "deprecated": null,
  "deprecation_reasons": null,
  "last_updated": null,
  "origins": null,
  "warnings": null,
  "structure": {
    "@module": "pymatgen.core.structure",
    "@class": "Structure",
    "charge": 0,
    "lattice": {
      "matrix": [
        [4.24388408, -0.0, -0.0],
        [-2.12194255, 3.67531171, 0.0],
        [0.0, -0.0, 5.24719751]
      ],
      "pbc": [true, true, true],
      "a": 4.24388408,
      "b": 4.243884582686436,
      "c": 5.24719751,
      "alpha": 90.0,
      "beta": 90.0,
      "gamma": 120.0000040322952,
      "volume": 81.84367138009907
    },
    "properties": {},
    "sites": [
      {
        "species": [{ "element": "Ga", "occu": 1 }],
        "abc": [-0.0, -0.0, 0.0],
        "properties": { "magmom": -0.0 },
        "label": "Ga",
        "xyz": [0.0, 0.0, 0.0]
      },
      {
        "species": [{ "element": "Ga", "occu": 1 }],
        "abc": [0.333333, 0.666667, 0.6439374800000001],
        "properties": { "magmom": 0.0 },
        "label": "Ga",
        "xyz": [-2.461942210096879e-6, 2.45020903177057, 3.3788671416516753]
      },
      {
        "species": [{ "element": "Ga", "occu": 1 }],
        "abc": [0.666667, 0.333333, 0.35606252],
        "properties": { "magmom": 0.0 },
        "label": "Ga",
        "xyz": [2.12194399194221, 1.2251026782294299, 1.8683303683483252]
      },
      {
        "species": [{ "element": "Pt", "occu": 1 }],
        "abc": [0.333333, 0.666667, 0.16642144],
        "properties": { "magmom": -0.0 },
        "label": "Pt",
        "xyz": [-2.461942210096879e-6, 2.45020903177057, 0.8732461655786145]
      },
      {
        "species": [{ "element": "Pt", "occu": 1 }],
        "abc": [0.666667, 0.333333, 0.83357856],
        "properties": { "magmom": -0.0 },
        "label": "Pt",
        "xyz": [2.12194399194221, 1.2251026782294299, 4.373951344421386]
      }
    ]
  },
  "task_ids": null,
  "uncorrected_energy_per_atom": null,
  "energy_per_atom": -4.842159817999999,
  "formation_energy_per_atom": -0.5968488764999991,
  "energy_above_hull": 0.0037759655000020004,
  "is_stable": false,
  "equilibrium_reaction_energy_per_atom": null,
  "decomposes_to": null,
  "xas": null,
  "grain_boundaries": null,
  "band_gap": 0.0,
  "cbm": null,
  "vbm": null,
  "efermi": 5.69733713,
  "is_gap_direct": null,
  "is_metal": null,
  "es_source_calc_id": null,
  "bandstructure": null,
  "dos": null,
  "dos_energy_up": null,
  "dos_energy_down": null,
  "is_magnetic": null,
  "ordering": null,
  "total_magnetization": 0.0,
  "total_magnetization_normalized_vol": null,
  "total_magnetization_normalized_formula_units": null,
  "num_magnetic_sites": null,
  "num_unique_magnetic_sites": null,
  "types_of_magnetic_species": null,
  "bulk_modulus": null,
  "shear_modulus": null,
  "universal_anisotropy": null,
  "homogeneous_poisson": null,
  "e_total": null,
  "e_ionic": null,
  "e_electronic": null,
  "n": null,
  "e_ij_max": null,
  "weighted_surface_energy_EV_PER_ANG2": null,
  "weighted_surface_energy": null,
  "weighted_work_function": null,
  "surface_anisotropy": null,
  "shape_factor": null,
  "has_reconstructed": null,
  "possible_species": null,
  "has_props": null,
  "theoretical": null,
  "database_IDs": null,
  "fields_not_requested": [
    "builder_meta",
    "nsites",
    "elements",
    "nelements",
    "composition",
    "composition_reduced",
    "chemsys",
    "symmetry",
    "property_name",
    "deprecated",
    "deprecation_reasons",
    "last_updated",
    "origins",
    "warnings",
    "task_ids",
    "uncorrected_energy_per_atom",
    "equilibrium_reaction_energy_per_atom",
    "decomposes_to",
    "xas",
    "grain_boundaries",
    "cbm",
    "vbm",
    "is_gap_direct",
    "is_metal",
    "es_source_calc_id",
    "bandstructure",
    "dos",
    "dos_energy_up",
    "dos_energy_down",
    "is_magnetic",
    "ordering",
    "total_magnetization_normalized_vol",
    "total_magnetization_normalized_formula_units",
    "num_magnetic_sites",
    "num_unique_magnetic_sites",
    "types_of_magnetic_species",
    "bulk_modulus",
    "shear_modulus",
    "universal_anisotropy",
    "homogeneous_poisson",
    "e_total",
    "e_ionic",
    "e_electronic",
    "n",
    "e_ij_max",
    "weighted_surface_energy_EV_PER_ANG2",
    "weighted_surface_energy",
    "weighted_work_function",
    "surface_anisotropy",
    "shape_factor",
    "has_reconstructed",
    "possible_species",
    "has_props",
    "theoretical",
    "database_IDs"
  ]
}
