{
  "builder_meta": null,
  "nsites": null,
  "elements": null,
  "nelements": null,
  "composition": null,
  "composition_reduced": null,
  "formula_pretty": "Ga3Pd7",
  "formula_anonymous": "A3B7",
  "chemsys": null,
  "volume": 147.0199299077703,
  "density": 10.776329911791938,
  "density_atomic": 14.701992990777029,
  "symmetry": null,
  "property_name": null,
  "material_id": "mp-31467",
  "deprecated": null,
  "deprecation_reasons": null,
  "last_updated": null,
  "origins": null,
  "warnings": null,
  "structure": {
    "@module": "pymatgen.core.structure",
    "@class": "Structure",
    "charge": 0,
    "lattice": {
      "matrix": [
        [3.90552438, -1e-8, -1.16496895],
        [-0.40887628, 5.29357433, -1.37074004],
        [-0.00509642, 0.00292737, 7.11197577]
      ],
      "pbc": [true, true, true],
      "a": 4.075570308219267,
      "b": 5.483432980974674,
      "c": 7.1119781985084165,
      "alpha": 104.44955766907324,
      "beta": 106.6502388616816,
      "gamma": 90.00001729980396,
      "volume": 147.0199299077703
    },
    "properties": {},
    "sites": [
      {
        "species": [{ "element": "Ga", "occu": 1 }],
        "abc": [-0.0, -0.0, 0.0],
        "properties": { "magmom": 0.0 },
        "label": "Ga",
        "xyz": [0.0, 0.0, 0.0]
      },
      {
        "species": [{ "element": "Ga", "occu": 1 }],
        "abc": [0.80876698, 0.336433, 0.61753097],
        "properties": { "magmom": 0.0 },
        "label": "Ga",
        "xyz": [3.0179524874336057, 1.7827408261128692, 2.988514692502006]
      },
      {
        "species": [{ "element": "Ga", "occu": 1 }],
        "abc": [0.19123302, 0.663567, 0.38246903],
        "properties": { "magmom": 0.0 },
        "label": "Ga",
        "xyz": [0.47359919256639504, 3.513760863887131, 1.5877520874979938]
      },
      {
        "species": [{ "element": "Pd", "occu": 1 }],
        "abc": [-0.0, 0.5, 0.0],
        "properties": { "magmom": 0.0 },
        "label": "Pd",
        "xyz": [-0.20443814, 2.646787165, -0.68537002]
      },
      {
        "species": [{ "element": "Pd", "occu": 1 }],
        "abc": [0.79379975, 0.86218961, 0.5875985],
        "properties": { "magmom": -0.0 },
        "label": "Pd",
        "xyz": [2.744680747324084, 4.565784897371659, 2.0723964127215977]
      },
      {
        "species": [{ "element": "Pd", "occu": 1 }],
        "abc": [0.20620025, 0.13781039, 0.4124015],
        "properties": { "magmom": -0.0 },
        "label": "Pd",
        "xyz": [0.7468709326759159, 0.7307167926283413, 2.503870367278402]
      },
      {
        "species": [{ "element": "Pd", "occu": 1 }],
        "abc": [0.62633529, 0.38770654, 0.25267058],
        "properties": { "magmom": -0.0 },
        "label": "Pd",
        "xyz": [2.2863560219451755, 2.05309304172954, 0.5358809994647393]
      },
      {
        "species": [{ "element": "Pd", "occu": 1 }],
        "abc": [0.37366471, 0.6122934600000001, 0.74732942],
        "properties": { "magmom": -0.0 },
        "label": "Pd",
        "xyz": [1.2051956580548246, 3.2434086482704605, 4.040385780535261]
      },
      {
        "species": [{ "element": "Pd", "occu": 1 }],
        "abc": [0.58170054, 0.85728085, 0.16340208],
        "properties": { "magmom": -0.0 },
        "label": "Pd",
        "xyz": [1.920491070337374, 4.538558233690504, -0.6906606201908654]
      },
      {
        "species": [{ "element": "Pd", "occu": 1 }],
        "abc": [0.41829946, 0.14271915000000002, 0.83659792],
        "properties": { "magmom": -0.0 },
        "label": "Pd",
        "xyz": [1.5710606096626265, 0.7579434563094954, 5.266927400190865]
      }
    ]
  },
  "task_ids": null,
  "uncorrected_energy_per_atom": null,
  "energy_per_atom": -20.093449868,
  "formation_energy_per_atom": -0.5882995559999981,
  "energy_above_hull": 0.000846857249996,
  "is_stable": false,
  "equilibrium_reaction_energy_per_atom": null,
  "decomposes_to": null,
  "xas": null,
  "grain_boundaries": null,
  "band_gap": 0.0,
  "cbm": null,
  "vbm": null,
  "efermi": 4.73877979,
  "is_gap_direct": null,
  "is_metal": null,
  "es_source_calc_id": null,
  "bandstructure": null,
  "dos": null,
  "dos_energy_up": null,
  "dos_energy_down": null,
  "is_magnetic": null,
  "ordering": null,
  "total_magnetization": 0.0,
  "total_magnetization_normalized_vol": null,
  "total_magnetization_normalized_formula_units": null,
  "num_magnetic_sites": null,
  "num_unique_magnetic_sites": null,
  "types_of_magnetic_species": null,
  "bulk_modulus": null,
  "shear_modulus": null,
  "universal_anisotropy": null,
  "homogeneous_poisson": null,
  "e_total": null,
  "e_ionic": null,
  "e_electronic": null,
  "n": null,
  "e_ij_max": null,
  "weighted_surface_energy_EV_PER_ANG2": null,
  "weighted_surface_energy": null,
  "weighted_work_function": null,
  "surface_anisotropy": null,
  "shape_factor": null,
  "has_reconstructed": null,
  "possible_species": null,
  "has_props": null,
  "theoretical": null,
  "database_IDs": null,
  "fields_not_requested": [
    "builder_meta",
    "nsites",
    "elements",
    "nelements",
    "composition",
    "composition_reduced",
    "chemsys",
    "symmetry",
    "property_name",
    "deprecated",
    "deprecation_reasons",
    "last_updated",
    "origins",
    "warnings",
    "task_ids",
    "uncorrected_energy_per_atom",
    "equilibrium_reaction_energy_per_atom",
    "decomposes_to",
    "xas",
    "grain_boundaries",
    "cbm",
    "vbm",
    "is_gap_direct",
    "is_metal",
    "es_source_calc_id",
    "bandstructure",
    "dos",
    "dos_energy_up",
    "dos_energy_down",
    "is_magnetic",
    "ordering",
    "total_magnetization_normalized_vol",
    "total_magnetization_normalized_formula_units",
    "num_magnetic_sites",
    "num_unique_magnetic_sites",
    "types_of_magnetic_species",
    "bulk_modulus",
    "shear_modulus",
    "universal_anisotropy",
    "homogeneous_poisson",
    "e_total",
    "e_ionic",
    "e_electronic",
    "n",
    "e_ij_max",
    "weighted_surface_energy_EV_PER_ANG2",
    "weighted_surface_energy",
    "weighted_work_function",
    "surface_anisotropy",
    "shape_factor",
    "has_reconstructed",
    "possible_species",
    "has_props",
    "theoretical",
    "database_IDs"
  ]
}
