{"builder_meta": null, "nsites": null, "elements": null, "nelements": null, "composition": null, "composition_reduced": null, "formula_pretty": "Ga3Pd5", "formula_anonymous": "A3B5", "chemsys": null, "volume": 233.69469889274723, "density": 10.53430941473287, "density_atomic": 14.605918680796702, "symmetry": null, "property_name": null, "material_id": "mp-2408", "deprecated": null, "deprecation_reasons": null, "last_updated": null, "origins": null, "warnings": null, "structure": {"@module": "pymatgen.core.structure", "@class": "Structure", "charge": 0, "lattice": {"matrix": [[4.0147469, 0.0, 0.0], [0.0, 5.47384465, 0.0], [0.0, 0.0, 10.63403834]], "pbc": [true, true, true], "a": 4.0147469, "b": 5.47384465, "c": 10.63403834, "alpha": 90.0, "beta": 90.0, "gamma": 90.0, "volume": 233.69469889274723}, "properties": {}, "sites": [{"species": [{"element": "Ga", "occu": 1}], "abc": [0.0, -0.0, 0.0], "properties": {"magmom": -0.0}, "label": "Ga", "xyz": [0.0, 0.0, 0.0]}, {"species": [{"element": "Ga", "occu": 1}], "abc": [0.0, 0.5, 0.5], "properties": {"magmom": -0.0}, "label": "Ga", "xyz": [0.0, 2.736922325, 5.31701917]}, {"species": [{"element": "Ga", "occu": 1}], "abc": [0.5, 0.65543899, 0.8538888], "properties": {"magmom": -0.0}, "label": "Ga", "xyz": [2.00737345, 3.587771208812904, 9.080286237296592]}, {"species": [{"element": "Ga", "occu": 1}], "abc": [0.5, 0.34456101, 0.1461112], "properties": {"magmom": -0.0}, "label": "Ga", "xyz": [2.00737345, 1.8860734411870965, 1.553752102703408]}, {"species": [{"element": "Ga", "occu": 1}], "abc": [0.5, 0.15543899, 0.6461112], "properties": {"magmom": -0.0}, "label": "Ga", "xyz": [2.00737345, 0.8508488838129036, 6.870771272703408]}, {"species": [{"element": "Ga", "occu": 1}], "abc": [0.5, 0.8445610100000001, 0.3538888], "properties": {"magmom": -0.0}, "label": "Ga", "xyz": [2.00737345, 4.622995766187097, 3.763267067296592]}, {"species": [{"element": "Pd", "occu": 1}], "abc": [0.0, 0.5, 0.0], "properties": {"magmom": -0.0}, "label": "Pd", "xyz": [0.0, 2.736922325, 0.0]}, {"species": [{"element": "Pd", "occu": 1}], "abc": [0.0, -0.0, 0.5], "properties": {"magmom": -0.0}, "label": "Pd", "xyz": [0.0, 0.0, 5.31701917]}, {"species": [{"element": "Pd", "occu": 1}], "abc": [-0.0, 0.90899662, 0.76853741], "properties": {"magmom": -0.0}, "label": "Pd", "xyz": [0.0, 4.975706285255083, 8.172656283664299]}, {"species": [{"element": "Pd", "occu": 1}], "abc": [0.0, 0.09100338000000001, 0.23146259], "properties": {"magmom": -0.0}, "label": "Pd", "xyz": [0.0, 0.4981383647449171, 2.4613820563357005]}, {"species": [{"element": "Pd", "occu": 1}], "abc": [0.0, 0.40899662000000003, 0.73146259], "properties": {"magmom": -0.0}, "label": "Pd", "xyz": [0.0, 2.238783960255083, 7.778401226335701]}, {"species": [{"element": "Pd", "occu": 1}], "abc": [0.0, 0.59100338, 0.26853741000000003], "properties": {"magmom": -0.0}, "label": "Pd", "xyz": [0.0, 3.235060689744917, 2.8556371136643]}, {"species": [{"element": "Pd", "occu": 1}], "abc": [0.5, 0.69193274, 0.60437518], "properties": {"magmom": -0.0}, "label": "Pd", "xyz": [2.00737345, 3.7875323270088415, 6.426948835864401]}, {"species": [{"element": "Pd", "occu": 1}], "abc": [0.5, 0.30806726, 0.39562482], "properties": {"magmom": -0.0}, "label": "Pd", "xyz": [2.00737345, 1.6863123229911592, 4.207089504135599]}, {"species": [{"element": "Pd", "occu": 1}], "abc": [0.5, 0.19193274, 0.89562482], "properties": {"magmom": -0.0}, "label": "Pd", "xyz": [2.00737345, 1.050610002008841, 9.524108674135599]}, {"species": [{"element": "Pd", "occu": 1}], "abc": [0.5, 0.8080672600000001, 0.10437518], "properties": {"magmom": -0.0}, "label": "Pd", "xyz": [2.00737345, 4.423234647991159, 1.1099296658644011]}]}, "task_ids": null, "uncorrected_energy_per_atom": null, "energy_per_atom": -19.2742993675, "formation_energy_per_atom": -0.632974879999999, "energy_above_hull": 0.012720833437501002, "is_stable": false, "equilibrium_reaction_energy_per_atom": null, "decomposes_to": null, "xas": null, "grain_boundaries": null, "band_gap": 0.0, "cbm": null, "vbm": null, "efermi": 5.01937333, "is_gap_direct": null, "is_metal": null, "es_source_calc_id": null, "bandstructure": null, "dos": null, "dos_energy_up": null, "dos_energy_down": null, "is_magnetic": null, "ordering": null, "total_magnetization": 1e-07, "total_magnetization_normalized_vol": null, "total_magnetization_normalized_formula_units": null, "num_magnetic_sites": null, "num_unique_magnetic_sites": null, "types_of_magnetic_species": null, "bulk_modulus": null, "shear_modulus": null, "universal_anisotropy": null, "homogeneous_poisson": null, "e_total": null, "e_ionic": null, "e_electronic": null, "n": null, "e_ij_max": null, "weighted_surface_energy_EV_PER_ANG2": null, "weighted_surface_energy": null, "weighted_work_function": null, "surface_anisotropy": null, "shape_factor": null, "has_reconstructed": null, "possible_species": null, "has_props": null, "theoretical": null, "database_IDs": null, "fields_not_requested": ["builder_meta", "nsites", "elements", "nelements", "composition", "composition_reduced", "chemsys", "symmetry", "property_name", "deprecated", "deprecation_reasons", "last_updated", "origins", "warnings", "task_ids", "uncorrected_energy_per_atom", "equilibrium_reaction_energy_per_atom", "decomposes_to", "xas", "grain_boundaries", "cbm", "vbm", "is_gap_direct", "is_metal", "es_source_calc_id", "bandstructure", "dos", "dos_energy_up", "dos_energy_down", "is_magnetic", "ordering", "total_magnetization_normalized_vol", "total_magnetization_normalized_formula_units", "num_magnetic_sites", "num_unique_magnetic_sites", "types_of_magnetic_species", "bulk_modulus", "shear_modulus", "universal_anisotropy", "homogeneous_poisson", "e_total", "e_ionic", "e_electronic", "n", "e_ij_max", "weighted_surface_energy_EV_PER_ANG2", "weighted_surface_energy", "weighted_work_function", "surface_anisotropy", "shape_factor", "has_reconstructed", "possible_species", "has_props", "theoretical", "database_IDs"]}