{"builder_meta": null, "nsites": null, "elements": null, "nelements": null, "composition": null, "composition_reduced": null, "formula_pretty": "Ga3Re", "formula_anonymous": "AB3", "chemsys": null, "volume": 294.70277460167233, "density": 8.911178999022779, "density_atomic": 18.41892341260452, "symmetry": null, "property_name": null, "material_id": "mp-1188393", "deprecated": null, "deprecation_reasons": null, "last_updated": null, "origins": null, "warnings": null, "structure": {"@module": "pymatgen.core.structure", "@class": "Structure", "charge": 0, "lattice": {"matrix": [[6.4756037, 0.0, 0.0], [0.0, 6.4756037, 0.0], [0.0, 0.0, 7.02786968]], "pbc": [true, true, true], "a": 6.4756037, "b": 6.4756037, "c": 7.02786968, "alpha": 90.0, "beta": 90.0, "gamma": 90.0, "volume": 294.70277460167233}, "properties": {}, "sites": [{"species": [{"element": "Ga", "occu": 1}], "abc": [-0.0, 0.5, 0.5], "properties": {"magmom": 0.0}, "label": "Ga", "xyz": [0.0, 3.23780185, 3.51393484]}, {"species": [{"element": "Ga", "occu": 1}], "abc": [0.5, -0.0, 0.0], "properties": {"magmom": 0.0}, "label": "Ga", "xyz": [3.23780185, 0.0, 0.0]}, {"species": [{"element": "Ga", "occu": 1}], "abc": [0.5, -0.0, 0.5], "properties": {"magmom": 0.0}, "label": "Ga", "xyz": [3.23780185, 0.0, 3.51393484]}, {"species": [{"element": "Ga", "occu": 1}], "abc": [-0.0, 0.5, 0.0], "properties": {"magmom": 0.0}, "label": "Ga", "xyz": [0.0, 3.23780185, 0.0]}, {"species": [{"element": "Ga", "occu": 1}], "abc": [0.333011599999999, 0.666988399999999, 0.24345837], "properties": {"magmom": 0.0}, "label": "Ga", "xyz": [2.1564511491029137, 4.319152550897074, 1.7109936968652217]}, {"species": [{"element": "Ga", "occu": 1}], "abc": [0.666988399999999, 0.333011599999999, 0.24345837], "properties": {"magmom": 0.0}, "label": "Ga", "xyz": [4.319152550897074, 2.1564511491029137, 1.7109936968652217]}, {"species": [{"element": "Ga", "occu": 1}], "abc": [0.166988399999999, 0.166988399999999, 0.74345837], "properties": {"magmom": 0.0}, "label": "Ga", "xyz": [1.0813507008970735, 1.0813507008970735, 5.224928536865222]}, {"species": [{"element": "Ga", "occu": 1}], "abc": [0.8330116, 0.8330116, 0.74345837], "properties": {"magmom": 0.0}, "label": "Ga", "xyz": [5.394252999102919, 5.394252999102919, 5.224928536865222]}, {"species": [{"element": "Ga", "occu": 1}], "abc": [0.666988399999999, 0.333011599999999, 0.75654163], "properties": {"magmom": 0.0}, "label": "Ga", "xyz": [4.319152550897074, 2.1564511491029137, 5.3168759831347785]}, {"species": [{"element": "Ga", "occu": 1}], "abc": [0.333011599999999, 0.666988399999999, 0.75654163], "properties": {"magmom": 0.0}, "label": "Ga", "xyz": [2.1564511491029137, 4.319152550897074, 5.3168759831347785]}, {"species": [{"element": "Ga", "occu": 1}], "abc": [0.8330116, 0.8330116, 0.25654163], "properties": {"magmom": 0.0}, "label": "Ga", "xyz": [5.394252999102919, 5.394252999102919, 1.8029411431347786]}, {"species": [{"element": "Ga", "occu": 1}], "abc": [0.166988399999999, 0.166988399999999, 0.25654163], "properties": {"magmom": 0.0}, "label": "Ga", "xyz": [1.0813507008970735, 1.0813507008970735, 1.8029411431347786]}, {"species": [{"element": "Re", "occu": 1}], "abc": [0.14362624000000002, 0.85637376, 0.5], "properties": {"magmom": 0.0}, "label": "Re", "xyz": [0.930066611161088, 5.545537088838912, 3.51393484]}, {"species": [{"element": "Re", "occu": 1}], "abc": [0.85637376, 0.14362624000000002, 0.5], "properties": {"magmom": 0.0}, "label": "Re", "xyz": [5.545537088838912, 0.930066611161088, 3.51393484]}, {"species": [{"element": "Re", "occu": 1}], "abc": [0.35637376, 0.35637376, 0.0], "properties": {"magmom": 0.0}, "label": "Re", "xyz": [2.307735238838912, 2.307735238838912, 0.0]}, {"species": [{"element": "Re", "occu": 1}], "abc": [0.64362624, 0.64362624, 0.0], "properties": {"magmom": 0.0}, "label": "Re", "xyz": [4.167868461161088, 4.167868461161088, 0.0]}]}, "task_ids": null, "uncorrected_energy_per_atom": null, "energy_per_atom": -21.795447398125, "formation_energy_per_atom": -0.11071175874999901, "energy_above_hull": 0.0, "is_stable": true, "equilibrium_reaction_energy_per_atom": null, "decomposes_to": null, "xas": null, "grain_boundaries": null, "band_gap": 0.0, "cbm": null, "vbm": null, "efermi": 3.7496844300000003, "is_gap_direct": null, "is_metal": null, "es_source_calc_id": null, "bandstructure": null, "dos": null, "dos_energy_up": null, "dos_energy_down": null, "is_magnetic": null, "ordering": null, "total_magnetization": 3.2e-06, "total_magnetization_normalized_vol": null, "total_magnetization_normalized_formula_units": null, "num_magnetic_sites": null, "num_unique_magnetic_sites": null, "types_of_magnetic_species": null, "bulk_modulus": null, "shear_modulus": null, "universal_anisotropy": null, "homogeneous_poisson": null, "e_total": null, "e_ionic": null, "e_electronic": null, "n": null, "e_ij_max": null, "weighted_surface_energy_EV_PER_ANG2": null, "weighted_surface_energy": null, "weighted_work_function": null, "surface_anisotropy": null, "shape_factor": null, "has_reconstructed": null, "possible_species": null, "has_props": null, "theoretical": null, "database_IDs": null, "fields_not_requested": ["builder_meta", "nsites", "elements", "nelements", "composition", "composition_reduced", "chemsys", "symmetry", "property_name", "deprecated", "deprecation_reasons", "last_updated", "origins", "warnings", "task_ids", "uncorrected_energy_per_atom", "equilibrium_reaction_energy_per_atom", "decomposes_to", "xas", "grain_boundaries", "cbm", "vbm", "is_gap_direct", "is_metal", "es_source_calc_id", "bandstructure", "dos", "dos_energy_up", "dos_energy_down", "is_magnetic", "ordering", "total_magnetization_normalized_vol", "total_magnetization_normalized_formula_units", "num_magnetic_sites", "num_unique_magnetic_sites", "types_of_magnetic_species", "bulk_modulus", "shear_modulus", "universal_anisotropy", "homogeneous_poisson", "e_total", "e_ionic", "e_electronic", "n", "e_ij_max", "weighted_surface_energy_EV_PER_ANG2", "weighted_surface_energy", "weighted_work_function", "surface_anisotropy", "shape_factor", "has_reconstructed", "possible_species", "has_props", "theoretical", "database_IDs"]}