{"builder_meta": null, "nsites": null, "elements": null, "nelements": null, "composition": null, "composition_reduced": null, "formula_pretty": "Ga3Ru", "formula_anonymous": "AB3", "chemsys": null, "volume": 281.3699895538707, "density": 7.323652110869979, "density_atomic": 17.58562434711692, "symmetry": null, "property_name": null, "material_id": "mp-672204", "deprecated": null, "deprecation_reasons": null, "last_updated": null, "origins": null, "warnings": null, "structure": {"@module": "pymatgen.core.structure", "@class": "Structure", "charge": 0, "lattice": {"matrix": [[6.46539059, 1.279e-05, 6.99e-06], [1.3780000000000002e-05, 6.46537964, -1.537e-05], [-2.8220000000000004e-05, -3.795e-05, 6.7311454699999995]], "pbc": [true, true, true], "a": 6.46539059001643, "b": 6.465379640032954, "c": 6.731145470166135, "alpha": 90.00045924038389, "beta": 90.00017826558138, "gamma": 89.99976453870411, "volume": 281.36998955387065}, "properties": {}, "sites": [{"species": [{"element": "Ga", "occu": 1}], "abc": [0.8456590900000001, 0.84566589, 0.73445265], "properties": {"magmom": -0.0}, "label": "Ga", "xyz": [5.467507249856146, 5.467533970950173, 4.943700541249306]}, {"species": [{"element": "Ga", "occu": 1}], "abc": [0.34563592, 0.65435315, 0.23440551], "properties": {"magmom": 0.0}, "label": "Ga", "xyz": [2.2346736267969076, 4.230637058374179, 1.577809945366705]}, {"species": [{"element": "Ga", "occu": 1}], "abc": [0.15433296, 0.15435595, 0.26555461], "properties": {"magmom": 0.0}, "label": "Ga", "xyz": [0.9978175003847432, 0.9979617125639668, 1.7874854164755556]}, {"species": [{"element": "Ga", "occu": 1}], "abc": [0.15441339, 0.15439926, 0.73433666], "properties": {"magmom": 0.0}, "label": "Ga", "xyz": [0.9983242833172579, 0.9982239389060775, 4.942925588646899]}, {"species": [{"element": "Ga", "occu": 1}], "abc": [0.84563158, 0.84561935, 0.26561466], "properties": {"magmom": 0.0}, "label": "Ga", "xyz": [5.467342616927771, 5.467250864231595, 1.7878838292199248]}, {"species": [{"element": "Ga", "occu": 1}], "abc": [0.49999595, 7.4e-07, 0.99999431], "properties": {"magmom": -0.0}, "label": "Ga", "xyz": [3.2326408903388795, -2.67704549304e-05, 6.731110664742593]}, {"species": [{"element": "Ga", "occu": 1}], "abc": [0.34562004, 0.65435893, 0.76561091], "properties": {"magmom": -0.0}, "label": "Ga", "xyz": [2.234555965857599, 4.230654268820462, 5.1534307670164035]}, {"species": [{"element": "Ga", "occu": 1}], "abc": [0.99998419, 0.50000889, 0.49999903], "properties": {"magmom": -0.0}, "label": "Ga", "xyz": [6.465281152324651, 3.2327411120596015, 3.3655655105417424]}, {"species": [{"element": "Ga", "occu": 1}], "abc": [0.65433017, 0.34562595, 0.234416699999999], "properties": {"magmom": 0.0}, "label": "Ga", "xyz": [4.230498271357418, 2.2346024529547672, 1.577892169794379]}, {"species": [{"element": "Ga", "occu": 1}], "abc": [0.65438463, 0.34564699, 0.7656113], "properties": {"magmom": 0.0}, "label": "Ga", "xyz": [4.230835386507268, 2.234718326403866, 5.153440295330138]}, {"species": [{"element": "Ga", "occu": 1}], "abc": [0.50001374, 0.99997813, 0.49999184], "properties": {"magmom": -0.0}, "label": "Ga", "xyz": [3.2327837993956137, 6.46522566263268, 3.365505934285149]}, {"species": [{"element": "Ga", "occu": 1}], "abc": [0.99999499, 0.49998384, 1.5470000000000003e-05], "properties": {"magmom": -0.0}, "label": "Ga", "xyz": [6.465365087733896, 3.2325981288138532, 0.00010343603378020001]}, {"species": [{"element": "Ru", "occu": 1}], "abc": [0.15982287, 0.84017506, 0.49999624000000004], "properties": {"magmom": 0.0}, "label": "Ru", "xyz": [1.0333147474832274, 5.432033796236977, 3.3655356295642216]}, {"species": [{"element": "Ru", "occu": 1}], "abc": [0.65983163, 0.6598319500000001, 5.98e-06], "properties": {"magmom": -0.0}, "label": "Ru", "xyz": [4.266078303901877, 4.266072494371105, 3.47228559328e-05]}, {"species": [{"element": "Ru", "occu": 1}], "abc": [0.340169, 0.34016908, 0.99999288], "properties": {"magmom": 0.0}, "label": "Ru", "xyz": [2.199301919340559, 2.1992886450212454, 6.731094693626804]}, {"species": [{"element": "Ru", "occu": 1}], "abc": [0.84017584, 0.15982383, 0.49999926], "properties": {"magmom": 0.0}, "label": "Ru", "xyz": [5.432053062274606, 1.0333135073458977, 3.3655711702892064]}]}, "task_ids": null, "uncorrected_energy_per_atom": null, "energy_per_atom": -15.338596460625, "formation_energy_per_atom": -0.400380674374999, "energy_above_hull": 0.0, "is_stable": true, "equilibrium_reaction_energy_per_atom": null, "decomposes_to": null, "xas": null, "grain_boundaries": null, "band_gap": 0.37869999999999904, "cbm": null, "vbm": null, "efermi": 3.88447869, "is_gap_direct": null, "is_metal": null, "es_source_calc_id": null, "bandstructure": null, "dos": null, "dos_energy_up": null, "dos_energy_down": null, "is_magnetic": null, "ordering": null, "total_magnetization": 0.0, "total_magnetization_normalized_vol": null, "total_magnetization_normalized_formula_units": null, "num_magnetic_sites": null, "num_unique_magnetic_sites": null, "types_of_magnetic_species": null, "bulk_modulus": null, "shear_modulus": null, "universal_anisotropy": null, "homogeneous_poisson": null, "e_total": null, "e_ionic": null, "e_electronic": null, "n": null, "e_ij_max": null, "weighted_surface_energy_EV_PER_ANG2": null, "weighted_surface_energy": null, "weighted_work_function": null, "surface_anisotropy": null, "shape_factor": null, "has_reconstructed": null, "possible_species": null, "has_props": null, "theoretical": null, "database_IDs": null, "fields_not_requested": ["builder_meta", "nsites", "elements", "nelements", "composition", "composition_reduced", "chemsys", "symmetry", "property_name", "deprecated", "deprecation_reasons", "last_updated", "origins", "warnings", "task_ids", "uncorrected_energy_per_atom", "equilibrium_reaction_energy_per_atom", "decomposes_to", "xas", "grain_boundaries", "cbm", "vbm", "is_gap_direct", "is_metal", "es_source_calc_id", "bandstructure", "dos", "dos_energy_up", "dos_energy_down", "is_magnetic", "ordering", "total_magnetization_normalized_vol", "total_magnetization_normalized_formula_units", "num_magnetic_sites", "num_unique_magnetic_sites", "types_of_magnetic_species", "bulk_modulus", "shear_modulus", "universal_anisotropy", "homogeneous_poisson", "e_total", "e_ionic", "e_electronic", "n", "e_ij_max", "weighted_surface_energy_EV_PER_ANG2", "weighted_surface_energy", "weighted_work_function", "surface_anisotropy", "shape_factor", "has_reconstructed", "possible_species", "has_props", "theoretical", "database_IDs"]}