{
  "builder_meta": null,
  "nsites": null,
  "elements": null,
  "nelements": null,
  "composition": null,
  "composition_reduced": null,
  "formula_pretty": "Ga4Fe3",
  "formula_anonymous": "A3B4",
  "chemsys": null,
  "volume": 290.5733117981376,
  "density": 7.653588032200582,
  "density_atomic": 13.836824371339885,
  "symmetry": null,
  "property_name": null,
  "material_id": "mp-540538",
  "deprecated": null,
  "deprecation_reasons": null,
  "last_updated": null,
  "origins": null,
  "warnings": null,
  "structure": {
    "@module": "pymatgen.core.structure",
    "@class": "Structure",
    "charge": 0,
    "lattice": {
      "matrix": [
        [3.832881, 5.032122, 0.0],
        [-3.832881, 5.032122, 0.0],
        [0.0, 2.177571, 7.532675]
      ],
      "pbc": [true, true, true],
      "a": 6.325601045200765,
      "b": 6.325601045200765,
      "c": 7.841110132861673,
      "alpha": 77.23665329812341,
      "beta": 77.23665329812341,
      "gamma": 74.59180508264429,
      "volume": 290.5733117981376
    },
    "properties": {},
    "sites": [
      {
        "species": [{ "element": "Ga", "occu": 1 }],
        "abc": [0.270036, 0.270036, 0.916810999999999],
        "properties": { "magmom": -0.08700000000000001 },
        "label": "Ga",
        "xyz": [0.0, 4.714129238864998, 6.906039299424993]
      },
      {
        "species": [{ "element": "Ga", "occu": 1 }],
        "abc": [0.729964, 0.729964, 0.083189],
        "properties": { "magmom": -0.08700000000000001 },
        "label": "Ga",
        "xyz": [0.0, 7.527685761135, 0.6266357005750001]
      },
      {
        "species": [{ "element": "Ga", "occu": 1 }],
        "abc": [0.041277, 0.041277, 0.653098],
        "properties": { "magmom": -0.074 },
        "label": "Ga",
        "xyz": [0.0, 1.837589064546, 4.91957497715]
      },
      {
        "species": [{ "element": "Ga", "occu": 1 }],
        "abc": [0.958723, 0.958723, 0.346902],
        "properties": { "magmom": -0.074 },
        "label": "Ga",
        "xyz": [0.0, 10.404225935454, 2.61310002285]
      },
      {
        "species": [{ "element": "Ga", "occu": 1 }],
        "abc": [0.404336, 0.810782999999999, 0.848764],
        "properties": { "magmom": -0.074 },
        "label": "Ga",
        "xyz": [-1.5578629838069964, 7.9628709247619955, 6.3934633637]
      },
      {
        "species": [{ "element": "Ga", "occu": 1 }],
        "abc": [0.810782999999999, 0.404336, 0.848764],
        "properties": { "magmom": -0.074 },
        "label": "Ga",
        "xyz": [1.5578629838069964, 7.9628709247619955, 6.3934633637]
      },
      {
        "species": [{ "element": "Ga", "occu": 1 }],
        "abc": [0.595664, 0.189217, 0.151235999999999],
        "properties": { "magmom": -0.074 },
        "label": "Ga",
        "xyz": [1.5578629838069997, 4.278944075237998, 1.1392116362999927]
      },
      {
        "species": [{ "element": "Ga", "occu": 1 }],
        "abc": [0.189217, 0.595664, 0.151235999999999],
        "properties": { "magmom": -0.074 },
        "label": "Ga",
        "xyz": [-1.5578629838069997, 4.278944075237998, 1.1392116362999927]
      },
      {
        "species": [{ "element": "Ga", "occu": 1 }],
        "abc": [0.16617099999999901, 0.538434, 0.550628],
        "properties": { "magmom": -0.07100000000000001 },
        "label": "Ga",
        "xyz": [-1.4268397797030037, 4.744689886397995, 4.1477017699]
      },
      {
        "species": [{ "element": "Ga", "occu": 1 }],
        "abc": [0.538434, 0.16617099999999901, 0.550628],
        "properties": { "magmom": -0.07100000000000001 },
        "label": "Ga",
        "xyz": [1.4268397797030037, 4.744689886397995, 4.1477017699]
      },
      {
        "species": [{ "element": "Ga", "occu": 1 }],
        "abc": [0.833828999999999, 0.461566, 0.449372],
        "properties": { "magmom": -0.07100000000000001 },
        "label": "Ga",
        "xyz": [1.4268397797029964, 7.497125113601996, 3.3849732301]
      },
      {
        "species": [{ "element": "Ga", "occu": 1 }],
        "abc": [0.461566, 0.833828999999999, 0.449372],
        "properties": { "magmom": -0.07100000000000001 },
        "label": "Ga",
        "xyz": [-1.4268397797029964, 7.497125113601996, 3.3849732301]
      },
      {
        "species": [{ "element": "Fe", "occu": 1 }],
        "abc": [0.0, 0.0, 0.0],
        "properties": { "magmom": 2.2 },
        "label": "Fe",
        "xyz": [0.0, 0.0, 0.0]
      },
      {
        "species": [{ "element": "Fe", "occu": 1 }],
        "abc": [0.494571999999999, 0.494571999999999, 0.689412999999999],
        "properties": { "magmom": 1.791 },
        "label": "Fe",
        "xyz": [0.0, 6.478739039390988, 5.193124069774993]
      },
      {
        "species": [{ "element": "Fe", "occu": 1 }],
        "abc": [0.505428, 0.505428, 0.310587],
        "properties": { "magmom": 1.791 },
        "label": "Fe",
        "xyz": [0.0, 5.763075960609, 2.339550930225]
      },
      {
        "species": [{ "element": "Fe", "occu": 1 }],
        "abc": [0.223709, 0.223709, 0.359434],
        "properties": { "magmom": 1.8860000000000001 },
        "label": "Fe",
        "xyz": [0.0, 3.0341550158099997, 2.70749950595]
      },
      {
        "species": [{ "element": "Fe", "occu": 1 }],
        "abc": [0.776291, 0.776291, 0.640566],
        "properties": { "magmom": 1.8860000000000001 },
        "label": "Fe",
        "xyz": [0.0, 9.207659984189998, 4.82517549405]
      },
      {
        "species": [{ "element": "Fe", "occu": 1 }],
        "abc": [0.934032, 0.33759, 0.151812],
        "properties": { "magmom": 2.016 },
        "label": "Fe",
        "xyz": [2.2860912094019996, 6.729538450535999, 1.1435504571000001]
      },
      {
        "species": [{ "element": "Fe", "occu": 1 }],
        "abc": [0.33759, 0.934032, 0.151812],
        "properties": { "magmom": 2.016 },
        "label": "Fe",
        "xyz": [-2.2860912094019996, 6.729538450535999, 1.1435504571000001]
      },
      {
        "species": [{ "element": "Fe", "occu": 1 }],
        "abc": [0.065968, 0.66241, 0.848187999999999],
        "properties": { "magmom": 2.016 },
        "label": "Fe",
        "xyz": [-2.2860912094020005, 5.512276549463999, 6.389124542899993]
      },
      {
        "species": [{ "element": "Fe", "occu": 1 }],
        "abc": [0.66241, 0.065968, 0.848187999999999],
        "properties": { "magmom": 2.016 },
        "label": "Fe",
        "xyz": [2.2860912094020005, 5.512276549463999, 6.389124542899993]
      }
    ]
  },
  "task_ids": null,
  "uncorrected_energy_per_atom": null,
  "energy_per_atom": -5.538948651428571,
  "formation_energy_per_atom": -0.17859897714285602,
  "energy_above_hull": 0.022887623080357,
  "is_stable": false,
  "equilibrium_reaction_energy_per_atom": null,
  "decomposes_to": null,
  "xas": null,
  "grain_boundaries": null,
  "band_gap": 0.0,
  "cbm": null,
  "vbm": null,
  "efermi": 4.74893082,
  "is_gap_direct": null,
  "is_metal": null,
  "es_source_calc_id": null,
  "bandstructure": null,
  "dos": null,
  "dos_energy_up": null,
  "dos_energy_down": null,
  "is_magnetic": null,
  "ordering": null,
  "total_magnetization": 16.5219286,
  "total_magnetization_normalized_vol": null,
  "total_magnetization_normalized_formula_units": null,
  "num_magnetic_sites": null,
  "num_unique_magnetic_sites": null,
  "types_of_magnetic_species": null,
  "bulk_modulus": null,
  "shear_modulus": null,
  "universal_anisotropy": null,
  "homogeneous_poisson": null,
  "e_total": null,
  "e_ionic": null,
  "e_electronic": null,
  "n": null,
  "e_ij_max": null,
  "weighted_surface_energy_EV_PER_ANG2": null,
  "weighted_surface_energy": null,
  "weighted_work_function": null,
  "surface_anisotropy": null,
  "shape_factor": null,
  "has_reconstructed": null,
  "possible_species": null,
  "has_props": null,
  "theoretical": null,
  "database_IDs": null,
  "fields_not_requested": [
    "builder_meta",
    "nsites",
    "elements",
    "nelements",
    "composition",
    "composition_reduced",
    "chemsys",
    "symmetry",
    "property_name",
    "deprecated",
    "deprecation_reasons",
    "last_updated",
    "origins",
    "warnings",
    "task_ids",
    "uncorrected_energy_per_atom",
    "equilibrium_reaction_energy_per_atom",
    "decomposes_to",
    "xas",
    "grain_boundaries",
    "cbm",
    "vbm",
    "is_gap_direct",
    "is_metal",
    "es_source_calc_id",
    "bandstructure",
    "dos",
    "dos_energy_up",
    "dos_energy_down",
    "is_magnetic",
    "ordering",
    "total_magnetization_normalized_vol",
    "total_magnetization_normalized_formula_units",
    "num_magnetic_sites",
    "num_unique_magnetic_sites",
    "types_of_magnetic_species",
    "bulk_modulus",
    "shear_modulus",
    "universal_anisotropy",
    "homogeneous_poisson",
    "e_total",
    "e_ionic",
    "e_electronic",
    "n",
    "e_ij_max",
    "weighted_surface_energy_EV_PER_ANG2",
    "weighted_surface_energy",
    "weighted_work_function",
    "surface_anisotropy",
    "shape_factor",
    "has_reconstructed",
    "possible_species",
    "has_props",
    "theoretical",
    "database_IDs"
  ]
}
