{"builder_meta": null, "nsites": null, "elements": null, "nelements": null, "composition": null, "composition_reduced": null, "formula_pretty": "Ga4Ni3", "formula_anonymous": "A3B4", "chemsys": null, "volume": 756.4073128024048, "density": 7.990394587994221, "density_atomic": 13.507273442900086, "symmetry": null, "property_name": null, "material_id": "mp-30655", "deprecated": null, "deprecation_reasons": null, "last_updated": null, "origins": null, "warnings": null, "structure": {"@module": "pymatgen.core.structure", "@class": "Structure", "charge": 0, "lattice": {"matrix": [[-5.739824, 5.739824, 5.739824], [5.739824, -5.739824, 5.739824], [5.739824, 5.739824, -5.739824]], "pbc": [true, true, true], "a": 9.941666794503222, "b": 9.941666794503222, "c": 9.941666794503222, "alpha": 109.47122063449069, "beta": 109.47122063449069, "gamma": 109.47122063449069, "volume": 756.4073128024048}, "properties": {}, "sites": [{"species": [{"element": "Ga", "occu": 1}], "abc": [0.5, 0.0, 0.0], "properties": {"magmom": -0.0}, "label": "Ga", "xyz": [-2.869912, 2.869912, 2.869912]}, {"species": [{"element": "Ga", "occu": 1}], "abc": [0.5, 0.5, 0.0], "properties": {"magmom": -0.0}, "label": "Ga", "xyz": [0.0, 0.0, 5.739824]}, {"species": [{"element": "Ga", "occu": 1}], "abc": [0.0, 0.5, 0.5], "properties": {"magmom": 0.0}, "label": "Ga", "xyz": [5.739824, 0.0, 0.0]}, {"species": [{"element": "Ga", "occu": 1}], "abc": [0.0, 0.0, 0.0], "properties": {"magmom": 0.0}, "label": "Ga", "xyz": [0.0, 0.0, 0.0]}, {"species": [{"element": "Ga", "occu": 1}], "abc": [0.0, 0.0, 0.5], "properties": {"magmom": 0.0}, "label": "Ga", "xyz": [2.869912, 2.869912, -2.869912]}, {"species": [{"element": "Ga", "occu": 1}], "abc": [0.5, 0.5, 0.5], "properties": {"magmom": 0.0}, "label": "Ga", "xyz": [2.869912, 2.869912, 2.869912]}, {"species": [{"element": "Ga", "occu": 1}], "abc": [0.0, 0.5, 0.0], "properties": {"magmom": -0.0}, "label": "Ga", "xyz": [2.869912, -2.869912, 2.869912]}, {"species": [{"element": "Ga", "occu": 1}], "abc": [0.5, 0.0, 0.5], "properties": {"magmom": -0.0}, "label": "Ga", "xyz": [0.0, 5.739824, 0.0]}, {"species": [{"element": "Ga", "occu": 1}], "abc": [0.262304, 0.75, 0.012303999999999001], "properties": {"magmom": -0.0}, "label": "Ga", "xyz": [2.8699119999999945, -2.7286664110080063, 5.739824000000005]}, {"species": [{"element": "Ga", "occu": 1}], "abc": [0.25, 0.262304, 0.012303999999999001], "properties": {"magmom": 0.0}, "label": "Ga", "xyz": [0.1412455889919941, -5.578870698741412e-15, 2.8699120000000056]}, {"species": [{"element": "Ga", "occu": 1}], "abc": [0.75, 0.237696, 0.487695999999999], "properties": {"magmom": 0.0}, "label": "Ga", "xyz": [-0.1412455889920059, 5.739823999999994, 2.8699120000000056]}, {"species": [{"element": "Ga", "occu": 1}], "abc": [0.262304, 0.012303999999999001, 0.25], "properties": {"magmom": 0.0}, "label": "Ga", "xyz": [-5.551115123125783e-15, 2.8699120000000056, 0.14124558899199413]}, {"species": [{"element": "Ga", "occu": 1}], "abc": [0.237696, 0.487695999999999, 0.75], "properties": {"magmom": 0.0}, "label": "Ga", "xyz": [5.739823999999994, 2.8699120000000056, -0.1412455889920059]}, {"species": [{"element": "Ga", "occu": 1}], "abc": [0.012303999999999001, 0.25, 0.262304], "properties": {"magmom": 0.0}, "label": "Ga", "xyz": [2.8699120000000056, 0.14124558899199413, -5.551115123125783e-15]}, {"species": [{"element": "Ga", "occu": 1}], "abc": [0.012303999999999001, 0.262304, 0.75], "properties": {"magmom": -0.0}, "label": "Ga", "xyz": [5.739824000000006, 2.8699119999999945, -2.728666411008006]}, {"species": [{"element": "Ga", "occu": 1}], "abc": [0.25, 0.487695999999999, 0.237696], "properties": {"magmom": -0.0}, "label": "Ga", "xyz": [2.7286664110079943, 5.551115123125783e-15, 2.869911999999994]}, {"species": [{"element": "Ga", "occu": 1}], "abc": [0.487695999999999, 0.237696, 0.25], "properties": {"magmom": 0.0}, "label": "Ga", "xyz": [5.551115123125783e-15, 2.869911999999994, 2.7286664110079943]}, {"species": [{"element": "Ga", "occu": 1}], "abc": [0.75, 0.012303999999999001, 0.262304], "properties": {"magmom": 0.0}, "label": "Ga", "xyz": [-2.728666411008006, 5.739824000000005, 2.869911999999995]}, {"species": [{"element": "Ga", "occu": 1}], "abc": [0.237696, 0.25, 0.487695999999999], "properties": {"magmom": 0.0}, "label": "Ga", "xyz": [2.869911999999994, 2.7286664110079943, 5.329070518200751e-15]}, {"species": [{"element": "Ga", "occu": 1}], "abc": [0.487695999999999, 0.75, 0.237696], "properties": {"magmom": -0.0}, "label": "Ga", "xyz": [2.8699120000000056, -0.1412455889920059, 5.739823999999994]}, {"species": [{"element": "Ga", "occu": 1}], "abc": [0.737696, 0.25, 0.9876959999999991], "properties": {"magmom": -0.0}, "label": "Ga", "xyz": [2.869911999999994, 8.468490411007995, 5.329070518200751e-15]}, {"species": [{"element": "Ga", "occu": 1}], "abc": [0.75, 0.737696, 0.9876959999999991], "properties": {"magmom": 0.0}, "label": "Ga", "xyz": [5.598578411007995, 5.739823999999994, 2.8699120000000056]}, {"species": [{"element": "Ga", "occu": 1}], "abc": [0.25, 0.762304, 0.512304], "properties": {"magmom": 0.0}, "label": "Ga", "xyz": [5.881069588992, -4.440892098500626e-16, 2.869912]}, {"species": [{"element": "Ga", "occu": 1}], "abc": [0.737696, 0.9876959999999991, 0.75], "properties": {"magmom": 0.0}, "label": "Ga", "xyz": [5.739823999999994, 2.8699120000000056, 5.598578411007995]}, {"species": [{"element": "Ga", "occu": 1}], "abc": [0.762304, 0.512304, 0.25], "properties": {"magmom": 0.0}, "label": "Ga", "xyz": [-2.220446049250313e-16, 2.8699120000000002, 5.881069588992]}, {"species": [{"element": "Ga", "occu": 1}], "abc": [0.9876959999999991, 0.75, 0.737696], "properties": {"magmom": 0.0}, "label": "Ga", "xyz": [2.8699120000000056, 5.598578411007995, 5.739823999999994]}, {"species": [{"element": "Ga", "occu": 1}], "abc": [0.9876959999999991, 0.737696, 0.25], "properties": {"magmom": -0.0}, "label": "Ga", "xyz": [5.551115123125783e-15, 2.869911999999994, 8.468490411007995]}, {"species": [{"element": "Ga", "occu": 1}], "abc": [0.75, 0.512304, 0.762304], "properties": {"magmom": -0.0}, "label": "Ga", "xyz": [3.0111575889919995, 5.7398240000000005, 2.8699120000000002]}, {"species": [{"element": "Ga", "occu": 1}], "abc": [0.512304, 0.762304, 0.75], "properties": {"magmom": 0.0}, "label": "Ga", "xyz": [5.7398240000000005, 2.869912, 3.011157588992]}, {"species": [{"element": "Ga", "occu": 1}], "abc": [0.25, 0.9876959999999991, 0.737696], "properties": {"magmom": 0.0}, "label": "Ga", "xyz": [8.468490411007995, 5.329070518200751e-15, 2.869911999999994]}, {"species": [{"element": "Ga", "occu": 1}], "abc": [0.762304, 0.75, 0.512304], "properties": {"magmom": 0.0}, "label": "Ga", "xyz": [2.869912, 3.0111575889919995, 5.7398240000000005]}, {"species": [{"element": "Ga", "occu": 1}], "abc": [0.512304, 0.25, 0.762304], "properties": {"magmom": -0.0}, "label": "Ga", "xyz": [2.8699120000000002, 5.881069588991999, 0.0]}, {"species": [{"element": "Ni", "occu": 1}], "abc": [0.741904999999999, 0.483809, 0.491905], "properties": {"magmom": -0.0}, "label": "Ni", "xyz": [1.3420225096160054, 4.304873739823994, 4.211934509615994]}, {"species": [{"element": "Ni", "occu": 1}], "abc": [0.25, 0.741904999999999, 0.758095], "properties": {"magmom": 0.0}, "label": "Ni", "xyz": [7.174779999999994, 1.5278837505600054, 1.342028249439994]}, {"species": [{"element": "Ni", "occu": 1}], "abc": [0.483809, 0.491905, 0.741904999999999], "properties": {"magmom": -0.0}, "label": "Ni", "xyz": [4.304873739823994, 4.211934509615994, 1.3420225096160054]}, {"species": [{"element": "Ni", "occu": 1}], "abc": [0.008095, 0.491905, 0.25], "properties": {"magmom": -0.0}, "label": "Ni", "xyz": [4.21194024944, -1.3420282494399995, 1.434956]}, {"species": [{"element": "Ni", "occu": 1}], "abc": [0.491905, 0.741904999999999, 0.483809], "properties": {"magmom": 0.0}, "label": "Ni", "xyz": [4.211934509615994, 1.3420225096160054, 4.304873739823994]}, {"species": [{"element": "Ni", "occu": 1}], "abc": [0.758095, 0.25, 0.741904999999999], "properties": {"magmom": -0.0}, "label": "Ni", "xyz": [1.342028249439994, 7.174779999999994, 1.5278837505600054]}, {"species": [{"element": "Ni", "occu": 1}], "abc": [0.491905, 0.25, 0.008095], "properties": {"magmom": -0.0}, "label": "Ni", "xyz": [-1.3420282494399998, 1.4349559999999997, 4.21194024944]}, {"species": [{"element": "Ni", "occu": 1}], "abc": [0.758095, 0.008095, 0.016191], "properties": {"magmom": -0.0}, "label": "Ni", "xyz": [-4.211934509616, 4.3978014903839995, 4.304862260176]}, {"species": [{"element": "Ni", "occu": 1}], "abc": [0.25, 0.008095, 0.491905], "properties": {"magmom": -0.0}, "label": "Ni", "xyz": [1.4349559999999997, 4.21194024944, -1.3420282494399998]}, {"species": [{"element": "Ni", "occu": 1}], "abc": [0.016191, 0.758095, 0.008095], "properties": {"magmom": 0.0}, "label": "Ni", "xyz": [4.304862260176, -4.211934509616, 4.3978014903839995]}, {"species": [{"element": "Ni", "occu": 1}], "abc": [0.741904999999999, 0.758095, 0.25], "properties": {"magmom": 0.0}, "label": "Ni", "xyz": [1.5278837505600056, 1.3420282494399942, 7.174779999999995]}, {"species": [{"element": "Ni", "occu": 1}], "abc": [0.008095, 0.016191, 0.758095], "properties": {"magmom": 0.0}, "label": "Ni", "xyz": [4.3978014903839995, 4.304862260176, -4.2119345096159995]}, {"species": [{"element": "Ni", "occu": 1}], "abc": [0.258094999999999, 0.516191, 0.508095], "properties": {"magmom": -0.0}, "label": "Ni", "xyz": [4.397801490384005, 1.4349502601759945, 1.5278894903839944]}, {"species": [{"element": "Ni", "occu": 1}], "abc": [0.75, 0.258094999999999, 0.241904999999999], "properties": {"magmom": 0.0}, "label": "Ni", "xyz": [-1.4349560000000117, 4.21194024944, 4.39779575056]}, {"species": [{"element": "Ni", "occu": 1}], "abc": [0.516191, 0.508095, 0.258094999999999], "properties": {"magmom": -0.0}, "label": "Ni", "xyz": [1.4349502601759945, 1.5278894903839941, 4.397801490384005]}, {"species": [{"element": "Ni", "occu": 1}], "abc": [0.991904999999999, 0.508095, 0.75], "properties": {"magmom": -0.0}, "label": "Ni", "xyz": [1.5278837505600058, 7.081852249439994, 4.304867999999993]}, {"species": [{"element": "Ni", "occu": 1}], "abc": [0.508095, 0.258094999999999, 0.516191], "properties": {"magmom": 0.0}, "label": "Ni", "xyz": [1.5278894903839941, 4.397801490384005, 1.4349502601759947]}, {"species": [{"element": "Ni", "occu": 1}], "abc": [0.241904999999999, 0.75, 0.258094999999999], "properties": {"magmom": -0.0}, "label": "Ni", "xyz": [4.39779575056, -1.4349560000000114, 4.2119402494400004]}, {"species": [{"element": "Ni", "occu": 1}], "abc": [0.508095, 0.75, 0.991904999999999], "properties": {"magmom": -0.0}, "label": "Ni", "xyz": [7.081852249439994, 4.304867999999994, 1.5278837505600054]}, {"species": [{"element": "Ni", "occu": 1}], "abc": [0.241904999999999, 0.991904999999999, 0.983808999999999], "properties": {"magmom": -0.0}, "label": "Ni", "xyz": [9.951758509615992, 1.3420225096159948, 1.4349617398239944]}, {"species": [{"element": "Ni", "occu": 1}], "abc": [0.75, 0.991904999999999, 0.508095], "properties": {"magmom": -0.0}, "label": "Ni", "xyz": [4.304867999999994, 1.5278837505600058, 7.081852249439994]}, {"species": [{"element": "Ni", "occu": 1}], "abc": [0.983808999999999, 0.241904999999999, 0.991904999999999], "properties": {"magmom": 0.0}, "label": "Ni", "xyz": [1.4349617398239944, 9.951758509615992, 1.3420225096159948]}, {"species": [{"element": "Ni", "occu": 1}], "abc": [0.258094999999999, 0.241904999999999, 0.75], "properties": {"magmom": 0.0}, "label": "Ni", "xyz": [4.21194024944, 4.39779575056, -1.4349560000000112]}, {"species": [{"element": "Ni", "occu": 1}], "abc": [0.991904999999999, 0.983808999999999, 0.241904999999999], "properties": {"magmom": 0.0}, "label": "Ni", "xyz": [1.3420225096159943, 1.434961739823994, 9.951758509615994]}]}, "task_ids": null, "uncorrected_energy_per_atom": null, "energy_per_atom": -12.08068657693027, "formation_energy_per_atom": -0.406935822644555, "energy_above_hull": 0.009664909328231, "is_stable": false, "equilibrium_reaction_energy_per_atom": null, "decomposes_to": null, "xas": null, "grain_boundaries": null, "band_gap": 0.0, "cbm": null, "vbm": null, "efermi": 6.03340146, "is_gap_direct": null, "is_metal": null, "es_source_calc_id": null, "bandstructure": null, "dos": null, "dos_energy_up": null, "dos_energy_down": null, "is_magnetic": null, "ordering": null, "total_magnetization": 0.0048758, "total_magnetization_normalized_vol": null, "total_magnetization_normalized_formula_units": null, "num_magnetic_sites": null, "num_unique_magnetic_sites": null, "types_of_magnetic_species": null, "bulk_modulus": null, "shear_modulus": null, "universal_anisotropy": null, "homogeneous_poisson": null, "e_total": null, "e_ionic": null, "e_electronic": null, "n": null, "e_ij_max": null, "weighted_surface_energy_EV_PER_ANG2": null, "weighted_surface_energy": null, "weighted_work_function": null, "surface_anisotropy": null, "shape_factor": null, "has_reconstructed": null, "possible_species": null, "has_props": null, "theoretical": null, "database_IDs": null, "fields_not_requested": ["builder_meta", "nsites", "elements", "nelements", "composition", "composition_reduced", "chemsys", "symmetry", "property_name", "deprecated", "deprecation_reasons", "last_updated", "origins", "warnings", "task_ids", "uncorrected_energy_per_atom", "equilibrium_reaction_energy_per_atom", "decomposes_to", "xas", "grain_boundaries", "cbm", "vbm", "is_gap_direct", "is_metal", "es_source_calc_id", "bandstructure", "dos", "dos_energy_up", "dos_energy_down", "is_magnetic", "ordering", "total_magnetization_normalized_vol", "total_magnetization_normalized_formula_units", "num_magnetic_sites", "num_unique_magnetic_sites", "types_of_magnetic_species", "bulk_modulus", "shear_modulus", "universal_anisotropy", "homogeneous_poisson", "e_total", "e_ionic", "e_electronic", "n", "e_ij_max", "weighted_surface_energy_EV_PER_ANG2", "weighted_surface_energy", "weighted_work_function", "surface_anisotropy", "shape_factor", "has_reconstructed", "possible_species", "has_props", "theoretical", "database_IDs"]}