{"builder_meta": null, "nsites": null, "elements": null, "nelements": null, "composition": null, "composition_reduced": null, "formula_pretty": "Ga4O5", "formula_anonymous": "A4B5", "chemsys": null, "volume": 215.91965828820184, "density": 5.520101409919385, "density_atomic": 11.995536571566769, "symmetry": null, "property_name": null, "material_id": "mp-1212799", "deprecated": null, "deprecation_reasons": null, "last_updated": null, "origins": null, "warnings": null, "structure": {"@module": "pymatgen.core.structure", "@class": "Structure", "charge": 0, "lattice": {"matrix": [[-4.451004, -4.878011, 0.0], [-4.451004, 4.878011, 0.0], [4.451004, 0.0, -4.972347]], "pbc": [true, true, true], "a": 6.603516330269579, "b": 6.603516330269579, "c": 6.673505173177362, "alpha": 116.71539436591962, "beta": 116.71539436591962, "gamma": 95.24141821815593, "volume": 215.91965828820184}, "properties": {}, "sites": [{"species": [{"element": "Ga", "occu": 1}], "abc": [0.277922, 0.110445999999999, 0.65014], "properties": {"magmom": -0.0}, "label": "Ga", "xyz": [1.1651482190880045, -0.8169497702360048, -3.2327216785800004]}, {"species": [{"element": "Ga", "occu": 1}], "abc": [0.372218, 0.539694, 0.65014], "properties": {"magmom": -0.0}, "label": "Ga", "xyz": [-1.165148219088, 0.8169497702360002, -3.2327216785800004]}, {"species": [{"element": "Ga", "occu": 1}], "abc": [0.889554, 0.722078, 0.34986], "properties": {"magmom": -0.0}, "label": "Ga", "xyz": [-5.616152219087999, -0.8169497702359996, -1.7396253214200001]}, {"species": [{"element": "Ga", "occu": 1}], "abc": [0.972078, 0.639554, 0.8498600000000001], "properties": {"magmom": -0.0}, "label": "Ga", "xyz": [-3.390650219087999, -1.6220557297640004, -4.225798821420001]}, {"species": [{"element": "Ga", "occu": 1}], "abc": [0.460306, 0.627782, 0.34986], "properties": {"magmom": -0.0}, "label": "Ga", "xyz": [-3.285855780912, 0.816949770236, -1.7396253214200001]}, {"species": [{"element": "Ga", "occu": 1}], "abc": [0.877782, 0.210306, 0.8498600000000001], "properties": {"magmom": -0.0}, "label": "Ga", "xyz": [-1.0603537809119996, -3.255955270236, -4.225798821420001]}, {"species": [{"element": "Ga", "occu": 1}], "abc": [0.360446, 0.027922, 0.15014000000000002], "properties": {"magmom": -0.0}, "label": "Ga", "xyz": [-1.0603537809119998, -1.622055729764, -0.7465481785800001]}, {"species": [{"element": "Ga", "occu": 1}], "abc": [0.789694, 0.122218, 0.15014000000000002], "properties": {"magmom": -0.0}, "label": "Ga", "xyz": [-3.390650219088, -3.255955270236, -0.7465481785800001]}, {"species": [{"element": "O", "occu": 1}], "abc": [0.180012, 0.449385, 0.9808100000000001], "properties": {"magmom": 0.0}, "label": "O", "xyz": [1.5641406686520005, 1.3140044571029996, -4.876927661070001]}, {"species": [{"element": "O", "occu": 1}], "abc": [0.800798, 0.531424999999999, 0.9808100000000001], "properties": {"magmom": 0.0}, "label": "O", "xyz": [-1.5641406686519952, -1.314004457103005, -4.876927661070001]}, {"species": [{"element": "O", "occu": 1}], "abc": [0.550615, 0.819987999999999, 0.019190000000000002], "properties": {"magmom": 0.0}, "label": "O", "xyz": [-6.015144668651996, 1.3140044571029956, -0.09541933893000001]}, {"species": [{"element": "O", "occu": 1}], "abc": [0.069988, 0.300614999999999, 0.51919], "properties": {"magmom": 0.0}, "label": "O", "xyz": [0.6613613313480045, 1.1250010428969954, -2.5815928389300002]}, {"species": [{"element": "O", "occu": 1}], "abc": [0.468574999999999, 0.199202, 0.019190000000000002], "properties": {"magmom": 0.0}, "label": "O", "xyz": [-2.8868633313479957, -1.3140044571029952, -0.09541933893000001]}, {"species": [{"element": "O", "occu": 1}], "abc": [0.449202, 0.218575, 0.51919], "properties": {"magmom": 0.0}, "label": "O", "xyz": [-0.661361331348, -1.125001042897, -2.5815928389300002]}, {"species": [{"element": "O", "occu": 1}], "abc": [0.699384999999999, 0.930012, 0.48081], "properties": {"magmom": 0.0}, "label": "O", "xyz": [-5.112365331347996, 1.1250010428970048, -2.3907541610700003]}, {"species": [{"element": "O", "occu": 1}], "abc": [0.781424999999999, 0.550798, 0.48081], "properties": {"magmom": 0.0}, "label": "O", "xyz": [-3.7896426686519957, -1.1250010428969954, -2.3907541610700003]}, {"species": [{"element": "O", "occu": 1}], "abc": [0.0, 0.0, 0.0], "properties": {"magmom": 0.0}, "label": "O", "xyz": [0.0, 0.0, 0.0]}, {"species": [{"element": "O", "occu": 1}], "abc": [0.25, 0.75, 0.5], "properties": {"magmom": 0.0}, "label": "O", "xyz": [-2.225502, 2.4390054999999995, -2.4861735]}]}, "task_ids": null, "uncorrected_energy_per_atom": null, "energy_per_atom": -5.672774408888888, "formation_energy_per_atom": -1.578086729444444, "energy_above_hull": 0.522836112222222, "is_stable": false, "equilibrium_reaction_energy_per_atom": null, "decomposes_to": null, "xas": null, "grain_boundaries": null, "band_gap": 0.35490000000000005, "cbm": null, "vbm": null, "efermi": 4.06961879, "is_gap_direct": null, "is_metal": null, "es_source_calc_id": null, "bandstructure": null, "dos": null, "dos_energy_up": null, "dos_energy_down": null, "is_magnetic": null, "ordering": null, "total_magnetization": 0.000286099999999, "total_magnetization_normalized_vol": null, "total_magnetization_normalized_formula_units": null, "num_magnetic_sites": null, "num_unique_magnetic_sites": null, "types_of_magnetic_species": null, "bulk_modulus": null, "shear_modulus": null, "universal_anisotropy": null, "homogeneous_poisson": null, "e_total": null, "e_ionic": null, "e_electronic": null, "n": null, "e_ij_max": null, "weighted_surface_energy_EV_PER_ANG2": null, "weighted_surface_energy": null, "weighted_work_function": null, "surface_anisotropy": null, "shape_factor": null, "has_reconstructed": null, "possible_species": null, "has_props": null, "theoretical": null, "database_IDs": null, "fields_not_requested": ["builder_meta", "nsites", "elements", "nelements", "composition", "composition_reduced", "chemsys", "symmetry", "property_name", "deprecated", "deprecation_reasons", "last_updated", "origins", "warnings", "task_ids", "uncorrected_energy_per_atom", "equilibrium_reaction_energy_per_atom", "decomposes_to", "xas", "grain_boundaries", "cbm", "vbm", "is_gap_direct", "is_metal", "es_source_calc_id", "bandstructure", "dos", "dos_energy_up", "dos_energy_down", "is_magnetic", "ordering", "total_magnetization_normalized_vol", "total_magnetization_normalized_formula_units", "num_magnetic_sites", "num_unique_magnetic_sites", "types_of_magnetic_species", "bulk_modulus", "shear_modulus", "universal_anisotropy", "homogeneous_poisson", "e_total", "e_ionic", "e_electronic", "n", "e_ij_max", "weighted_surface_energy_EV_PER_ANG2", "weighted_surface_energy", "weighted_work_function", "surface_anisotropy", "shape_factor", "has_reconstructed", "possible_species", "has_props", "theoretical", "database_IDs"]}