{
  "builder_meta": null,
  "nsites": null,
  "elements": null,
  "nelements": null,
  "composition": null,
  "composition_reduced": null,
  "formula_pretty": "Ga5Fe6",
  "formula_anonymous": "A5B6",
  "chemsys": null,
  "volume": 289.9977008074321,
  "density": 7.829618294127698,
  "density_atomic": 13.181713673065097,
  "symmetry": null,
  "property_name": null,
  "material_id": "mp-570920",
  "deprecated": null,
  "deprecation_reasons": null,
  "last_updated": null,
  "origins": null,
  "warnings": null,
  "structure": {
    "@module": "pymatgen.core.structure",
    "@class": "Structure",
    "charge": 0,
    "lattice": {
      "matrix": [
        [3.958898999999999, 5.019779, 0.0],
        [-3.958898999999999, 5.019779, 0.0],
        [0.0, 2.425019, 7.296348]
      ],
      "pbc": [true, true, true],
      "a": 6.393047982069429,
      "b": 6.393047982069429,
      "c": 7.6887847731267005,
      "alpha": 75.66164881861614,
      "beta": 75.66164881861614,
      "gamma": 76.52286448458243,
      "volume": 289.997700807432
    },
    "properties": {},
    "sites": [
      {
        "species": [{ "element": "Ga", "occu": 1 }],
        "abc": [0.321522, 0.321522, 0.65503],
        "properties": { "magmom": -0.108 },
        "label": "Ga",
        "xyz": [0.0, 4.816398962846, 4.77932683044]
      },
      {
        "species": [{ "element": "Ga", "occu": 1 }],
        "abc": [0.841618, 0.234577999999999, 0.794913],
        "properties": { "magmom": -0.093 },
        "label": "Ga",
        "xyz": [2.4032100489600032, 7.329945209030996, 5.799961877724]
      },
      {
        "species": [{ "element": "Ga", "occu": 1 }],
        "abc": [0.131123, 0.131123, 0.401402],
        "properties": { "magmom": -0.093 },
        "label": "Ga",
        "xyz": [0.0, 2.2898244402719996, 2.9287686798959998]
      },
      {
        "species": [{ "element": "Ga", "occu": 1 }],
        "abc": [0.158382, 0.765421999999999, 0.205087],
        "properties": { "magmom": -0.093 },
        "label": "Ga",
        "xyz": [-2.4032100489599957, 5.134631790968995, 1.496386122276]
      },
      {
        "species": [{ "element": "Ga", "occu": 1 }],
        "abc": [0.234577999999999, 0.841618, 0.794913],
        "properties": { "magmom": -0.093 },
        "label": "Ga",
        "xyz": [-2.4032100489600032, 7.329945209030996, 5.799961877724]
      },
      {
        "species": [{ "element": "Ga", "occu": 1 }],
        "abc": [0.622718, 0.622718, 0.020121],
        "properties": { "magmom": -0.092 },
        "label": "Ga",
        "xyz": [0.0, 6.300607285942999, 0.146809818108]
      },
      {
        "species": [{ "element": "Ga", "occu": 1 }],
        "abc": [0.678477999999999, 0.678477999999999, 0.34497000000000005],
        "properties": { "magmom": -0.108 },
        "label": "Ga",
        "xyz": [0.0, 7.64817803715399, 2.5170211695600004]
      },
      {
        "species": [{ "element": "Ga", "occu": 1 }],
        "abc": [0.765421999999999, 0.158382, 0.205087],
        "properties": { "magmom": -0.093 },
        "label": "Ga",
        "xyz": [2.4032100489599957, 5.134631790968995, 1.496386122276]
      },
      {
        "species": [{ "element": "Ga", "occu": 1 }],
        "abc": [0.868877, 0.868877, 0.598598],
        "properties": { "magmom": -0.093 },
        "label": "Ga",
        "xyz": [0.0, 10.174752559727999, 4.367579320103999]
      },
      {
        "species": [{ "element": "Ga", "occu": 1 }],
        "abc": [0.377282, 0.377282, 0.979879],
        "properties": { "magmom": -0.092 },
        "label": "Ga",
        "xyz": [0.0, 6.163969714057, 7.149538181892]
      },
      {
        "species": [{ "element": "Fe", "occu": 1 }],
        "abc": [0.869051999999999, 0.869051999999999, 0.013193],
        "properties": { "magmom": 2.113 },
        "label": "Fe",
        "xyz": [0.0, 8.75689123468299, 0.096260719164]
      },
      {
        "species": [{ "element": "Fe", "occu": 1 }],
        "abc": [0.603448, 0.603448, 0.690554999999999],
        "properties": { "magmom": 2.182 },
        "label": "Fe",
        "xyz": [0.0, 7.732960191528997, 5.038529593139993]
      },
      {
        "species": [{ "element": "Fe", "occu": 1 }],
        "abc": [0.5, 0.0, 0.5],
        "properties": { "magmom": 2.059 },
        "label": "Fe",
        "xyz": [1.9794494999999994, 3.722399, 3.648174]
      },
      {
        "species": [{ "element": "Fe", "occu": 1 }],
        "abc": [0.720328, 0.279672, 0.5],
        "properties": { "magmom": 1.963 },
        "label": "Fe",
        "xyz": [1.7445125977439995, 6.232288499999999, 3.648174]
      },
      {
        "species": [{ "element": "Fe", "occu": 1 }],
        "abc": [0.993024999999999, 0.456885999999999, 0.170142],
        "properties": { "magmom": 2.231 },
        "label": "Fe",
        "xyz": [2.122520150960999, 7.690830372366989, 1.241415241416]
      },
      {
        "species": [{ "element": "Fe", "occu": 1 }],
        "abc": [0.006974999999999, 0.543114, 0.829858],
        "properties": { "magmom": 2.231 },
        "label": "Fe",
        "xyz": [-2.1225201509610034, 4.7737466276329945, 6.054932758584]
      },
      {
        "species": [{ "element": "Fe", "occu": 1 }],
        "abc": [0.396551999999999, 0.396551999999999, 0.309444999999999],
        "properties": { "magmom": 2.182 },
        "label": "Fe",
        "xyz": [0.0, 4.731616808470988, 2.257818406859993]
      },
      {
        "species": [{ "element": "Fe", "occu": 1 }],
        "abc": [0.456885999999999, 0.993024999999999, 0.170142],
        "properties": { "magmom": 2.231 },
        "label": "Fe",
        "xyz": [-2.122520150960999, 7.690830372366989, 1.241415241416]
      },
      {
        "species": [{ "element": "Fe", "occu": 1 }],
        "abc": [0.130947999999999, 0.130947999999999, 0.986807],
        "properties": { "magmom": 2.113 },
        "label": "Fe",
        "xyz": [0.0, 3.70768576531699, 7.200087280836]
      },
      {
        "species": [{ "element": "Fe", "occu": 1 }],
        "abc": [0.279672, 0.720328, 0.5],
        "properties": { "magmom": 1.963 },
        "label": "Fe",
        "xyz": [-1.7445125977439995, 6.232288499999999, 3.648174]
      },
      {
        "species": [{ "element": "Fe", "occu": 1 }],
        "abc": [0.543114, 0.006974999999999, 0.829858],
        "properties": { "magmom": 2.231 },
        "label": "Fe",
        "xyz": [2.1225201509610034, 4.7737466276329945, 6.054932758584]
      },
      {
        "species": [{ "element": "Fe", "occu": 1 }],
        "abc": [0.0, 0.5, 0.5],
        "properties": { "magmom": 2.059 },
        "label": "Fe",
        "xyz": [-1.9794494999999994, 3.722399, 3.648174]
      }
    ]
  },
  "task_ids": null,
  "uncorrected_energy_per_atom": null,
  "energy_per_atom": -6.142637167272727,
  "formation_energy_per_atom": -0.14621831522727102,
  "energy_above_hull": 0.031206838323865,
  "is_stable": false,
  "equilibrium_reaction_energy_per_atom": null,
  "decomposes_to": null,
  "xas": null,
  "grain_boundaries": null,
  "band_gap": 0.0,
  "cbm": null,
  "vbm": null,
  "efermi": 4.84032876,
  "is_gap_direct": null,
  "is_metal": null,
  "es_source_calc_id": null,
  "bandstructure": null,
  "dos": null,
  "dos_energy_up": null,
  "dos_energy_down": null,
  "is_magnetic": null,
  "ordering": null,
  "total_magnetization": 24.3622496,
  "total_magnetization_normalized_vol": null,
  "total_magnetization_normalized_formula_units": null,
  "num_magnetic_sites": null,
  "num_unique_magnetic_sites": null,
  "types_of_magnetic_species": null,
  "bulk_modulus": null,
  "shear_modulus": null,
  "universal_anisotropy": null,
  "homogeneous_poisson": null,
  "e_total": null,
  "e_ionic": null,
  "e_electronic": null,
  "n": null,
  "e_ij_max": null,
  "weighted_surface_energy_EV_PER_ANG2": null,
  "weighted_surface_energy": null,
  "weighted_work_function": null,
  "surface_anisotropy": null,
  "shape_factor": null,
  "has_reconstructed": null,
  "possible_species": null,
  "has_props": null,
  "theoretical": null,
  "database_IDs": null,
  "fields_not_requested": [
    "builder_meta",
    "nsites",
    "elements",
    "nelements",
    "composition",
    "composition_reduced",
    "chemsys",
    "symmetry",
    "property_name",
    "deprecated",
    "deprecation_reasons",
    "last_updated",
    "origins",
    "warnings",
    "task_ids",
    "uncorrected_energy_per_atom",
    "equilibrium_reaction_energy_per_atom",
    "decomposes_to",
    "xas",
    "grain_boundaries",
    "cbm",
    "vbm",
    "is_gap_direct",
    "is_metal",
    "es_source_calc_id",
    "bandstructure",
    "dos",
    "dos_energy_up",
    "dos_energy_down",
    "is_magnetic",
    "ordering",
    "total_magnetization_normalized_vol",
    "total_magnetization_normalized_formula_units",
    "num_magnetic_sites",
    "num_unique_magnetic_sites",
    "types_of_magnetic_species",
    "bulk_modulus",
    "shear_modulus",
    "universal_anisotropy",
    "homogeneous_poisson",
    "e_total",
    "e_ionic",
    "e_electronic",
    "n",
    "e_ij_max",
    "weighted_surface_energy_EV_PER_ANG2",
    "weighted_surface_energy",
    "weighted_work_function",
    "surface_anisotropy",
    "shape_factor",
    "has_reconstructed",
    "possible_species",
    "has_props",
    "theoretical",
    "database_IDs"
  ]
}
