{"builder_meta": null, "nsites": null, "elements": null, "nelements": null, "composition": null, "composition_reduced": null, "formula_pretty": "Ga5Ir3", "formula_anonymous": "A3B5", "chemsys": null, "volume": 483.6069488767108, "density": 12.708174219294857, "density_atomic": 15.112717152397213, "symmetry": null, "property_name": null, "material_id": "mp-1212680", "deprecated": null, "deprecation_reasons": null, "last_updated": null, "origins": null, "warnings": null, "structure": {"@module": "pymatgen.core.structure", "@class": "Structure", "charge": 0, "lattice": {"matrix": [[5.83271382, -0.0, 0.0], [0.0, 5.83271382, 0.0], [0.0, -0.0, 14.21514178]], "pbc": [true, true, true], "a": 5.83271382, "b": 5.83271382, "c": 14.21514178, "alpha": 90.0, "beta": 90.0, "gamma": 90.0, "volume": 483.6069488767108}, "properties": {}, "sites": [{"species": [{"element": "Ga", "occu": 1}], "abc": [0.22819639, 0.35030818, 0.05297321], "properties": {"magmom": -0.0}, "label": "Ga", "xyz": [1.3310042376271098, 2.043247362745048, 0.7530216906917138]}, {"species": [{"element": "Ga", "occu": 1}], "abc": [0.77180361, 0.64969182, 0.05297321], "properties": {"magmom": -0.0}, "label": "Ga", "xyz": [4.50170958237289, 3.789466457254953, 0.7530216906917138]}, {"species": [{"element": "Ga", "occu": 1}], "abc": [0.35030818, 0.77180361, 0.94702679], "properties": {"magmom": -0.0}, "label": "Ga", "xyz": [2.043247362745048, 4.50170958237289, 13.462120089308286]}, {"species": [{"element": "Ga", "occu": 1}], "abc": [0.72819639, 0.14969182, 0.55297321], "properties": {"magmom": -0.0}, "label": "Ga", "xyz": [4.24736114762711, 0.8731095472549525, 7.860592580691714]}, {"species": [{"element": "Ga", "occu": 1}], "abc": [0.64969182, 0.22819639, 0.94702679], "properties": {"magmom": -0.0}, "label": "Ga", "xyz": [3.789466457254953, 1.3310042376271098, 13.462120089308286]}, {"species": [{"element": "Ga", "occu": 1}], "abc": [0.27180361000000003, 0.85030818, 0.55297321], "properties": {"magmom": -0.0}, "label": "Ga", "xyz": [1.5853526723728906, 4.959604272745048, 7.860592580691714]}, {"species": [{"element": "Ga", "occu": 1}], "abc": [0.85030818, 0.72819639, 0.44702679], "properties": {"magmom": -0.0}, "label": "Ga", "xyz": [4.959604272745048, 4.24736114762711, 6.354549199308286]}, {"species": [{"element": "Ga", "occu": 1}], "abc": [0.14969182, 0.27180361000000003, 0.44702679], "properties": {"magmom": -0.0}, "label": "Ga", "xyz": [0.8731095472549525, 1.5853526723728906, 6.354549199308286]}, {"species": [{"element": "Ga", "occu": 1}], "abc": [0.34429401, 0.30851686, 0.65303188], "properties": {"magmom": 0.0}, "label": "Ga", "xyz": [2.008168430270218, 1.7994905530250054, 9.282940761059946]}, {"species": [{"element": "Ga", "occu": 1}], "abc": [0.65570599, 0.69148314, 0.65303188], "properties": {"magmom": 0.0}, "label": "Ga", "xyz": [3.824545389729782, 4.0332232669749954, 9.282940761059946]}, {"species": [{"element": "Ga", "occu": 1}], "abc": [0.30851686, 0.65570599, 0.34696812], "properties": {"magmom": 0.0}, "label": "Ga", "xyz": [1.7994905530250054, 3.824545389729782, 4.932201018940053]}, {"species": [{"element": "Ga", "occu": 1}], "abc": [0.84429401, 0.19148314, 0.15303188], "properties": {"magmom": 0.0}, "label": "Ga", "xyz": [4.924525340270219, 1.1168663569749948, 2.1753698710599463]}, {"species": [{"element": "Ga", "occu": 1}], "abc": [0.69148314, 0.34429401, 0.34696812], "properties": {"magmom": 0.0}, "label": "Ga", "xyz": [4.0332232669749954, 2.008168430270218, 4.932201018940053]}, {"species": [{"element": "Ga", "occu": 1}], "abc": [0.15570599000000002, 0.80851686, 0.15303188], "properties": {"magmom": 0.0}, "label": "Ga", "xyz": [0.908188479729782, 4.715847463025005, 2.1753698710599463]}, {"species": [{"element": "Ga", "occu": 1}], "abc": [0.80851686, 0.84429401, 0.84696812], "properties": {"magmom": 0.0}, "label": "Ga", "xyz": [4.715847463025005, 4.924525340270219, 12.039771908940054]}, {"species": [{"element": "Ga", "occu": 1}], "abc": [0.19148314, 0.15570599000000002, 0.84696812], "properties": {"magmom": 0.0}, "label": "Ga", "xyz": [1.1168663569749948, 0.908188479729782, 12.039771908940054]}, {"species": [{"element": "Ga", "occu": 1}], "abc": [0.33211541, 0.16788459, 0.25], "properties": {"magmom": -0.0}, "label": "Ga", "xyz": [1.9371341417419663, 0.9792227682580339, 3.553785445]}, {"species": [{"element": "Ga", "occu": 1}], "abc": [0.66788459, 0.83211541, 0.25], "properties": {"magmom": -0.0}, "label": "Ga", "xyz": [3.895579678258034, 4.853491051741966, 3.553785445]}, {"species": [{"element": "Ga", "occu": 1}], "abc": [0.16788459, 0.66788459, 0.75], "properties": {"magmom": -0.0}, "label": "Ga", "xyz": [0.9792227682580339, 3.895579678258034, 10.661356335]}, {"species": [{"element": "Ga", "occu": 1}], "abc": [0.83211541, 0.33211541, 0.75], "properties": {"magmom": -0.0}, "label": "Ga", "xyz": [4.853491051741966, 1.9371341417419663, 10.661356335]}, {"species": [{"element": "Ir", "occu": 1}], "abc": [0.0, 0.0, 0.3271957], "properties": {"magmom": -0.0}, "label": "Ir", "xyz": [0.0, 0.0, 4.6511332653063455]}, {"species": [{"element": "Ir", "occu": 1}], "abc": [0.0, 0.0, 0.6728043], "properties": {"magmom": -0.0}, "label": "Ir", "xyz": [0.0, 0.0, 9.564008514693654]}, {"species": [{"element": "Ir", "occu": 1}], "abc": [0.5, 0.5, 0.8271957], "properties": {"magmom": -0.0}, "label": "Ir", "xyz": [2.91635691, 2.91635691, 11.758704155306345]}, {"species": [{"element": "Ir", "occu": 1}], "abc": [0.5, 0.5, 0.1728043], "properties": {"magmom": -0.0}, "label": "Ir", "xyz": [2.91635691, 2.91635691, 2.456437624693654]}, {"species": [{"element": "Ir", "occu": 1}], "abc": [0.0, 0.5, 0.58600397], "properties": {"magmom": 0.0}, "label": "Ir", "xyz": [0.0, 2.91635691, 8.330129517192868]}, {"species": [{"element": "Ir", "occu": 1}], "abc": [0.5, 0.0, 0.41399603], "properties": {"magmom": 0.0}, "label": "Ir", "xyz": [2.91635691, 0.0, 5.885012262807133]}, {"species": [{"element": "Ir", "occu": 1}], "abc": [0.5, 0.0, 0.08600397], "properties": {"magmom": 0.0}, "label": "Ir", "xyz": [2.91635691, 0.0, 1.2225586271928666]}, {"species": [{"element": "Ir", "occu": 1}], "abc": [0.0, 0.5, 0.9139960300000001], "properties": {"magmom": 0.0}, "label": "Ir", "xyz": [0.0, 2.91635691, 12.992583152807134]}, {"species": [{"element": "Ir", "occu": 1}], "abc": [0.0, 0.5, 0.25], "properties": {"magmom": 0.0}, "label": "Ir", "xyz": [0.0, 2.91635691, 3.553785445]}, {"species": [{"element": "Ir", "occu": 1}], "abc": [0.5, 0.0, 0.75], "properties": {"magmom": 0.0}, "label": "Ir", "xyz": [2.91635691, 0.0, 10.661356335]}, {"species": [{"element": "Ir", "occu": 1}], "abc": [0.0, 0.0, -0.0], "properties": {"magmom": -0.0}, "label": "Ir", "xyz": [0.0, 0.0, 0.0]}, {"species": [{"element": "Ir", "occu": 1}], "abc": [0.5, 0.5, 0.5], "properties": {"magmom": -0.0}, "label": "Ir", "xyz": [2.91635691, 2.91635691, 7.10757089]}]}, "task_ids": null, "uncorrected_energy_per_atom": null, "energy_per_atom": -27.323047939375, "formation_energy_per_atom": -0.536555426875004, "energy_above_hull": 0.0, "is_stable": true, "equilibrium_reaction_energy_per_atom": null, "decomposes_to": null, "xas": null, "grain_boundaries": null, "band_gap": 0.0, "cbm": null, "vbm": null, "efermi": 6.21456276, "is_gap_direct": null, "is_metal": null, "es_source_calc_id": null, "bandstructure": null, "dos": null, "dos_energy_up": null, "dos_energy_down": null, "is_magnetic": null, "ordering": null, "total_magnetization": 0.0, "total_magnetization_normalized_vol": null, "total_magnetization_normalized_formula_units": null, "num_magnetic_sites": null, "num_unique_magnetic_sites": null, "types_of_magnetic_species": null, "bulk_modulus": null, "shear_modulus": null, "universal_anisotropy": null, "homogeneous_poisson": null, "e_total": null, "e_ionic": null, "e_electronic": null, "n": null, "e_ij_max": null, "weighted_surface_energy_EV_PER_ANG2": null, "weighted_surface_energy": null, "weighted_work_function": null, "surface_anisotropy": null, "shape_factor": null, "has_reconstructed": null, "possible_species": null, "has_props": null, "theoretical": null, "database_IDs": null, "fields_not_requested": ["builder_meta", "nsites", "elements", "nelements", "composition", "composition_reduced", "chemsys", "symmetry", "property_name", "deprecated", "deprecation_reasons", "last_updated", "origins", "warnings", "task_ids", "uncorrected_energy_per_atom", "equilibrium_reaction_energy_per_atom", "decomposes_to", "xas", "grain_boundaries", "cbm", "vbm", "is_gap_direct", "is_metal", "es_source_calc_id", "bandstructure", "dos", "dos_energy_up", "dos_energy_down", "is_magnetic", "ordering", "total_magnetization_normalized_vol", "total_magnetization_normalized_formula_units", "num_magnetic_sites", "num_unique_magnetic_sites", "types_of_magnetic_species", "bulk_modulus", "shear_modulus", "universal_anisotropy", "homogeneous_poisson", "e_total", "e_ionic", "e_electronic", "n", "e_ij_max", "weighted_surface_energy_EV_PER_ANG2", "weighted_surface_energy", "weighted_work_function", "surface_anisotropy", "shape_factor", "has_reconstructed", "possible_species", "has_props", "theoretical", "database_IDs"]}