{"builder_meta": null, "nsites": null, "elements": null, "nelements": null, "composition": null, "composition_reduced": null, "formula_pretty": "Ga5Ni", "formula_anonymous": "AB5", "chemsys": null, "volume": 188.95087084603168, "density": 7.159019774039257, "density_atomic": 15.745905903835974, "symmetry": null, "property_name": null, "material_id": "mp-1095578", "deprecated": null, "deprecation_reasons": null, "last_updated": null, "origins": null, "warnings": null, "structure": {"@module": "pymatgen.core.structure", "@class": "Structure", "charge": 0, "lattice": {"matrix": [[-3.14071264, 3.14071264, 4.78886398], [3.14071264, -3.14071264, 4.78886398], [3.14071264, 3.14071264, -4.78886398]], "pbc": [true, true, true], "a": 6.5315671927228145, "b": 6.5315671927228145, "c": 6.5315671927228145, "alpha": 122.51796565638212, "beta": 122.51796565638212, "gamma": 85.69141899172995, "volume": 188.95087084603168}, "properties": {}, "sites": [{"species": [{"element": "Ga", "occu": 1}], "abc": [-0.0, 0.0, 0.0], "properties": {"magmom": -0.0}, "label": "Ga", "xyz": [0.0, 0.0, 0.0]}, {"species": [{"element": "Ga", "occu": 1}], "abc": [0.5, 0.5, 0.0], "properties": {"magmom": -0.0}, "label": "Ga", "xyz": [0.0, 0.0, 4.78886398]}, {"species": [{"element": "Ga", "occu": 1}], "abc": [0.00710181, 0.50710181, 0.80067006], "properties": {"magmom": 0.0}, "label": "Ga", "xyz": [4.085030897911558, 0.9443182579115581, -1.3718488159948312]}, {"species": [{"element": "Ga", "occu": 1}], "abc": [0.70643174, 0.20643174, 0.19932994], "properties": {"magmom": 0.0}, "label": "Ga", "xyz": [-0.9443182579115583, 2.1963943820884415, 3.4170150682278893]}, {"species": [{"element": "Ga", "occu": 1}], "abc": [0.50710181, 0.70643174, 0.5], "properties": {"magmom": 0.0}, "label": "Ga", "xyz": [2.196394350681315, 0.9443182893186848, 3.417015116116529]}, {"species": [{"element": "Ga", "occu": 1}], "abc": [0.20643174, 0.00710181, 0.5], "properties": {"magmom": 0.0}, "label": "Ga", "xyz": [0.9443182893186848, 2.196394350681315, -1.3718488638834712]}, {"species": [{"element": "Ga", "occu": 1}], "abc": [0.99289819, 0.49289819, 0.19932994], "properties": {"magmom": 0.0}, "label": "Ga", "xyz": [-0.9443182579115585, 2.1963943820884415, 6.160712795994832]}, {"species": [{"element": "Ga", "occu": 1}], "abc": [0.29356826, 0.79356826, 0.80067006], "properties": {"magmom": 0.0}, "label": "Ga", "xyz": [4.085030897911558, 0.9443182579115579, 1.3718489117721115]}, {"species": [{"element": "Ga", "occu": 1}], "abc": [0.49289819, 0.29356826, 0.5], "properties": {"magmom": 0.0}, "label": "Ga", "xyz": [0.9443182893186849, 2.196394350681315, 1.3718488638834714]}, {"species": [{"element": "Ga", "occu": 1}], "abc": [0.79356826, 0.99289819, 0.5], "properties": {"magmom": 0.0}, "label": "Ga", "xyz": [2.196394350681315, 0.9443182893186848, 6.160712843883471]}, {"species": [{"element": "Ni", "occu": 1}], "abc": [0.75, 0.75, 0.0], "properties": {"magmom": -0.0}, "label": "Ni", "xyz": [0.0, 0.0, 7.1832959700000005]}, {"species": [{"element": "Ni", "occu": 1}], "abc": [0.25, 0.25, 0.0], "properties": {"magmom": -0.0}, "label": "Ni", "xyz": [0.0, 0.0, 2.39443199]}]}, "task_ids": null, "uncorrected_energy_per_atom": null, "energy_per_atom": -11.688132804166665, "formation_energy_per_atom": -0.15553331916666702, "energy_above_hull": 0.021044003333335, "is_stable": false, "equilibrium_reaction_energy_per_atom": null, "decomposes_to": null, "xas": null, "grain_boundaries": null, "band_gap": 0.0, "cbm": null, "vbm": null, "efermi": 4.34560365, "is_gap_direct": null, "is_metal": null, "es_source_calc_id": null, "bandstructure": null, "dos": null, "dos_energy_up": null, "dos_energy_down": null, "is_magnetic": null, "ordering": null, "total_magnetization": 1.58e-05, "total_magnetization_normalized_vol": null, "total_magnetization_normalized_formula_units": null, "num_magnetic_sites": null, "num_unique_magnetic_sites": null, "types_of_magnetic_species": null, "bulk_modulus": null, "shear_modulus": null, "universal_anisotropy": null, "homogeneous_poisson": null, "e_total": null, "e_ionic": null, "e_electronic": null, "n": null, "e_ij_max": null, "weighted_surface_energy_EV_PER_ANG2": null, "weighted_surface_energy": null, "weighted_work_function": null, "surface_anisotropy": null, "shape_factor": null, "has_reconstructed": null, "possible_species": null, "has_props": null, "theoretical": null, "database_IDs": null, "fields_not_requested": ["builder_meta", "nsites", "elements", "nelements", "composition", "composition_reduced", "chemsys", "symmetry", "property_name", "deprecated", "deprecation_reasons", "last_updated", "origins", "warnings", "task_ids", "uncorrected_energy_per_atom", "equilibrium_reaction_energy_per_atom", "decomposes_to", "xas", "grain_boundaries", "cbm", "vbm", "is_gap_direct", "is_metal", "es_source_calc_id", "bandstructure", "dos", "dos_energy_up", "dos_energy_down", "is_magnetic", "ordering", "total_magnetization_normalized_vol", "total_magnetization_normalized_formula_units", "num_magnetic_sites", "num_unique_magnetic_sites", "types_of_magnetic_species", "bulk_modulus", "shear_modulus", "universal_anisotropy", "homogeneous_poisson", "e_total", "e_ionic", "e_electronic", "n", "e_ij_max", "weighted_surface_energy_EV_PER_ANG2", "weighted_surface_energy", "weighted_work_function", "surface_anisotropy", "shape_factor", "has_reconstructed", "possible_species", "has_props", "theoretical", "database_IDs"]}