{"builder_meta": null, "nsites": null, "elements": null, "nelements": null, "composition": null, "composition_reduced": null, "formula_pretty": "Ga5Pd", "formula_anonymous": "AB5", "chemsys": null, "volume": 205.49900383986483, "density": 7.353839970524968, "density_atomic": 17.124916986655403, "symmetry": null, "property_name": null, "material_id": "mp-30660", "deprecated": null, "deprecation_reasons": null, "last_updated": null, "origins": null, "warnings": null, "structure": {"@module": "pymatgen.core.structure", "@class": "Structure", "charge": 0, "lattice": {"matrix": [[5.67196526, -0.0, -3.07305678], [-1.66497534, 5.42208896, -3.07305678], [-0.02629841, -0.03558551, 6.72238439]], "pbc": [true, true, true], "a": 6.4509586794329135, "b": 6.4509588082753995, "c": 6.722530016430285, "alpha": 118.67242642322968, "beta": 118.67243016783044, "gamma": 90.00000593974234, "volume": 205.49900383986486}, "properties": {}, "sites": [{"species": [{"element": "Ga", "occu": 1}], "abc": [-0.0, -0.0, -0.0], "properties": {"magmom": -0.0}, "label": "Ga", "xyz": [0.0, 0.0, 0.0]}, {"species": [{"element": "Ga", "occu": 1}], "abc": [0.5, 0.5, -0.0], "properties": {"magmom": -0.0}, "label": "Ga", "xyz": [2.0034949600000003, 2.71104448, -3.07305678]}, {"species": [{"element": "Ga", "occu": 1}], "abc": [0.28534574, 0.78534574, 0.28003619], "properties": {"magmom": 0.0}, "label": "Ga", "xyz": [0.30352532735548315, 4.248249235997423, -1.40778479961116]}, {"species": [{"element": "Ga", "occu": 1}], "abc": [0.49469045, 0.28534574, 0.28003619], "properties": {"magmom": 0.0}, "label": "Ga", "xyz": [2.323408919840258, 1.5372047559974236, -0.5145845900337938]}, {"species": [{"element": "Ga", "occu": 1}], "abc": [0.78534574, 0.99469045, 0.28003619], "properties": {"magmom": 0.0}, "label": "Ga", "xyz": [2.7909541776460323, 5.383334876922825, -3.5876413700337935]}, {"species": [{"element": "Ga", "occu": 1}], "abc": [0.50530955, 0.71465426, 0.71996381], "properties": {"magmom": 0.0}, "label": "Ga", "xyz": [1.6572825901597428, 3.8492986940025764, 1.0908554200337939]}, {"species": [{"element": "Ga", "occu": 1}], "abc": [0.21465426, 0.00530955, 0.71996381], "properties": {"magmom": 0.0}, "label": "Ga", "xyz": [1.1897373323539686, 0.0031685730771748993, 4.163912200033794]}, {"species": [{"element": "Ga", "occu": 1}], "abc": [0.00530955, 0.50530955, 0.71996381], "properties": {"magmom": 0.0}, "label": "Ga", "xyz": [-0.8301462601308062, 2.714213053077175, 3.2707119904564275]}, {"species": [{"element": "Ga", "occu": 1}], "abc": [0.71465426, 0.21465426, 0.71996381], "properties": {"magmom": 0.0}, "label": "Ga", "xyz": [3.677166182644517, 1.1382542140025766, 1.9840556296111602]}, {"species": [{"element": "Ga", "occu": 1}], "abc": [0.99469045, 0.49469045, 0.28003619], "properties": {"magmom": 0.0}, "label": "Ga", "xyz": [4.8108377701308065, 2.672290396922825, -2.694441160456427]}, {"species": [{"element": "Pd", "occu": 1}], "abc": [0.25, 0.25, 0.5], "properties": {"magmom": 0.0}, "label": "Pd", "xyz": [0.9885982750000001, 1.3377294849999999, 1.8246638050000001]}, {"species": [{"element": "Pd", "occu": 1}], "abc": [0.75, 0.75, 0.5], "properties": {"magmom": 0.0}, "label": "Pd", "xyz": [2.992093235, 4.048773965, -1.2483929749999998]}]}, "task_ids": null, "uncorrected_energy_per_atom": null, "energy_per_atom": -13.5866926525, "formation_energy_per_atom": -0.224303759166668, "energy_above_hull": 0.0038661147222230005, "is_stable": false, "equilibrium_reaction_energy_per_atom": null, "decomposes_to": null, "xas": null, "grain_boundaries": null, "band_gap": 0.0, "cbm": null, "vbm": null, "efermi": 3.88644079, "is_gap_direct": null, "is_metal": null, "es_source_calc_id": null, "bandstructure": null, "dos": null, "dos_energy_up": null, "dos_energy_down": null, "is_magnetic": null, "ordering": null, "total_magnetization": 0.0, "total_magnetization_normalized_vol": null, "total_magnetization_normalized_formula_units": null, "num_magnetic_sites": null, "num_unique_magnetic_sites": null, "types_of_magnetic_species": null, "bulk_modulus": null, "shear_modulus": null, "universal_anisotropy": null, "homogeneous_poisson": null, "e_total": null, "e_ionic": null, "e_electronic": null, "n": null, "e_ij_max": null, "weighted_surface_energy_EV_PER_ANG2": null, "weighted_surface_energy": null, "weighted_work_function": null, "surface_anisotropy": null, "shape_factor": null, "has_reconstructed": null, "possible_species": null, "has_props": null, "theoretical": null, "database_IDs": null, "fields_not_requested": ["builder_meta", "nsites", "elements", "nelements", "composition", "composition_reduced", "chemsys", "symmetry", "property_name", "deprecated", "deprecation_reasons", "last_updated", "origins", "warnings", "task_ids", "uncorrected_energy_per_atom", "equilibrium_reaction_energy_per_atom", "decomposes_to", "xas", "grain_boundaries", "cbm", "vbm", "is_gap_direct", "is_metal", "es_source_calc_id", "bandstructure", "dos", "dos_energy_up", "dos_energy_down", "is_magnetic", "ordering", "total_magnetization_normalized_vol", "total_magnetization_normalized_formula_units", "num_magnetic_sites", "num_unique_magnetic_sites", "types_of_magnetic_species", "bulk_modulus", "shear_modulus", "universal_anisotropy", "homogeneous_poisson", "e_total", "e_ionic", "e_electronic", "n", "e_ij_max", "weighted_surface_energy_EV_PER_ANG2", "weighted_surface_energy", "weighted_work_function", "surface_anisotropy", "shape_factor", "has_reconstructed", "possible_species", "has_props", "theoretical", "database_IDs"]}