{
  "builder_meta": null,
  "nsites": null,
  "elements": null,
  "nelements": null,
  "composition": null,
  "composition_reduced": null,
  "formula_pretty": "Ga5Pt",
  "formula_anonymous": "AB5",
  "chemsys": null,
  "volume": 874.1294889191106,
  "density": 8.26269738217148,
  "density_atomic": 18.211031019148137,
  "symmetry": null,
  "property_name": null,
  "material_id": "mp-1199016",
  "deprecated": null,
  "deprecation_reasons": null,
  "last_updated": null,
  "origins": null,
  "warnings": null,
  "structure": {
    "@module": "pymatgen.core.structure",
    "@class": "Structure",
    "charge": 0,
    "lattice": {
      "matrix": [
        [15.836818, 0.0, 0.0],
        [0.0, 6.490884, 0.0],
        [0.0, 3.102647, 8.503623]
      ],
      "pbc": [true, true, true],
      "a": 15.836818,
      "b": 6.490884,
      "c": 9.051962358115393,
      "alpha": 69.95490670294005,
      "beta": 90.0,
      "gamma": 90.0,
      "volume": 874.1294889191106
    },
    "properties": {},
    "sites": [
      {
        "species": [{ "element": "Ga", "occu": 1 }],
        "abc": [0.335453, 0.31077000000000005, 0.921180999999999],
        "properties": { "magmom": 0.0 },
        "label": "Ga",
        "xyz": [5.312508108554, 4.875271486786998, 7.833375938762991]
      },
      {
        "species": [{ "element": "Ga", "occu": 1 }],
        "abc": [0.835453, 0.68923, 0.078819],
        "properties": { "magmom": 0.0 },
        "label": "Ga",
        "xyz": [13.230917108554, 4.718259513213, 0.670247061237]
      },
      {
        "species": [{ "element": "Ga", "occu": 1 }],
        "abc": [0.664547, 0.68923, 0.078819],
        "properties": { "magmom": 0.0 },
        "label": "Ga",
        "xyz": [10.524309891446, 4.718259513213, 0.670247061237]
      },
      {
        "species": [{ "element": "Ga", "occu": 1 }],
        "abc": [0.164547, 0.31077000000000005, 0.921180999999999],
        "properties": { "magmom": 0.0 },
        "label": "Ga",
        "xyz": [2.605900891446, 4.875271486786998, 7.833375938762991]
      },
      {
        "species": [{ "element": "Ga", "occu": 1 }],
        "abc": [0.337225, 0.298887, 0.427811],
        "properties": { "magmom": -0.0 },
        "label": "Ga",
        "xyz": [5.34057095005, 3.2673873618250004, 3.6379434592529996]
      },
      {
        "species": [{ "element": "Ga", "occu": 1 }],
        "abc": [0.837225, 0.701113, 0.572189],
        "properties": { "magmom": -0.0 },
        "label": "Ga",
        "xyz": [13.25897995005, 6.326143638175, 4.865679540746999]
      },
      {
        "species": [{ "element": "Ga", "occu": 1 }],
        "abc": [0.662775, 0.701113, 0.572189],
        "properties": { "magmom": -0.0 },
        "label": "Ga",
        "xyz": [10.49624704995, 6.326143638175, 4.865679540746999]
      },
      {
        "species": [{ "element": "Ga", "occu": 1 }],
        "abc": [0.162775, 0.298887, 0.427811],
        "properties": { "magmom": -0.0 },
        "label": "Ga",
        "xyz": [2.57783804995, 3.2673873618250004, 3.6379434592529996]
      },
      {
        "species": [{ "element": "Ga", "occu": 1 }],
        "abc": [0.333209, 0.075387, 0.224637999999999],
        "properties": { "magmom": 0.0 },
        "label": "Ga",
        "xyz": [5.276970288962, 1.186300688893997, 1.9102368634739915]
      },
      {
        "species": [{ "element": "Ga", "occu": 1 }],
        "abc": [0.833209, 0.924612999999999, 0.775362],
        "properties": { "magmom": 0.0 },
        "label": "Ga",
        "xyz": [13.195379288961998, 8.407230311105995, 6.593386136525999]
      },
      {
        "species": [{ "element": "Ga", "occu": 1 }],
        "abc": [0.666791, 0.924612999999999, 0.775362],
        "properties": { "magmom": 0.0 },
        "label": "Ga",
        "xyz": [10.559847711038, 8.407230311105995, 6.593386136525999]
      },
      {
        "species": [{ "element": "Ga", "occu": 1 }],
        "abc": [0.166791, 0.075387, 0.224637999999999],
        "properties": { "magmom": 0.0 },
        "label": "Ga",
        "xyz": [2.641438711038, 1.186300688893997, 1.9102368634739915]
      },
      {
        "species": [{ "element": "Ga", "occu": 1 }],
        "abc": [0.333851, 0.077462, 0.735692999999999],
        "properties": { "magmom": 0.0 },
        "label": "Ga",
        "xyz": [5.287137526118, 2.785392535778997, 6.256055915738991]
      },
      {
        "species": [{ "element": "Ga", "occu": 1 }],
        "abc": [0.833851, 0.922538, 0.264307],
        "properties": { "magmom": 0.0 },
        "label": "Ga",
        "xyz": [13.205546526117999, 6.808138464221, 2.247567084261]
      },
      {
        "species": [{ "element": "Ga", "occu": 1 }],
        "abc": [0.666149, 0.922538, 0.264307],
        "properties": { "magmom": 0.0 },
        "label": "Ga",
        "xyz": [10.549680473881999, 6.808138464221, 2.247567084261]
      },
      {
        "species": [{ "element": "Ga", "occu": 1 }],
        "abc": [0.166149, 0.077462, 0.735692999999999],
        "properties": { "magmom": 0.0 },
        "label": "Ga",
        "xyz": [2.631271473882, 2.785392535778997, 6.256055915738991]
      },
      {
        "species": [{ "element": "Ga", "occu": 1 }],
        "abc": [0.556744, 0.550022999999999, 0.361545],
        "properties": { "magmom": -0.0 },
        "label": "Ga",
        "xyz": [8.817053400592, 4.691881999946994, 3.0744423775349996]
      },
      {
        "species": [{ "element": "Ga", "occu": 1 }],
        "abc": [0.056743999999999004, 0.449976999999999, 0.638455],
        "properties": { "magmom": -0.0 },
        "label": "Ga",
        "xyz": [0.8986444005919841, 4.901649000052994, 5.429180622464999]
      },
      {
        "species": [{ "element": "Ga", "occu": 1 }],
        "abc": [0.443256, 0.449976999999999, 0.638455],
        "properties": { "magmom": -0.0 },
        "label": "Ga",
        "xyz": [7.019764599407999, 4.901649000052994, 5.429180622464999]
      },
      {
        "species": [{ "element": "Ga", "occu": 1 }],
        "abc": [0.943256, 0.550022999999999, 0.361545],
        "properties": { "magmom": -0.0 },
        "label": "Ga",
        "xyz": [14.938173599408, 4.691881999946994, 3.0744423775349996]
      },
      {
        "species": [{ "element": "Ga", "occu": 1 }],
        "abc": [0.439513, 0.443243999999999, 0.136681],
        "properties": { "magmom": -0.0 },
        "label": "Ga",
        "xyz": [6.960487389633999, 3.301118282302994, 1.1622836952629998]
      },
      {
        "species": [{ "element": "Ga", "occu": 1 }],
        "abc": [0.939512999999999, 0.556756, 0.863319],
        "properties": { "magmom": -0.0 },
        "label": "Ga",
        "xyz": [14.878896389633985, 6.292412717697, 7.341339304736999]
      },
      {
        "species": [{ "element": "Ga", "occu": 1 }],
        "abc": [0.560487, 0.556756, 0.863319],
        "properties": { "magmom": -0.0 },
        "label": "Ga",
        "xyz": [8.876330610365999, 6.292412717697, 7.341339304736999]
      },
      {
        "species": [{ "element": "Ga", "occu": 1 }],
        "abc": [0.060487, 0.443243999999999, 0.136681],
        "properties": { "magmom": -0.0 },
        "label": "Ga",
        "xyz": [0.957921610366, 3.301118282302994, 1.1622836952629998]
      },
      {
        "species": [{ "element": "Ga", "occu": 1 }],
        "abc": [0.330134, 0.782496, 0.552482],
        "properties": { "magmom": -0.0 },
        "label": "Ga",
        "xyz": [5.228272073612, 6.793247386318, 4.698098642286]
      },
      {
        "species": [{ "element": "Ga", "occu": 1 }],
        "abc": [0.830133999999999, 0.217504, 0.447517999999999],
        "properties": { "magmom": -0.0 },
        "label": "Ga",
        "xyz": [13.146681073611983, 2.800283613681997, 3.8055243577139914]
      },
      {
        "species": [{ "element": "Ga", "occu": 1 }],
        "abc": [0.669866, 0.217504, 0.447517999999999],
        "properties": { "magmom": -0.0 },
        "label": "Ga",
        "xyz": [10.608545926387999, 2.800283613681997, 3.8055243577139914]
      },
      {
        "species": [{ "element": "Ga", "occu": 1 }],
        "abc": [0.169866, 0.782496, 0.552482],
        "properties": { "magmom": -0.0 },
        "label": "Ga",
        "xyz": [2.6901369263879995, 6.793247386318, 4.698098642286]
      },
      {
        "species": [{ "element": "Ga", "occu": 1 }],
        "abc": [0.499635, 0.998602, 0.35773000000000005],
        "properties": { "magmom": -0.0 },
        "label": "Ga",
        "xyz": [7.912628561429999, 7.591719655478, 3.04200105579]
      },
      {
        "species": [{ "element": "Ga", "occu": 1 }],
        "abc": [0.999634999999999, 0.001398, 0.64227],
        "properties": { "magmom": -0.0 },
        "label": "Ga",
        "xyz": [15.831037561429984, 2.0018113445220003, 5.46162194421]
      },
      {
        "species": [{ "element": "Ga", "occu": 1 }],
        "abc": [0.500365, 0.001398, 0.64227],
        "properties": { "magmom": -0.0 },
        "label": "Ga",
        "xyz": [7.924189438569999, 2.0018113445220003, 5.46162194421]
      },
      {
        "species": [{ "element": "Ga", "occu": 1 }],
        "abc": [0.000365, 0.998602, 0.35773000000000005],
        "properties": { "magmom": -0.0 },
        "label": "Ga",
        "xyz": [0.005780438569999999, 7.591719655478, 3.04200105579]
      },
      {
        "species": [{ "element": "Ga", "occu": 1 }],
        "abc": [0.430619, 0.898973999999999, 0.026260000000000002],
        "properties": { "magmom": 0.0 },
        "label": "Ga",
        "xyz": [6.819634730341999, 5.916611463235994, 0.22330513998]
      },
      {
        "species": [{ "element": "Ga", "occu": 1 }],
        "abc": [0.930619, 0.101025999999999, 0.97374],
        "properties": { "magmom": 0.0 },
        "label": "Ga",
        "xyz": [14.738043730342, 3.676919536763994, 8.28031786002]
      },
      {
        "species": [{ "element": "Ga", "occu": 1 }],
        "abc": [0.569381, 0.101025999999999, 0.97374],
        "properties": { "magmom": 0.0 },
        "label": "Ga",
        "xyz": [9.017183269658, 3.676919536763994, 8.28031786002]
      },
      {
        "species": [{ "element": "Ga", "occu": 1 }],
        "abc": [0.069381, 0.898973999999999, 0.026260000000000002],
        "properties": { "magmom": 0.0 },
        "label": "Ga",
        "xyz": [1.0987742696579998, 5.916611463235994, 0.22330513998]
      },
      {
        "species": [{ "element": "Ga", "occu": 1 }],
        "abc": [0.25, 0.6794100000000001, 0.939888],
        "properties": { "magmom": -0.0 },
        "label": "Ga",
        "xyz": [3.9592045, 7.326112181976001, 7.992453214223999]
      },
      {
        "species": [{ "element": "Ga", "occu": 1 }],
        "abc": [0.75, 0.32059000000000004, 0.060112],
        "properties": { "magmom": -0.0 },
        "label": "Ga",
        "xyz": [11.877613499999999, 2.2674188180240002, 0.5111697857759999]
      },
      {
        "species": [{ "element": "Ga", "occu": 1 }],
        "abc": [0.25, 0.675461, 0.221997],
        "properties": { "magmom": -0.0 },
        "label": "Ga",
        "xyz": [3.9592045, 5.073117323583, 1.8877787951309999]
      },
      {
        "species": [{ "element": "Ga", "occu": 1 }],
        "abc": [0.75, 0.324538999999999, 0.778003],
        "properties": { "magmom": -0.0 },
        "label": "Ga",
        "xyz": [11.877613499999999, 4.520413676416994, 6.615844204868999]
      },
      {
        "species": [{ "element": "Pt", "occu": 1 }],
        "abc": [0.404346, 0.687657, 0.325444],
        "properties": { "magmom": -0.0 },
        "label": "Pt",
        "xyz": [6.403554011028, 5.473239669056, 2.7674530836119997]
      },
      {
        "species": [{ "element": "Pt", "occu": 1 }],
        "abc": [0.904346, 0.312343, 0.674555999999999],
        "properties": { "magmom": -0.0 },
        "label": "Pt",
        "xyz": [14.321963011027998, 4.1202913309439975, 5.736169916387992]
      },
      {
        "species": [{ "element": "Pt", "occu": 1 }],
        "abc": [0.595654, 0.312343, 0.674555999999999],
        "properties": { "magmom": -0.0 },
        "label": "Pt",
        "xyz": [9.433263988972, 4.1202913309439975, 5.736169916387992]
      },
      {
        "species": [{ "element": "Pt", "occu": 1 }],
        "abc": [0.095653999999999, 0.687657, 0.325444],
        "properties": { "magmom": -0.0 },
        "label": "Pt",
        "xyz": [1.5148549889719842, 5.473239669056, 2.7674530836119997]
      },
      {
        "species": [{ "element": "Pt", "occu": 1 }],
        "abc": [0.40499, 0.692256, 0.828568],
        "properties": { "magmom": -0.0 },
        "label": "Pt",
        "xyz": [6.41375292182, 7.0641074138, 7.045829901863999]
      },
      {
        "species": [{ "element": "Pt", "occu": 1 }],
        "abc": [0.9049900000000001, 0.307743999999999, 0.171432],
        "properties": { "magmom": -0.0 },
        "label": "Pt",
        "xyz": [14.332161921820001, 2.529423586199994, 1.4577930981359999]
      },
      {
        "species": [{ "element": "Pt", "occu": 1 }],
        "abc": [0.59501, 0.307743999999999, 0.171432],
        "properties": { "magmom": -0.0 },
        "label": "Pt",
        "xyz": [9.42306507818, 2.529423586199994, 1.4577930981359999]
      },
      {
        "species": [{ "element": "Pt", "occu": 1 }],
        "abc": [0.09501000000000001, 0.692256, 0.828568],
        "properties": { "magmom": -0.0 },
        "label": "Pt",
        "xyz": [1.50465607818, 7.0641074138, 7.045829901863999]
      }
    ]
  },
  "task_ids": null,
  "uncorrected_energy_per_atom": null,
  "energy_per_atom": -3.840975852083333,
  "formation_energy_per_atom": -0.30570694666666604,
  "energy_above_hull": 0.0,
  "is_stable": true,
  "equilibrium_reaction_energy_per_atom": null,
  "decomposes_to": null,
  "xas": null,
  "grain_boundaries": null,
  "band_gap": 0.0,
  "cbm": null,
  "vbm": null,
  "efermi": 4.17818393,
  "is_gap_direct": null,
  "is_metal": null,
  "es_source_calc_id": null,
  "bandstructure": null,
  "dos": null,
  "dos_energy_up": null,
  "dos_energy_down": null,
  "is_magnetic": null,
  "ordering": null,
  "total_magnetization": 0.000366,
  "total_magnetization_normalized_vol": null,
  "total_magnetization_normalized_formula_units": null,
  "num_magnetic_sites": null,
  "num_unique_magnetic_sites": null,
  "types_of_magnetic_species": null,
  "bulk_modulus": null,
  "shear_modulus": null,
  "universal_anisotropy": null,
  "homogeneous_poisson": null,
  "e_total": null,
  "e_ionic": null,
  "e_electronic": null,
  "n": null,
  "e_ij_max": null,
  "weighted_surface_energy_EV_PER_ANG2": null,
  "weighted_surface_energy": null,
  "weighted_work_function": null,
  "surface_anisotropy": null,
  "shape_factor": null,
  "has_reconstructed": null,
  "possible_species": null,
  "has_props": null,
  "theoretical": null,
  "database_IDs": null,
  "fields_not_requested": [
    "builder_meta",
    "nsites",
    "elements",
    "nelements",
    "composition",
    "composition_reduced",
    "chemsys",
    "symmetry",
    "property_name",
    "deprecated",
    "deprecation_reasons",
    "last_updated",
    "origins",
    "warnings",
    "task_ids",
    "uncorrected_energy_per_atom",
    "equilibrium_reaction_energy_per_atom",
    "decomposes_to",
    "xas",
    "grain_boundaries",
    "cbm",
    "vbm",
    "is_gap_direct",
    "is_metal",
    "es_source_calc_id",
    "bandstructure",
    "dos",
    "dos_energy_up",
    "dos_energy_down",
    "is_magnetic",
    "ordering",
    "total_magnetization_normalized_vol",
    "total_magnetization_normalized_formula_units",
    "num_magnetic_sites",
    "num_unique_magnetic_sites",
    "types_of_magnetic_species",
    "bulk_modulus",
    "shear_modulus",
    "universal_anisotropy",
    "homogeneous_poisson",
    "e_total",
    "e_ionic",
    "e_electronic",
    "n",
    "e_ij_max",
    "weighted_surface_energy_EV_PER_ANG2",
    "weighted_surface_energy",
    "weighted_work_function",
    "surface_anisotropy",
    "shape_factor",
    "has_reconstructed",
    "possible_species",
    "has_props",
    "theoretical",
    "database_IDs"
  ]
}
