{"builder_meta": null, "nsites": null, "elements": null, "nelements": null, "composition": null, "composition_reduced": null, "formula_pretty": "Ga5Rh3", "formula_anonymous": "A3B5", "chemsys": null, "volume": 240.06286715440055, "density": 9.093656577505966, "density_atomic": 15.003929197150034, "symmetry": null, "property_name": null, "material_id": "mp-30923", "deprecated": null, "deprecation_reasons": null, "last_updated": null, "origins": null, "warnings": null, "structure": {"@module": "pymatgen.core.structure", "@class": "Structure", "charge": 0, "lattice": {"matrix": [[4.81097923, 0.01161969, -1.258532929999999], [-1.68949257, 6.31073947, -1.25488709], [0.00251803, -0.0057551600000000005, 7.90277122]], "pbc": [true, true, true], "a": 4.972882595093259, "b": 6.652410045310628, "c": 7.902773716740344, "alpha": 100.91824739526845, "beta": 104.64163679956606, "gamma": 101.28807057975577, "volume": 240.06286715440055}, "properties": {}, "sites": [{"species": [{"element": "Ga", "occu": 1}], "abc": [0.77251684, 0.53794443, 0.53550871], "properties": {"magmom": -0.0}, "label": "Ga", "xyz": [2.8090577815043893, 3.400721614960788, 2.5847054189833765]}, {"species": [{"element": "Ga", "occu": 1}], "abc": [0.22748316000000002, 0.46205557, 0.46449129], "properties": {"magmom": -0.0}, "label": "Ga", "xyz": [0.31494690849561074, 2.915882385039212, 2.8046457810166237]}, {"species": [{"element": "Ga", "occu": 1}], "abc": [0.9172134, 0.17833069000000001, 0.05108185], "properties": {"magmom": 0.0}, "label": "Ga", "xyz": [4.111534866750463, 1.1357622752473344, -0.9744399743246961]}, {"species": [{"element": "Ga", "occu": 1}], "abc": [0.0827866, 0.82166931, 0.94891815], "properties": {"magmom": 0.0}, "label": "Ga", "xyz": [-0.9875301767504642, 5.180841724752665, 6.363791174324698]}, {"species": [{"element": "Ga", "occu": 1}], "abc": [0.54855416, 0.13974532, 0.27233273], "properties": {"magmom": -0.0}, "label": "Ga", "xyz": [2.4036697324419465, 0.886703017524804, 1.2864451887036237]}, {"species": [{"element": "Ga", "occu": 1}], "abc": [0.45144584, 0.86025468, 0.72766727], "properties": {"magmom": -0.0}, "label": "Ga", "xyz": [0.7203349575580535, 5.429900982475196, 4.102906011296376]}, {"species": [{"element": "Ga", "occu": 1}], "abc": [0.68230766, 0.47267424, 0.8726730300000001], "properties": {"magmom": 0.0}, "label": "Ga", "xyz": [2.4861857810892363, 2.9858298133987433, 5.444675845901393]}, {"species": [{"element": "Ga", "occu": 1}], "abc": [0.31769234, 0.52732576, 0.12732697], "properties": {"magmom": 0.0}, "label": "Ga", "xyz": [0.6378189089107642, 3.3307741866012566, -0.055324645901390745]}, {"species": [{"element": "Ga", "occu": 1}], "abc": [0.04084527, 0.90481837, 0.34764571], "properties": {"magmom": -0.0}, "label": "Ga", "xyz": [-1.3313027853736175, 5.708546853431066, 1.560514503106882]}, {"species": [{"element": "Ga", "occu": 1}], "abc": [0.9591547300000001, 0.09518163, 0.65235429], "properties": {"magmom": -0.0}, "label": "Ga", "xyz": [4.455307475373618, 0.6080571465689334, 3.8288366968931187]}, {"species": [{"element": "Rh", "occu": 1}], "abc": [0.8467231, 0.51320665, 0.22424142], "properties": {"magmom": -0.0}, "label": "Rh", "xyz": [3.2070730722344254, 3.2472615771085866, 0.062483336779101784]}, {"species": [{"element": "Rh", "occu": 1}], "abc": [0.1532769, 0.48679335, 0.77575858], "properties": {"magmom": -0.0}, "label": "Rh", "xyz": [-0.08306838223442516, 3.069342422891413, 5.326867863220899]}, {"species": [{"element": "Rh", "occu": 1}], "abc": [0.63626724, 0.8270755200000001, 0.0499041], "properties": {"magmom": -0.0}, "label": "Rh", "xyz": [1.6638561905214617, 5.2265641507405745, -1.4442689810832474]}, {"species": [{"element": "Rh", "occu": 1}], "abc": [0.36373276, 0.17292448, 0.9500959], "properties": {"magmom": -0.0}, "label": "Rh", "xyz": [1.4601484994785383, 1.090039849259426, 6.833620181083248]}, {"species": [{"element": "Rh", "occu": 1}], "abc": [0.54659978, 0.80463954, 0.42240281], "properties": {"magmom": -0.0}, "label": "Rh", "xyz": [1.2713112872920156, 5.081790828442312, 1.6405071766048347]}, {"species": [{"element": "Rh", "occu": 1}], "abc": [0.45340022, 0.19536046, 0.57759719], "properties": {"magmom": -0.0}, "label": "Rh", "xyz": [1.8526934027079842, 1.2348131715576873, 3.7488440233951663]}]}, "task_ids": null, "uncorrected_energy_per_atom": null, "energy_per_atom": -5.252015992499999, "formation_energy_per_atom": -0.597840527187498, "energy_above_hull": 0.003561479553573, "is_stable": false, "equilibrium_reaction_energy_per_atom": null, "decomposes_to": null, "xas": null, "grain_boundaries": null, "band_gap": 0.0, "cbm": null, "vbm": null, "efermi": 5.36154487, "is_gap_direct": null, "is_metal": null, "es_source_calc_id": null, "bandstructure": null, "dos": null, "dos_energy_up": null, "dos_energy_down": null, "is_magnetic": null, "ordering": null, "total_magnetization": 0.0, "total_magnetization_normalized_vol": null, "total_magnetization_normalized_formula_units": null, "num_magnetic_sites": null, "num_unique_magnetic_sites": null, "types_of_magnetic_species": null, "bulk_modulus": null, "shear_modulus": null, "universal_anisotropy": null, "homogeneous_poisson": null, "e_total": null, "e_ionic": null, "e_electronic": null, "n": null, "e_ij_max": null, "weighted_surface_energy_EV_PER_ANG2": null, "weighted_surface_energy": null, "weighted_work_function": null, "surface_anisotropy": null, "shape_factor": null, "has_reconstructed": null, "possible_species": null, "has_props": null, "theoretical": null, "database_IDs": null, "fields_not_requested": ["builder_meta", "nsites", "elements", "nelements", "composition", "composition_reduced", "chemsys", "symmetry", "property_name", "deprecated", "deprecation_reasons", "last_updated", "origins", "warnings", "task_ids", "uncorrected_energy_per_atom", "equilibrium_reaction_energy_per_atom", "decomposes_to", "xas", "grain_boundaries", "cbm", "vbm", "is_gap_direct", "is_metal", "es_source_calc_id", "bandstructure", "dos", "dos_energy_up", "dos_energy_down", "is_magnetic", "ordering", "total_magnetization_normalized_vol", "total_magnetization_normalized_formula_units", "num_magnetic_sites", "num_unique_magnetic_sites", "types_of_magnetic_species", "bulk_modulus", "shear_modulus", "universal_anisotropy", "homogeneous_poisson", "e_total", "e_ionic", "e_electronic", "n", "e_ij_max", "weighted_surface_energy_EV_PER_ANG2", "weighted_surface_energy", "weighted_work_function", "surface_anisotropy", "shape_factor", "has_reconstructed", "possible_species", "has_props", "theoretical", "database_IDs"]}