{
  "builder_meta": null,
  "nsites": null,
  "elements": null,
  "nelements": null,
  "composition": null,
  "composition_reduced": null,
  "formula_pretty": "Ga5W2",
  "formula_anonymous": "A2B5",
  "chemsys": null,
  "volume": 230.45260852726,
  "density": 10.322606789408939,
  "density_atomic": 16.46090060909,
  "symmetry": null,
  "property_name": null,
  "material_id": "mp-1103522",
  "deprecated": null,
  "deprecation_reasons": null,
  "last_updated": null,
  "origins": null,
  "warnings": null,
  "structure": {
    "@module": "pymatgen.core.structure",
    "@class": "Structure",
    "charge": 0,
    "lattice": {
      "matrix": [
        [9.179984, 0.0, 0.0],
        [0.0, 9.179984, 0.0],
        [0.0, 0.0, 2.734625]
      ],
      "pbc": [true, true, true],
      "a": 9.179984,
      "b": 9.179984,
      "c": 2.734625,
      "alpha": 90.0,
      "beta": 90.0,
      "gamma": 90.0,
      "volume": 230.45260852726
    },
    "properties": {},
    "sites": [
      {
        "species": [{ "element": "Ga", "occu": 1 }],
        "abc": [0.5, 0.0, 0.0],
        "properties": { "magmom": 0.0 },
        "label": "Ga",
        "xyz": [4.589992, 0.0, 0.0]
      },
      {
        "species": [{ "element": "Ga", "occu": 1 }],
        "abc": [0.0, 0.5, 0.0],
        "properties": { "magmom": -0.0 },
        "label": "Ga",
        "xyz": [0.0, 4.589992, 0.0]
      },
      {
        "species": [{ "element": "Ga", "occu": 1 }],
        "abc": [0.559717, 0.700940999999999, 0.0],
        "properties": { "magmom": -0.0 },
        "label": "Ga",
        "xyz": [5.138193104528, 6.434627164943991, 0.0]
      },
      {
        "species": [{ "element": "Ga", "occu": 1 }],
        "abc": [0.440283, 0.299058999999999, 0.0],
        "properties": { "magmom": -0.0 },
        "label": "Ga",
        "xyz": [4.041790895471999, 2.7453568350559907, 0.0]
      },
      {
        "species": [{ "element": "Ga", "occu": 1 }],
        "abc": [0.059717, 0.799059, 0.0],
        "properties": { "magmom": -0.0 },
        "label": "Ga",
        "xyz": [0.548201104528, 7.335348835055999, 0.0]
      },
      {
        "species": [{ "element": "Ga", "occu": 1 }],
        "abc": [0.940283, 0.200940999999999, 0.0],
        "properties": { "magmom": -0.0 },
        "label": "Ga",
        "xyz": [8.631782895472, 1.8446351649439907, 0.0]
      },
      {
        "species": [{ "element": "Ga", "occu": 1 }],
        "abc": [0.299058999999999, 0.559717, 0.0],
        "properties": { "magmom": 0.0 },
        "label": "Ga",
        "xyz": [2.7453568350559907, 5.138193104528, 0.0]
      },
      {
        "species": [{ "element": "Ga", "occu": 1 }],
        "abc": [0.700940999999999, 0.440283, 0.0],
        "properties": { "magmom": 0.0 },
        "label": "Ga",
        "xyz": [6.434627164943991, 4.041790895471999, 0.0]
      },
      {
        "species": [{ "element": "Ga", "occu": 1 }],
        "abc": [0.200940999999999, 0.059717, 0.0],
        "properties": { "magmom": 0.0 },
        "label": "Ga",
        "xyz": [1.8446351649439907, 0.548201104528, 0.0]
      },
      {
        "species": [{ "element": "Ga", "occu": 1 }],
        "abc": [0.799059, 0.940283, 0.0],
        "properties": { "magmom": 0.0 },
        "label": "Ga",
        "xyz": [7.335348835055999, 8.631782895472, 0.0]
      },
      {
        "species": [{ "element": "W", "occu": 1 }],
        "abc": [0.679329, 0.179329, 0.5],
        "properties": { "magmom": 0.002 },
        "label": "W",
        "xyz": [6.236229350735999, 1.6462373507359997, 1.3673125]
      },
      {
        "species": [{ "element": "W", "occu": 1 }],
        "abc": [0.320671, 0.820670999999999, 0.5],
        "properties": { "magmom": 0.002 },
        "label": "W",
        "xyz": [2.9437546492639997, 7.533746649263991, 1.3673125]
      },
      {
        "species": [{ "element": "W", "occu": 1 }],
        "abc": [0.179329, 0.320671, 0.5],
        "properties": { "magmom": -0.0 },
        "label": "W",
        "xyz": [1.6462373507359997, 2.9437546492639997, 1.3673125]
      },
      {
        "species": [{ "element": "W", "occu": 1 }],
        "abc": [0.820670999999999, 0.679329, 0.5],
        "properties": { "magmom": -0.0 },
        "label": "W",
        "xyz": [7.533746649263991, 6.236229350735999, 1.3673125]
      }
    ]
  },
  "task_ids": null,
  "uncorrected_energy_per_atom": null,
  "energy_per_atom": -22.791731768214284,
  "formation_energy_per_atom": 0.058192304642858,
  "energy_above_hull": 0.058192304642858,
  "is_stable": false,
  "equilibrium_reaction_energy_per_atom": null,
  "decomposes_to": null,
  "xas": null,
  "grain_boundaries": null,
  "band_gap": 0.0,
  "cbm": null,
  "vbm": null,
  "efermi": 5.38807041,
  "is_gap_direct": null,
  "is_metal": null,
  "es_source_calc_id": null,
  "bandstructure": null,
  "dos": null,
  "dos_energy_up": null,
  "dos_energy_down": null,
  "is_magnetic": null,
  "ordering": null,
  "total_magnetization": 0.0051195,
  "total_magnetization_normalized_vol": null,
  "total_magnetization_normalized_formula_units": null,
  "num_magnetic_sites": null,
  "num_unique_magnetic_sites": null,
  "types_of_magnetic_species": null,
  "bulk_modulus": null,
  "shear_modulus": null,
  "universal_anisotropy": null,
  "homogeneous_poisson": null,
  "e_total": null,
  "e_ionic": null,
  "e_electronic": null,
  "n": null,
  "e_ij_max": null,
  "weighted_surface_energy_EV_PER_ANG2": null,
  "weighted_surface_energy": null,
  "weighted_work_function": null,
  "surface_anisotropy": null,
  "shape_factor": null,
  "has_reconstructed": null,
  "possible_species": null,
  "has_props": null,
  "theoretical": null,
  "database_IDs": null,
  "fields_not_requested": [
    "builder_meta",
    "nsites",
    "elements",
    "nelements",
    "composition",
    "composition_reduced",
    "chemsys",
    "symmetry",
    "property_name",
    "deprecated",
    "deprecation_reasons",
    "last_updated",
    "origins",
    "warnings",
    "task_ids",
    "uncorrected_energy_per_atom",
    "equilibrium_reaction_energy_per_atom",
    "decomposes_to",
    "xas",
    "grain_boundaries",
    "cbm",
    "vbm",
    "is_gap_direct",
    "is_metal",
    "es_source_calc_id",
    "bandstructure",
    "dos",
    "dos_energy_up",
    "dos_energy_down",
    "is_magnetic",
    "ordering",
    "total_magnetization_normalized_vol",
    "total_magnetization_normalized_formula_units",
    "num_magnetic_sites",
    "num_unique_magnetic_sites",
    "types_of_magnetic_species",
    "bulk_modulus",
    "shear_modulus",
    "universal_anisotropy",
    "homogeneous_poisson",
    "e_total",
    "e_ionic",
    "e_electronic",
    "n",
    "e_ij_max",
    "weighted_surface_energy_EV_PER_ANG2",
    "weighted_surface_energy",
    "weighted_work_function",
    "surface_anisotropy",
    "shape_factor",
    "has_reconstructed",
    "possible_species",
    "has_props",
    "theoretical",
    "database_IDs"
  ]
}
