{
  "builder_meta": null,
  "nsites": null,
  "elements": null,
  "nelements": null,
  "composition": null,
  "composition_reduced": null,
  "formula_pretty": "Ga7Ni3",
  "formula_anonymous": "A3B7",
  "chemsys": null,
  "volume": 292.4624506701836,
  "density": 7.54170257283587,
  "density_atomic": 14.62312253350918,
  "symmetry": null,
  "property_name": null,
  "material_id": "mp-16852",
  "deprecated": null,
  "deprecation_reasons": null,
  "last_updated": null,
  "origins": null,
  "warnings": null,
  "structure": {
    "@module": "pymatgen.core.structure",
    "@class": "Structure",
    "charge": 0,
    "lattice": {
      "matrix": [
        [6.82843306, 0.0, -2.41421588],
        [-3.41421553, 5.91359669, -2.41421588],
        [-0.0, 0.0, 7.2426476300000004]
      ],
      "pbc": [true, true, true],
      "a": 7.2426470554725455,
      "b": 7.2426467408342035,
      "c": 7.2426476300000004,
      "alpha": 109.4712231493872,
      "beta": 109.47122226936825,
      "gamma": 109.47121196874247,
      "volume": 292.46245067018367
    },
    "properties": {},
    "sites": [
      {
        "species": [{ "element": "Ga", "occu": 1 }],
        "abc": [0.5, 0.75, 0.25],
        "properties": { "magmom": 0.0 },
        "label": "Ga",
        "xyz": [0.8535548825000001, 4.435197517500001, -1.2071079424999995]
      },
      {
        "species": [{ "element": "Ga", "occu": 1 }],
        "abc": [0.75, 0.5, 0.25],
        "properties": { "magmom": 0.0 },
        "label": "Ga",
        "xyz": [3.4142170299999997, 2.956798345, -1.2071079424999995]
      },
      {
        "species": [{ "element": "Ga", "occu": 1 }],
        "abc": [0.25, 0.5, 0.75],
        "properties": { "magmom": 0.0 },
        "label": "Ga",
        "xyz": [5.00000000069889e-7, 2.956798345, 3.6213238125000005]
      },
      {
        "species": [{ "element": "Ga", "occu": 1 }],
        "abc": [0.75, 0.25, 0.5],
        "properties": { "magmom": 0.0 },
        "label": "Ga",
        "xyz": [4.2677709125, 1.4783991725, 1.2071079350000002]
      },
      {
        "species": [{ "element": "Ga", "occu": 1 }],
        "abc": [0.25, 0.75, 0.5],
        "properties": { "magmom": 0.0 },
        "label": "Ga",
        "xyz": [-0.8535533824999999, 4.435197517500001, 1.2071079350000002]
      },
      {
        "species": [{ "element": "Ga", "occu": 1 }],
        "abc": [0.5, 0.25, 0.75],
        "properties": { "magmom": 0.0 },
        "label": "Ga",
        "xyz": [2.5606626475, 1.4783991725, 3.6213238125000005]
      },
      {
        "species": [{ "element": "Ga", "occu": 1 }],
        "abc": [0.32208542, 0.32208542, 0.32208542],
        "properties": { "magmom": 0.0 },
        "label": "Ga",
        "xyz": [1.0996696871214124, 1.90468327360926, 0.7775837324596155]
      },
      {
        "species": [{ "element": "Ga", "occu": 1 }],
        "abc": [0.32208542, -0.0, -0.0],
        "properties": { "magmom": 0.0 },
        "label": "Ga",
        "xyz": [2.199338730071985, 0.0, -0.7775837356804696]
      },
      {
        "species": [{ "element": "Ga", "occu": 1 }],
        "abc": [-0.0, 0.32208542, 0.0],
        "properties": { "magmom": 0.0 },
        "label": "Ga",
        "xyz": [-1.0996690429505727, 1.90468327360926, -0.7775837356804696]
      },
      {
        "species": [{ "element": "Ga", "occu": 1 }],
        "abc": [0.0, -0.0, 0.32208542],
        "properties": { "magmom": 0.0 },
        "label": "Ga",
        "xyz": [0.0, 0.0, 2.3327512038205547]
      },
      {
        "species": [{ "element": "Ga", "occu": 1 }],
        "abc": [0.0, 0.67791458, -0.0],
        "properties": { "magmom": 0.0 },
        "label": "Ga",
        "xyz": [-2.3145464870494274, 4.00891341639074, -1.6366321443195304]
      },
      {
        "species": [{ "element": "Ga", "occu": 1 }],
        "abc": [0.0, 0.0, 0.67791458],
        "properties": { "magmom": 0.0 },
        "label": "Ga",
        "xyz": [0.0, 0.0, 4.909896426179446]
      },
      {
        "species": [{ "element": "Ga", "occu": 1 }],
        "abc": [0.67791458, 0.0, 0.0],
        "properties": { "magmom": 0.0 },
        "label": "Ga",
        "xyz": [4.629094329928015, 0.0, -1.6366321443195304]
      },
      {
        "species": [{ "element": "Ga", "occu": 1 }],
        "abc": [0.67791458, 0.67791458, 0.67791458],
        "properties": { "magmom": 0.0 },
        "label": "Ga",
        "xyz": [2.3145478428785875, 4.00891341639074, 1.6366321375403854]
      },
      {
        "species": [{ "element": "Ni", "occu": 1 }],
        "abc": [-0.0, 0.35023884, 0.35023884],
        "properties": { "magmom": -0.0 },
        "label": "Ni",
        "xyz": [-1.1957908867371851, 2.07117124493344, 1.69110433513917]
      },
      {
        "species": [{ "element": "Ni", "occu": 1 }],
        "abc": [0.35023884, -0.0, 0.35023884],
        "properties": { "magmom": -0.0 },
        "label": "Ni",
        "xyz": [2.3915824739520506, 0.0, 1.69110433513917]
      },
      {
        "species": [{ "element": "Ni", "occu": 1 }],
        "abc": [0.6497611600000001, 0.0, 0.6497611600000001],
        "properties": { "magmom": -0.0 },
        "label": "Ni",
        "xyz": [4.43685058604795, 0.0, 3.13732741486083]
      },
      {
        "species": [{ "element": "Ni", "occu": 1 }],
        "abc": [0.6497611600000001, 0.6497611600000001, 0.0],
        "properties": { "magmom": -0.0 },
        "label": "Ni",
        "xyz": [2.2184259427851356, 3.842425445066561, -3.137327421358442]
      },
      {
        "species": [{ "element": "Ni", "occu": 1 }],
        "abc": [0.35023884, 0.35023884, -0.0],
        "properties": { "magmom": -0.0 },
        "label": "Ni",
        "xyz": [1.1957915872148654, 2.07117124493344, -1.6911043386415583]
      },
      {
        "species": [{ "element": "Ni", "occu": 1 }],
        "abc": [0.0, 0.6497611600000001, 0.6497611600000001],
        "properties": { "magmom": -0.0 },
        "label": "Ni",
        "xyz": [-2.2184246432628147, 3.842425445066561, 3.13732741486083]
      }
    ]
  },
  "task_ids": null,
  "uncorrected_energy_per_atom": null,
  "energy_per_atom": -11.90500882,
  "formation_energy_per_atom": -0.300550506999999,
  "energy_above_hull": 0.017288673499997003,
  "is_stable": false,
  "equilibrium_reaction_energy_per_atom": null,
  "decomposes_to": null,
  "xas": null,
  "grain_boundaries": null,
  "band_gap": 0.0,
  "cbm": null,
  "vbm": null,
  "efermi": 4.84692716,
  "is_gap_direct": null,
  "is_metal": null,
  "es_source_calc_id": null,
  "bandstructure": null,
  "dos": null,
  "dos_energy_up": null,
  "dos_energy_down": null,
  "is_magnetic": null,
  "ordering": null,
  "total_magnetization": 1e-7,
  "total_magnetization_normalized_vol": null,
  "total_magnetization_normalized_formula_units": null,
  "num_magnetic_sites": null,
  "num_unique_magnetic_sites": null,
  "types_of_magnetic_species": null,
  "bulk_modulus": null,
  "shear_modulus": null,
  "universal_anisotropy": null,
  "homogeneous_poisson": null,
  "e_total": null,
  "e_ionic": null,
  "e_electronic": null,
  "n": null,
  "e_ij_max": null,
  "weighted_surface_energy_EV_PER_ANG2": null,
  "weighted_surface_energy": null,
  "weighted_work_function": null,
  "surface_anisotropy": null,
  "shape_factor": null,
  "has_reconstructed": null,
  "possible_species": null,
  "has_props": null,
  "theoretical": null,
  "database_IDs": null,
  "fields_not_requested": [
    "builder_meta",
    "nsites",
    "elements",
    "nelements",
    "composition",
    "composition_reduced",
    "chemsys",
    "symmetry",
    "property_name",
    "deprecated",
    "deprecation_reasons",
    "last_updated",
    "origins",
    "warnings",
    "task_ids",
    "uncorrected_energy_per_atom",
    "equilibrium_reaction_energy_per_atom",
    "decomposes_to",
    "xas",
    "grain_boundaries",
    "cbm",
    "vbm",
    "is_gap_direct",
    "is_metal",
    "es_source_calc_id",
    "bandstructure",
    "dos",
    "dos_energy_up",
    "dos_energy_down",
    "is_magnetic",
    "ordering",
    "total_magnetization_normalized_vol",
    "total_magnetization_normalized_formula_units",
    "num_magnetic_sites",
    "num_unique_magnetic_sites",
    "types_of_magnetic_species",
    "bulk_modulus",
    "shear_modulus",
    "universal_anisotropy",
    "homogeneous_poisson",
    "e_total",
    "e_ionic",
    "e_electronic",
    "n",
    "e_ij_max",
    "weighted_surface_energy_EV_PER_ANG2",
    "weighted_surface_energy",
    "weighted_work_function",
    "surface_anisotropy",
    "shape_factor",
    "has_reconstructed",
    "possible_species",
    "has_props",
    "theoretical",
    "database_IDs"
  ]
}
