{"builder_meta": null, "nsites": null, "elements": null, "nelements": null, "composition": null, "composition_reduced": null, "formula_pretty": "Ga7Pd3", "formula_anonymous": "A3B7", "chemsys": null, "volume": 339.4104830343732, "density": 7.899508864909236, "density_atomic": 16.97052415171866, "symmetry": null, "property_name": null, "material_id": "mp-1106289", "deprecated": null, "deprecation_reasons": null, "last_updated": null, "origins": null, "warnings": null, "structure": {"@module": "pymatgen.core.structure", "@class": "Structure", "charge": 0, "lattice": {"matrix": [[-4.39428702, -4.39428702, 4.39428702], [-4.39428702, 4.39428702, -4.39428702], [4.39428702, -4.39428702, -4.39428702]], "pbc": [true, true, true], "a": 7.611128381680436, "b": 7.611128381680436, "c": 7.611128381680436, "alpha": 109.47122063449069, "beta": 109.47122063449069, "gamma": 109.47122063449069, "volume": 339.4104830343732}, "properties": {}, "sites": [{"species": [{"element": "Ga", "occu": 1}], "abc": [0.5, 0.75, 0.25], "properties": {"magmom": -0.0}, "label": "Ga", "xyz": [-4.39428702, 0.0, -2.19714351]}, {"species": [{"element": "Ga", "occu": 1}], "abc": [0.75, 0.5, 0.25], "properties": {"magmom": -0.0}, "label": "Ga", "xyz": [-4.39428702, -2.19714351, 0.0]}, {"species": [{"element": "Ga", "occu": 1}], "abc": [0.25, 0.75, 0.5], "properties": {"magmom": -0.0}, "label": "Ga", "xyz": [-2.19714351, 0.0, -4.39428702]}, {"species": [{"element": "Ga", "occu": 1}], "abc": [0.25, 0.5, 0.75], "properties": {"magmom": -0.0}, "label": "Ga", "xyz": [0.0, -2.19714351, -4.39428702]}, {"species": [{"element": "Ga", "occu": 1}], "abc": [0.5, 0.25, 0.75], "properties": {"magmom": -0.0}, "label": "Ga", "xyz": [0.0, -4.39428702, -2.19714351]}, {"species": [{"element": "Ga", "occu": 1}], "abc": [0.75, 0.25, 0.5], "properties": {"magmom": -0.0}, "label": "Ga", "xyz": [-2.19714351, -4.39428702, 0.0]}, {"species": [{"element": "Ga", "occu": 1}], "abc": [0.67260739, -0.0, -0.0], "properties": {"magmom": -0.0}, "label": "Ga", "xyz": [-2.955629923433078, -2.955629923433078, 2.955629923433078]}, {"species": [{"element": "Ga", "occu": 1}], "abc": [-0.0, 0.67260739, -0.0], "properties": {"magmom": -0.0}, "label": "Ga", "xyz": [-2.955629923433078, 2.955629923433078, -2.955629923433078]}, {"species": [{"element": "Ga", "occu": 1}], "abc": [0.0, 0.0, 0.67260739], "properties": {"magmom": -0.0}, "label": "Ga", "xyz": [2.955629923433078, -2.955629923433078, -2.955629923433078]}, {"species": [{"element": "Ga", "occu": 1}], "abc": [0.32739261000000003, 0.32739261000000003, 0.32739261000000003], "properties": {"magmom": -0.0}, "label": "Ga", "xyz": [-1.4386570965669223, -1.4386570965669223, -1.4386570965669223]}, {"species": [{"element": "Ga", "occu": 1}], "abc": [0.32739261000000003, -0.0, 0.0], "properties": {"magmom": -0.0}, "label": "Ga", "xyz": [-1.4386570965669223, -1.4386570965669223, 1.4386570965669223]}, {"species": [{"element": "Ga", "occu": 1}], "abc": [0.0, 0.32739261000000003, -0.0], "properties": {"magmom": -0.0}, "label": "Ga", "xyz": [-1.4386570965669223, 1.4386570965669223, -1.4386570965669223]}, {"species": [{"element": "Ga", "occu": 1}], "abc": [0.0, -0.0, 0.32739261000000003], "properties": {"magmom": -0.0}, "label": "Ga", "xyz": [1.4386570965669223, -1.4386570965669223, -1.4386570965669223]}, {"species": [{"element": "Ga", "occu": 1}], "abc": [0.67260739, 0.67260739, 0.67260739], "properties": {"magmom": -0.0}, "label": "Ga", "xyz": [-2.955629923433078, -2.955629923433078, -2.955629923433078]}, {"species": [{"element": "Pd", "occu": 1}], "abc": [0.0, 0.34379194, 0.34379194], "properties": {"magmom": 0.0}, "label": "Pd", "xyz": [0.0, 0.0, -3.021440919045238]}, {"species": [{"element": "Pd", "occu": 1}], "abc": [0.65620806, -0.0, 0.65620806], "properties": {"magmom": 0.0}, "label": "Pd", "xyz": [0.0, -5.767133120954762, 0.0]}, {"species": [{"element": "Pd", "occu": 1}], "abc": [0.65620806, 0.65620806, -0.0], "properties": {"magmom": 0.0}, "label": "Pd", "xyz": [-5.767133120954762, 0.0, 0.0]}, {"species": [{"element": "Pd", "occu": 1}], "abc": [-0.0, 0.65620806, 0.65620806], "properties": {"magmom": 0.0}, "label": "Pd", "xyz": [0.0, 0.0, -5.767133120954762]}, {"species": [{"element": "Pd", "occu": 1}], "abc": [0.34379194, 0.0, 0.34379194], "properties": {"magmom": 0.0}, "label": "Pd", "xyz": [0.0, -3.021440919045238, 0.0]}, {"species": [{"element": "Pd", "occu": 1}], "abc": [0.34379194, 0.34379194, 0.0], "properties": {"magmom": 0.0}, "label": "Pd", "xyz": [-3.021440919045238, 0.0, 0.0]}]}, "task_ids": null, "uncorrected_energy_per_atom": null, "energy_per_atom": -15.308785021, "formation_energy_per_atom": -0.41070577300000005, "energy_above_hull": 0.0, "is_stable": true, "equilibrium_reaction_energy_per_atom": null, "decomposes_to": null, "xas": null, "grain_boundaries": null, "band_gap": 0.0, "cbm": null, "vbm": null, "efermi": 4.01866165, "is_gap_direct": null, "is_metal": null, "es_source_calc_id": null, "bandstructure": null, "dos": null, "dos_energy_up": null, "dos_energy_down": null, "is_magnetic": null, "ordering": null, "total_magnetization": 1e-07, "total_magnetization_normalized_vol": null, "total_magnetization_normalized_formula_units": null, "num_magnetic_sites": null, "num_unique_magnetic_sites": null, "types_of_magnetic_species": null, "bulk_modulus": null, "shear_modulus": null, "universal_anisotropy": null, "homogeneous_poisson": null, "e_total": null, "e_ionic": null, "e_electronic": null, "n": null, "e_ij_max": null, "weighted_surface_energy_EV_PER_ANG2": null, "weighted_surface_energy": null, "weighted_work_function": null, "surface_anisotropy": null, "shape_factor": null, "has_reconstructed": null, "possible_species": null, "has_props": null, "theoretical": null, "database_IDs": null, "fields_not_requested": ["builder_meta", "nsites", "elements", "nelements", "composition", "composition_reduced", "chemsys", "symmetry", "property_name", "deprecated", "deprecation_reasons", "last_updated", "origins", "warnings", "task_ids", "uncorrected_energy_per_atom", "equilibrium_reaction_energy_per_atom", "decomposes_to", "xas", "grain_boundaries", "cbm", "vbm", "is_gap_direct", "is_metal", "es_source_calc_id", "bandstructure", "dos", "dos_energy_up", "dos_energy_down", "is_magnetic", "ordering", "total_magnetization_normalized_vol", "total_magnetization_normalized_formula_units", "num_magnetic_sites", "num_unique_magnetic_sites", "types_of_magnetic_species", "bulk_modulus", "shear_modulus", "universal_anisotropy", "homogeneous_poisson", "e_total", "e_ionic", "e_electronic", "n", "e_ij_max", "weighted_surface_energy_EV_PER_ANG2", "weighted_surface_energy", "weighted_work_function", "surface_anisotropy", "shape_factor", "has_reconstructed", "possible_species", "has_props", "theoretical", "database_IDs"]}