{"builder_meta": null, "nsites": null, "elements": null, "nelements": null, "composition": null, "composition_reduced": null, "formula_pretty": "GaAu2", "formula_anonymous": "AB2", "chemsys": null, "volume": 206.42386201338056, "density": 14.919188568770677, "density_atomic": 17.201988501115046, "symmetry": null, "property_name": null, "material_id": "mp-30380", "deprecated": null, "deprecation_reasons": null, "last_updated": null, "origins": null, "warnings": null, "structure": {"@module": "pymatgen.core.structure", "@class": "Structure", "charge": 0, "lattice": {"matrix": [[3.30826649, 0.0, -0.58720194], [0.0, 6.86989368, 0.0], [-0.09125405, 0.0, 9.09878063]], "pbc": [true, true, true], "a": 3.3599751914555385, "b": 6.86989368, "c": 9.099238223857236, "alpha": 90.0, "beta": 100.63952651354819, "gamma": 90.0, "volume": 206.42386201338056}, "properties": {}, "sites": [{"species": [{"element": "Ga", "occu": 1}], "abc": [0.29033693, 0.27453464, 0.58067587], "properties": {"magmom": 0.0}, "label": "Ga", "xyz": [0.9075229114537021, 1.8860237882770752, 5.112955949714753]}, {"species": [{"element": "Ga", "occu": 1}], "abc": [0.7096630700000001, 0.77453464, 0.41932413], "properties": {"magmom": 0.0}, "label": "Ga", "xyz": [2.309489528546298, 5.320970628277076, 3.3986227402852465]}, {"species": [{"element": "Ga", "occu": 1}], "abc": [0.059096340000000004, 0.30499901, 0.11819268000000001], "properties": {"magmom": 0.0}, "label": "Ga", "xyz": [0.1847208805732926, 2.095310771205257, 1.0407077818968888]}, {"species": [{"element": "Ga", "occu": 1}], "abc": [0.94090366, 0.8049990100000001, 0.88180632], "properties": {"magmom": 0.0}, "label": "Ga", "xyz": [3.0322916506807576, 5.530257611205257, 7.470861809322482]}, {"species": [{"element": "Au", "occu": 1}], "abc": [0.91334477, 0.17735076, 0.8266895400000001], "properties": {"magmom": -0.0}, "label": "Au", "xyz": [2.94614912779012, 1.2183808652671968, 6.985548952742757]}, {"species": [{"element": "Au", "occu": 1}], "abc": [0.08665523, 0.67735076, 0.17331046], "properties": {"magmom": -0.0}, "label": "Au", "xyz": [0.2708633122098797, 4.653327705267197, 1.5260297372572436]}, {"species": [{"element": "Au", "occu": 1}], "abc": [0.82962073, 0.54979652, 0.65924246], "properties": {"magmom": -0.0}, "label": "Au", "xyz": [2.684447916061375, 3.7770436380339936, 5.5111476234013335]}, {"species": [{"element": "Au", "occu": 1}], "abc": [0.17037927, 0.049796520000000004, 0.34075754], "properties": {"magmom": -0.0}, "label": "Au", "xyz": [0.5325645239386253, 0.3420967980339936, 3.000431066598667]}, {"species": [{"element": "Au", "occu": 1}], "abc": [0.32283935, 0.90455493, 0.64567971], "properties": {"magmom": -0.0}, "label": "Au", "xyz": [1.0091177147180561, 6.214196196819842, 5.685326145903678]}, {"species": [{"element": "Au", "occu": 1}], "abc": [0.67716065, 0.40455493000000003, 0.35432029], "properties": {"magmom": -0.0}, "label": "Au", "xyz": [2.207894725281944, 2.7792493568198426, 2.8262525440963215]}, {"species": [{"element": "Au", "occu": 1}], "abc": [0.46445053000000003, 0.50076215, 0.92890007], "properties": {"magmom": -0.0}, "label": "Au", "xyz": [1.4517602312289561, 3.440182729468212, 8.179131711871616]}, {"species": [{"element": "Au", "occu": 1}], "abc": [0.53554947, 0.0007621500000000001, 0.07109993], "properties": {"magmom": -0.0}, "label": "Au", "xyz": [1.7652522087710436, 0.005235889468212, 0.3324469781283842]}]}, "task_ids": null, "uncorrected_energy_per_atom": null, "energy_per_atom": -37.684330510833334, "formation_energy_per_atom": -0.146765094166667, "energy_above_hull": 0.007127586666669, "is_stable": false, "equilibrium_reaction_energy_per_atom": null, "decomposes_to": null, "xas": null, "grain_boundaries": null, "band_gap": 0.0, "cbm": null, "vbm": null, "efermi": 5.07339233, "is_gap_direct": null, "is_metal": null, "es_source_calc_id": null, "bandstructure": null, "dos": null, "dos_energy_up": null, "dos_energy_down": null, "is_magnetic": null, "ordering": null, "total_magnetization": 0.0, "total_magnetization_normalized_vol": null, "total_magnetization_normalized_formula_units": null, "num_magnetic_sites": null, "num_unique_magnetic_sites": null, "types_of_magnetic_species": null, "bulk_modulus": null, "shear_modulus": null, "universal_anisotropy": null, "homogeneous_poisson": null, "e_total": null, "e_ionic": null, "e_electronic": null, "n": null, "e_ij_max": null, "weighted_surface_energy_EV_PER_ANG2": null, "weighted_surface_energy": null, "weighted_work_function": null, "surface_anisotropy": null, "shape_factor": null, "has_reconstructed": null, "possible_species": null, "has_props": null, "theoretical": null, "database_IDs": null, "fields_not_requested": ["builder_meta", "nsites", "elements", "nelements", "composition", "composition_reduced", "chemsys", "symmetry", "property_name", "deprecated", "deprecation_reasons", "last_updated", "origins", "warnings", "task_ids", "uncorrected_energy_per_atom", "equilibrium_reaction_energy_per_atom", "decomposes_to", "xas", "grain_boundaries", "cbm", "vbm", "is_gap_direct", "is_metal", "es_source_calc_id", "bandstructure", "dos", "dos_energy_up", "dos_energy_down", "is_magnetic", "ordering", "total_magnetization_normalized_vol", "total_magnetization_normalized_formula_units", "num_magnetic_sites", "num_unique_magnetic_sites", "types_of_magnetic_species", "bulk_modulus", "shear_modulus", "universal_anisotropy", "homogeneous_poisson", "e_total", "e_ionic", "e_electronic", "n", "e_ij_max", "weighted_surface_energy_EV_PER_ANG2", "weighted_surface_energy", "weighted_work_function", "surface_anisotropy", "shape_factor", "has_reconstructed", "possible_species", "has_props", "theoretical", "database_IDs"]}