{"builder_meta": null, "nsites": null, "elements": null, "nelements": null, "composition": null, "composition_reduced": null, "formula_pretty": "GaAu", "formula_anonymous": "AB", "chemsys": null, "volume": 142.63100222995712, "density": 12.419416285534696, "density_atomic": 17.82887527874464, "symmetry": null, "property_name": null, "material_id": "mp-30379", "deprecated": null, "deprecation_reasons": null, "last_updated": null, "origins": null, "warnings": null, "structure": {"@module": "pymatgen.core.structure", "@class": "Structure", "charge": 0, "lattice": {"matrix": [[3.64196013, -0.0, 0.0], [-0.0, 6.25732029, 0.0], [0.0, 0.0, 6.25878973]], "pbc": [true, true, true], "a": 3.64196013, "b": 6.25732029, "c": 6.25878973, "alpha": 90.0, "beta": 90.0, "gamma": 90.0, "volume": 142.63100222995712}, "properties": {}, "sites": [{"species": [{"element": "Ga", "occu": 1}], "abc": [0.25, 0.67939137, 0.92416307], "properties": {"magmom": 0.0}, "label": "Ga", "xyz": [0.9104900325, 4.251169404351898, 5.784142331361271]}, {"species": [{"element": "Ga", "occu": 1}], "abc": [0.75, 0.32060863, 0.07583693], "properties": {"magmom": 0.0}, "label": "Ga", "xyz": [2.7314700975, 2.0061508856481027, 0.4746473986387289]}, {"species": [{"element": "Ga", "occu": 1}], "abc": [0.25, 0.17939137, 0.57583693], "properties": {"magmom": 0.0}, "label": "Ga", "xyz": [0.9104900325, 1.1225092593518973, 3.6040422636387293]}, {"species": [{"element": "Ga", "occu": 1}], "abc": [0.75, 0.8206086300000001, 0.42416307000000003], "properties": {"magmom": 0.0}, "label": "Ga", "xyz": [2.7314700975, 5.134811030648103, 2.6547474663612713]}, {"species": [{"element": "Au", "occu": 1}], "abc": [0.25, 0.5048720800000001, 0.31234692000000003], "properties": {"magmom": -0.0}, "label": "Au", "xyz": [0.9104900325, 3.1591463100385035, 1.9549136950931318]}, {"species": [{"element": "Au", "occu": 1}], "abc": [0.75, 0.49512792, 0.68765308], "properties": {"magmom": -0.0}, "label": "Au", "xyz": [2.7314700975, 3.098173979961497, 4.303876034906868]}, {"species": [{"element": "Au", "occu": 1}], "abc": [0.25, 0.00487308, 0.18765308], "properties": {"magmom": -0.0}, "label": "Au", "xyz": [0.9104900325, 0.0304924223587932, 1.1744811699068685]}, {"species": [{"element": "Au", "occu": 1}], "abc": [0.75, 0.99512792, 0.81234692], "properties": {"magmom": -0.0}, "label": "Au", "xyz": [2.7314700975, 6.226834124961497, 5.084308560093132]}]}, "task_ids": null, "uncorrected_energy_per_atom": null, "energy_per_atom": -31.24470707125, "formation_energy_per_atom": -0.23083902125000202, "energy_above_hull": 0.0, "is_stable": true, "equilibrium_reaction_energy_per_atom": null, "decomposes_to": null, "xas": null, "grain_boundaries": null, "band_gap": 0.0, "cbm": null, "vbm": null, "efermi": 4.41164277, "is_gap_direct": null, "is_metal": null, "es_source_calc_id": null, "bandstructure": null, "dos": null, "dos_energy_up": null, "dos_energy_down": null, "is_magnetic": null, "ordering": null, "total_magnetization": 0.0, "total_magnetization_normalized_vol": null, "total_magnetization_normalized_formula_units": null, "num_magnetic_sites": null, "num_unique_magnetic_sites": null, "types_of_magnetic_species": null, "bulk_modulus": null, "shear_modulus": null, "universal_anisotropy": null, "homogeneous_poisson": null, "e_total": null, "e_ionic": null, "e_electronic": null, "n": null, "e_ij_max": null, "weighted_surface_energy_EV_PER_ANG2": null, "weighted_surface_energy": null, "weighted_work_function": null, "surface_anisotropy": null, "shape_factor": null, "has_reconstructed": null, "possible_species": null, "has_props": null, "theoretical": null, "database_IDs": null, "fields_not_requested": ["builder_meta", "nsites", "elements", "nelements", "composition", "composition_reduced", "chemsys", "symmetry", "property_name", "deprecated", "deprecation_reasons", "last_updated", "origins", "warnings", "task_ids", "uncorrected_energy_per_atom", "equilibrium_reaction_energy_per_atom", "decomposes_to", "xas", "grain_boundaries", "cbm", "vbm", "is_gap_direct", "is_metal", "es_source_calc_id", "bandstructure", "dos", "dos_energy_up", "dos_energy_down", "is_magnetic", "ordering", "total_magnetization_normalized_vol", "total_magnetization_normalized_formula_units", "num_magnetic_sites", "num_unique_magnetic_sites", "types_of_magnetic_species", "bulk_modulus", "shear_modulus", "universal_anisotropy", "homogeneous_poisson", "e_total", "e_ionic", "e_electronic", "n", "e_ij_max", "weighted_surface_energy_EV_PER_ANG2", "weighted_surface_energy", "weighted_work_function", "surface_anisotropy", "shape_factor", "has_reconstructed", "possible_species", "has_props", "theoretical", "database_IDs"]}