{
  "builder_meta": null,
  "nsites": null,
  "elements": null,
  "nelements": null,
  "composition": null,
  "composition_reduced": null,
  "formula_pretty": "GaBr3",
  "formula_anonymous": "AB3",
  "chemsys": null,
  "volume": 552.7467604856777,
  "density": 3.718367562186263,
  "density_atomic": 34.546672530354854,
  "symmetry": null,
  "property_name": null,
  "material_id": "mp-30953",
  "deprecated": null,
  "deprecation_reasons": null,
  "last_updated": null,
  "origins": null,
  "warnings": null,
  "structure": {
    "@module": "pymatgen.core.structure",
    "@class": "Structure",
    "charge": 0,
    "lattice": {
      "matrix": [
        [5.75753559, 0.0, 0.0],
        [0.0, 8.57680706, -2.755608999999999],
        [0.0, 0.00946646, 11.1904078]
      ],
      "pbc": [true, true, true],
      "a": 5.75753559,
      "b": 9.008607012482386,
      "c": 11.190411804047505,
      "alpha": 107.76302163713426,
      "beta": 90.0,
      "gamma": 90.0,
      "volume": 552.7467604856777
    },
    "properties": {},
    "sites": [
      {
        "species": [{ "element": "Ga", "occu": 1 }],
        "abc": [0.00151088, 0.8018160400000001, 0.95249572],
        "properties": { "magmom": -0.0 },
        "label": "Ga",
        "xyz": [0.0086989453722192, 6.886038235326794, 8.449324038386257]
      },
      {
        "species": [{ "element": "Ga", "occu": 1 }],
        "abc": [0.50151088, 0.19818396, 0.5475042800000001],
        "properties": { "magmom": -0.0 },
        "label": "Ga",
        "xyz": [2.887466740372219, 1.7049685146732063, 5.580678661613744]
      },
      {
        "species": [{ "element": "Ga", "occu": 1 }],
        "abc": [0.99848912, 0.19818396, 0.04750428],
        "properties": { "magmom": -0.0 },
        "label": "Ga",
        "xyz": [5.74883664462778, 1.7002352846732063, -0.014525238386255745]
      },
      {
        "species": [{ "element": "Ga", "occu": 1 }],
        "abc": [0.49848912, 0.8018160400000001, 0.45249572],
        "properties": { "magmom": -0.0 },
        "label": "Ga",
        "xyz": [2.870068849627781, 6.881305005326794, 2.8541201383862567]
      },
      {
        "species": [{ "element": "Br", "occu": 1 }],
        "abc": [0.76291693, 0.67194233, 0.79352333],
        "properties": { "magmom": 0.0 },
        "label": "Br",
        "xyz": [4.3925213766885385, 5.770631576719362, 7.028239329485003]
      },
      {
        "species": [{ "element": "Br", "occu": 1 }],
        "abc": [0.26291693, 0.32805767, 0.70647667],
        "properties": { "magmom": 0.0 },
        "label": "Br",
        "xyz": [1.5137535816885386, 2.8203751732806386, 7.001763370514997]
      },
      {
        "species": [{ "element": "Br", "occu": 1 }],
        "abc": [0.23708307, 0.32805767, 0.20647667],
        "properties": { "magmom": 0.0 },
        "label": "Br",
        "xyz": [1.3650142133114613, 2.8156419432806388, 1.406559470514996]
      },
      {
        "species": [{ "element": "Br", "occu": 1 }],
        "abc": [0.7370830700000001, 0.67194233, 0.29352333],
        "properties": { "magmom": 0.0 },
        "label": "Br",
        "xyz": [4.243782008311461, 5.765898346719362, 1.4330354294850045]
      },
      {
        "species": [{ "element": "Br", "occu": 1 }],
        "abc": [0.24533391000000002, 0.67675336, 0.04897801],
        "properties": { "magmom": -0.0 },
        "label": "Br",
        "xyz": [1.412518718258857, 5.804846644299266, -1.3167837444637611]
      },
      {
        "species": [{ "element": "Br", "occu": 1 }],
        "abc": [0.74533391, 0.32324664000000003, 0.45102199],
        "properties": { "magmom": -0.0 },
        "label": "Br",
        "xyz": [4.291286513258857, 2.776693645700734, 4.156378644463762]
      },
      {
        "species": [{ "element": "Br", "occu": 1 }],
        "abc": [0.7546660900000001, 0.32324664000000003, 0.95102199],
        "properties": { "magmom": -0.0 },
        "label": "Br",
        "xyz": [4.3450168717411435, 2.781426875700734, 9.751582544463762]
      },
      {
        "species": [{ "element": "Br", "occu": 1 }],
        "abc": [0.25466609, 0.67675336, 0.54897801],
        "properties": { "magmom": -0.0 },
        "label": "Br",
        "xyz": [1.4662490767411431, 5.809579874299265, 4.278420155536239]
      },
      {
        "species": [{ "element": "Br", "occu": 1 }],
        "abc": [0.7798041, 0.9998876800000001, 0.11276149],
        "properties": { "magmom": -0.0 },
        "label": "Br",
        "xyz": [4.489749858977919, 8.576911165165647, -1.4934524327614969]
      },
      {
        "species": [{ "element": "Br", "occu": 1 }],
        "abc": [0.2798041, 0.00011232000000000001, 0.38723851000000004],
        "properties": { "magmom": -0.0 },
        "label": "Br",
        "xyz": [1.6109820639779189, 0.0046291248343538, 4.333047332761499]
      },
      {
        "species": [{ "element": "Br", "occu": 1 }],
        "abc": [0.2201959, 0.00011232000000000001, 0.88723851],
        "properties": { "magmom": -0.0 },
        "label": "Br",
        "xyz": [1.267785731022081, 0.0093623548343538, 9.928251232761497]
      },
      {
        "species": [{ "element": "Br", "occu": 1 }],
        "abc": [0.7201959, 0.9998876800000001, 0.61276149],
        "properties": { "magmom": -0.0 },
        "label": "Br",
        "xyz": [4.146553526022081, 8.581644395165647, 4.101751467238502]
      }
    ]
  },
  "task_ids": null,
  "uncorrected_energy_per_atom": null,
  "energy_per_atom": -3.222274612499999,
  "formation_energy_per_atom": -1.237540705624999,
  "energy_above_hull": 0.0,
  "is_stable": true,
  "equilibrium_reaction_energy_per_atom": null,
  "decomposes_to": null,
  "xas": null,
  "grain_boundaries": null,
  "band_gap": 3.3559,
  "cbm": null,
  "vbm": null,
  "efermi": -2.39955459,
  "is_gap_direct": null,
  "is_metal": null,
  "es_source_calc_id": null,
  "bandstructure": null,
  "dos": null,
  "dos_energy_up": null,
  "dos_energy_down": null,
  "is_magnetic": null,
  "ordering": null,
  "total_magnetization": 0.0,
  "total_magnetization_normalized_vol": null,
  "total_magnetization_normalized_formula_units": null,
  "num_magnetic_sites": null,
  "num_unique_magnetic_sites": null,
  "types_of_magnetic_species": null,
  "bulk_modulus": null,
  "shear_modulus": null,
  "universal_anisotropy": null,
  "homogeneous_poisson": null,
  "e_total": null,
  "e_ionic": null,
  "e_electronic": null,
  "n": null,
  "e_ij_max": null,
  "weighted_surface_energy_EV_PER_ANG2": null,
  "weighted_surface_energy": null,
  "weighted_work_function": null,
  "surface_anisotropy": null,
  "shape_factor": null,
  "has_reconstructed": null,
  "possible_species": null,
  "has_props": null,
  "theoretical": null,
  "database_IDs": null,
  "fields_not_requested": [
    "builder_meta",
    "nsites",
    "elements",
    "nelements",
    "composition",
    "composition_reduced",
    "chemsys",
    "symmetry",
    "property_name",
    "deprecated",
    "deprecation_reasons",
    "last_updated",
    "origins",
    "warnings",
    "task_ids",
    "uncorrected_energy_per_atom",
    "equilibrium_reaction_energy_per_atom",
    "decomposes_to",
    "xas",
    "grain_boundaries",
    "cbm",
    "vbm",
    "is_gap_direct",
    "is_metal",
    "es_source_calc_id",
    "bandstructure",
    "dos",
    "dos_energy_up",
    "dos_energy_down",
    "is_magnetic",
    "ordering",
    "total_magnetization_normalized_vol",
    "total_magnetization_normalized_formula_units",
    "num_magnetic_sites",
    "num_unique_magnetic_sites",
    "types_of_magnetic_species",
    "bulk_modulus",
    "shear_modulus",
    "universal_anisotropy",
    "homogeneous_poisson",
    "e_total",
    "e_ionic",
    "e_electronic",
    "n",
    "e_ij_max",
    "weighted_surface_energy_EV_PER_ANG2",
    "weighted_surface_energy",
    "weighted_work_function",
    "surface_anisotropy",
    "shape_factor",
    "has_reconstructed",
    "possible_species",
    "has_props",
    "theoretical",
    "database_IDs"
  ]
}
