{
  "builder_meta": null,
  "nsites": null,
  "elements": null,
  "nelements": null,
  "composition": null,
  "composition_reduced": null,
  "formula_pretty": "GaBr2",
  "formula_anonymous": "AB2",
  "chemsys": null,
  "volume": 782.2504854372522,
  "density": 3.897934992346774,
  "density_atomic": 32.593770226552174,
  "symmetry": null,
  "property_name": null,
  "material_id": "mp-28384",
  "deprecated": null,
  "deprecation_reasons": null,
  "last_updated": null,
  "origins": null,
  "warnings": null,
  "structure": {
    "@module": "pymatgen.core.structure",
    "@class": "Structure",
    "charge": 0,
    "lattice": {
      "matrix": [
        [7.61484989, 0.0, 0.0],
        [0.0, 10.04969229, 0.0],
        [0.0, 0.0, 10.22190241]
      ],
      "pbc": [true, true, true],
      "a": 7.61484989,
      "b": 10.04969229,
      "c": 10.22190241,
      "alpha": 90.0,
      "beta": 90.0,
      "gamma": 90.0,
      "volume": 782.2504854372522
    },
    "properties": {},
    "sites": [
      {
        "species": [{ "element": "Ga", "occu": 1 }],
        "abc": [0.25, 0.0, 0.18157953000000002],
        "properties": { "magmom": -0.0 },
        "label": "Ga",
        "xyz": [1.9037124725, 0.0, 1.8560882353136674]
      },
      {
        "species": [{ "element": "Ga", "occu": 1 }],
        "abc": [0.25, 0.5, 0.31842047],
        "properties": { "magmom": -0.0 },
        "label": "Ga",
        "xyz": [1.9037124725, 5.024846145, 3.2548629696863327]
      },
      {
        "species": [{ "element": "Ga", "occu": 1 }],
        "abc": [0.75, 0.0, 0.8184204700000001],
        "properties": { "magmom": -0.0 },
        "label": "Ga",
        "xyz": [5.7111374175, 0.0, 8.365814174686333]
      },
      {
        "species": [{ "element": "Ga", "occu": 1 }],
        "abc": [0.75, 0.5, 0.68157953],
        "properties": { "magmom": -0.0 },
        "label": "Ga",
        "xyz": [5.7111374175, 5.024846145, 6.967039440313668]
      },
      {
        "species": [{ "element": "Ga", "occu": 1 }],
        "abc": [0.6289497900000001, 0.25, 0.25],
        "properties": { "magmom": 0.0 },
        "label": "Ga",
        "xyz": [4.789358239197024, 2.5124230725, 2.5554756025]
      },
      {
        "species": [{ "element": "Ga", "occu": 1 }],
        "abc": [0.87105021, 0.75, 0.25],
        "properties": { "magmom": 0.0 },
        "label": "Ga",
        "xyz": [6.632916595802977, 7.5372692175, 2.5554756025]
      },
      {
        "species": [{ "element": "Ga", "occu": 1 }],
        "abc": [0.37105021, 0.75, 0.75],
        "properties": { "magmom": 0.0 },
        "label": "Ga",
        "xyz": [2.825491650802977, 7.5372692175, 7.666426807500001]
      },
      {
        "species": [{ "element": "Ga", "occu": 1 }],
        "abc": [0.12894979, 0.25, 0.75],
        "properties": { "magmom": 0.0 },
        "label": "Ga",
        "xyz": [0.9819332941970232, 2.5124230725, 7.666426807500001]
      },
      {
        "species": [{ "element": "Br", "occu": 1 }],
        "abc": [0.33232978, 0.1838183, 0.05347592],
        "properties": { "magmom": 0.0 },
        "label": "Br",
        "xyz": [2.5306413886767243, 1.8473173522709068, 0.5466256355249672]
      },
      {
        "species": [{ "element": "Br", "occu": 1 }],
        "abc": [0.33232978, 0.3161817, 0.44652408],
        "properties": { "magmom": 0.0 },
        "label": "Br",
        "xyz": [2.5306413886767243, 3.1775287927290927, 4.564325569475033]
      },
      {
        "species": [{ "element": "Br", "occu": 1 }],
        "abc": [0.16767022, 0.6838183, 0.44652408],
        "properties": { "magmom": 0.0 },
        "label": "Br",
        "xyz": [1.276783556323276, 6.872163497270907, 4.564325569475033]
      },
      {
        "species": [{ "element": "Br", "occu": 1 }],
        "abc": [0.16767022, 0.8161817, 0.05347592],
        "properties": { "magmom": 0.0 },
        "label": "Br",
        "xyz": [1.276783556323276, 8.202374937729093, 0.5466256355249672]
      },
      {
        "species": [{ "element": "Br", "occu": 1 }],
        "abc": [0.66767022, 0.8161817, 0.94652408],
        "properties": { "magmom": 0.0 },
        "label": "Br",
        "xyz": [5.084208501323276, 8.202374937729093, 9.675276774475034]
      },
      {
        "species": [{ "element": "Br", "occu": 1 }],
        "abc": [0.66767022, 0.6838183, 0.55347592],
        "properties": { "magmom": 0.0 },
        "label": "Br",
        "xyz": [5.084208501323276, 6.872163497270907, 5.657576840524968]
      },
      {
        "species": [{ "element": "Br", "occu": 1 }],
        "abc": [0.83232978, 0.3161817, 0.55347592],
        "properties": { "magmom": 0.0 },
        "label": "Br",
        "xyz": [6.338066333676725, 3.1775287927290927, 5.657576840524968]
      },
      {
        "species": [{ "element": "Br", "occu": 1 }],
        "abc": [0.83232978, 0.1838183, 0.94652408],
        "properties": { "magmom": 0.0 },
        "label": "Br",
        "xyz": [6.338066333676725, 1.8473173522709068, 9.675276774475034]
      },
      {
        "species": [{ "element": "Br", "occu": 1 }],
        "abc": [0.00316341, 0.04221206, 0.312172699999999],
        "properties": { "magmom": -0.0 },
        "label": "Br",
        "xyz": [0.024088892290524903, 0.4242182139270174, 3.1909988744661972]
      },
      {
        "species": [{ "element": "Br", "occu": 1 }],
        "abc": [0.00316341, 0.45778794, 0.1878273],
        "properties": { "magmom": -0.0 },
        "label": "Br",
        "xyz": [0.024088892290524903, 4.6006279310729825, 1.919952330533793]
      },
      {
        "species": [{ "element": "Br", "occu": 1 }],
        "abc": [0.49683659, 0.54221206, 0.1878273],
        "properties": { "magmom": -0.0 },
        "label": "Br",
        "xyz": [3.7833360527094753, 5.449064358927017, 1.919952330533793]
      },
      {
        "species": [{ "element": "Br", "occu": 1 }],
        "abc": [0.49683659, 0.95778794, 0.312172699999999],
        "properties": { "magmom": -0.0 },
        "label": "Br",
        "xyz": [3.7833360527094753, 9.625474076072981, 3.1909988744661972]
      },
      {
        "species": [{ "element": "Br", "occu": 1 }],
        "abc": [-0.00316341, 0.95778794, 0.687827299999999],
        "properties": { "magmom": -0.0 },
        "label": "Br",
        "xyz": [-0.024088892290524903, 9.625474076072981, 7.030903535533783]
      },
      {
        "species": [{ "element": "Br", "occu": 1 }],
        "abc": [-0.00316341, 0.54221206, 0.8121727],
        "properties": { "magmom": -0.0 },
        "label": "Br",
        "xyz": [-0.024088892290524903, 5.449064358927017, 8.301950079466208]
      },
      {
        "species": [{ "element": "Br", "occu": 1 }],
        "abc": [0.50316341, 0.45778794, 0.8121727],
        "properties": { "magmom": -0.0 },
        "label": "Br",
        "xyz": [3.831513837290525, 4.6006279310729825, 8.301950079466208]
      },
      {
        "species": [{ "element": "Br", "occu": 1 }],
        "abc": [0.50316341, 0.04221206, 0.687827299999999],
        "properties": { "magmom": -0.0 },
        "label": "Br",
        "xyz": [3.831513837290525, 0.4242182139270174, 7.030903535533783]
      }
    ]
  },
  "task_ids": null,
  "uncorrected_energy_per_atom": null,
  "energy_per_atom": -3.234438007083334,
  "formation_energy_per_atom": -1.13377497625,
  "energy_above_hull": 0.0,
  "is_stable": true,
  "equilibrium_reaction_energy_per_atom": null,
  "decomposes_to": null,
  "xas": null,
  "grain_boundaries": null,
  "band_gap": 3.089,
  "cbm": null,
  "vbm": null,
  "efermi": -1.4453193,
  "is_gap_direct": null,
  "is_metal": null,
  "es_source_calc_id": null,
  "bandstructure": null,
  "dos": null,
  "dos_energy_up": null,
  "dos_energy_down": null,
  "is_magnetic": null,
  "ordering": null,
  "total_magnetization": 0.0,
  "total_magnetization_normalized_vol": null,
  "total_magnetization_normalized_formula_units": null,
  "num_magnetic_sites": null,
  "num_unique_magnetic_sites": null,
  "types_of_magnetic_species": null,
  "bulk_modulus": null,
  "shear_modulus": null,
  "universal_anisotropy": null,
  "homogeneous_poisson": null,
  "e_total": null,
  "e_ionic": null,
  "e_electronic": null,
  "n": null,
  "e_ij_max": null,
  "weighted_surface_energy_EV_PER_ANG2": null,
  "weighted_surface_energy": null,
  "weighted_work_function": null,
  "surface_anisotropy": null,
  "shape_factor": null,
  "has_reconstructed": null,
  "possible_species": null,
  "has_props": null,
  "theoretical": null,
  "database_IDs": null,
  "fields_not_requested": [
    "builder_meta",
    "nsites",
    "elements",
    "nelements",
    "composition",
    "composition_reduced",
    "chemsys",
    "symmetry",
    "property_name",
    "deprecated",
    "deprecation_reasons",
    "last_updated",
    "origins",
    "warnings",
    "task_ids",
    "uncorrected_energy_per_atom",
    "equilibrium_reaction_energy_per_atom",
    "decomposes_to",
    "xas",
    "grain_boundaries",
    "cbm",
    "vbm",
    "is_gap_direct",
    "is_metal",
    "es_source_calc_id",
    "bandstructure",
    "dos",
    "dos_energy_up",
    "dos_energy_down",
    "is_magnetic",
    "ordering",
    "total_magnetization_normalized_vol",
    "total_magnetization_normalized_formula_units",
    "num_magnetic_sites",
    "num_unique_magnetic_sites",
    "types_of_magnetic_species",
    "bulk_modulus",
    "shear_modulus",
    "universal_anisotropy",
    "homogeneous_poisson",
    "e_total",
    "e_ionic",
    "e_electronic",
    "n",
    "e_ij_max",
    "weighted_surface_energy_EV_PER_ANG2",
    "weighted_surface_energy",
    "weighted_work_function",
    "surface_anisotropy",
    "shape_factor",
    "has_reconstructed",
    "possible_species",
    "has_props",
    "theoretical",
    "database_IDs"
  ]
}
