{
  "builder_meta": null,
  "nsites": null,
  "elements": null,
  "nelements": null,
  "composition": null,
  "composition_reduced": null,
  "formula_pretty": "GaC6",
  "formula_anonymous": "AB6",
  "chemsys": null,
  "volume": 156.6012779888497,
  "density": 1.503456343188919,
  "density_atomic": 22.371611141264243,
  "symmetry": null,
  "property_name": null,
  "material_id": "mp-1212658",
  "deprecated": null,
  "deprecation_reasons": null,
  "last_updated": null,
  "origins": null,
  "warnings": null,
  "structure": {
    "@module": "pymatgen.core.structure",
    "@class": "Structure",
    "charge": 0,
    "lattice": {
      "matrix": [
        [5.39012, 0.0, 0.0],
        [0.0, 5.39012, 0.0],
        [0.0, 0.0, 5.39012]
      ],
      "pbc": [true, true, true],
      "a": 5.39012,
      "b": 5.39012,
      "c": 5.39012,
      "alpha": 90.0,
      "beta": 90.0,
      "gamma": 90.0,
      "volume": 156.6012779888497
    },
    "properties": {},
    "sites": [
      {
        "species": [{ "element": "Ga", "occu": 1 }],
        "abc": [0.0, 0.0, 0.0],
        "properties": { "magmom": 0.021 },
        "label": "Ga",
        "xyz": [0.0, 0.0, 0.0]
      },
      {
        "species": [{ "element": "C", "occu": 1 }],
        "abc": [0.38257, 0.0, 0.0],
        "properties": { "magmom": 0.229 },
        "label": "C",
        "xyz": [2.0620982084, 0.0, 0.0]
      },
      {
        "species": [{ "element": "C", "occu": 1 }],
        "abc": [0.61743, 0.0, 0.0],
        "properties": { "magmom": 0.229 },
        "label": "C",
        "xyz": [3.3280217916, 0.0, 0.0]
      },
      {
        "species": [{ "element": "C", "occu": 1 }],
        "abc": [0.0, 0.38257, 0.0],
        "properties": { "magmom": 0.229 },
        "label": "C",
        "xyz": [0.0, 2.0620982084, 0.0]
      },
      {
        "species": [{ "element": "C", "occu": 1 }],
        "abc": [0.0, 0.61743, 0.0],
        "properties": { "magmom": 0.229 },
        "label": "C",
        "xyz": [0.0, 3.3280217916, 0.0]
      },
      {
        "species": [{ "element": "C", "occu": 1 }],
        "abc": [0.0, 0.0, 0.38257],
        "properties": { "magmom": 0.229 },
        "label": "C",
        "xyz": [0.0, 0.0, 2.0620982084]
      },
      {
        "species": [{ "element": "C", "occu": 1 }],
        "abc": [0.0, 0.0, 0.61743],
        "properties": { "magmom": 0.229 },
        "label": "C",
        "xyz": [0.0, 0.0, 3.3280217916]
      }
    ]
  },
  "task_ids": null,
  "uncorrected_energy_per_atom": null,
  "energy_per_atom": -6.071265047142857,
  "formation_energy_per_atom": 2.271604806785714,
  "energy_above_hull": 2.271604806785713,
  "is_stable": false,
  "equilibrium_reaction_energy_per_atom": null,
  "decomposes_to": null,
  "xas": null,
  "grain_boundaries": null,
  "band_gap": 0.0,
  "cbm": null,
  "vbm": null,
  "efermi": -3.20505725,
  "is_gap_direct": null,
  "is_metal": null,
  "es_source_calc_id": null,
  "bandstructure": null,
  "dos": null,
  "dos_energy_up": null,
  "dos_energy_down": null,
  "is_magnetic": null,
  "ordering": null,
  "total_magnetization": 2.2575988,
  "total_magnetization_normalized_vol": null,
  "total_magnetization_normalized_formula_units": null,
  "num_magnetic_sites": null,
  "num_unique_magnetic_sites": null,
  "types_of_magnetic_species": null,
  "bulk_modulus": null,
  "shear_modulus": null,
  "universal_anisotropy": null,
  "homogeneous_poisson": null,
  "e_total": null,
  "e_ionic": null,
  "e_electronic": null,
  "n": null,
  "e_ij_max": null,
  "weighted_surface_energy_EV_PER_ANG2": null,
  "weighted_surface_energy": null,
  "weighted_work_function": null,
  "surface_anisotropy": null,
  "shape_factor": null,
  "has_reconstructed": null,
  "possible_species": null,
  "has_props": null,
  "theoretical": null,
  "database_IDs": null,
  "fields_not_requested": [
    "builder_meta",
    "nsites",
    "elements",
    "nelements",
    "composition",
    "composition_reduced",
    "chemsys",
    "symmetry",
    "property_name",
    "deprecated",
    "deprecation_reasons",
    "last_updated",
    "origins",
    "warnings",
    "task_ids",
    "uncorrected_energy_per_atom",
    "equilibrium_reaction_energy_per_atom",
    "decomposes_to",
    "xas",
    "grain_boundaries",
    "cbm",
    "vbm",
    "is_gap_direct",
    "is_metal",
    "es_source_calc_id",
    "bandstructure",
    "dos",
    "dos_energy_up",
    "dos_energy_down",
    "is_magnetic",
    "ordering",
    "total_magnetization_normalized_vol",
    "total_magnetization_normalized_formula_units",
    "num_magnetic_sites",
    "num_unique_magnetic_sites",
    "types_of_magnetic_species",
    "bulk_modulus",
    "shear_modulus",
    "universal_anisotropy",
    "homogeneous_poisson",
    "e_total",
    "e_ionic",
    "e_electronic",
    "n",
    "e_ij_max",
    "weighted_surface_energy_EV_PER_ANG2",
    "weighted_surface_energy",
    "weighted_work_function",
    "surface_anisotropy",
    "shape_factor",
    "has_reconstructed",
    "possible_species",
    "has_props",
    "theoretical",
    "database_IDs"
  ]
}
