{"builder_meta": null, "nsites": null, "elements": null, "nelements": null, "composition": null, "composition_reduced": null, "formula_pretty": "GaCl3", "formula_anonymous": "AB3", "chemsys": null, "volume": 245.26974898542053, "density": 2.384240544417417, "density_atomic": 30.658718623177567, "symmetry": null, "property_name": null, "material_id": "mp-30952", "deprecated": null, "deprecation_reasons": null, "last_updated": null, "origins": null, "warnings": null, "structure": {"@module": "pymatgen.core.structure", "@class": "Structure", "charge": 0, "lattice": {"matrix": [[6.01060238, -0.00332225, 3.42060278], [2.0658924, 5.84897925, 3.35421999], [0.00062054, 0.02485423, 6.98488046]], "pbc": [true, true, true], "a": 6.915770050135448, "b": 7.051897717396639, "c": 6.9849247067029, "alpha": 61.40454836473006, "beta": 60.351251914653375, "gamma": 60.69401951109522, "volume": 245.26974898542053}, "properties": {}, "sites": [{"species": [{"element": "Ga", "occu": 1}], "abc": [0.34218619, 0.08732462, 0.2278787], "properties": {"magmom": -0.0}, "label": "Ga", "xyz": [2.237289804656518, 0.5152868119463085, 3.055094497694964]}, {"species": [{"element": "Ga", "occu": 1}], "abc": [0.6578109400000001, 0.91267568, 0.77212149], "properties": {"magmom": -0.0}, "label": "Ga", "xyz": [5.839808884800274, 5.355226187004628, 10.704601248568341]}, {"species": [{"element": "Cl", "occu": 1}], "abc": [0.73596488, 0.999926099999999, 0.00043299999999900005], "properties": {"magmom": 0.0}, "label": "Cl", "xyz": [6.489332258569873, 5.846112712992429, 5.874440080892275]}, {"species": [{"element": "Cl", "occu": 1}], "abc": [0.26402975, 8.799e-05, 0.9995552600000001], "properties": {"magmom": 0.0}, "label": "Cl", "xyz": [1.5877798856341214, 0.024480655177019802, 7.885210038933845]}, {"species": [{"element": "Cl", "occu": 1}], "abc": [0.69593435, 0.1677936, 0.44142964], "properties": {"magmom": 0.0}, "label": "Cl", "xyz": [4.529902108191199, 0.9900806105898897, 6.026664886522392]}, {"species": [{"element": "Cl", "occu": 1}], "abc": [0.3040804, 0.83219277, 0.55856163], "properties": {"magmom": 0.0}, "label": "Cl", "xyz": [3.5472737046631804, 4.880350631842318, 7.732982101343734]}, {"species": [{"element": "Cl", "occu": 1}], "abc": [0.8146922600000001, 0.56020662, 0.81025706], "properties": {"magmom": 0.0}, "label": "Cl", "xyz": [6.054620632527279, 3.2940686000602137, 10.325343558705864]}, {"species": [{"element": "Cl", "occu": 1}], "abc": [0.18530023, 0.43979062, 0.18976322], "properties": {"magmom": 0.0}, "label": "Cl", "xyz": [2.0224438585703743, 2.5764270157509386, 3.4344663782958142]}]}, "task_ids": null, "uncorrected_energy_per_atom": null, "energy_per_atom": -8.69525776125, "formation_energy_per_atom": -1.220234600625, "energy_above_hull": 0.0, "is_stable": true, "equilibrium_reaction_energy_per_atom": null, "decomposes_to": null, "xas": null, "grain_boundaries": null, "band_gap": 4.1775, "cbm": null, "vbm": null, "efermi": -2.69423419, "is_gap_direct": null, "is_metal": null, "es_source_calc_id": null, "bandstructure": null, "dos": null, "dos_energy_up": null, "dos_energy_down": null, "is_magnetic": null, "ordering": null, "total_magnetization": 3.399999999999998e-06, "total_magnetization_normalized_vol": null, "total_magnetization_normalized_formula_units": null, "num_magnetic_sites": null, "num_unique_magnetic_sites": null, "types_of_magnetic_species": null, "bulk_modulus": null, "shear_modulus": null, "universal_anisotropy": null, "homogeneous_poisson": null, "e_total": null, "e_ionic": null, "e_electronic": null, "n": null, "e_ij_max": null, "weighted_surface_energy_EV_PER_ANG2": null, "weighted_surface_energy": null, "weighted_work_function": null, "surface_anisotropy": null, "shape_factor": null, "has_reconstructed": null, "possible_species": null, "has_props": null, "theoretical": null, "database_IDs": null, "fields_not_requested": ["builder_meta", "nsites", "elements", "nelements", "composition", "composition_reduced", "chemsys", "symmetry", "property_name", "deprecated", "deprecation_reasons", "last_updated", "origins", "warnings", "task_ids", "uncorrected_energy_per_atom", "equilibrium_reaction_energy_per_atom", "decomposes_to", "xas", "grain_boundaries", "cbm", "vbm", "is_gap_direct", "is_metal", "es_source_calc_id", "bandstructure", "dos", "dos_energy_up", "dos_energy_down", "is_magnetic", "ordering", "total_magnetization_normalized_vol", "total_magnetization_normalized_formula_units", "num_magnetic_sites", "num_unique_magnetic_sites", "types_of_magnetic_species", "bulk_modulus", "shear_modulus", "universal_anisotropy", "homogeneous_poisson", "e_total", "e_ionic", "e_electronic", "n", "e_ij_max", "weighted_surface_energy_EV_PER_ANG2", "weighted_surface_energy", "weighted_work_function", "surface_anisotropy", "shape_factor", "has_reconstructed", "possible_species", "has_props", "theoretical", "database_IDs"]}