{
  "builder_meta": null,
  "nsites": null,
  "elements": null,
  "nelements": null,
  "composition": null,
  "composition_reduced": null,
  "formula_pretty": "GaCl2",
  "formula_anonymous": "AB2",
  "chemsys": null,
  "volume": 661.8128624633736,
  "density": 2.822791295142771,
  "density_atomic": 27.5755359359739,
  "symmetry": null,
  "property_name": null,
  "material_id": "mp-568848",
  "deprecated": null,
  "deprecation_reasons": null,
  "last_updated": null,
  "origins": null,
  "warnings": null,
  "structure": {
    "@module": "pymatgen.core.structure",
    "@class": "Structure",
    "charge": 0,
    "lattice": {
      "matrix": [
        [7.21086211, 0.0, 0.0],
        [0.0, 9.57714237, 0.0],
        [0.0, 0.0, 9.58323348]
      ],
      "pbc": [true, true, true],
      "a": 7.21086211,
      "b": 9.57714237,
      "c": 9.58323348,
      "alpha": 90.0,
      "beta": 90.0,
      "gamma": 90.0,
      "volume": 661.8128624633736
    },
    "properties": {},
    "sites": [
      {
        "species": [{ "element": "Ga", "occu": 1 }],
        "abc": [0.25, 0.18209742, 0.0],
        "properties": { "magmom": -0.0 },
        "label": "Ga",
        "xyz": [1.8027155275, 1.7439729165496856, 0.0]
      },
      {
        "species": [{ "element": "Ga", "occu": 1 }],
        "abc": [0.75, 0.6820974200000001, 0.5],
        "properties": { "magmom": -0.0 },
        "label": "Ga",
        "xyz": [5.4081465825, 6.532544101549687, 4.79161674]
      },
      {
        "species": [{ "element": "Ga", "occu": 1 }],
        "abc": [0.15765025, 0.75, 0.25],
        "properties": { "magmom": 0.0 },
        "label": "Ga",
        "xyz": [1.1367942143570273, 7.1828567775000005, 2.39580837]
      },
      {
        "species": [{ "element": "Ga", "occu": 1 }],
        "abc": [0.84234975, 0.25, 0.75],
        "properties": { "magmom": 0.0 },
        "label": "Ga",
        "xyz": [6.074067895642973, 2.3942855925, 7.18742511]
      },
      {
        "species": [{ "element": "Ga", "occu": 1 }],
        "abc": [0.75, 0.81790258, 0.0],
        "properties": { "magmom": -0.0 },
        "label": "Ga",
        "xyz": [5.4081465825, 7.833169453450315, 0.0]
      },
      {
        "species": [{ "element": "Ga", "occu": 1 }],
        "abc": [0.34234975, 0.75, 0.75],
        "properties": { "magmom": 0.0 },
        "label": "Ga",
        "xyz": [2.4686368406429726, 7.1828567775000005, 7.18742511]
      },
      {
        "species": [{ "element": "Ga", "occu": 1 }],
        "abc": [0.25, 0.31790258, 0.5],
        "properties": { "magmom": -0.0 },
        "label": "Ga",
        "xyz": [1.8027155275, 3.0445982684503146, 4.79161674]
      },
      {
        "species": [{ "element": "Ga", "occu": 1 }],
        "abc": [0.65765025, 0.25, 0.25],
        "properties": { "magmom": 0.0 },
        "label": "Ga",
        "xyz": [4.742225269357028, 2.3942855925, 2.39580837]
      },
      {
        "species": [{ "element": "Cl", "occu": 1 }],
        "abc": [0.670142799999999, 0.55417312, 0.67980643],
        "properties": { "magmom": -0.0 },
        "label": "Cl",
        "xyz": [4.832307324809301, 5.307394867867094, 6.514743739895277]
      },
      {
        "species": [{ "element": "Cl", "occu": 1 }],
        "abc": [0.50631588, 0.81188525, 0.45859465],
        "properties": { "magmom": -0.0 },
        "label": "Cl",
        "xyz": [3.6509739947833073, 7.775540627353043, 4.394819603628882]
      },
      {
        "species": [{ "element": "Cl", "occu": 1 }],
        "abc": [0.329857199999999, 0.44582688000000004, 0.32019357],
        "properties": { "magmom": -0.0 },
        "label": "Cl",
        "xyz": [2.3785547851906848, 4.2697475021329065, 3.0684897401047238]
      },
      {
        "species": [{ "element": "Cl", "occu": 1 }],
        "abc": [0.670142799999999, 0.94582688, 0.82019357],
        "properties": { "magmom": -0.0 },
        "label": "Cl",
        "xyz": [4.832307324809301, 9.058318687132907, 7.860106480104724]
      },
      {
        "species": [{ "element": "Cl", "occu": 1 }],
        "abc": [0.9936841200000001, 0.68811475, 0.95859465],
        "properties": { "magmom": -0.0 },
        "label": "Cl",
        "xyz": [7.165319170216693, 6.590172927646958, 9.186436343628882]
      },
      {
        "species": [{ "element": "Cl", "occu": 1 }],
        "abc": [0.329857199999999, 0.05417312, 0.17980643000000002],
        "properties": { "magmom": -0.0 },
        "label": "Cl",
        "xyz": [2.3785547851906848, 0.5188236828670945, 1.7231269998952767]
      },
      {
        "species": [{ "element": "Cl", "occu": 1 }],
        "abc": [0.170142799999999, 0.44582688000000004, 0.67980643],
        "properties": { "magmom": -0.0 },
        "label": "Cl",
        "xyz": [1.2268762698093008, 4.2697475021329065, 6.514743739895277]
      },
      {
        "species": [{ "element": "Cl", "occu": 1 }],
        "abc": [0.00631588, 0.18811475, 0.45859465],
        "properties": { "magmom": -0.0 },
        "label": "Cl",
        "xyz": [0.0455429397833068, 1.8016017426469575, 4.394819603628882]
      },
      {
        "species": [{ "element": "Cl", "occu": 1 }],
        "abc": [0.8298572, 0.55417312, 0.32019357],
        "properties": { "magmom": -0.0 },
        "label": "Cl",
        "xyz": [5.983985840190692, 5.307394867867094, 3.0684897401047238]
      },
      {
        "species": [{ "element": "Cl", "occu": 1 }],
        "abc": [0.9936841200000001, 0.81188525, 0.54140535],
        "properties": { "magmom": -0.0 },
        "label": "Cl",
        "xyz": [7.165319170216693, 7.775540627353043, 5.1884138763711185]
      },
      {
        "species": [{ "element": "Cl", "occu": 1 }],
        "abc": [0.50631588, 0.68811475, 0.04140535],
        "properties": { "magmom": -0.0 },
        "label": "Cl",
        "xyz": [3.6509739947833073, 6.590172927646958, 0.396797136371118]
      },
      {
        "species": [{ "element": "Cl", "occu": 1 }],
        "abc": [0.170142799999999, 0.05417312, 0.82019357],
        "properties": { "magmom": -0.0 },
        "label": "Cl",
        "xyz": [1.2268762698093008, 0.5188236828670945, 7.860106480104724]
      },
      {
        "species": [{ "element": "Cl", "occu": 1 }],
        "abc": [0.8298572, 0.94582688, 0.17980643000000002],
        "properties": { "magmom": -0.0 },
        "label": "Cl",
        "xyz": [5.983985840190692, 9.058318687132907, 1.7231269998952767]
      },
      {
        "species": [{ "element": "Cl", "occu": 1 }],
        "abc": [0.00631588, 0.31188525, 0.04140535],
        "properties": { "magmom": -0.0 },
        "label": "Cl",
        "xyz": [0.0455429397833068, 2.986969442353043, 0.396797136371118]
      },
      {
        "species": [{ "element": "Cl", "occu": 1 }],
        "abc": [0.49368412, 0.18811475, 0.54140535],
        "properties": { "magmom": -0.0 },
        "label": "Cl",
        "xyz": [3.559888115216693, 1.8016017426469575, 5.1884138763711185]
      },
      {
        "species": [{ "element": "Cl", "occu": 1 }],
        "abc": [0.49368412, 0.31188525, 0.95859465],
        "properties": { "magmom": -0.0 },
        "label": "Cl",
        "xyz": [3.559888115216693, 2.986969442353043, 9.186436343628882]
      }
    ]
  },
  "task_ids": null,
  "uncorrected_energy_per_atom": null,
  "energy_per_atom": -9.014711965416668,
  "formation_energy_per_atom": -1.09882738375,
  "energy_above_hull": 0.0,
  "is_stable": true,
  "equilibrium_reaction_energy_per_atom": null,
  "decomposes_to": null,
  "xas": null,
  "grain_boundaries": null,
  "band_gap": 3.8564,
  "cbm": null,
  "vbm": null,
  "efermi": -1.03674297,
  "is_gap_direct": null,
  "is_metal": null,
  "es_source_calc_id": null,
  "bandstructure": null,
  "dos": null,
  "dos_energy_up": null,
  "dos_energy_down": null,
  "is_magnetic": null,
  "ordering": null,
  "total_magnetization": 0.0,
  "total_magnetization_normalized_vol": null,
  "total_magnetization_normalized_formula_units": null,
  "num_magnetic_sites": null,
  "num_unique_magnetic_sites": null,
  "types_of_magnetic_species": null,
  "bulk_modulus": null,
  "shear_modulus": null,
  "universal_anisotropy": null,
  "homogeneous_poisson": null,
  "e_total": null,
  "e_ionic": null,
  "e_electronic": null,
  "n": null,
  "e_ij_max": null,
  "weighted_surface_energy_EV_PER_ANG2": null,
  "weighted_surface_energy": null,
  "weighted_work_function": null,
  "surface_anisotropy": null,
  "shape_factor": null,
  "has_reconstructed": null,
  "possible_species": null,
  "has_props": null,
  "theoretical": null,
  "database_IDs": null,
  "fields_not_requested": [
    "builder_meta",
    "nsites",
    "elements",
    "nelements",
    "composition",
    "composition_reduced",
    "chemsys",
    "symmetry",
    "property_name",
    "deprecated",
    "deprecation_reasons",
    "last_updated",
    "origins",
    "warnings",
    "task_ids",
    "uncorrected_energy_per_atom",
    "equilibrium_reaction_energy_per_atom",
    "decomposes_to",
    "xas",
    "grain_boundaries",
    "cbm",
    "vbm",
    "is_gap_direct",
    "is_metal",
    "es_source_calc_id",
    "bandstructure",
    "dos",
    "dos_energy_up",
    "dos_energy_down",
    "is_magnetic",
    "ordering",
    "total_magnetization_normalized_vol",
    "total_magnetization_normalized_formula_units",
    "num_magnetic_sites",
    "num_unique_magnetic_sites",
    "types_of_magnetic_species",
    "bulk_modulus",
    "shear_modulus",
    "universal_anisotropy",
    "homogeneous_poisson",
    "e_total",
    "e_ionic",
    "e_electronic",
    "n",
    "e_ij_max",
    "weighted_surface_energy_EV_PER_ANG2",
    "weighted_surface_energy",
    "weighted_work_function",
    "surface_anisotropy",
    "shape_factor",
    "has_reconstructed",
    "possible_species",
    "has_props",
    "theoretical",
    "database_IDs"
  ]
}
