{
  "builder_meta": null,
  "nsites": null,
  "elements": null,
  "nelements": null,
  "composition": null,
  "composition_reduced": null,
  "formula_pretty": "GaCo4",
  "formula_anonymous": "AB4",
  "chemsys": null,
  "volume": 58.11991738953303,
  "density": 8.727150322827569,
  "density_atomic": 11.623983477906606,
  "symmetry": null,
  "property_name": null,
  "material_id": "mp-1224812",
  "deprecated": null,
  "deprecation_reasons": null,
  "last_updated": null,
  "origins": null,
  "warnings": null,
  "structure": {
    "@module": "pymatgen.core.structure",
    "@class": "Structure",
    "charge": 0,
    "lattice": {
      "matrix": [
        [10.068144, -1.292679, 0.0],
        [10.068144, 1.292679, 0.0],
        [9.902173, 0.0, 2.232826]
      ],
      "pbc": [true, true, true],
      "a": 10.150790245186677,
      "b": 10.150790245186677,
      "c": 10.150790218904389,
      "alpha": 14.632698053946696,
      "beta": 14.632698053946696,
      "gamma": 14.632696573333003,
      "volume": 58.11991738953303
    },
    "properties": {},
    "sites": [
      {
        "species": [{ "element": "Ga", "occu": 1 }],
        "abc": [0.0, 0.0, 0.0],
        "properties": { "magmom": -0.058 },
        "label": "Ga",
        "xyz": [0.0, 0.0, 0.0]
      },
      {
        "species": [{ "element": "Co", "occu": 1 }],
        "abc": [0.597936999999999, 0.597936999999999, 0.597936999999999],
        "properties": { "magmom": 1.426 },
        "label": "Co",
        "xyz": [17.96110725495697, 0.0, 1.335089279961998]
      },
      {
        "species": [{ "element": "Co", "occu": 1 }],
        "abc": [0.200187999999999, 0.200187999999999, 0.200187999999999],
        "properties": { "magmom": 1.722999999999999 },
        "label": "Co",
        "xyz": [6.01333943066797, 0.0, 0.4469849712879978]
      },
      {
        "species": [{ "element": "Co", "occu": 1 }],
        "abc": [0.799812, 0.799812, 0.799812],
        "properties": { "magmom": 1.722999999999999 },
        "label": "Co",
        "xyz": [24.025121569332, 0.0, 1.7858410287120001]
      },
      {
        "species": [{ "element": "Co", "occu": 1 }],
        "abc": [0.402063, 0.402063, 0.402063],
        "properties": { "magmom": 1.426 },
        "label": "Co",
        "xyz": [12.077353745043, 0.0, 0.8977367200380001]
      }
    ]
  },
  "task_ids": null,
  "uncorrected_energy_per_atom": null,
  "energy_per_atom": -12.798050453,
  "formation_energy_per_atom": 0.07788964100000001,
  "energy_above_hull": 0.156132022999999,
  "is_stable": false,
  "equilibrium_reaction_energy_per_atom": null,
  "decomposes_to": null,
  "xas": null,
  "grain_boundaries": null,
  "band_gap": 0.0,
  "cbm": null,
  "vbm": null,
  "efermi": 5.40088679,
  "is_gap_direct": null,
  "is_metal": null,
  "es_source_calc_id": null,
  "bandstructure": null,
  "dos": null,
  "dos_energy_up": null,
  "dos_energy_down": null,
  "is_magnetic": null,
  "ordering": null,
  "total_magnetization": 6.134047,
  "total_magnetization_normalized_vol": null,
  "total_magnetization_normalized_formula_units": null,
  "num_magnetic_sites": null,
  "num_unique_magnetic_sites": null,
  "types_of_magnetic_species": null,
  "bulk_modulus": null,
  "shear_modulus": null,
  "universal_anisotropy": null,
  "homogeneous_poisson": null,
  "e_total": null,
  "e_ionic": null,
  "e_electronic": null,
  "n": null,
  "e_ij_max": null,
  "weighted_surface_energy_EV_PER_ANG2": null,
  "weighted_surface_energy": null,
  "weighted_work_function": null,
  "surface_anisotropy": null,
  "shape_factor": null,
  "has_reconstructed": null,
  "possible_species": null,
  "has_props": null,
  "theoretical": null,
  "database_IDs": null,
  "fields_not_requested": [
    "builder_meta",
    "nsites",
    "elements",
    "nelements",
    "composition",
    "composition_reduced",
    "chemsys",
    "symmetry",
    "property_name",
    "deprecated",
    "deprecation_reasons",
    "last_updated",
    "origins",
    "warnings",
    "task_ids",
    "uncorrected_energy_per_atom",
    "equilibrium_reaction_energy_per_atom",
    "decomposes_to",
    "xas",
    "grain_boundaries",
    "cbm",
    "vbm",
    "is_gap_direct",
    "is_metal",
    "es_source_calc_id",
    "bandstructure",
    "dos",
    "dos_energy_up",
    "dos_energy_down",
    "is_magnetic",
    "ordering",
    "total_magnetization_normalized_vol",
    "total_magnetization_normalized_formula_units",
    "num_magnetic_sites",
    "num_unique_magnetic_sites",
    "types_of_magnetic_species",
    "bulk_modulus",
    "shear_modulus",
    "universal_anisotropy",
    "homogeneous_poisson",
    "e_total",
    "e_ionic",
    "e_electronic",
    "n",
    "e_ij_max",
    "weighted_surface_energy_EV_PER_ANG2",
    "weighted_surface_energy",
    "weighted_work_function",
    "surface_anisotropy",
    "shape_factor",
    "has_reconstructed",
    "possible_species",
    "has_props",
    "theoretical",
    "database_IDs"
  ]
}
