{
  "builder_meta": null,
  "nsites": null,
  "elements": null,
  "nelements": null,
  "composition": null,
  "composition_reduced": null,
  "formula_pretty": "GaCu2",
  "formula_anonymous": "AB2",
  "chemsys": null,
  "volume": 39.48134355972199,
  "density": 8.277808375454896,
  "density_atomic": 13.160447853240663,
  "symmetry": null,
  "property_name": null,
  "material_id": "mp-2281971",
  "deprecated": null,
  "deprecation_reasons": null,
  "last_updated": null,
  "origins": null,
  "warnings": null,
  "structure": {
    "@module": "pymatgen.core.structure",
    "@class": "Structure",
    "charge": 0,
    "lattice": {
      "matrix": [
        [0.0, -2.588473, 0.0],
        [-4.174444, 0.0, 0.0],
        [2.087222, 0.0, -3.653841]
      ],
      "pbc": [true, true, true],
      "a": 2.588473,
      "b": 4.174444,
      "c": 4.207974540151711,
      "alpha": 119.7367578952628,
      "beta": 90.0,
      "gamma": 90.0,
      "volume": 39.48134355972199
    },
    "properties": {},
    "sites": [
      {
        "species": [{ "element": "Ga", "occu": 1 }],
        "abc": [0.5, 0.5, 0.0],
        "properties": { "magmom": 0.0 },
        "label": "Ga",
        "xyz": [-2.087222, -1.2942365, 0.0]
      },
      {
        "species": [{ "element": "Cu", "occu": 1 }],
        "abc": [1e-6, 0.165794, 0.331588999999999],
        "properties": { "magmom": -0.0 },
        "label": "Cu",
        "xyz": [
          2.087221998015032e-6, -2.5884729999999998e-6, -1.2115734833489964
        ]
      },
      {
        "species": [{ "element": "Cu", "occu": 1 }],
        "abc": [0.0, 0.834206, 0.668411],
        "properties": { "magmom": -0.0 },
        "label": "Cu",
        "xyz": [-2.0872240872220003, 0.0, -2.442267516651]
      }
    ]
  },
  "task_ids": null,
  "uncorrected_energy_per_atom": null,
  "energy_per_atom": -11.034007630059527,
  "formation_energy_per_atom": 0.011448353273806,
  "energy_above_hull": 0.12847292928571302,
  "is_stable": false,
  "equilibrium_reaction_energy_per_atom": null,
  "decomposes_to": null,
  "xas": null,
  "grain_boundaries": null,
  "band_gap": 0.0,
  "cbm": null,
  "vbm": null,
  "efermi": 6.42505939,
  "is_gap_direct": null,
  "is_metal": null,
  "es_source_calc_id": null,
  "bandstructure": null,
  "dos": null,
  "dos_energy_up": null,
  "dos_energy_down": null,
  "is_magnetic": null,
  "ordering": null,
  "total_magnetization": 1.3200000000000002e-5,
  "total_magnetization_normalized_vol": null,
  "total_magnetization_normalized_formula_units": null,
  "num_magnetic_sites": null,
  "num_unique_magnetic_sites": null,
  "types_of_magnetic_species": null,
  "bulk_modulus": null,
  "shear_modulus": null,
  "universal_anisotropy": null,
  "homogeneous_poisson": null,
  "e_total": null,
  "e_ionic": null,
  "e_electronic": null,
  "n": null,
  "e_ij_max": null,
  "weighted_surface_energy_EV_PER_ANG2": null,
  "weighted_surface_energy": null,
  "weighted_work_function": null,
  "surface_anisotropy": null,
  "shape_factor": null,
  "has_reconstructed": null,
  "possible_species": null,
  "has_props": null,
  "theoretical": null,
  "database_IDs": null,
  "fields_not_requested": [
    "builder_meta",
    "nsites",
    "elements",
    "nelements",
    "composition",
    "composition_reduced",
    "chemsys",
    "symmetry",
    "property_name",
    "deprecated",
    "deprecation_reasons",
    "last_updated",
    "origins",
    "warnings",
    "task_ids",
    "uncorrected_energy_per_atom",
    "equilibrium_reaction_energy_per_atom",
    "decomposes_to",
    "xas",
    "grain_boundaries",
    "cbm",
    "vbm",
    "is_gap_direct",
    "is_metal",
    "es_source_calc_id",
    "bandstructure",
    "dos",
    "dos_energy_up",
    "dos_energy_down",
    "is_magnetic",
    "ordering",
    "total_magnetization_normalized_vol",
    "total_magnetization_normalized_formula_units",
    "num_magnetic_sites",
    "num_unique_magnetic_sites",
    "types_of_magnetic_species",
    "bulk_modulus",
    "shear_modulus",
    "universal_anisotropy",
    "homogeneous_poisson",
    "e_total",
    "e_ionic",
    "e_electronic",
    "n",
    "e_ij_max",
    "weighted_surface_energy_EV_PER_ANG2",
    "weighted_surface_energy",
    "weighted_work_function",
    "surface_anisotropy",
    "shape_factor",
    "has_reconstructed",
    "possible_species",
    "has_props",
    "theoretical",
    "database_IDs"
  ]
}
