{
  "builder_meta": null,
  "nsites": null,
  "elements": null,
  "nelements": null,
  "composition": null,
  "composition_reduced": null,
  "formula_pretty": "GaCu4",
  "formula_anonymous": "AB4",
  "chemsys": null,
  "volume": 63.33772850607317,
  "density": 8.491940587885672,
  "density_atomic": 12.667545701214634,
  "symmetry": null,
  "property_name": null,
  "material_id": "mp-1224832",
  "deprecated": null,
  "deprecation_reasons": null,
  "last_updated": null,
  "origins": null,
  "warnings": null,
  "structure": {
    "@module": "pymatgen.core.structure",
    "@class": "Structure",
    "charge": 0,
    "lattice": {
      "matrix": [
        [10.412004, -1.326961, 0.0],
        [10.412004, 1.326961, 0.0],
        [10.242889, 0.0, 2.292134]
      ],
      "pbc": [true, true, true],
      "a": 10.496220881419035,
      "b": 10.496220881419035,
      "c": 10.49622090755892,
      "alpha": 14.525850962265784,
      "beta": 14.525850962265784,
      "gamma": 14.525849248453342,
      "volume": 63.33772850607317
    },
    "properties": {},
    "sites": [
      {
        "species": [{ "element": "Ga", "occu": 1 }],
        "abc": [0.0, 0.0, 0.0],
        "properties": { "magmom": 0.0 },
        "label": "Ga",
        "xyz": [0.0, 0.0, 0.0]
      },
      {
        "species": [{ "element": "Cu", "occu": 1 }],
        "abc": [0.598488999999999, 0.598488999999999, 0.598488999999999],
        "properties": { "magmom": -0.0 },
        "label": "Cu",
        "xyz": [18.59319611863297, 0.0, 1.3718169855259978]
      },
      {
        "species": [{ "element": "Cu", "occu": 1 }],
        "abc": [0.199517, 0.199517, 0.199517],
        "properties": { "magmom": 0.0 },
        "label": "Cu",
        "xyz": [6.1983740887489995, 0.0, 0.457319699278]
      },
      {
        "species": [{ "element": "Cu", "occu": 1 }],
        "abc": [0.800483, 0.800483, 0.800483],
        "properties": { "magmom": 0.0 },
        "label": "Cu",
        "xyz": [24.868522911251, 0.0, 1.8348143007219997]
      },
      {
        "species": [{ "element": "Cu", "occu": 1 }],
        "abc": [0.401511, 0.401511, 0.401511],
        "properties": { "magmom": -0.0 },
        "label": "Cu",
        "xyz": [12.473700881367, 0.0, 0.9203170144739999]
      }
    ]
  },
  "task_ids": null,
  "uncorrected_energy_per_atom": null,
  "energy_per_atom": -10.946040845999999,
  "formation_energy_per_atom": 0.019951143999999,
  "energy_above_hull": 0.101542984000001,
  "is_stable": false,
  "equilibrium_reaction_energy_per_atom": null,
  "decomposes_to": null,
  "xas": null,
  "grain_boundaries": null,
  "band_gap": 0.0,
  "cbm": null,
  "vbm": null,
  "efermi": 6.23136484,
  "is_gap_direct": null,
  "is_metal": null,
  "es_source_calc_id": null,
  "bandstructure": null,
  "dos": null,
  "dos_energy_up": null,
  "dos_energy_down": null,
  "is_magnetic": null,
  "ordering": null,
  "total_magnetization": 0.0047407,
  "total_magnetization_normalized_vol": null,
  "total_magnetization_normalized_formula_units": null,
  "num_magnetic_sites": null,
  "num_unique_magnetic_sites": null,
  "types_of_magnetic_species": null,
  "bulk_modulus": null,
  "shear_modulus": null,
  "universal_anisotropy": null,
  "homogeneous_poisson": null,
  "e_total": null,
  "e_ionic": null,
  "e_electronic": null,
  "n": null,
  "e_ij_max": null,
  "weighted_surface_energy_EV_PER_ANG2": null,
  "weighted_surface_energy": null,
  "weighted_work_function": null,
  "surface_anisotropy": null,
  "shape_factor": null,
  "has_reconstructed": null,
  "possible_species": null,
  "has_props": null,
  "theoretical": null,
  "database_IDs": null,
  "fields_not_requested": [
    "builder_meta",
    "nsites",
    "elements",
    "nelements",
    "composition",
    "composition_reduced",
    "chemsys",
    "symmetry",
    "property_name",
    "deprecated",
    "deprecation_reasons",
    "last_updated",
    "origins",
    "warnings",
    "task_ids",
    "uncorrected_energy_per_atom",
    "equilibrium_reaction_energy_per_atom",
    "decomposes_to",
    "xas",
    "grain_boundaries",
    "cbm",
    "vbm",
    "is_gap_direct",
    "is_metal",
    "es_source_calc_id",
    "bandstructure",
    "dos",
    "dos_energy_up",
    "dos_energy_down",
    "is_magnetic",
    "ordering",
    "total_magnetization_normalized_vol",
    "total_magnetization_normalized_formula_units",
    "num_magnetic_sites",
    "num_unique_magnetic_sites",
    "types_of_magnetic_species",
    "bulk_modulus",
    "shear_modulus",
    "universal_anisotropy",
    "homogeneous_poisson",
    "e_total",
    "e_ionic",
    "e_electronic",
    "n",
    "e_ij_max",
    "weighted_surface_energy_EV_PER_ANG2",
    "weighted_surface_energy",
    "weighted_work_function",
    "surface_anisotropy",
    "shape_factor",
    "has_reconstructed",
    "possible_species",
    "has_props",
    "theoretical",
    "database_IDs"
  ]
}
