{
  "builder_meta": null,
  "nsites": null,
  "elements": null,
  "nelements": null,
  "composition": null,
  "composition_reduced": null,
  "formula_pretty": "GaCu3",
  "formula_anonymous": "AB3",
  "chemsys": null,
  "volume": 96.77811763491269,
  "density": 8.934656355892503,
  "density_atomic": 12.097264704364086,
  "symmetry": null,
  "property_name": null,
  "material_id": "mp-865798",
  "deprecated": null,
  "deprecation_reasons": null,
  "last_updated": null,
  "origins": null,
  "warnings": null,
  "structure": {
    "@module": "pymatgen.core.structure",
    "@class": "Structure",
    "charge": 0,
    "lattice": {
      "matrix": [
        [5.15739309, 8.386e-5, -0.0],
        [-2.57862342, 4.46647458, 1e-8],
        [-0.0, 1e-8, 4.20124485]
      ],
      "pbc": [true, true, true],
      "a": 5.157393090681788,
      "b": 5.157392162319894,
      "c": 4.20124485,
      "alpha": 89.9999997707975,
      "beta": 89.9999999999978,
      "gamma": 119.99813626267431,
      "volume": 96.77811763491269
    },
    "properties": {},
    "sites": [
      {
        "species": [{ "element": "Ga", "occu": 1 }],
        "abc": [0.33333389, 0.66666766, 0.74999985],
        "properties": { "magmom": -0.0 },
        "label": "Ga",
        "xyz": [4.9059516223026733e-5, 2.9776821175780968, 3.1509330139799494]
      },
      {
        "species": [{ "element": "Ga", "occu": 1 }],
        "abc": [0.66666682, 0.33333328, 0.249999299999999],
        "properties": { "magmom": -0.0 },
        "label": "Ga",
        "xyz": [2.578721848326856, 1.4888805309675406, 1.0503082749619337]
      },
      {
        "species": [{ "element": "Cu", "occu": 1 }],
        "abc": [0.16539095, 0.33077866, 0.24999902000000002],
        "properties": { "magmom": 0.0 },
        "label": "Cu",
        "xyz": [3.2543166318399486e-5, 1.4774283486815198, 1.0503070985878336]
      },
      {
        "species": [{ "element": "Cu", "occu": 1 }],
        "abc": [0.66921964, 0.834608199999999, 0.24999915],
        "properties": { "magmom": 0.0 },
        "label": "Cu",
        "xyz": [1.2992884959842463, 3.727812432818553, 1.0503076497879595]
      },
      {
        "species": [{ "element": "Cu", "occu": 1 }],
        "abc": [0.16538632, 0.83461358, 0.24999907000000002],
        "properties": { "magmom": 0.0 },
        "label": "Cu",
        "xyz": [-1.2991918600895145, 3.727794210989582, 1.0503073136884253]
      },
      {
        "species": [{ "element": "Cu", "occu": 1 }],
        "abc": [0.83460745, 0.66922147, 0.74999994],
        "properties": { "magmom": 0.0 },
        "label": "Cu",
        "xyz": [2.578728539783693, 2.9891306818259884, 3.150933392117524]
      },
      {
        "species": [{ "element": "Cu", "occu": 1 }],
        "abc": [0.33078037, 0.1653927, 0.74999981],
        "properties": { "magmom": 0.0 },
        "label": "Cu",
        "xyz": [1.2794789048286093, 0.7387500370093922, 3.150932840917406]
      },
      {
        "species": [{ "element": "Cu", "occu": 1 }],
        "abc": [0.83461456, 0.16538744, 0.74999986],
        "properties": { "magmom": 0.0 },
        "label": "Cu",
        "xyz": [3.8779634383995454, 0.7387687948882754, 3.1509330509795954]
      }
    ]
  },
  "task_ids": null,
  "uncorrected_energy_per_atom": null,
  "energy_per_atom": -11.0977807875,
  "formation_energy_per_atom": -0.101989799999999,
  "energy_above_hull": 0.0,
  "is_stable": true,
  "equilibrium_reaction_energy_per_atom": null,
  "decomposes_to": null,
  "xas": null,
  "grain_boundaries": null,
  "band_gap": 0.0,
  "cbm": null,
  "vbm": null,
  "efermi": 6.58544968,
  "is_gap_direct": null,
  "is_metal": null,
  "es_source_calc_id": null,
  "bandstructure": null,
  "dos": null,
  "dos_energy_up": null,
  "dos_energy_down": null,
  "is_magnetic": null,
  "ordering": null,
  "total_magnetization": 0.0,
  "total_magnetization_normalized_vol": null,
  "total_magnetization_normalized_formula_units": null,
  "num_magnetic_sites": null,
  "num_unique_magnetic_sites": null,
  "types_of_magnetic_species": null,
  "bulk_modulus": null,
  "shear_modulus": null,
  "universal_anisotropy": null,
  "homogeneous_poisson": null,
  "e_total": null,
  "e_ionic": null,
  "e_electronic": null,
  "n": null,
  "e_ij_max": null,
  "weighted_surface_energy_EV_PER_ANG2": null,
  "weighted_surface_energy": null,
  "weighted_work_function": null,
  "surface_anisotropy": null,
  "shape_factor": null,
  "has_reconstructed": null,
  "possible_species": null,
  "has_props": null,
  "theoretical": null,
  "database_IDs": null,
  "fields_not_requested": [
    "builder_meta",
    "nsites",
    "elements",
    "nelements",
    "composition",
    "composition_reduced",
    "chemsys",
    "symmetry",
    "property_name",
    "deprecated",
    "deprecation_reasons",
    "last_updated",
    "origins",
    "warnings",
    "task_ids",
    "uncorrected_energy_per_atom",
    "equilibrium_reaction_energy_per_atom",
    "decomposes_to",
    "xas",
    "grain_boundaries",
    "cbm",
    "vbm",
    "is_gap_direct",
    "is_metal",
    "es_source_calc_id",
    "bandstructure",
    "dos",
    "dos_energy_up",
    "dos_energy_down",
    "is_magnetic",
    "ordering",
    "total_magnetization_normalized_vol",
    "total_magnetization_normalized_formula_units",
    "num_magnetic_sites",
    "num_unique_magnetic_sites",
    "types_of_magnetic_species",
    "bulk_modulus",
    "shear_modulus",
    "universal_anisotropy",
    "homogeneous_poisson",
    "e_total",
    "e_ionic",
    "e_electronic",
    "n",
    "e_ij_max",
    "weighted_surface_energy_EV_PER_ANG2",
    "weighted_surface_energy",
    "weighted_work_function",
    "surface_anisotropy",
    "shape_factor",
    "has_reconstructed",
    "possible_species",
    "has_props",
    "theoretical",
    "database_IDs"
  ]
}
