{
  "builder_meta": null,
  "nsites": null,
  "elements": null,
  "nelements": null,
  "composition": null,
  "composition_reduced": null,
  "formula_pretty": "GaF3",
  "formula_anonymous": "AB3",
  "chemsys": null,
  "volume": 91.53311636032313,
  "density": 4.597691979853057,
  "density_atomic": 11.441639545040392,
  "symmetry": null,
  "property_name": null,
  "material_id": "mp-588",
  "deprecated": null,
  "deprecation_reasons": null,
  "last_updated": null,
  "origins": null,
  "warnings": null,
  "structure": {
    "@module": "pymatgen.core.structure",
    "@class": "Structure",
    "charge": 0,
    "lattice": {
      "matrix": [
        [4.37044186, 0.04844387, 2.8641316100000003],
        [1.572176569999999, 4.07815785, 2.8641316100000003],
        [0.06976261, 0.04844387, 5.22485823]
      ],
      "pbc": [true, true, true],
      "a": 5.225548654407691,
      "b": 5.225548822485039,
      "c": 5.225548502683075,
      "alpha": 55.993924401199315,
      "beta": 55.99392480331404,
      "gamma": 55.993937123700974,
      "volume": 91.53311636032312
    },
    "properties": {},
    "sites": [
      {
        "species": [{ "element": "Ga", "occu": 1 }],
        "abc": [0.5, 0.5, 0.5],
        "properties": { "magmom": 0.0 },
        "label": "Ga",
        "xyz": [3.006190519999999, 2.087522795, 5.476560725000001]
      },
      {
        "species": [{ "element": "Ga", "occu": 1 }],
        "abc": [-0.0, 0.0, 0.0],
        "properties": { "magmom": 0.0 },
        "label": "Ga",
        "xyz": [0.0, 0.0, 0.0]
      },
      {
        "species": [{ "element": "F", "occu": 1 }],
        "abc": [0.25, 0.62384664, 0.87615336],
        "properties": { "magmom": 0.0 },
        "label": "F",
        "xyz": [2.1345302808350937, 2.5987002990840273, 7.080588877654443]
      },
      {
        "species": [{ "element": "F", "occu": 1 }],
        "abc": [0.62384664, 0.87615336, 0.25],
        "properties": { "magmom": 0.0 },
        "label": "F",
        "xyz": [4.121393906495125, 3.615424215915973, 5.6024119725]
      },
      {
        "species": [{ "element": "F", "occu": 1 }],
        "abc": [0.12384664000000001, 0.75, 0.37615336],
        "properties": { "magmom": 0.0 },
        "label": "F",
        "xyz": [1.7466384073302192, 3.0828403225, 4.468159762654443]
      },
      {
        "species": [{ "element": "F", "occu": 1 }],
        "abc": [0.37615336, 0.12384664000000001, 0.75],
        "properties": { "magmom": 0.0 },
        "label": "F",
        "xyz": [1.890987133504874, 0.5596213740840272, 5.350709477500001]
      },
      {
        "species": [{ "element": "F", "occu": 1 }],
        "abc": [0.75, 0.37615336, 0.12384664000000001],
        "properties": { "magmom": 0.0 },
        "label": "F",
        "xyz": [3.8778507591649047, 1.576345290915973, 3.872532572345557]
      },
      {
        "species": [{ "element": "F", "occu": 1 }],
        "abc": [0.87615336, 0.25, 0.62384664],
        "properties": { "magmom": 0.0 },
        "label": "F",
        "xyz": [4.265742632669779, 1.0922052675, 6.484961687345557]
      }
    ]
  },
  "task_ids": null,
  "uncorrected_energy_per_atom": null,
  "energy_per_atom": -8.06428374875,
  "formation_energy_per_atom": -2.85906879875,
  "energy_above_hull": 0.0,
  "is_stable": true,
  "equilibrium_reaction_energy_per_atom": null,
  "decomposes_to": null,
  "xas": null,
  "grain_boundaries": null,
  "band_gap": 4.7051,
  "cbm": null,
  "vbm": null,
  "efermi": -2.685972409999999,
  "is_gap_direct": null,
  "is_metal": null,
  "es_source_calc_id": null,
  "bandstructure": null,
  "dos": null,
  "dos_energy_up": null,
  "dos_energy_down": null,
  "is_magnetic": null,
  "ordering": null,
  "total_magnetization": 0.0,
  "total_magnetization_normalized_vol": null,
  "total_magnetization_normalized_formula_units": null,
  "num_magnetic_sites": null,
  "num_unique_magnetic_sites": null,
  "types_of_magnetic_species": null,
  "bulk_modulus": null,
  "shear_modulus": null,
  "universal_anisotropy": null,
  "homogeneous_poisson": null,
  "e_total": null,
  "e_ionic": null,
  "e_electronic": null,
  "n": null,
  "e_ij_max": null,
  "weighted_surface_energy_EV_PER_ANG2": null,
  "weighted_surface_energy": null,
  "weighted_work_function": null,
  "surface_anisotropy": null,
  "shape_factor": null,
  "has_reconstructed": null,
  "possible_species": null,
  "has_props": null,
  "theoretical": null,
  "database_IDs": null,
  "fields_not_requested": [
    "builder_meta",
    "nsites",
    "elements",
    "nelements",
    "composition",
    "composition_reduced",
    "chemsys",
    "symmetry",
    "property_name",
    "deprecated",
    "deprecation_reasons",
    "last_updated",
    "origins",
    "warnings",
    "task_ids",
    "uncorrected_energy_per_atom",
    "equilibrium_reaction_energy_per_atom",
    "decomposes_to",
    "xas",
    "grain_boundaries",
    "cbm",
    "vbm",
    "is_gap_direct",
    "is_metal",
    "es_source_calc_id",
    "bandstructure",
    "dos",
    "dos_energy_up",
    "dos_energy_down",
    "is_magnetic",
    "ordering",
    "total_magnetization_normalized_vol",
    "total_magnetization_normalized_formula_units",
    "num_magnetic_sites",
    "num_unique_magnetic_sites",
    "types_of_magnetic_species",
    "bulk_modulus",
    "shear_modulus",
    "universal_anisotropy",
    "homogeneous_poisson",
    "e_total",
    "e_ionic",
    "e_electronic",
    "n",
    "e_ij_max",
    "weighted_surface_energy_EV_PER_ANG2",
    "weighted_surface_energy",
    "weighted_work_function",
    "surface_anisotropy",
    "shape_factor",
    "has_reconstructed",
    "possible_species",
    "has_props",
    "theoretical",
    "database_IDs"
  ]
}
