{
  "builder_meta": null,
  "nsites": null,
  "elements": null,
  "nelements": null,
  "composition": null,
  "composition_reduced": null,
  "formula_pretty": "GaFe4",
  "formula_anonymous": "AB4",
  "chemsys": null,
  "volume": 60.87309235963084,
  "density": 7.995469971563826,
  "density_atomic": 12.174618471926168,
  "symmetry": null,
  "property_name": null,
  "material_id": "mp-1224889",
  "deprecated": null,
  "deprecation_reasons": null,
  "last_updated": null,
  "origins": null,
  "warnings": null,
  "structure": {
    "@module": "pymatgen.core.structure",
    "@class": "Structure",
    "charge": 0,
    "lattice": {
      "matrix": [
        [0.0, 2.067546, 9.947205],
        [1.479922999999999, 0.0, 9.947205],
        [1.479922999999999, 2.067546, 0.0]
      ],
      "pbc": [true, true, true],
      "a": 10.159804809844578,
      "b": 10.056692269228188,
      "c": 2.5426204097436558,
      "alpha": 85.08643571032435,
      "beta": 80.47492547161343,
      "gamma": 14.438638818062259,
      "volume": 60.87309235963079
    },
    "properties": {},
    "sites": [
      {
        "species": [{ "element": "Ga", "occu": 1 }],
        "abc": [0.0, 0.0, 0.0],
        "properties": { "magmom": -0.081 },
        "label": "Ga",
        "xyz": [0.0, 0.0, 0.0]
      },
      {
        "species": [{ "element": "Fe", "occu": 1 }],
        "abc": [0.398371, 0.398371, 0.601629],
        "properties": { "magmom": 2.222 },
        "label": "Fe",
        "xyz": [1.479922999999999, 2.067546, 7.9253560061099995]
      },
      {
        "species": [{ "element": "Fe", "occu": 1 }],
        "abc": [0.799894999999999, 0.799894999999999, 0.200104999999999],
        "properties": { "magmom": 2.414 },
        "label": "Fe",
        "xyz": [1.479922999999996, 2.067545999999996, 15.913439086949982]
      },
      {
        "species": [{ "element": "Fe", "occu": 1 }],
        "abc": [0.200104999999999, 0.200104999999999, 0.799894999999999],
        "properties": { "magmom": 2.414 },
        "label": "Fe",
        "xyz": [1.479922999999996, 2.067545999999996, 3.98097091304998]
      },
      {
        "species": [{ "element": "Fe", "occu": 1 }],
        "abc": [0.601629, 0.601629, 0.398371],
        "properties": { "magmom": 2.222 },
        "label": "Fe",
        "xyz": [1.479922999999999, 2.067546, 11.96905399389]
      }
    ]
  },
  "task_ids": null,
  "uncorrected_energy_per_atom": null,
  "energy_per_atom": -7.383184214000001,
  "formation_energy_per_atom": -0.001548041499999,
  "energy_above_hull": 0.10670605600000001,
  "is_stable": false,
  "equilibrium_reaction_energy_per_atom": null,
  "decomposes_to": null,
  "xas": null,
  "grain_boundaries": null,
  "band_gap": 0.0,
  "cbm": null,
  "vbm": null,
  "efermi": 5.29162584,
  "is_gap_direct": null,
  "is_metal": null,
  "es_source_calc_id": null,
  "bandstructure": null,
  "dos": null,
  "dos_energy_up": null,
  "dos_energy_down": null,
  "is_magnetic": null,
  "ordering": null,
  "total_magnetization": 9.0802937,
  "total_magnetization_normalized_vol": null,
  "total_magnetization_normalized_formula_units": null,
  "num_magnetic_sites": null,
  "num_unique_magnetic_sites": null,
  "types_of_magnetic_species": null,
  "bulk_modulus": null,
  "shear_modulus": null,
  "universal_anisotropy": null,
  "homogeneous_poisson": null,
  "e_total": null,
  "e_ionic": null,
  "e_electronic": null,
  "n": null,
  "e_ij_max": null,
  "weighted_surface_energy_EV_PER_ANG2": null,
  "weighted_surface_energy": null,
  "weighted_work_function": null,
  "surface_anisotropy": null,
  "shape_factor": null,
  "has_reconstructed": null,
  "possible_species": null,
  "has_props": null,
  "theoretical": null,
  "database_IDs": null,
  "fields_not_requested": [
    "builder_meta",
    "nsites",
    "elements",
    "nelements",
    "composition",
    "composition_reduced",
    "chemsys",
    "symmetry",
    "property_name",
    "deprecated",
    "deprecation_reasons",
    "last_updated",
    "origins",
    "warnings",
    "task_ids",
    "uncorrected_energy_per_atom",
    "equilibrium_reaction_energy_per_atom",
    "decomposes_to",
    "xas",
    "grain_boundaries",
    "cbm",
    "vbm",
    "is_gap_direct",
    "is_metal",
    "es_source_calc_id",
    "bandstructure",
    "dos",
    "dos_energy_up",
    "dos_energy_down",
    "is_magnetic",
    "ordering",
    "total_magnetization_normalized_vol",
    "total_magnetization_normalized_formula_units",
    "num_magnetic_sites",
    "num_unique_magnetic_sites",
    "types_of_magnetic_species",
    "bulk_modulus",
    "shear_modulus",
    "universal_anisotropy",
    "homogeneous_poisson",
    "e_total",
    "e_ionic",
    "e_electronic",
    "n",
    "e_ij_max",
    "weighted_surface_energy_EV_PER_ANG2",
    "weighted_surface_energy",
    "weighted_work_function",
    "surface_anisotropy",
    "shape_factor",
    "has_reconstructed",
    "possible_species",
    "has_props",
    "theoretical",
    "database_IDs"
  ]
}
