{"builder_meta": null, "nsites": null, "elements": null, "nelements": null, "composition": null, "composition_reduced": null, "formula_pretty": "GaFe2", "formula_anonymous": "AB2", "chemsys": null, "volume": 37.990293342597276, "density": 7.929482696342631, "density_atomic": 12.663431114199092, "symmetry": null, "property_name": null, "material_id": "mp-1224880", "deprecated": null, "deprecation_reasons": null, "last_updated": null, "origins": null, "warnings": null, "structure": {"@module": "pymatgen.core.structure", "@class": "Structure", "charge": 0, "lattice": {"matrix": [[0.0, 2.117364, 5.949376], [1.507911, 0.0, 5.949376], [1.507911, 2.117364, 0.0]], "pbc": [true, true, true], "a": 6.314927164890502, "b": 6.137497077253642, "c": 2.5994279933125672, "alpha": 81.80618209714608, "beta": 74.1503120885982, "gamma": 24.04350581425573, "volume": 37.990293342597276}, "properties": {}, "sites": [{"species": [{"element": "Ga", "occu": 1}], "abc": [0.0, 0.0, 0.0], "properties": {"magmom": -0.091}, "label": "Ga", "xyz": [0.0, 0.0, 0.0]}, {"species": [{"element": "Fe", "occu": 1}], "abc": [0.330032999999999, 0.330032999999999, 0.669967], "properties": {"magmom": 2.342}, "label": "Fe", "xyz": [1.5079109999999987, 2.1173639999999976, 3.9269808188159883]}, {"species": [{"element": "Fe", "occu": 1}], "abc": [0.669967, 0.669967, 0.330032999999999], "properties": {"magmom": 2.342}, "label": "Fe", "xyz": [1.5079109999999987, 2.1173639999999976, 7.971771181184]}]}, "task_ids": null, "uncorrected_energy_per_atom": null, "energy_per_atom": -6.662912706666667, "formation_energy_per_atom": -0.006866559166667001, "energy_above_hull": 0.14560598302083402, "is_stable": false, "equilibrium_reaction_energy_per_atom": null, "decomposes_to": null, "xas": null, "grain_boundaries": null, "band_gap": 0.0, "cbm": null, "vbm": null, "efermi": 5.38693505, "is_gap_direct": null, "is_metal": null, "es_source_calc_id": null, "bandstructure": null, "dos": null, "dos_energy_up": null, "dos_energy_down": null, "is_magnetic": null, "ordering": null, "total_magnetization": 4.5535696, "total_magnetization_normalized_vol": null, "total_magnetization_normalized_formula_units": null, "num_magnetic_sites": null, "num_unique_magnetic_sites": null, "types_of_magnetic_species": null, "bulk_modulus": null, "shear_modulus": null, "universal_anisotropy": null, "homogeneous_poisson": null, "e_total": null, "e_ionic": null, "e_electronic": null, "n": null, "e_ij_max": null, "weighted_surface_energy_EV_PER_ANG2": null, "weighted_surface_energy": null, "weighted_work_function": null, "surface_anisotropy": null, "shape_factor": null, "has_reconstructed": null, "possible_species": null, "has_props": null, "theoretical": null, "database_IDs": null, "fields_not_requested": ["builder_meta", "nsites", "elements", "nelements", "composition", "composition_reduced", "chemsys", "symmetry", "property_name", "deprecated", "deprecation_reasons", "last_updated", "origins", "warnings", "task_ids", "uncorrected_energy_per_atom", "equilibrium_reaction_energy_per_atom", "decomposes_to", "xas", "grain_boundaries", "cbm", "vbm", "is_gap_direct", "is_metal", "es_source_calc_id", "bandstructure", "dos", "dos_energy_up", "dos_energy_down", "is_magnetic", "ordering", "total_magnetization_normalized_vol", "total_magnetization_normalized_formula_units", "num_magnetic_sites", "num_unique_magnetic_sites", "types_of_magnetic_species", "bulk_modulus", "shear_modulus", "universal_anisotropy", "homogeneous_poisson", "e_total", "e_ionic", "e_electronic", "n", "e_ij_max", "weighted_surface_energy_EV_PER_ANG2", "weighted_surface_energy", "weighted_work_function", "surface_anisotropy", "shape_factor", "has_reconstructed", "possible_species", "has_props", "theoretical", "database_IDs"]}