{
  "builder_meta": null,
  "nsites": null,
  "elements": null,
  "nelements": null,
  "composition": null,
  "composition_reduced": null,
  "formula_pretty": "GaHg3",
  "formula_anonymous": "AB3",
  "chemsys": null,
  "volume": 202.63275160376887,
  "density": 11.005529467702244,
  "density_atomic": 25.32909395047111,
  "symmetry": null,
  "property_name": null,
  "material_id": "mp-1184024",
  "deprecated": null,
  "deprecation_reasons": null,
  "last_updated": null,
  "origins": null,
  "warnings": null,
  "structure": {
    "@module": "pymatgen.core.structure",
    "@class": "Structure",
    "charge": 0,
    "lattice": {
      "matrix": [
        [3.322291, -5.754377, 0.0],
        [3.322291, 5.754377, 0.0],
        [0.0, 0.0, 5.299607]
      ],
      "pbc": [true, true, true],
      "a": 6.644582164952887,
      "b": 6.644582164952887,
      "c": 5.299607,
      "alpha": 90.0,
      "beta": 90.0,
      "gamma": 120.00000164242009,
      "volume": 202.63275160376887
    },
    "properties": {},
    "sites": [
      {
        "species": [{ "element": "Ga", "occu": 1 }],
        "abc": [0.333333, 0.666667, 0.75],
        "properties": { "magmom": 0.0 },
        "label": "Ga",
        "xyz": [3.322291, 1.918129502918, 3.97470525]
      },
      {
        "species": [{ "element": "Ga", "occu": 1 }],
        "abc": [0.666667, 0.333333, 0.25],
        "properties": { "magmom": 0.0 },
        "label": "Ga",
        "xyz": [3.322291, -1.918129502918, 1.32490175]
      },
      {
        "species": [{ "element": "Hg", "occu": 1 }],
        "abc": [0.169081999999999, 0.338163999999999, 0.25],
        "properties": { "magmom": -0.0 },
        "label": "Hg",
        "xyz": [1.6852188205859933, 0.972961571914, 1.32490175]
      },
      {
        "species": [{ "element": "Hg", "occu": 1 }],
        "abc": [0.661836, 0.830917999999999, 0.25],
        "properties": { "magmom": -0.0 },
        "label": "Hg",
        "xyz": [4.959363179413996, 0.9729615719139946, 1.32490175]
      },
      {
        "species": [{ "element": "Hg", "occu": 1 }],
        "abc": [0.169081999999999, 0.830917999999999, 0.25],
        "properties": { "magmom": 0.0 },
        "label": "Hg",
        "xyz": [3.3222909999999937, 3.808453856172, 1.32490175]
      },
      {
        "species": [{ "element": "Hg", "occu": 1 }],
        "abc": [0.830917999999999, 0.661836, 0.75],
        "properties": { "magmom": -0.0 },
        "label": "Hg",
        "xyz": [4.959363179413996, -0.9729615719139946, 3.97470525]
      },
      {
        "species": [{ "element": "Hg", "occu": 1 }],
        "abc": [0.338163999999999, 0.169081999999999, 0.75],
        "properties": { "magmom": -0.0 },
        "label": "Hg",
        "xyz": [1.6852188205859933, -0.972961571914, 3.97470525]
      },
      {
        "species": [{ "element": "Hg", "occu": 1 }],
        "abc": [0.830917999999999, 0.169081999999999, 0.75],
        "properties": { "magmom": 0.0 },
        "label": "Hg",
        "xyz": [3.3222909999999937, -3.808453856172, 3.97470525]
      }
    ]
  },
  "task_ids": null,
  "uncorrected_energy_per_atom": null,
  "energy_per_atom": -39.82147113375,
  "formation_energy_per_atom": 0.065077745624996,
  "energy_above_hull": 0.065077745624996,
  "is_stable": false,
  "equilibrium_reaction_energy_per_atom": null,
  "decomposes_to": null,
  "xas": null,
  "grain_boundaries": null,
  "band_gap": 0.0,
  "cbm": null,
  "vbm": null,
  "efermi": 1.946358539999999,
  "is_gap_direct": null,
  "is_metal": null,
  "es_source_calc_id": null,
  "bandstructure": null,
  "dos": null,
  "dos_energy_up": null,
  "dos_energy_down": null,
  "is_magnetic": null,
  "ordering": null,
  "total_magnetization": 0.0015321,
  "total_magnetization_normalized_vol": null,
  "total_magnetization_normalized_formula_units": null,
  "num_magnetic_sites": null,
  "num_unique_magnetic_sites": null,
  "types_of_magnetic_species": null,
  "bulk_modulus": null,
  "shear_modulus": null,
  "universal_anisotropy": null,
  "homogeneous_poisson": null,
  "e_total": null,
  "e_ionic": null,
  "e_electronic": null,
  "n": null,
  "e_ij_max": null,
  "weighted_surface_energy_EV_PER_ANG2": null,
  "weighted_surface_energy": null,
  "weighted_work_function": null,
  "surface_anisotropy": null,
  "shape_factor": null,
  "has_reconstructed": null,
  "possible_species": null,
  "has_props": null,
  "theoretical": null,
  "database_IDs": null,
  "fields_not_requested": [
    "builder_meta",
    "nsites",
    "elements",
    "nelements",
    "composition",
    "composition_reduced",
    "chemsys",
    "symmetry",
    "property_name",
    "deprecated",
    "deprecation_reasons",
    "last_updated",
    "origins",
    "warnings",
    "task_ids",
    "uncorrected_energy_per_atom",
    "equilibrium_reaction_energy_per_atom",
    "decomposes_to",
    "xas",
    "grain_boundaries",
    "cbm",
    "vbm",
    "is_gap_direct",
    "is_metal",
    "es_source_calc_id",
    "bandstructure",
    "dos",
    "dos_energy_up",
    "dos_energy_down",
    "is_magnetic",
    "ordering",
    "total_magnetization_normalized_vol",
    "total_magnetization_normalized_formula_units",
    "num_magnetic_sites",
    "num_unique_magnetic_sites",
    "types_of_magnetic_species",
    "bulk_modulus",
    "shear_modulus",
    "universal_anisotropy",
    "homogeneous_poisson",
    "e_total",
    "e_ionic",
    "e_electronic",
    "n",
    "e_ij_max",
    "weighted_surface_energy_EV_PER_ANG2",
    "weighted_surface_energy",
    "weighted_work_function",
    "surface_anisotropy",
    "shape_factor",
    "has_reconstructed",
    "possible_species",
    "has_props",
    "theoretical",
    "database_IDs"
  ]
}
