{
  "builder_meta": null,
  "nsites": null,
  "elements": null,
  "nelements": null,
  "composition": null,
  "composition_reduced": null,
  "formula_pretty": "GaI2",
  "formula_anonymous": "AB2",
  "chemsys": null,
  "volume": 1479.4413319299028,
  "density": 4.357624036057486,
  "density_atomic": 41.09559255360841,
  "symmetry": null,
  "property_name": null,
  "material_id": "mp-570738",
  "deprecated": null,
  "deprecation_reasons": null,
  "last_updated": null,
  "origins": null,
  "warnings": null,
  "structure": {
    "@module": "pymatgen.core.structure",
    "@class": "Structure",
    "charge": 0,
    "lattice": {
      "matrix": [
        [13.5318795, -0.14781349, -6.9301421],
        [-11.2974726, 7.4498788, -6.93014206],
        [-0.045229450000000004, -0.14781331, 15.20317566]
      ],
      "pbc": [true, true, true],
      "a": 15.203962679398376,
      "b": 15.203961663139685,
      "c": 15.203961478068038,
      "alpha": 117.28012627729827,
      "beta": 117.28011830687052,
      "gamma": 117.2801187428948,
      "volume": 1479.4413319299028
    },
    "properties": {},
    "sites": [
      {
        "species": [{ "element": "Ga", "occu": 1 }],
        "abc": [0.25076419, 0.94114958, 0.10227347],
        "properties": { "magmom": -0.0 },
        "label": "Ga",
        "xyz": [-7.243926563354096, 6.959266593454095, -6.705250229632993]
      },
      {
        "species": [{ "element": "Ga", "occu": 1 }],
        "abc": [0.29582757, 0.10480316, 0.914343999999999],
        "properties": { "magmom": 0.0 },
        "label": "Ga",
        "xyz": [2.7777369252935995, 0.6018913211784488, 11.124504561332419]
      },
      {
        "species": [{ "element": "Ga", "occu": 1 }],
        "abc": [0.79582757, 0.414344, 0.60480316],
        "properties": { "magmom": 0.0 },
        "label": "Ga",
        "xyz": [6.060647878758354, 2.8797805739692213, 0.8082677522967483]
      },
      {
        "species": [{ "element": "Ga", "occu": 1 }],
        "abc": [0.10480316, 0.914343999999999, 0.29582757],
        "properties": { "magmom": 0.0 },
        "label": "Ga",
        "xyz": [-8.924972672921108, 6.752533408353607, -2.565316091256723]
      },
      {
        "species": [{ "element": "Ga", "occu": 1 }],
        "abc": [0.44115058, 0.75076419, 0.60227347],
        "properties": { "magmom": -0.0 },
        "label": "Ga",
        "xyz": [-2.5393818734687765, 5.438870180908962, 0.896330662609488]
      },
      {
        "species": [{ "element": "Ga", "occu": 1 }],
        "abc": [0.75076419, 0.60227347, 0.44115058],
        "properties": { "magmom": -0.0 },
        "label": "Ga",
        "xyz": [3.335129528862603, 4.310683353426293, -2.6698534661096645]
      },
      {
        "species": [{ "element": "Ga", "occu": 1 }],
        "abc": [0.60227347, 0.44115058, 0.75076419],
        "properties": { "magmom": -0.0 },
        "label": "Ga",
        "xyz": [3.132048780669361, 3.086521270061225, 4.182922940396134]
      },
      {
        "species": [{ "element": "Ga", "occu": 1 }],
        "abc": [0.414344, 0.60480316, 0.79582757],
        "properties": { "magmom": 0.0 },
        "label": "Ga",
        "xyz": [-1.2618888922313525, 4.326830699845491, 5.036271726361637]
      },
      {
        "species": [{ "element": "Ga", "occu": 1 }],
        "abc": [0.94114958, 0.10227347, 0.25076419],
        "properties": { "magmom": -0.0 },
        "label": "Ga",
        "xyz": [11.568749056610292, 0.5857440669702328, -3.4186579730168516]
      },
      {
        "species": [{ "element": "Ga", "occu": 1 }],
        "abc": [0.60480316, 0.79582757, 0.414344],
        "properties": { "magmom": 0.0 },
        "label": "Ga",
        "xyz": [-0.8254572352911619, 5.778175318237248, -3.4072253410265914]
      },
      {
        "species": [{ "element": "Ga", "occu": 1 }],
        "abc": [0.10227347, 0.25076419, 0.94114958],
        "properties": { "magmom": -0.0 },
        "label": "Ga",
        "xyz": [-1.4916169713704601, 1.7139309897201518, 11.861861246654303]
      },
      {
        "species": [{ "element": "Ga", "occu": 1 }],
        "abc": [0.914343999999999, 0.29582757, 0.10480316],
        "properties": { "magmom": 0.0 },
        "label": "Ga",
        "xyz": [9.025948773863345, 2.053235862519896, -6.793320082443903]
      },
      {
        "species": [{ "element": "I", "occu": 1 }],
        "abc": [0.14717659, 0.55806567, 0.21855888],
        "properties": { "magmom": 0.0 },
        "label": "I",
        "xyz": [-4.323041032659753, 4.1034610070439035, -1.5646400097096582]
      },
      {
        "species": [{ "element": "I", "occu": 1 }],
        "abc": [0.0425049, 0.45208549000000003, 0.38683153000000003],
        "properties": { "magmom": -0.0 },
        "label": "I",
        "xyz": [-4.549748428517582, 3.304520461265847, 2.453486035505561]
      },
      {
        "species": [{ "element": "I", "occu": 1 }],
        "abc": [0.59710143, 0.40637225, 0.5003310400000001],
        "properties": { "magmom": -0.0 },
        "label": "I",
        "xyz": [3.4662955425052084, 2.865208776812867, 0.6524055095154484]
      },
      {
        "species": [{ "element": "I", "occu": 1 }],
        "abc": [0.21855888, 0.14717659, 0.55806567],
        "properties": { "magmom": 0.0 },
        "label": "I",
        "xyz": [1.2695479316105447, 0.981652272993933, 5.949771638602368]
      },
      {
        "species": [{ "element": "I", "occu": 1 }],
        "abc": [0.34301244000000003, 0.59947211, 0.0923247],
        "properties": { "magmom": 0.0 },
        "label": "I",
        "xyz": [-2.1350925275106203, 4.401645878108695, -5.127923202718869]
      },
      {
        "species": [{ "element": "I", "occu": 1 }],
        "abc": [0.00033104, 0.90637225, 0.09710143],
        "properties": { "magmom": -0.0 },
        "label": "I",
        "xyz": [-10.239627910658784, 6.737961594231537, -4.807332508855425]
      },
      {
        "species": [{ "element": "I", "occu": 1 }],
        "abc": [0.38683153000000003, 0.0425049, 0.45208549000000003],
        "properties": { "magmom": -0.0 },
        "label": "I",
        "xyz": [4.733912129579215, 0.19265318223490835, 3.897772650900666]
      },
      {
        "species": [{ "element": "I", "occu": 1 }],
        "abc": [0.95208549, 0.5425049, 0.88683153],
        "properties": { "magmom": -0.0 },
        "label": "I",
        "xyz": [6.714460978918156, 3.769779170489195, 3.1249317691223375]
      },
      {
        "species": [{ "element": "I", "occu": 1 }],
        "abc": [0.64717659, 0.71855888, 0.05806567],
        "properties": { "magmom": 0.0 },
        "label": "I",
        "xyz": [0.6369900944962356, 5.248932257369477, -8.581958268542339]
      },
      {
        "species": [{ "element": "I", "occu": 1 }],
        "abc": [0.5003310400000001, 0.59710143, 0.40637225],
        "properties": { "magmom": -0.0 },
        "label": "I",
        "xyz": [0.006302305181099446, 4.314310380264307, -1.427214238270496]
      },
      {
        "species": [{ "element": "I", "occu": 1 }],
        "abc": [0.0923247, 0.34301244000000003, 0.59947211],
        "properties": { "magmom": 0.0 },
        "label": "I",
        "xyz": [-2.652960720911134, 2.453144311940285, 6.0969315637137464]
      },
      {
        "species": [{ "element": "I", "occu": 1 }],
        "abc": [0.84301244, 0.592324699999999, 0.09947211],
        "properties": { "magmom": 0.0 },
        "label": "I",
        "xyz": [4.711271617702131, 4.273435312544753, -8.434798356313756]
      },
      {
        "species": [{ "element": "I", "occu": 1 }],
        "abc": [0.55806567, 0.21855888, 0.14717659],
        "properties": { "magmom": 0.0 },
        "label": "I",
        "xyz": [5.075857725021501, 1.5239928734094428, -3.1445669302964]
      },
      {
        "species": [{ "element": "I", "occu": 1 }],
        "abc": [0.45208549000000003, 0.38683153000000003, 0.0425049],
        "properties": { "magmom": -0.0 },
        "label": "I",
        "xyz": [1.7454252901380718, 2.8087408905030853, -5.167604682124547]
      },
      {
        "species": [{ "element": "I", "occu": 1 }],
        "abc": [0.90637225, 0.09710143, 0.00033104],
        "properties": { "magmom": -0.0 },
        "label": "I",
        "xyz": [11.167904351540928, 0.5893709071768891, -6.949182332855384]
      },
      {
        "species": [{ "element": "I", "occu": 1 }],
        "abc": [0.40637225, 0.5003310400000001, 0.59710143],
        "properties": { "magmom": -0.0 },
        "label": "I",
        "xyz": [-0.1805024654587436, 3.5790787685922663, 2.7942553049029257]
      },
      {
        "species": [{ "element": "I", "occu": 1 }],
        "abc": [0.09947211, 0.84301244, 0.592324699999999],
        "properties": { "magmom": 0.0 },
        "label": "I",
        "xyz": [-8.204655856630815, 6.178083710653751, 2.47366463702273]
      },
      {
        "species": [{ "element": "I", "occu": 1 }],
        "abc": [0.59947211, 0.0923247, 0.34301244000000003],
        "properties": { "magmom": 0.0 },
        "label": "I",
        "xyz": [7.053434323573168, 0.5484959563820196, 0.42062818495149745]
      },
      {
        "species": [{ "element": "I", "occu": 1 }],
        "abc": [0.09710143, 0.00033104, 0.90637225],
        "properties": { "magmom": -0.0 },
        "label": "I",
        "xyz": [1.2692302163454185, -0.1458605757389862, 13.104515667858688]
      },
      {
        "species": [{ "element": "I", "occu": 1 }],
        "abc": [0.05806567, 0.64717659, 0.71855888],
        "properties": { "magmom": 0.0 },
        "label": "I",
        "xyz": [-6.558222166294686, 4.706591701882711, 6.036947823854779]
      },
      {
        "species": [{ "element": "I", "occu": 1 }],
        "abc": [0.5425049, 0.88683153, 0.95208549],
        "properties": { "magmom": -0.0 },
        "label": "I",
        "xyz": [-2.72090627909721, 6.385866964227591, 4.569218414673731]
      },
      {
        "species": [{ "element": "I", "occu": 1 }],
        "abc": [0.592324699999999, 0.09947211, 0.84301244],
        "properties": { "magmom": 0.0 },
        "label": "I",
        "xyz": [6.853354039080093, 0.5288931232324887, 8.0222160152374]
      },
      {
        "species": [{ "element": "I", "occu": 1 }],
        "abc": [0.88683153, 0.95208549, 0.5425049],
        "properties": { "magmom": -0.0 },
        "label": "I",
        "xyz": [1.2198004663787576, 6.881646399287053, -4.49615892951439]
      },
      {
        "species": [{ "element": "I", "occu": 1 }],
        "abc": [0.71855888, 0.05806567, 0.64717659],
        "properties": { "magmom": 0.0 },
        "label": "I",
        "xyz": [9.038185420770743, 0.23070819419509192, 4.457020893283871]
      }
    ]
  },
  "task_ids": null,
  "uncorrected_energy_per_atom": null,
  "energy_per_atom": -2.753105004444444,
  "formation_energy_per_atom": -0.727731253611111,
  "energy_above_hull": 0.0,
  "is_stable": true,
  "equilibrium_reaction_energy_per_atom": null,
  "decomposes_to": null,
  "xas": null,
  "grain_boundaries": null,
  "band_gap": 2.4743999999999993,
  "cbm": null,
  "vbm": null,
  "efermi": 0.21643643,
  "is_gap_direct": null,
  "is_metal": null,
  "es_source_calc_id": null,
  "bandstructure": null,
  "dos": null,
  "dos_energy_up": null,
  "dos_energy_down": null,
  "is_magnetic": null,
  "ordering": null,
  "total_magnetization": 9e-7,
  "total_magnetization_normalized_vol": null,
  "total_magnetization_normalized_formula_units": null,
  "num_magnetic_sites": null,
  "num_unique_magnetic_sites": null,
  "types_of_magnetic_species": null,
  "bulk_modulus": null,
  "shear_modulus": null,
  "universal_anisotropy": null,
  "homogeneous_poisson": null,
  "e_total": null,
  "e_ionic": null,
  "e_electronic": null,
  "n": null,
  "e_ij_max": null,
  "weighted_surface_energy_EV_PER_ANG2": null,
  "weighted_surface_energy": null,
  "weighted_work_function": null,
  "surface_anisotropy": null,
  "shape_factor": null,
  "has_reconstructed": null,
  "possible_species": null,
  "has_props": null,
  "theoretical": null,
  "database_IDs": null,
  "fields_not_requested": [
    "builder_meta",
    "nsites",
    "elements",
    "nelements",
    "composition",
    "composition_reduced",
    "chemsys",
    "symmetry",
    "property_name",
    "deprecated",
    "deprecation_reasons",
    "last_updated",
    "origins",
    "warnings",
    "task_ids",
    "uncorrected_energy_per_atom",
    "equilibrium_reaction_energy_per_atom",
    "decomposes_to",
    "xas",
    "grain_boundaries",
    "cbm",
    "vbm",
    "is_gap_direct",
    "is_metal",
    "es_source_calc_id",
    "bandstructure",
    "dos",
    "dos_energy_up",
    "dos_energy_down",
    "is_magnetic",
    "ordering",
    "total_magnetization_normalized_vol",
    "total_magnetization_normalized_formula_units",
    "num_magnetic_sites",
    "num_unique_magnetic_sites",
    "types_of_magnetic_species",
    "bulk_modulus",
    "shear_modulus",
    "universal_anisotropy",
    "homogeneous_poisson",
    "e_total",
    "e_ionic",
    "e_electronic",
    "n",
    "e_ij_max",
    "weighted_surface_energy_EV_PER_ANG2",
    "weighted_surface_energy",
    "weighted_work_function",
    "surface_anisotropy",
    "shape_factor",
    "has_reconstructed",
    "possible_species",
    "has_props",
    "theoretical",
    "database_IDs"
  ]
}
