{
  "builder_meta": null,
  "nsites": null,
  "elements": null,
  "nelements": null,
  "composition": null,
  "composition_reduced": null,
  "formula_pretty": "GaI3",
  "formula_anonymous": "AB3",
  "chemsys": null,
  "volume": 713.5099372572107,
  "density": 4.1931707844143045,
  "density_atomic": 44.59437107857567,
  "symmetry": null,
  "property_name": null,
  "material_id": "mp-30954",
  "deprecated": null,
  "deprecation_reasons": null,
  "last_updated": null,
  "origins": null,
  "warnings": null,
  "structure": {
    "@module": "pymatgen.core.structure",
    "@class": "Structure",
    "charge": 0,
    "lattice": {
      "matrix": [
        [6.30382026, 0.0, 0.0],
        [0.0, 9.31712473, -3.02560922],
        [0.0, -0.02542444, 12.1565223]
      ],
      "pbc": [true, true, true],
      "a": 6.30382026,
      "b": 9.79607698961817,
      "c": 12.15654888661032,
      "alpha": 108.11032803329505,
      "beta": 90.0,
      "gamma": 90.0,
      "volume": 713.5099372572106
    },
    "properties": {},
    "sites": [
      {
        "species": [{ "element": "Ga", "occu": 1 }],
        "abc": [0.00424444, 0.80528538, 0.95202466],
        "properties": { "magmom": 0.0 },
        "label": "Ga",
        "xyz": [0.026756186864354402, 7.478739634858758, 9.136830138980713]
      },
      {
        "species": [{ "element": "Ga", "occu": 1 }],
        "abc": [0.50424444, 0.19471462, 0.54797534],
        "properties": { "magmom": 0.0 },
        "label": "Ga",
        "xyz": [3.1786663168643545, 1.800248435141243, 6.0723440910192865]
      },
      {
        "species": [{ "element": "Ga", "occu": 1 }],
        "abc": [0.99575556, 0.19471462, 0.04797534],
        "properties": { "magmom": 0.0 },
        "label": "Ga",
        "xyz": [6.277064073135645, 1.812960655141243, -0.005917058980714485]
      },
      {
        "species": [{ "element": "Ga", "occu": 1 }],
        "abc": [0.49575556, 0.80528538, 0.45202466],
        "properties": { "magmom": 0.0 },
        "label": "Ga",
        "xyz": [3.1251539431356457, 7.491451854858758, 3.058568988980715]
      },
      {
        "species": [{ "element": "I", "occu": 1 }],
        "abc": [0.76581272, 0.66883298, 0.79169934],
        "properties": { "magmom": 0.0 },
        "label": "I",
        "xyz": [4.827545739701708, 6.211471785829726, 7.600683450677206]
      },
      {
        "species": [{ "element": "I", "occu": 1 }],
        "abc": [0.26581272, 0.33116702000000003, 0.70830066],
        "properties": { "magmom": 0.0 },
        "label": "I",
        "xyz": [1.6756356097017073, 3.0675162841702743, 7.608490779322794]
      },
      {
        "species": [{ "element": "I", "occu": 1 }],
        "abc": [0.23418728, 0.33116702000000003, 0.20829966],
        "properties": { "magmom": 0.0 },
        "label": "I",
        "xyz": [1.4762745202982928, 3.0802285295947143, 1.5302174728004934]
      },
      {
        "species": [{ "element": "I", "occu": 1 }],
        "abc": [0.73418728, 0.66883298, 0.29169834],
        "properties": { "magmom": 0.0 },
        "label": "I",
        "xyz": [4.628184650298293, 6.2241840312541665, 1.5224101441549065]
      },
      {
        "species": [{ "element": "I", "occu": 1 }],
        "abc": [0.24845557000000001, 0.67694726, 0.04829095],
        "properties": { "magmom": -0.0 },
        "label": "I",
        "xyz": [1.5662192558758483, 6.3059742866909225, -1.4611278607465525]
      },
      {
        "species": [{ "element": "I", "occu": 1 }],
        "abc": [0.7484555700000001, 0.32305274, 0.45170905],
        "properties": { "magmom": -0.0 },
        "label": "I",
        "xyz": [4.718129385875849, 2.998438223309078, 4.513779790746553]
      },
      {
        "species": [{ "element": "I", "occu": 1 }],
        "abc": [0.75154443, 0.32305274, 0.9517090500000001],
        "properties": { "magmom": -0.0 },
        "label": "I",
        "xyz": [4.737601004124152, 2.985726003309078, 10.592040940746553]
      },
      {
        "species": [{ "element": "I", "occu": 1 }],
        "abc": [0.25154443, 0.67694726, 0.54829095],
        "properties": { "magmom": -0.0 },
        "label": "I",
        "xyz": [1.5856908741241518, 6.2932620666909225, 4.617133289253449]
      },
      {
        "species": [{ "element": "I", "occu": 1 }],
        "abc": [0.77746563, 0.99869233, 0.11494457],
        "properties": { "magmom": -0.0 },
        "label": "I",
        "xyz": [4.901003589847664, 9.302018604181029, -1.6243264931223718]
      },
      {
        "species": [{ "element": "I", "occu": 1 }],
        "abc": [0.27746563, 0.00130767, 0.38505543000000003],
        "properties": { "magmom": -0.0 },
        "label": "I",
        "xyz": [1.749093459847664, 0.002393905818969897, 4.676978423122372]
      },
      {
        "species": [{ "element": "I", "occu": 1 }],
        "abc": [0.22253437, 0.00130767, 0.88505543],
        "properties": { "magmom": -0.0 },
        "label": "I",
        "xyz": [1.4028166701523364, -0.0103183141810301, 10.755239573122372]
      },
      {
        "species": [{ "element": "I", "occu": 1 }],
        "abc": [0.72253437, 0.99869233, 0.61494457],
        "properties": { "magmom": -0.0 },
        "label": "I",
        "xyz": [4.554726800152336, 9.28930638418103, 4.453934656877628]
      }
    ]
  },
  "task_ids": null,
  "uncorrected_energy_per_atom": null,
  "energy_per_atom": -2.684162189375001,
  "formation_energy_per_atom": -0.7841287225000011,
  "energy_above_hull": 0.0,
  "is_stable": true,
  "equilibrium_reaction_energy_per_atom": null,
  "decomposes_to": null,
  "xas": null,
  "grain_boundaries": null,
  "band_gap": 2.3721,
  "cbm": null,
  "vbm": null,
  "efermi": -0.37045574000000003,
  "is_gap_direct": null,
  "is_metal": null,
  "es_source_calc_id": null,
  "bandstructure": null,
  "dos": null,
  "dos_energy_up": null,
  "dos_energy_down": null,
  "is_magnetic": null,
  "ordering": null,
  "total_magnetization": 0.0,
  "total_magnetization_normalized_vol": null,
  "total_magnetization_normalized_formula_units": null,
  "num_magnetic_sites": null,
  "num_unique_magnetic_sites": null,
  "types_of_magnetic_species": null,
  "bulk_modulus": null,
  "shear_modulus": null,
  "universal_anisotropy": null,
  "homogeneous_poisson": null,
  "e_total": null,
  "e_ionic": null,
  "e_electronic": null,
  "n": null,
  "e_ij_max": null,
  "weighted_surface_energy_EV_PER_ANG2": null,
  "weighted_surface_energy": null,
  "weighted_work_function": null,
  "surface_anisotropy": null,
  "shape_factor": null,
  "has_reconstructed": null,
  "possible_species": null,
  "has_props": null,
  "theoretical": null,
  "database_IDs": null,
  "fields_not_requested": [
    "builder_meta",
    "nsites",
    "elements",
    "nelements",
    "composition",
    "composition_reduced",
    "chemsys",
    "symmetry",
    "property_name",
    "deprecated",
    "deprecation_reasons",
    "last_updated",
    "origins",
    "warnings",
    "task_ids",
    "uncorrected_energy_per_atom",
    "equilibrium_reaction_energy_per_atom",
    "decomposes_to",
    "xas",
    "grain_boundaries",
    "cbm",
    "vbm",
    "is_gap_direct",
    "is_metal",
    "es_source_calc_id",
    "bandstructure",
    "dos",
    "dos_energy_up",
    "dos_energy_down",
    "is_magnetic",
    "ordering",
    "total_magnetization_normalized_vol",
    "total_magnetization_normalized_formula_units",
    "num_magnetic_sites",
    "num_unique_magnetic_sites",
    "types_of_magnetic_species",
    "bulk_modulus",
    "shear_modulus",
    "universal_anisotropy",
    "homogeneous_poisson",
    "e_total",
    "e_ionic",
    "e_electronic",
    "n",
    "e_ij_max",
    "weighted_surface_energy_EV_PER_ANG2",
    "weighted_surface_energy",
    "weighted_work_function",
    "surface_anisotropy",
    "shape_factor",
    "has_reconstructed",
    "possible_species",
    "has_props",
    "theoretical",
    "database_IDs"
  ]
}
