{
  "builder_meta": null,
  "nsites": null,
  "elements": null,
  "nelements": null,
  "composition": null,
  "composition_reduced": null,
  "formula_pretty": "GaO2",
  "formula_anonymous": "AB2",
  "chemsys": null,
  "volume": 128.2602513596585,
  "density": 5.267821356476768,
  "density_atomic": 10.688354279971541,
  "symmetry": null,
  "property_name": null,
  "material_id": "mp-1212646",
  "deprecated": null,
  "deprecation_reasons": null,
  "last_updated": null,
  "origins": null,
  "warnings": null,
  "structure": {
    "@module": "pymatgen.core.structure",
    "@class": "Structure",
    "charge": 0,
    "lattice": {
      "matrix": [
        [3.051969, 0.0, 0.0],
        [0.0, 4.193384, 0.0],
        [0.0, 0.0, 10.021837]
      ],
      "pbc": [true, true, true],
      "a": 3.051969,
      "b": 4.193384,
      "c": 10.021837,
      "alpha": 90.0,
      "beta": 90.0,
      "gamma": 90.0,
      "volume": 128.2602513596585
    },
    "properties": {},
    "sites": [
      {
        "species": [{ "element": "Ga", "occu": 1 }],
        "abc": [0.25, 0.078435999999999, 0.365482],
        "properties": { "magmom": -0.015 },
        "label": "Ga",
        "xyz": [0.76299225, 0.3289122674239958, 3.6628010304339997]
      },
      {
        "species": [{ "element": "Ga", "occu": 1 }],
        "abc": [0.75, 0.921563999999999, 0.634518],
        "properties": { "magmom": -0.015 },
        "label": "Ga",
        "xyz": [2.2889767500000002, 3.864471732575996, 6.359035969566]
      },
      {
        "species": [{ "element": "Ga", "occu": 1 }],
        "abc": [0.75, 0.578436, 0.134518],
        "properties": { "magmom": -0.015 },
        "label": "Ga",
        "xyz": [2.2889767500000002, 2.4256042674239997, 1.3481174695659999]
      },
      {
        "species": [{ "element": "Ga", "occu": 1 }],
        "abc": [0.25, 0.421564, 0.865482],
        "properties": { "magmom": -0.015 },
        "label": "Ga",
        "xyz": [0.76299225, 1.767779732576, 8.673719530434]
      },
      {
        "species": [{ "element": "O", "occu": 1 }],
        "abc": [0.25, 0.305382999999999, 0.061353],
        "properties": { "magmom": 0.502 },
        "label": "O",
        "xyz": [0.76299225, 1.2805881860719959, 0.6148697654609999]
      },
      {
        "species": [{ "element": "O", "occu": 1 }],
        "abc": [0.75, 0.694616999999999, 0.938647],
        "properties": { "magmom": 0.502 },
        "label": "O",
        "xyz": [2.2889767500000002, 2.912795813927996, 9.406967234539]
      },
      {
        "species": [{ "element": "O", "occu": 1 }],
        "abc": [0.75, 0.805383, 0.438646999999999],
        "properties": { "magmom": 0.502 },
        "label": "O",
        "xyz": [2.2889767500000002, 3.377280186072, 4.39604873453899]
      },
      {
        "species": [{ "element": "O", "occu": 1 }],
        "abc": [0.25, 0.194616999999999, 0.561353],
        "properties": { "magmom": 0.502 },
        "label": "O",
        "xyz": [0.76299225, 0.8161038139279959, 5.625788265461]
      },
      {
        "species": [{ "element": "O", "occu": 1 }],
        "abc": [0.25, 0.848422999999999, 0.192997],
        "properties": { "magmom": 0.371 },
        "label": "O",
        "xyz": [0.76299225, 3.557763433431996, 1.9341844754889999]
      },
      {
        "species": [{ "element": "O", "occu": 1 }],
        "abc": [0.75, 0.151577, 0.807002999999999],
        "properties": { "magmom": 0.371 },
        "label": "O",
        "xyz": [2.2889767500000002, 0.6356205665679999, 8.08765252451099]
      },
      {
        "species": [{ "element": "O", "occu": 1 }],
        "abc": [0.75, 0.348423, 0.307002999999999],
        "properties": { "magmom": 0.371 },
        "label": "O",
        "xyz": [2.2889767500000002, 1.4610714334319999, 3.07673402451099]
      },
      {
        "species": [{ "element": "O", "occu": 1 }],
        "abc": [0.25, 0.651577, 0.692997],
        "properties": { "magmom": 0.371 },
        "label": "O",
        "xyz": [0.76299225, 2.732312566568, 6.945102975488999]
      }
    ]
  },
  "task_ids": null,
  "uncorrected_energy_per_atom": null,
  "energy_per_atom": -5.920513411666666,
  "formation_energy_per_atom": -1.612507400833332,
  "energy_above_hull": 0.278323156666667,
  "is_stable": false,
  "equilibrium_reaction_energy_per_atom": null,
  "decomposes_to": null,
  "xas": null,
  "grain_boundaries": null,
  "band_gap": 0.0,
  "cbm": null,
  "vbm": null,
  "efermi": 1.72972872,
  "is_gap_direct": null,
  "is_metal": null,
  "es_source_calc_id": null,
  "bandstructure": null,
  "dos": null,
  "dos_energy_up": null,
  "dos_energy_down": null,
  "is_magnetic": null,
  "ordering": null,
  "total_magnetization": 4.000367,
  "total_magnetization_normalized_vol": null,
  "total_magnetization_normalized_formula_units": null,
  "num_magnetic_sites": null,
  "num_unique_magnetic_sites": null,
  "types_of_magnetic_species": null,
  "bulk_modulus": null,
  "shear_modulus": null,
  "universal_anisotropy": null,
  "homogeneous_poisson": null,
  "e_total": null,
  "e_ionic": null,
  "e_electronic": null,
  "n": null,
  "e_ij_max": null,
  "weighted_surface_energy_EV_PER_ANG2": null,
  "weighted_surface_energy": null,
  "weighted_work_function": null,
  "surface_anisotropy": null,
  "shape_factor": null,
  "has_reconstructed": null,
  "possible_species": null,
  "has_props": null,
  "theoretical": null,
  "database_IDs": null,
  "fields_not_requested": [
    "builder_meta",
    "nsites",
    "elements",
    "nelements",
    "composition",
    "composition_reduced",
    "chemsys",
    "symmetry",
    "property_name",
    "deprecated",
    "deprecation_reasons",
    "last_updated",
    "origins",
    "warnings",
    "task_ids",
    "uncorrected_energy_per_atom",
    "equilibrium_reaction_energy_per_atom",
    "decomposes_to",
    "xas",
    "grain_boundaries",
    "cbm",
    "vbm",
    "is_gap_direct",
    "is_metal",
    "es_source_calc_id",
    "bandstructure",
    "dos",
    "dos_energy_up",
    "dos_energy_down",
    "is_magnetic",
    "ordering",
    "total_magnetization_normalized_vol",
    "total_magnetization_normalized_formula_units",
    "num_magnetic_sites",
    "num_unique_magnetic_sites",
    "types_of_magnetic_species",
    "bulk_modulus",
    "shear_modulus",
    "universal_anisotropy",
    "homogeneous_poisson",
    "e_total",
    "e_ionic",
    "e_electronic",
    "n",
    "e_ij_max",
    "weighted_surface_energy_EV_PER_ANG2",
    "weighted_surface_energy",
    "weighted_work_function",
    "surface_anisotropy",
    "shape_factor",
    "has_reconstructed",
    "possible_species",
    "has_props",
    "theoretical",
    "database_IDs"
  ]
}
