{
  "builder_meta": null,
  "nsites": null,
  "elements": null,
  "nelements": null,
  "composition": null,
  "composition_reduced": null,
  "formula_pretty": "GaO3",
  "formula_anonymous": "AB3",
  "chemsys": null,
  "volume": 174.064301526761,
  "density": 4.492148013174966,
  "density_atomic": 10.879018845422562,
  "symmetry": null,
  "property_name": null,
  "material_id": "mp-1181293",
  "deprecated": null,
  "deprecation_reasons": null,
  "last_updated": null,
  "origins": null,
  "warnings": null,
  "structure": {
    "@module": "pymatgen.core.structure",
    "@class": "Structure",
    "charge": 0,
    "lattice": {
      "matrix": [
        [-3.517357999999999, 3.517357999999999, 3.517357999999999],
        [3.517357999999999, -3.517357999999999, 3.517357999999999],
        [3.517357999999999, 3.517357999999999, -3.517357999999999]
      ],
      "pbc": [true, true, true],
      "a": 6.092242764408849,
      "b": 6.092242764408849,
      "c": 6.092242764408849,
      "alpha": 109.47122063449069,
      "beta": 109.47122063449069,
      "gamma": 109.47122063449069,
      "volume": 174.06430152676083
    },
    "properties": {},
    "sites": [
      {
        "species": [{ "element": "Ga", "occu": 1 }],
        "abc": [0.5, 0.0, 0.0],
        "properties": { "magmom": -0.007 },
        "label": "Ga",
        "xyz": [-1.7586789999999994, 1.7586789999999994, 1.7586789999999994]
      },
      {
        "species": [{ "element": "Ga", "occu": 1 }],
        "abc": [0.0, 0.0, 0.5],
        "properties": { "magmom": -0.006 },
        "label": "Ga",
        "xyz": [1.7586789999999994, 1.7586789999999994, -1.7586789999999994]
      },
      {
        "species": [{ "element": "Ga", "occu": 1 }],
        "abc": [0.0, 0.5, 0.0],
        "properties": { "magmom": -0.008 },
        "label": "Ga",
        "xyz": [1.7586789999999994, -1.7586789999999994, 1.7586789999999994]
      },
      {
        "species": [{ "element": "Ga", "occu": 1 }],
        "abc": [0.5, 0.5, 0.5],
        "properties": { "magmom": -0.007 },
        "label": "Ga",
        "xyz": [1.7586789999999994, 1.7586789999999994, 1.7586789999999994]
      },
      {
        "species": [{ "element": "O", "occu": 1 }],
        "abc": [0.479935, 0.14648, 0.333455],
        "properties": { "magmom": 0.786 },
        "label": "O",
        "xyz": [0.0, 2.3457612237799994, 1.0304451996799995]
      },
      {
        "species": [{ "element": "O", "occu": 1 }],
        "abc": [0.186974, 0.8535200000000001, 0.333455],
        "properties": { "magmom": 0.78 },
        "label": "O",
        "xyz": [3.5173615173579993, -1.1716002935779999, 2.4869092829619994]
      },
      {
        "species": [{ "element": "O", "occu": 1 }],
        "abc": [0.813025999999999, 0.14648, 0.666544999999999],
        "properties": { "magmom": 0.78 },
        "label": "O",
        "xyz": [-3.5173579995273485e-6, 4.688958293577992, 1.0304487170379995]
      },
      {
        "species": [{ "element": "O", "occu": 1 }],
        "abc": [0.520065, 0.8535200000000001, 0.666544999999999],
        "properties": { "magmom": 0.786 },
        "label": "O",
        "xyz": [3.517357999999996, 1.1715967762199961, 2.4869128003200025]
      },
      {
        "species": [{ "element": "O", "occu": 1 }],
        "abc": [0.333455, 0.479935, 0.14648],
        "properties": { "magmom": 0.777 },
        "label": "O",
        "xyz": [1.0304451996799995, 1.1102230246251565e-16, 2.345761223779999]
      },
      {
        "species": [{ "element": "O", "occu": 1 }],
        "abc": [0.333455, 0.186974, 0.8535200000000001],
        "properties": { "magmom": 0.77 },
        "label": "O",
        "xyz": [2.4869092829619994, 3.5173615173579993, -1.1716002935779999]
      },
      {
        "species": [{ "element": "O", "occu": 1 }],
        "abc": [0.666544999999999, 0.813025999999999, 0.14648],
        "properties": { "magmom": 0.77 },
        "label": "O",
        "xyz": [1.0304487170379995, -3.517357999638371e-6, 4.688958293577992]
      },
      {
        "species": [{ "element": "O", "occu": 1 }],
        "abc": [0.666544999999999, 0.520065, 0.8535200000000001],
        "properties": { "magmom": 0.777 },
        "label": "O",
        "xyz": [2.4869128003200025, 3.517357999999996, 1.171596776219996]
      },
      {
        "species": [{ "element": "O", "occu": 1 }],
        "abc": [0.14648, 0.333455, 0.479935],
        "properties": { "magmom": 0.786 },
        "label": "O",
        "xyz": [2.3457612237799994, 1.0304451996799995, 2.220446049250313e-16]
      },
      {
        "species": [{ "element": "O", "occu": 1 }],
        "abc": [0.8535200000000001, 0.333455, 0.186974],
        "properties": { "magmom": 0.778 },
        "label": "O",
        "xyz": [-1.1716002935779999, 2.4869092829619994, 3.5173615173579997]
      },
      {
        "species": [{ "element": "O", "occu": 1 }],
        "abc": [0.14648, 0.666544999999999, 0.813025999999999],
        "properties": { "magmom": 0.778 },
        "label": "O",
        "xyz": [4.688958293577992, 1.0304487170379995, -3.5173579995273485e-6]
      },
      {
        "species": [{ "element": "O", "occu": 1 }],
        "abc": [0.8535200000000001, 0.666544999999999, 0.520065],
        "properties": { "magmom": 0.786 },
        "label": "O",
        "xyz": [1.1715967762199961, 2.4869128003200025, 3.517357999999996]
      }
    ]
  },
  "task_ids": null,
  "uncorrected_energy_per_atom": null,
  "energy_per_atom": -5.272595883125,
  "formation_energy_per_atom": -0.804601123749999,
  "energy_above_hull": 0.613521794375,
  "is_stable": false,
  "equilibrium_reaction_energy_per_atom": null,
  "decomposes_to": null,
  "xas": null,
  "grain_boundaries": null,
  "band_gap": 0.0,
  "cbm": null,
  "vbm": null,
  "efermi": 1.07824145,
  "is_gap_direct": null,
  "is_metal": null,
  "es_source_calc_id": null,
  "bandstructure": null,
  "dos": null,
  "dos_energy_up": null,
  "dos_energy_down": null,
  "is_magnetic": null,
  "ordering": null,
  "total_magnetization": 10.897761299999999,
  "total_magnetization_normalized_vol": null,
  "total_magnetization_normalized_formula_units": null,
  "num_magnetic_sites": null,
  "num_unique_magnetic_sites": null,
  "types_of_magnetic_species": null,
  "bulk_modulus": null,
  "shear_modulus": null,
  "universal_anisotropy": null,
  "homogeneous_poisson": null,
  "e_total": null,
  "e_ionic": null,
  "e_electronic": null,
  "n": null,
  "e_ij_max": null,
  "weighted_surface_energy_EV_PER_ANG2": null,
  "weighted_surface_energy": null,
  "weighted_work_function": null,
  "surface_anisotropy": null,
  "shape_factor": null,
  "has_reconstructed": null,
  "possible_species": null,
  "has_props": null,
  "theoretical": null,
  "database_IDs": null,
  "fields_not_requested": [
    "builder_meta",
    "nsites",
    "elements",
    "nelements",
    "composition",
    "composition_reduced",
    "chemsys",
    "symmetry",
    "property_name",
    "deprecated",
    "deprecation_reasons",
    "last_updated",
    "origins",
    "warnings",
    "task_ids",
    "uncorrected_energy_per_atom",
    "equilibrium_reaction_energy_per_atom",
    "decomposes_to",
    "xas",
    "grain_boundaries",
    "cbm",
    "vbm",
    "is_gap_direct",
    "is_metal",
    "es_source_calc_id",
    "bandstructure",
    "dos",
    "dos_energy_up",
    "dos_energy_down",
    "is_magnetic",
    "ordering",
    "total_magnetization_normalized_vol",
    "total_magnetization_normalized_formula_units",
    "num_magnetic_sites",
    "num_unique_magnetic_sites",
    "types_of_magnetic_species",
    "bulk_modulus",
    "shear_modulus",
    "universal_anisotropy",
    "homogeneous_poisson",
    "e_total",
    "e_ionic",
    "e_electronic",
    "n",
    "e_ij_max",
    "weighted_surface_energy_EV_PER_ANG2",
    "weighted_surface_energy",
    "weighted_work_function",
    "surface_anisotropy",
    "shape_factor",
    "has_reconstructed",
    "possible_species",
    "has_props",
    "theoretical",
    "database_IDs"
  ]
}
