{
  "builder_meta": null,
  "nsites": null,
  "elements": null,
  "nelements": null,
  "composition": null,
  "composition_reduced": null,
  "formula_pretty": "GaO5",
  "formula_anonymous": "AB5",
  "chemsys": null,
  "volume": 639.3401535393944,
  "density": 3.110906238877836,
  "density_atomic": 13.319586532070716,
  "symmetry": null,
  "property_name": null,
  "material_id": "mp-1213655",
  "deprecated": null,
  "deprecation_reasons": null,
  "last_updated": null,
  "origins": null,
  "warnings": null,
  "structure": {
    "@module": "pymatgen.core.structure",
    "@class": "Structure",
    "charge": 0,
    "lattice": {
      "matrix": [
        [-2.37965, -4.121675, 0.0],
        [-2.37965, 4.121675, 0.0],
        [0.0, 0.0, -32.592311]
      ],
      "pbc": [true, true, true],
      "a": 4.759300256143228,
      "b": 4.759300256143228,
      "c": 32.592311,
      "alpha": 90.0,
      "beta": 90.0,
      "gamma": 120.0000035606704,
      "volume": 639.3401535393944
    },
    "properties": {},
    "sites": [
      {
        "species": [{ "element": "Ga", "occu": 1 }],
        "abc": [0.666667, 0.333333, 0.656142],
        "properties": { "magmom": -0.013000000000000001 },
        "label": "Ga",
        "xyz": [-2.37965, -1.3738944144499998, -21.385184124162002]
      },
      {
        "species": [{ "element": "Ga", "occu": 1 }],
        "abc": [0.666667, 0.333333, 0.156142],
        "properties": { "magmom": -0.013000000000000001 },
        "label": "Ga",
        "xyz": [-2.37965, -1.3738944144499998, -5.089028624162]
      },
      {
        "species": [{ "element": "Ga", "occu": 1 }],
        "abc": [0.0, 0.0, 0.751282999999999],
        "properties": { "magmom": -0.014 },
        "label": "Ga",
        "xyz": [0.0, 0.0, -24.48604918501297]
      },
      {
        "species": [{ "element": "Ga", "occu": 1 }],
        "abc": [0.0, 0.0, 0.251283],
        "properties": { "magmom": -0.014 },
        "label": "Ga",
        "xyz": [0.0, 0.0, -8.189893685013]
      },
      {
        "species": [{ "element": "Ga", "occu": 1 }],
        "abc": [0.666667, 0.333333, 0.861587999999999],
        "properties": { "magmom": 0.005 },
        "label": "Ga",
        "xyz": [-2.37965, -1.3738944144499998, -28.08114404986797]
      },
      {
        "species": [{ "element": "Ga", "occu": 1 }],
        "abc": [0.666667, 0.333333, 0.361587999999999],
        "properties": { "magmom": -0.008 },
        "label": "Ga",
        "xyz": [-2.37965, -1.3738944144499998, -11.784988549867968]
      },
      {
        "species": [{ "element": "Ga", "occu": 1 }],
        "abc": [0.0, 0.0, 0.998556999999999],
        "properties": { "magmom": -0.015 },
        "label": "Ga",
        "xyz": [0.0, 0.0, -32.54528029522697]
      },
      {
        "species": [{ "element": "Ga", "occu": 1 }],
        "abc": [0.0, 0.0, 0.498557],
        "properties": { "magmom": -0.015 },
        "label": "Ga",
        "xyz": [0.0, 0.0, -16.249124795227]
      },
      {
        "species": [{ "element": "O", "occu": 1 }],
        "abc": [0.333333, 0.666667, 0.641666],
        "properties": { "magmom": -0.002 },
        "label": "O",
        "xyz": [-2.37965, 1.3738944144499998, -20.913377830126]
      },
      {
        "species": [{ "element": "O", "occu": 1 }],
        "abc": [0.333333, 0.666667, 0.141666],
        "properties": { "magmom": -0.002 },
        "label": "O",
        "xyz": [-2.37965, 1.3738944144499998, -4.617222330126]
      },
      {
        "species": [{ "element": "O", "occu": 1 }],
        "abc": [0.333333, 0.666667, 0.884653999999999],
        "properties": { "magmom": 0.111 },
        "label": "O",
        "xyz": [-2.37965, 1.3738944144499998, -28.83291829539397]
      },
      {
        "species": [{ "element": "O", "occu": 1 }],
        "abc": [0.333333, 0.666667, 0.384654],
        "properties": { "magmom": -0.065 },
        "label": "O",
        "xyz": [-2.37965, 1.3738944144499998, -12.536762795394]
      },
      {
        "species": [{ "element": "O", "occu": 1 }],
        "abc": [0.333333, 0.666667, 0.957121],
        "properties": { "magmom": 1.419 },
        "label": "O",
        "xyz": [-2.37965, 1.3738944144499998, -31.194785296631004]
      },
      {
        "species": [{ "element": "O", "occu": 1 }],
        "abc": [0.333333, 0.666667, 0.457121],
        "properties": { "magmom": 1.427 },
        "label": "O",
        "xyz": [-2.37965, 1.3738944144499998, -14.898629796631]
      },
      {
        "species": [{ "element": "O", "occu": 1 }],
        "abc": [0.075457, 0.362859, 0.786566],
        "properties": { "magmom": -0.001 },
        "label": "O",
        "xyz": [-1.0430386693999998, 1.18457763835, -25.636003694026]
      },
      {
        "species": [{ "element": "O", "occu": 1 }],
        "abc": [0.287402, 0.924543, 0.786566],
        "properties": { "magmom": -0.001 },
        "label": "O",
        "xyz": [-2.8840049192499997, 2.626088131175, -25.636003694026]
      },
      {
        "species": [{ "element": "O", "occu": 1 }],
        "abc": [0.287402, 0.362859, 0.286566],
        "properties": { "magmom": -0.0 },
        "label": "O",
        "xyz": [-1.5473935886499999, 0.31100923047499984, -9.339848194026]
      },
      {
        "species": [{ "element": "O", "occu": 1 }],
        "abc": [0.637141, 0.712598, 0.786566],
        "properties": { "magmom": -0.001 },
        "label": "O",
        "xyz": [-3.2119064113499993, 0.3110092304750003, -25.636003694026]
      },
      {
        "species": [{ "element": "O", "occu": 1 }],
        "abc": [0.637141, 0.924543, 0.286566],
        "properties": { "magmom": -0.0 },
        "label": "O",
        "xyz": [-3.7162613305999996, 1.1845776383500004, -9.339848194026]
      },
      {
        "species": [{ "element": "O", "occu": 1 }],
        "abc": [0.075457, 0.712598, 0.286566],
        "properties": { "magmom": -0.0 },
        "label": "O",
        "xyz": [-1.8752950807499997, 2.626088131175, -9.339848194026]
      },
      {
        "species": [{ "element": "O", "occu": 1 }],
        "abc": [0.0, 0.0, 0.697194],
        "properties": { "magmom": 0.619 },
        "label": "O",
        "xyz": [0.0, 0.0, -22.723163675334]
      },
      {
        "species": [{ "element": "O", "occu": 1 }],
        "abc": [0.0, 0.0, 0.197193999999999],
        "properties": { "magmom": 0.623 },
        "label": "O",
        "xyz": [0.0, 0.0, -6.4270081753339685]
      },
      {
        "species": [{ "element": "O", "occu": 1 }],
        "abc": [0.666667, 0.333333, 0.007006],
        "properties": { "magmom": -0.004 },
        "label": "O",
        "xyz": [-2.37965, -1.3738944144499998, -0.22834173086600001]
      },
      {
        "species": [{ "element": "O", "occu": 1 }],
        "abc": [0.666667, 0.333333, 0.507006],
        "properties": { "magmom": -0.004 },
        "label": "O",
        "xyz": [-2.37965, -1.3738944144499998, -16.524497230866]
      },
      {
        "species": [{ "element": "O", "occu": 1 }],
        "abc": [0.661816, 0.948894999999999, 0.869413999999999],
        "properties": { "magmom": 0.069 },
        "label": "O",
        "xyz": [-3.8329284311499974, 1.183246337324996, -28.33621147575397]
      },
      {
        "species": [{ "element": "O", "occu": 1 }],
        "abc": [0.287079, 0.338184, 0.869413999999999],
        "properties": { "magmom": 0.069 },
        "label": "O",
        "xyz": [-1.4879070979499998, 0.21063820087500007, -28.33621147575397]
      },
      {
        "species": [{ "element": "O", "occu": 1 }],
        "abc": [0.287079, 0.948894999999999, 0.369413999999999],
        "properties": { "magmom": -0.073 },
        "label": "O",
        "xyz": [-2.9411855290999975, 2.727790461799996, -12.040055975753969]
      },
      {
        "species": [{ "element": "O", "occu": 1 }],
        "abc": [0.051105, 0.712920999999999, 0.869413999999999],
        "properties": { "magmom": 0.069 },
        "label": "O",
        "xyz": [-1.8181144708999977, 2.7277904617999957, -28.33621147575397]
      },
      {
        "species": [{ "element": "O", "occu": 1 }],
        "abc": [0.051105, 0.338184, 0.369413999999999],
        "properties": { "magmom": -0.074 },
        "label": "O",
        "xyz": [-0.9263715688499998, 1.1832463373249997, -12.040055975753969]
      },
      {
        "species": [{ "element": "O", "occu": 1 }],
        "abc": [0.661816, 0.712920999999999, 0.369413999999999],
        "properties": { "magmom": -0.073 },
        "label": "O",
        "xyz": [-3.2713929020499974, 0.21063820087499607, -12.040055975753969]
      },
      {
        "species": [{ "element": "O", "occu": 1 }],
        "abc": [0.035552, 0.409031, 0.624051999999999],
        "properties": { "magmom": 0.023 },
        "label": "O",
        "xyz": [-1.0579519359499998, 1.5393590573249998, -20.33929686417197]
      },
      {
        "species": [{ "element": "O", "occu": 1 }],
        "abc": [0.37348000000000003, 0.964448, 0.624051999999999],
        "properties": { "magmom": 0.023 },
        "label": "O",
        "xyz": [-3.1838003651999998, 2.4357780313999995, -20.33929686417197]
      },
      {
        "species": [{ "element": "O", "occu": 1 }],
        "abc": [0.37348000000000003, 0.409031, 0.124052],
        "properties": { "magmom": 0.021 },
        "label": "O",
        "xyz": [-1.8621023011499998, 0.14652966792499988, -4.043141364172]
      },
      {
        "species": [{ "element": "O", "occu": 1 }],
        "abc": [0.590969, 0.6265200000000001, 0.624051999999999],
        "properties": { "magmom": 0.023 },
        "label": "O",
        "xyz": [-2.89719769885, 0.14652966792500033, -20.33929686417197]
      },
      {
        "species": [{ "element": "O", "occu": 1 }],
        "abc": [0.590969, 0.964448, 0.124052],
        "properties": { "magmom": 0.021 },
        "label": "O",
        "xyz": [-3.7013480640499994, 1.5393590573249996, -4.043141364172]
      },
      {
        "species": [{ "element": "O", "occu": 1 }],
        "abc": [0.035552, 0.6265200000000001, 0.124052],
        "properties": { "magmom": 0.021 },
        "label": "O",
        "xyz": [-1.5754996348, 2.4357780314000004, -4.043141364172]
      },
      {
        "species": [{ "element": "O", "occu": 1 }],
        "abc": [0.0, 0.0, 0.943106999999999],
        "properties": { "magmom": 0.779 },
        "label": "O",
        "xyz": [0.0, 0.0, -30.73803665027697]
      },
      {
        "species": [{ "element": "O", "occu": 1 }],
        "abc": [0.0, 0.0, 0.443107],
        "properties": { "magmom": 0.782 },
        "label": "O",
        "xyz": [0.0, 0.0, -14.441881150277]
      },
      {
        "species": [{ "element": "O", "occu": 1 }],
        "abc": [0.333333, 0.666667, 0.7694900000000001],
        "properties": { "magmom": 0.0 },
        "label": "O",
        "xyz": [-2.37965, 1.3738944144499998, -25.079457391390005]
      },
      {
        "species": [{ "element": "O", "occu": 1 }],
        "abc": [0.333333, 0.666667, 0.26949],
        "properties": { "magmom": -0.0 },
        "label": "O",
        "xyz": [-2.37965, 1.3738944144499998, -8.783301891390002]
      },
      {
        "species": [{ "element": "O", "occu": 1 }],
        "abc": [0.946584, 0.330866999999999, 0.524772999999999],
        "properties": { "magmom": 0.036000000000000004 },
        "label": "O",
        "xyz": [-3.0398862721499973, -2.537785365975004, -17.10356482040297]
      },
      {
        "species": [{ "element": "O", "occu": 1 }],
        "abc": [0.384283, 0.053416, 0.524772999999999],
        "properties": { "magmom": 0.036000000000000004 },
        "label": "O",
        "xyz": [-1.0415704253499998, -1.363726242225, -17.10356482040297]
      },
      {
        "species": [{ "element": "O", "occu": 1 }],
        "abc": [0.384283, 0.330866999999999, 0.024773],
        "properties": { "magmom": 0.037 },
        "label": "O",
        "xyz": [-1.7018066974999975, -0.2201633918000041, -0.8074093204030001]
      },
      {
        "species": [{ "element": "O", "occu": 1 }],
        "abc": [0.669133, 0.615717, 0.524772999999999],
        "properties": { "magmom": 0.036000000000000004 },
        "label": "O",
        "xyz": [-3.0574933024999997, -0.22016339180000033, -17.10356482040297]
      },
      {
        "species": [{ "element": "O", "occu": 1 }],
        "abc": [0.669133, 0.053416, 0.024773],
        "properties": { "magmom": 0.037 },
        "label": "O",
        "xyz": [-1.71941372785, -2.537785365975, -0.8074093204030001]
      },
      {
        "species": [{ "element": "O", "occu": 1 }],
        "abc": [0.946584, 0.615717, 0.024773],
        "properties": { "magmom": 0.037 },
        "label": "O",
        "xyz": [-3.71772957465, -1.3637262422250003, -0.8074093204030001]
      },
      {
        "species": [{ "element": "O", "occu": 1 }],
        "abc": [0.666667, 0.333333, 0.711476],
        "properties": { "magmom": 0.683 },
        "label": "O",
        "xyz": [-2.37965, -1.3738944144499998, -23.188647061036]
      },
      {
        "species": [{ "element": "O", "occu": 1 }],
        "abc": [0.666667, 0.333333, 0.211476],
        "properties": { "magmom": 0.685 },
        "label": "O",
        "xyz": [-2.37965, -1.3738944144499998, -6.8924915610360005]
      }
    ]
  },
  "task_ids": null,
  "uncorrected_energy_per_atom": null,
  "energy_per_atom": -4.484570067291666,
  "formation_energy_per_atom": 0.143413440624999,
  "energy_above_hull": 1.088828719374999,
  "is_stable": false,
  "equilibrium_reaction_energy_per_atom": null,
  "decomposes_to": null,
  "xas": null,
  "grain_boundaries": null,
  "band_gap": 0.0,
  "cbm": null,
  "vbm": null,
  "efermi": -0.17292193,
  "is_gap_direct": null,
  "is_metal": null,
  "es_source_calc_id": null,
  "bandstructure": null,
  "dos": null,
  "dos_energy_up": null,
  "dos_energy_down": null,
  "is_magnetic": null,
  "ordering": null,
  "total_magnetization": 8.7921311,
  "total_magnetization_normalized_vol": null,
  "total_magnetization_normalized_formula_units": null,
  "num_magnetic_sites": null,
  "num_unique_magnetic_sites": null,
  "types_of_magnetic_species": null,
  "bulk_modulus": null,
  "shear_modulus": null,
  "universal_anisotropy": null,
  "homogeneous_poisson": null,
  "e_total": null,
  "e_ionic": null,
  "e_electronic": null,
  "n": null,
  "e_ij_max": null,
  "weighted_surface_energy_EV_PER_ANG2": null,
  "weighted_surface_energy": null,
  "weighted_work_function": null,
  "surface_anisotropy": null,
  "shape_factor": null,
  "has_reconstructed": null,
  "possible_species": null,
  "has_props": null,
  "theoretical": null,
  "database_IDs": null,
  "fields_not_requested": [
    "builder_meta",
    "nsites",
    "elements",
    "nelements",
    "composition",
    "composition_reduced",
    "chemsys",
    "symmetry",
    "property_name",
    "deprecated",
    "deprecation_reasons",
    "last_updated",
    "origins",
    "warnings",
    "task_ids",
    "uncorrected_energy_per_atom",
    "equilibrium_reaction_energy_per_atom",
    "decomposes_to",
    "xas",
    "grain_boundaries",
    "cbm",
    "vbm",
    "is_gap_direct",
    "is_metal",
    "es_source_calc_id",
    "bandstructure",
    "dos",
    "dos_energy_up",
    "dos_energy_down",
    "is_magnetic",
    "ordering",
    "total_magnetization_normalized_vol",
    "total_magnetization_normalized_formula_units",
    "num_magnetic_sites",
    "num_unique_magnetic_sites",
    "types_of_magnetic_species",
    "bulk_modulus",
    "shear_modulus",
    "universal_anisotropy",
    "homogeneous_poisson",
    "e_total",
    "e_ionic",
    "e_electronic",
    "n",
    "e_ij_max",
    "weighted_surface_energy_EV_PER_ANG2",
    "weighted_surface_energy",
    "weighted_work_function",
    "surface_anisotropy",
    "shape_factor",
    "has_reconstructed",
    "possible_species",
    "has_props",
    "theoretical",
    "database_IDs"
  ]
}
