{
  "builder_meta": null,
  "nsites": null,
  "elements": null,
  "nelements": null,
  "composition": null,
  "composition_reduced": null,
  "formula_pretty": "GaPb3",
  "formula_anonymous": "AB3",
  "chemsys": null,
  "volume": 234.0506253800511,
  "density": 9.80957728504285,
  "density_atomic": 29.256328172506386,
  "symmetry": null,
  "property_name": null,
  "material_id": "mp-1184450",
  "deprecated": null,
  "deprecation_reasons": null,
  "last_updated": null,
  "origins": null,
  "warnings": null,
  "structure": {
    "@module": "pymatgen.core.structure",
    "@class": "Structure",
    "charge": 0,
    "lattice": {
      "matrix": [
        [3.408252, -5.903266, 0.0],
        [3.408252, 5.903266, 0.0],
        [0.0, 0.0, 5.81642]
      ],
      "pbc": [true, true, true],
      "a": 6.816504321296951,
      "b": 6.816504321296951,
      "c": 5.81642,
      "alpha": 90.0,
      "beta": 90.0,
      "gamma": 120.00000311843637,
      "volume": 234.0506253800511
    },
    "properties": {},
    "sites": [
      {
        "species": [{ "element": "Ga", "occu": 1 }],
        "abc": [0.333333, 0.666667, 0.75],
        "properties": { "magmom": -0.0 },
        "label": "Ga",
        "xyz": [3.408252, 1.9677592688440004, 4.362315]
      },
      {
        "species": [{ "element": "Ga", "occu": 1 }],
        "abc": [0.666667, 0.333333, 0.25],
        "properties": { "magmom": -0.0 },
        "label": "Ga",
        "xyz": [3.408252, -1.9677592688440004, 1.454105]
      },
      {
        "species": [{ "element": "Pb", "occu": 1 }],
        "abc": [0.169936, 0.339872, 0.25],
        "properties": { "magmom": -0.0 },
        "label": "Pb",
        "xyz": [1.737554135616, 1.003177410976, 1.454105]
      },
      {
        "species": [{ "element": "Pb", "occu": 1 }],
        "abc": [0.660127999999999, 0.830063999999999, 0.25],
        "properties": { "magmom": -0.0 },
        "label": "Pb",
        "xyz": [5.078949864383993, 1.0031774109759994, 1.454105]
      },
      {
        "species": [{ "element": "Pb", "occu": 1 }],
        "abc": [0.169936, 0.830063999999999, 0.25],
        "properties": { "magmom": -0.0 },
        "label": "Pb",
        "xyz": [3.408251999999997, 3.8969111780479944, 1.454105]
      },
      {
        "species": [{ "element": "Pb", "occu": 1 }],
        "abc": [0.830063999999999, 0.660127999999999, 0.75],
        "properties": { "magmom": -0.0 },
        "label": "Pb",
        "xyz": [5.078949864383993, -1.0031774109759994, 4.362315]
      },
      {
        "species": [{ "element": "Pb", "occu": 1 }],
        "abc": [0.339872, 0.169936, 0.75],
        "properties": { "magmom": -0.0 },
        "label": "Pb",
        "xyz": [1.737554135616, -1.003177410976, 4.362315]
      },
      {
        "species": [{ "element": "Pb", "occu": 1 }],
        "abc": [0.830063999999999, 0.169936, 0.75],
        "properties": { "magmom": -0.0 },
        "label": "Pb",
        "xyz": [3.408251999999997, -3.8969111780479944, 4.362315]
      }
    ]
  },
  "task_ids": null,
  "uncorrected_energy_per_atom": null,
  "energy_per_atom": -44.995726208125,
  "formation_energy_per_atom": 0.078818361875001,
  "energy_above_hull": 0.078818361875001,
  "is_stable": false,
  "equilibrium_reaction_energy_per_atom": null,
  "decomposes_to": null,
  "xas": null,
  "grain_boundaries": null,
  "band_gap": 0.0,
  "cbm": null,
  "vbm": null,
  "efermi": 6.19173516,
  "is_gap_direct": null,
  "is_metal": null,
  "es_source_calc_id": null,
  "bandstructure": null,
  "dos": null,
  "dos_energy_up": null,
  "dos_energy_down": null,
  "is_magnetic": null,
  "ordering": null,
  "total_magnetization": 0.0142367,
  "total_magnetization_normalized_vol": null,
  "total_magnetization_normalized_formula_units": null,
  "num_magnetic_sites": null,
  "num_unique_magnetic_sites": null,
  "types_of_magnetic_species": null,
  "bulk_modulus": null,
  "shear_modulus": null,
  "universal_anisotropy": null,
  "homogeneous_poisson": null,
  "e_total": null,
  "e_ionic": null,
  "e_electronic": null,
  "n": null,
  "e_ij_max": null,
  "weighted_surface_energy_EV_PER_ANG2": null,
  "weighted_surface_energy": null,
  "weighted_work_function": null,
  "surface_anisotropy": null,
  "shape_factor": null,
  "has_reconstructed": null,
  "possible_species": null,
  "has_props": null,
  "theoretical": null,
  "database_IDs": null,
  "fields_not_requested": [
    "builder_meta",
    "nsites",
    "elements",
    "nelements",
    "composition",
    "composition_reduced",
    "chemsys",
    "symmetry",
    "property_name",
    "deprecated",
    "deprecation_reasons",
    "last_updated",
    "origins",
    "warnings",
    "task_ids",
    "uncorrected_energy_per_atom",
    "equilibrium_reaction_energy_per_atom",
    "decomposes_to",
    "xas",
    "grain_boundaries",
    "cbm",
    "vbm",
    "is_gap_direct",
    "is_metal",
    "es_source_calc_id",
    "bandstructure",
    "dos",
    "dos_energy_up",
    "dos_energy_down",
    "is_magnetic",
    "ordering",
    "total_magnetization_normalized_vol",
    "total_magnetization_normalized_formula_units",
    "num_magnetic_sites",
    "num_unique_magnetic_sites",
    "types_of_magnetic_species",
    "bulk_modulus",
    "shear_modulus",
    "universal_anisotropy",
    "homogeneous_poisson",
    "e_total",
    "e_ionic",
    "e_electronic",
    "n",
    "e_ij_max",
    "weighted_surface_energy_EV_PER_ANG2",
    "weighted_surface_energy",
    "weighted_work_function",
    "surface_anisotropy",
    "shape_factor",
    "has_reconstructed",
    "possible_species",
    "has_props",
    "theoretical",
    "database_IDs"
  ]
}
