{"builder_meta": null, "nsites": null, "elements": null, "nelements": null, "composition": null, "composition_reduced": null, "formula_pretty": "GaPd3", "formula_anonymous": "AB3", "chemsys": null, "volume": 117.99501854627644, "density": 10.948283676737487, "density_atomic": 14.749377318284555, "symmetry": null, "property_name": null, "material_id": "mp-1184278", "deprecated": null, "deprecation_reasons": null, "last_updated": null, "origins": null, "warnings": null, "structure": {"@module": "pymatgen.core.structure", "@class": "Structure", "charge": 0, "lattice": {"matrix": [[2.78062852, -4.81618902, 0.0], [2.78062852, 4.81618902, 0.0], [-0.0, 0.0, 4.4054186]], "pbc": [true, true, true], "a": 5.561256300747696, "b": 5.561256300747696, "c": 4.4054186, "alpha": 90.0, "beta": 90.0, "gamma": 119.9999912054872, "volume": 117.99501854627644}, "properties": {}, "sites": [{"species": [{"element": "Ga", "occu": 1}], "abc": [0.333333, 0.666667, 0.75], "properties": {"magmom": 0.0}, "label": "Ga", "xyz": [2.78062852, 1.6053995507926802, 3.3040639499999997]}, {"species": [{"element": "Ga", "occu": 1}], "abc": [0.666667, 0.333333, 0.25], "properties": {"magmom": 0.0}, "label": "Ga", "xyz": [2.78062852, -1.6053995507926802, 1.10135465]}, {"species": [{"element": "Pd", "occu": 1}], "abc": [0.16863787, 0.33727574, 0.25], "properties": {"magmom": -0.0}, "label": "Pd", "xyz": [1.4067578126221572, 0.8121918578501874, 1.10135465]}, {"species": [{"element": "Pd", "occu": 1}], "abc": [0.6627242600000001, 0.83136213, 0.25], "properties": {"magmom": -0.0}, "label": "Pd", "xyz": [4.154499227377843, 0.8121918578501868, 1.10135465]}, {"species": [{"element": "Pd", "occu": 1}], "abc": [0.16863787, 0.83136213, 0.25], "properties": {"magmom": -0.0}, "label": "Pd", "xyz": [2.7806285200000005, 3.191805304299625, 1.10135465]}, {"species": [{"element": "Pd", "occu": 1}], "abc": [0.83136213, 0.6627242600000001, 0.75], "properties": {"magmom": -0.0}, "label": "Pd", "xyz": [4.154499227377843, -0.8121918578501868, 3.3040639499999997]}, {"species": [{"element": "Pd", "occu": 1}], "abc": [0.33727574, 0.16863787, 0.75], "properties": {"magmom": -0.0}, "label": "Pd", "xyz": [1.4067578126221572, -0.8121918578501874, 3.3040639499999997]}, {"species": [{"element": "Pd", "occu": 1}], "abc": [0.83136213, 0.16863787, 0.75], "properties": {"magmom": -0.0}, "label": "Pd", "xyz": [2.7806285200000005, -3.191805304299625, 3.3040639499999997]}]}, "task_ids": null, "uncorrected_energy_per_atom": null, "energy_per_atom": -20.52406524875, "formation_energy_per_atom": -0.443031053749997, "energy_above_hull": 0.056107882750001004, "is_stable": false, "equilibrium_reaction_energy_per_atom": null, "decomposes_to": null, "xas": null, "grain_boundaries": null, "band_gap": 0.0, "cbm": null, "vbm": null, "efermi": 4.5215295, "is_gap_direct": null, "is_metal": null, "es_source_calc_id": null, "bandstructure": null, "dos": null, "dos_energy_up": null, "dos_energy_down": null, "is_magnetic": null, "ordering": null, "total_magnetization": 7e-07, "total_magnetization_normalized_vol": null, "total_magnetization_normalized_formula_units": null, "num_magnetic_sites": null, "num_unique_magnetic_sites": null, "types_of_magnetic_species": null, "bulk_modulus": null, "shear_modulus": null, "universal_anisotropy": null, "homogeneous_poisson": null, "e_total": null, "e_ionic": null, "e_electronic": null, "n": null, "e_ij_max": null, "weighted_surface_energy_EV_PER_ANG2": null, "weighted_surface_energy": null, "weighted_work_function": null, "surface_anisotropy": null, "shape_factor": null, "has_reconstructed": null, "possible_species": null, "has_props": null, "theoretical": null, "database_IDs": null, "fields_not_requested": ["builder_meta", "nsites", "elements", "nelements", "composition", "composition_reduced", "chemsys", "symmetry", "property_name", "deprecated", "deprecation_reasons", "last_updated", "origins", "warnings", "task_ids", "uncorrected_energy_per_atom", "equilibrium_reaction_energy_per_atom", "decomposes_to", "xas", "grain_boundaries", "cbm", "vbm", "is_gap_direct", "is_metal", "es_source_calc_id", "bandstructure", "dos", "dos_energy_up", "dos_energy_down", "is_magnetic", "ordering", "total_magnetization_normalized_vol", "total_magnetization_normalized_formula_units", "num_magnetic_sites", "num_unique_magnetic_sites", "types_of_magnetic_species", "bulk_modulus", "shear_modulus", "universal_anisotropy", "homogeneous_poisson", "e_total", "e_ionic", "e_electronic", "n", "e_ij_max", "weighted_surface_energy_EV_PER_ANG2", "weighted_surface_energy", "weighted_work_function", "surface_anisotropy", "shape_factor", "has_reconstructed", "possible_species", "has_props", "theoretical", "database_IDs"]}