{
  "builder_meta": null,
  "nsites": null,
  "elements": null,
  "nelements": null,
  "composition": null,
  "composition_reduced": null,
  "formula_pretty": "GaPd2",
  "formula_anonymous": "AB2",
  "chemsys": null,
  "volume": 175.54707015013076,
  "density": 10.69130689277633,
  "density_atomic": 14.628922512510897,
  "symmetry": null,
  "property_name": null,
  "material_id": "mp-1869",
  "deprecated": null,
  "deprecation_reasons": null,
  "last_updated": null,
  "origins": null,
  "warnings": null,
  "structure": {
    "@module": "pymatgen.core.structure",
    "@class": "Structure",
    "charge": 0,
    "lattice": {
      "matrix": [
        [4.05957263, 0.0, 0.0],
        [0.0, 5.54430322, 0.0],
        [0.0, 0.0, 7.79949162]
      ],
      "pbc": [true, true, true],
      "a": 4.05957263,
      "b": 5.54430322,
      "c": 7.79949162,
      "alpha": 90.0,
      "beta": 90.0,
      "gamma": 90.0,
      "volume": 175.54707015013076
    },
    "properties": {},
    "sites": [
      {
        "species": [{ "element": "Ga", "occu": 1 }],
        "abc": [0.75, 0.70519031, 0.8919743800000001],
        "properties": { "magmom": 0.0 },
        "label": "Ga",
        "xyz": [3.0446794725, 3.909788906445798, 6.9569467020646965]
      },
      {
        "species": [{ "element": "Ga", "occu": 1 }],
        "abc": [0.25, 0.29480969, 0.10802562],
        "properties": { "magmom": 0.0 },
        "label": "Ga",
        "xyz": [1.0148931575, 1.6345143135542017, 0.8425449179353045]
      },
      {
        "species": [{ "element": "Ga", "occu": 1 }],
        "abc": [0.75, 0.20519031000000001, 0.60802562],
        "properties": { "magmom": 0.0 },
        "label": "Ga",
        "xyz": [3.0446794725, 1.1376372964457981, 4.742290727935305]
      },
      {
        "species": [{ "element": "Ga", "occu": 1 }],
        "abc": [0.25, 0.79480969, 0.39197438],
        "properties": { "magmom": 0.0 },
        "label": "Ga",
        "xyz": [1.0148931575, 4.406665923554201, 3.057200892064696]
      },
      {
        "species": [{ "element": "Pd", "occu": 1 }],
        "abc": [0.75, 0.66299973, 0.56614405],
        "properties": { "magmom": 0.0 },
        "label": "Pd",
        "xyz": [3.0446794725, 3.6758715378981304, 4.415635773687861]
      },
      {
        "species": [{ "element": "Pd", "occu": 1 }],
        "abc": [0.25, 0.33700027, 0.43385595],
        "properties": { "magmom": 0.0 },
        "label": "Pd",
        "xyz": [1.0148931575, 1.8684316821018692, 3.383855846312139]
      },
      {
        "species": [{ "element": "Pd", "occu": 1 }],
        "abc": [0.75, 0.16299973, 0.93385595],
        "properties": { "magmom": 0.0 },
        "label": "Pd",
        "xyz": [3.0446794725, 0.9037199278981306, 7.28360165631214]
      },
      {
        "species": [{ "element": "Pd", "occu": 1 }],
        "abc": [0.25, 0.83700027, 0.06614405],
        "properties": { "magmom": 0.0 },
        "label": "Pd",
        "xyz": [1.0148931575, 4.640583292101869, 0.515889963687861]
      },
      {
        "species": [{ "element": "Pd", "occu": 1 }],
        "abc": [0.75, 0.5415229500000001, 0.20691849],
        "properties": { "magmom": 0.0 },
        "label": "Pd",
        "xyz": [3.0446794725, 3.002367435388899, 1.6138590287780539]
      },
      {
        "species": [{ "element": "Pd", "occu": 1 }],
        "abc": [0.25, 0.45847705, 0.79308151],
        "properties": { "magmom": 0.0 },
        "label": "Pd",
        "xyz": [1.0148931575, 2.541935784611101, 6.185632591221947]
      },
      {
        "species": [{ "element": "Pd", "occu": 1 }],
        "abc": [0.75, 0.04152295, 0.29308151],
        "properties": { "magmom": 0.0 },
        "label": "Pd",
        "xyz": [3.0446794725, 0.230215825388899, 2.2858867812219463]
      },
      {
        "species": [{ "element": "Pd", "occu": 1 }],
        "abc": [0.25, 0.95847705, 0.7069184900000001],
        "properties": { "magmom": 0.0 },
        "label": "Pd",
        "xyz": [1.0148931575, 5.314087394611101, 5.513604838778055]
      }
    ]
  },
  "task_ids": null,
  "uncorrected_energy_per_atom": null,
  "energy_per_atom": -19.761272581666667,
  "formation_energy_per_atom": -0.640044858333332,
  "energy_above_hull": 0.0,
  "is_stable": true,
  "equilibrium_reaction_energy_per_atom": null,
  "decomposes_to": null,
  "xas": null,
  "grain_boundaries": null,
  "band_gap": 0.0,
  "cbm": null,
  "vbm": null,
  "efermi": 4.64767643,
  "is_gap_direct": null,
  "is_metal": null,
  "es_source_calc_id": null,
  "bandstructure": null,
  "dos": null,
  "dos_energy_up": null,
  "dos_energy_down": null,
  "is_magnetic": null,
  "ordering": null,
  "total_magnetization": 0.0,
  "total_magnetization_normalized_vol": null,
  "total_magnetization_normalized_formula_units": null,
  "num_magnetic_sites": null,
  "num_unique_magnetic_sites": null,
  "types_of_magnetic_species": null,
  "bulk_modulus": null,
  "shear_modulus": null,
  "universal_anisotropy": null,
  "homogeneous_poisson": null,
  "e_total": null,
  "e_ionic": null,
  "e_electronic": null,
  "n": null,
  "e_ij_max": null,
  "weighted_surface_energy_EV_PER_ANG2": null,
  "weighted_surface_energy": null,
  "weighted_work_function": null,
  "surface_anisotropy": null,
  "shape_factor": null,
  "has_reconstructed": null,
  "possible_species": null,
  "has_props": null,
  "theoretical": null,
  "database_IDs": null,
  "fields_not_requested": [
    "builder_meta",
    "nsites",
    "elements",
    "nelements",
    "composition",
    "composition_reduced",
    "chemsys",
    "symmetry",
    "property_name",
    "deprecated",
    "deprecation_reasons",
    "last_updated",
    "origins",
    "warnings",
    "task_ids",
    "uncorrected_energy_per_atom",
    "equilibrium_reaction_energy_per_atom",
    "decomposes_to",
    "xas",
    "grain_boundaries",
    "cbm",
    "vbm",
    "is_gap_direct",
    "is_metal",
    "es_source_calc_id",
    "bandstructure",
    "dos",
    "dos_energy_up",
    "dos_energy_down",
    "is_magnetic",
    "ordering",
    "total_magnetization_normalized_vol",
    "total_magnetization_normalized_formula_units",
    "num_magnetic_sites",
    "num_unique_magnetic_sites",
    "types_of_magnetic_species",
    "bulk_modulus",
    "shear_modulus",
    "universal_anisotropy",
    "homogeneous_poisson",
    "e_total",
    "e_ionic",
    "e_electronic",
    "n",
    "e_ij_max",
    "weighted_surface_energy_EV_PER_ANG2",
    "weighted_surface_energy",
    "weighted_work_function",
    "surface_anisotropy",
    "shape_factor",
    "has_reconstructed",
    "possible_species",
    "has_props",
    "theoretical",
    "database_IDs"
  ]
}
