{"builder_meta": null, "nsites": null, "elements": null, "nelements": null, "composition": null, "composition_reduced": null, "formula_pretty": "GaPt2", "formula_anonymous": "AB2", "chemsys": null, "volume": 358.85902788051004, "density": 17.02433351364971, "density_atomic": 14.952459495021252, "symmetry": null, "property_name": null, "material_id": "mp-2223", "deprecated": null, "deprecation_reasons": null, "last_updated": null, "origins": null, "warnings": null, "structure": {"@module": "pymatgen.core.structure", "@class": "Structure", "charge": 0, "lattice": {"matrix": [[3.9226541900000003, 0.0, 0.0], [0.0, 5.52079643, -0.0], [0.0, -0.0, 16.57074824]], "pbc": [true, true, true], "a": 3.9226541900000003, "b": 5.52079643, "c": 16.57074824, "alpha": 90.0, "beta": 90.0, "gamma": 90.0, "volume": 358.8590278805101}, "properties": {}, "sites": [{"species": [{"element": "Ga", "occu": 1}], "abc": [0.5, 0.0, 0.0], "properties": {"magmom": -0.0}, "label": "Ga", "xyz": [1.9613270950000001, 0.0, 0.0]}, {"species": [{"element": "Ga", "occu": 1}], "abc": [0.5, 0.0, 0.5], "properties": {"magmom": -0.0}, "label": "Ga", "xyz": [1.9613270950000001, 0.0, 8.28537412]}, {"species": [{"element": "Ga", "occu": 1}], "abc": [0.0, 0.78981789, 0.25], "properties": {"magmom": 0.0}, "label": "Ga", "xyz": [0.0, 4.360423787462133, 4.14268706]}, {"species": [{"element": "Ga", "occu": 1}], "abc": [0.0, 0.21018211, 0.75], "properties": {"magmom": 0.0}, "label": "Ga", "xyz": [0.0, 1.1603726425378673, 12.42806118]}, {"species": [{"element": "Ga", "occu": 1}], "abc": [0.0, 0.31466942000000003, 0.09324112], "properties": {"magmom": 0.0}, "label": "Ga", "xyz": [0.0, 1.7372258105661706, 1.5450751251356287]}, {"species": [{"element": "Ga", "occu": 1}], "abc": [-0.0, 0.68533058, 0.90675888], "properties": {"magmom": 0.0}, "label": "Ga", "xyz": [0.0, 3.783570619433829, 15.025673114864372]}, {"species": [{"element": "Ga", "occu": 1}], "abc": [0.0, 0.31466942000000003, 0.40675888], "properties": {"magmom": 0.0}, "label": "Ga", "xyz": [0.0, 1.7372258105661706, 6.7402989948643715]}, {"species": [{"element": "Ga", "occu": 1}], "abc": [-0.0, 0.68533058, 0.5932411200000001], "properties": {"magmom": 0.0}, "label": "Ga", "xyz": [0.0, 3.783570619433829, 9.83044924513563]}, {"species": [{"element": "Pt", "occu": 1}], "abc": [0.5, 0.5, 0.0], "properties": {"magmom": -0.0}, "label": "Pt", "xyz": [1.9613270950000001, 2.760398215, 0.0]}, {"species": [{"element": "Pt", "occu": 1}], "abc": [0.5, 0.5, 0.5], "properties": {"magmom": -0.0}, "label": "Pt", "xyz": [1.9613270950000001, 2.760398215, 8.28537412]}, {"species": [{"element": "Pt", "occu": 1}], "abc": [0.0, 0.2614223, 0.25], "properties": {"magmom": -0.0}, "label": "Pt", "xyz": [0.0, 1.443259300562389, 4.14268706]}, {"species": [{"element": "Pt", "occu": 1}], "abc": [0.0, 0.7385777, 0.75], "properties": {"magmom": -0.0}, "label": "Pt", "xyz": [0.0, 4.077537129437611, 12.42806118]}, {"species": [{"element": "Pt", "occu": 1}], "abc": [0.0, 0.7935885300000001, 0.06869776], "properties": {"magmom": 0.0}, "label": "Pt", "xyz": [0.0, 4.381240723312948, 1.1383732856119424]}, {"species": [{"element": "Pt", "occu": 1}], "abc": [0.0, 0.20641147, 0.9313022400000001], "properties": {"magmom": 0.0}, "label": "Pt", "xyz": [0.0, 1.139555706687052, 15.43237495438806]}, {"species": [{"element": "Pt", "occu": 1}], "abc": [0.0, 0.7935885300000001, 0.43130224], "properties": {"magmom": 0.0}, "label": "Pt", "xyz": [0.0, 4.381240723312948, 7.1470008343880576]}, {"species": [{"element": "Pt", "occu": 1}], "abc": [0.0, 0.20641147, 0.56869776], "properties": {"magmom": 0.0}, "label": "Pt", "xyz": [0.0, 1.139555706687052, 9.423747405611943]}, {"species": [{"element": "Pt", "occu": 1}], "abc": [0.5, 0.04933725, 0.15496445], "properties": {"magmom": -0.0}, "label": "Pt", "xyz": [1.9613270950000001, 0.27238091366601747, 2.567876887100068]}, {"species": [{"element": "Pt", "occu": 1}], "abc": [0.5, 0.95066275, 0.84503555], "properties": {"magmom": -0.0}, "label": "Pt", "xyz": [1.9613270950000001, 5.248415516333982, 14.002871352899932]}, {"species": [{"element": "Pt", "occu": 1}], "abc": [0.5, 0.04933725, 0.34503555], "properties": {"magmom": -0.0}, "label": "Pt", "xyz": [1.9613270950000001, 0.27238091366601747, 5.717497232899933]}, {"species": [{"element": "Pt", "occu": 1}], "abc": [0.5, 0.95066275, 0.65496445], "properties": {"magmom": -0.0}, "label": "Pt", "xyz": [1.9613270950000001, 5.248415516333982, 10.853251007100068]}, {"species": [{"element": "Pt", "occu": 1}], "abc": [0.5, 0.55557588, 0.16814382], "properties": {"magmom": 0.0}, "label": "Pt", "xyz": [1.9613270950000001, 3.0672213348981083, 2.7862689093318767]}, {"species": [{"element": "Pt", "occu": 1}], "abc": [0.5, 0.44442412000000003, 0.8318561800000001], "properties": {"magmom": 0.0}, "label": "Pt", "xyz": [1.9613270950000001, 2.4535750951018915, 13.784479330668125]}, {"species": [{"element": "Pt", "occu": 1}], "abc": [0.5, 0.55557588, 0.33185618], "properties": {"magmom": 0.0}, "label": "Pt", "xyz": [1.9613270950000001, 3.0672213348981083, 5.499105210668123]}, {"species": [{"element": "Pt", "occu": 1}], "abc": [0.5, 0.44442412000000003, 0.66814382], "properties": {"magmom": 0.0}, "label": "Pt", "xyz": [1.9613270950000001, 2.4535750951018915, 11.071643029331877]}]}, "task_ids": null, "uncorrected_energy_per_atom": null, "energy_per_atom": -5.5898338300000034, "formation_energy_per_atom": -0.5330462758333361, "energy_above_hull": 0.0, "is_stable": true, "equilibrium_reaction_energy_per_atom": null, "decomposes_to": null, "xas": null, "grain_boundaries": null, "band_gap": 0.0, "cbm": null, "vbm": null, "efermi": 6.73225181, "is_gap_direct": null, "is_metal": null, "es_source_calc_id": null, "bandstructure": null, "dos": null, "dos_energy_up": null, "dos_energy_down": null, "is_magnetic": null, "ordering": null, "total_magnetization": 0.0, "total_magnetization_normalized_vol": null, "total_magnetization_normalized_formula_units": null, "num_magnetic_sites": null, "num_unique_magnetic_sites": null, "types_of_magnetic_species": null, "bulk_modulus": null, "shear_modulus": null, "universal_anisotropy": null, "homogeneous_poisson": null, "e_total": null, "e_ionic": null, "e_electronic": null, "n": null, "e_ij_max": null, "weighted_surface_energy_EV_PER_ANG2": null, "weighted_surface_energy": null, "weighted_work_function": null, "surface_anisotropy": null, "shape_factor": null, "has_reconstructed": null, "possible_species": null, "has_props": null, "theoretical": null, "database_IDs": null, "fields_not_requested": ["builder_meta", "nsites", "elements", "nelements", "composition", "composition_reduced", "chemsys", "symmetry", "property_name", "deprecated", "deprecation_reasons", "last_updated", "origins", "warnings", "task_ids", "uncorrected_energy_per_atom", "equilibrium_reaction_energy_per_atom", "decomposes_to", "xas", "grain_boundaries", "cbm", "vbm", "is_gap_direct", "is_metal", "es_source_calc_id", "bandstructure", "dos", "dos_energy_up", "dos_energy_down", "is_magnetic", "ordering", "total_magnetization_normalized_vol", "total_magnetization_normalized_formula_units", "num_magnetic_sites", "num_unique_magnetic_sites", "types_of_magnetic_species", "bulk_modulus", "shear_modulus", "universal_anisotropy", "homogeneous_poisson", "e_total", "e_ionic", "e_electronic", "n", "e_ij_max", "weighted_surface_energy_EV_PER_ANG2", "weighted_surface_energy", "weighted_work_function", "surface_anisotropy", "shape_factor", "has_reconstructed", "possible_species", "has_props", "theoretical", "database_IDs"]}