{
  "builder_meta": null,
  "nsites": null,
  "elements": null,
  "nelements": null,
  "composition": null,
  "composition_reduced": null,
  "formula_pretty": "GaPt3",
  "formula_anonymous": "AB3",
  "chemsys": null,
  "volume": 120.05020582374542,
  "density": 18.11927880812029,
  "density_atomic": 15.006275727968177,
  "symmetry": null,
  "property_name": null,
  "material_id": "mp-862621",
  "deprecated": null,
  "deprecation_reasons": null,
  "last_updated": null,
  "origins": null,
  "warnings": null,
  "structure": {
    "@module": "pymatgen.core.structure",
    "@class": "Structure",
    "charge": 0,
    "lattice": {
      "matrix": [
        [2.6943956, -2.75113435, -4.00673572],
        [0.00286238, -5.49874453, -0.0005033700000000001],
        [-0.11698888, -0.00057462, -7.93311112]
      ],
      "pbc": [true, true, true],
      "a": 5.557197044461641,
      "b": 5.498745298048051,
      "c": 7.933973706189065,
      "alpha": 89.99104568412014,
      "beta": 44.454434638477856,
      "gamma": 60.30543753040813,
      "volume": 120.05020582374542
    },
    "properties": {},
    "sites": [
      {
        "species": [{ "element": "Ga", "occu": 1 }],
        "abc": [0.00019556, 0.49999918, 0.756562],
        "properties": { "magmom": 0.0 },
        "label": "Ga",
        "xyz": [-0.08655123737417561, -2.750340503519411, -6.00292565699408]
      },
      {
        "species": [{ "element": "Ga", "occu": 1 }],
        "abc": [0.99972223, 0.5000747, 0.25743035000000003],
        "properties": { "magmom": -0.0 },
        "label": "Ga",
        "xyz": [2.664962093229466, -5.500301113255708, -6.0480980638312865]
      },
      {
        "species": [{ "element": "Pt", "occu": 1 }],
        "abc": [0.41443399000000003, 0.49947635, 0.29957508],
        "properties": { "magmom": -0.0 },
        "label": "Pt",
        "xyz": [1.0830318571760467, -3.8868285749558913, -4.037341291148312]
      },
      {
        "species": [{ "element": "Pt", "occu": 1 }],
        "abc": [0.41368209, 0.08668198, 0.8000152700000001],
        "properties": { "magmom": -0.0 },
        "label": "Pt",
        "xyz": [1.0212784294405186, -1.6151967759278083, -8.00416847444233]
      },
      {
        "species": [{ "element": "Pt", "occu": 1 }],
        "abc": [0.58636151, 0.91331816, 0.21371172],
        "properties": { "magmom": -0.0 },
        "label": "Pt",
        "xyz": [1.5575022414225033, -6.63538533115708, -4.045254166318663]
      },
      {
        "species": [{ "element": "Pt", "occu": 1 }],
        "abc": [0.58573275, 0.50046959, 0.71412067],
        "properties": { "magmom": -0.0 },
        "label": "Pt",
        "xyz": [1.4960841011527746, -4.363794256908201, -8.012326881375198]
      },
      {
        "species": [{ "element": "Pt", "occu": 1 }],
        "abc": [-0.00010904, 0.00017879999999900002, 0.25686455],
        "properties": { "magmom": -0.0 },
        "label": "Pt",
        "xyz": [
          -0.030343581118884008, -0.0008307913401555014, -2.0372982134784436
        ]
      },
      {
        "species": [{ "element": "Pt", "occu": 1 }],
        "abc": [-1.109e-5, 0.99980324, 0.75684035],
        "properties": { "magmom": -0.0 },
        "label": "Pt",
        "xyz": [-0.08570996893440082, -5.498066982548252, -6.004557432907477]
      }
    ]
  },
  "task_ids": null,
  "uncorrected_energy_per_atom": null,
  "energy_per_atom": -5.7545364387500015,
  "formation_energy_per_atom": -0.44416244312500003,
  "energy_above_hull": 0.0,
  "is_stable": true,
  "equilibrium_reaction_energy_per_atom": null,
  "decomposes_to": null,
  "xas": null,
  "grain_boundaries": null,
  "band_gap": 0.0,
  "cbm": null,
  "vbm": null,
  "efermi": 6.6313191,
  "is_gap_direct": null,
  "is_metal": null,
  "es_source_calc_id": null,
  "bandstructure": null,
  "dos": null,
  "dos_energy_up": null,
  "dos_energy_down": null,
  "is_magnetic": null,
  "ordering": null,
  "total_magnetization": 1e-7,
  "total_magnetization_normalized_vol": null,
  "total_magnetization_normalized_formula_units": null,
  "num_magnetic_sites": null,
  "num_unique_magnetic_sites": null,
  "types_of_magnetic_species": null,
  "bulk_modulus": null,
  "shear_modulus": null,
  "universal_anisotropy": null,
  "homogeneous_poisson": null,
  "e_total": null,
  "e_ionic": null,
  "e_electronic": null,
  "n": null,
  "e_ij_max": null,
  "weighted_surface_energy_EV_PER_ANG2": null,
  "weighted_surface_energy": null,
  "weighted_work_function": null,
  "surface_anisotropy": null,
  "shape_factor": null,
  "has_reconstructed": null,
  "possible_species": null,
  "has_props": null,
  "theoretical": null,
  "database_IDs": null,
  "fields_not_requested": [
    "builder_meta",
    "nsites",
    "elements",
    "nelements",
    "composition",
    "composition_reduced",
    "chemsys",
    "symmetry",
    "property_name",
    "deprecated",
    "deprecation_reasons",
    "last_updated",
    "origins",
    "warnings",
    "task_ids",
    "uncorrected_energy_per_atom",
    "equilibrium_reaction_energy_per_atom",
    "decomposes_to",
    "xas",
    "grain_boundaries",
    "cbm",
    "vbm",
    "is_gap_direct",
    "is_metal",
    "es_source_calc_id",
    "bandstructure",
    "dos",
    "dos_energy_up",
    "dos_energy_down",
    "is_magnetic",
    "ordering",
    "total_magnetization_normalized_vol",
    "total_magnetization_normalized_formula_units",
    "num_magnetic_sites",
    "num_unique_magnetic_sites",
    "types_of_magnetic_species",
    "bulk_modulus",
    "shear_modulus",
    "universal_anisotropy",
    "homogeneous_poisson",
    "e_total",
    "e_ionic",
    "e_electronic",
    "n",
    "e_ij_max",
    "weighted_surface_energy_EV_PER_ANG2",
    "weighted_surface_energy",
    "weighted_work_function",
    "surface_anisotropy",
    "shape_factor",
    "has_reconstructed",
    "possible_species",
    "has_props",
    "theoretical",
    "database_IDs"
  ]
}
