{
  "builder_meta": null,
  "nsites": null,
  "elements": null,
  "nelements": null,
  "composition": null,
  "composition_reduced": null,
  "formula_pretty": "GaS",
  "formula_anonymous": "AB",
  "chemsys": null,
  "volume": 179.0698300424525,
  "density": 3.775576275936825,
  "density_atomic": 22.383728755306564,
  "symmetry": null,
  "property_name": null,
  "material_id": "mp-2507",
  "deprecated": null,
  "deprecation_reasons": null,
  "last_updated": null,
  "origins": null,
  "warnings": null,
  "structure": {
    "@module": "pymatgen.core.structure",
    "@class": "Structure",
    "charge": 0,
    "lattice": {
      "matrix": [
        [3.5932455, -1e-8, -0.0],
        [-1.79662527, 3.11184472, 0.0],
        [-0.0, 0.0, 16.01465599]
      ],
      "pbc": [true, true, true],
      "a": 3.5932455,
      "b": 3.593249215152555,
      "c": 16.01465599,
      "alpha": 90.0,
      "beta": 90.0,
      "gamma": 120.00001235610424,
      "volume": 179.0698300424525
    },
    "properties": {},
    "sites": [
      {
        "species": [{ "element": "Ga", "occu": 1 }],
        "abc": [0.333333, 0.666667, 0.32644957],
        "properties": { "magmom": 0.0 },
        "label": "Ga",
        "xyz": [-3.4766235901262377e-6, 2.07456418061491, 5.227977561633425]
      },
      {
        "species": [{ "element": "Ga", "occu": 1 }],
        "abc": [0.666667, 0.333333, 0.82644957],
        "properties": { "magmom": 0.0 },
        "label": "Ga",
        "xyz": [1.7966237066235902, 1.03728052938509, 13.235305556633424]
      },
      {
        "species": [{ "element": "Ga", "occu": 1 }],
        "abc": [0.666667, 0.333333, 0.67355043],
        "properties": { "magmom": 0.0 },
        "label": "Ga",
        "xyz": [1.7966237066235902, 1.03728052938509, 10.786678428366578]
      },
      {
        "species": [{ "element": "Ga", "occu": 1 }],
        "abc": [0.333333, 0.666667, 0.17355043],
        "properties": { "magmom": 0.0 },
        "label": "Ga",
        "xyz": [-3.4766235901262377e-6, 2.07456418061491, 2.779350433366576]
      },
      {
        "species": [{ "element": "S", "occu": 1 }],
        "abc": [0.333333, 0.666667, 0.893148899999999],
        "properties": { "magmom": -0.0 },
        "label": "S",
        "xyz": [-3.4766235901262377e-6, 2.07456418061491, 14.303472381346896]
      },
      {
        "species": [{ "element": "S", "occu": 1 }],
        "abc": [0.666667, 0.333333, 0.393148899999999],
        "properties": { "magmom": -0.0 },
        "label": "S",
        "xyz": [1.7966237066235902, 1.03728052938509, 6.296144386346896]
      },
      {
        "species": [{ "element": "S", "occu": 1 }],
        "abc": [0.666667, 0.333333, 0.106851099999999],
        "properties": { "magmom": -0.0 },
        "label": "S",
        "xyz": [1.7966237066235902, 1.03728052938509, 1.7111836086530732]
      },
      {
        "species": [{ "element": "S", "occu": 1 }],
        "abc": [0.333333, 0.666667, 0.6068511],
        "properties": { "magmom": -0.0 },
        "label": "S",
        "xyz": [-3.4766235901262377e-6, 2.07456418061491, 9.71851160365309]
      }
    ]
  },
  "task_ids": null,
  "uncorrected_energy_per_atom": null,
  "energy_per_atom": -10.50262533375,
  "formation_energy_per_atom": -0.763737817656249,
  "energy_above_hull": 0.0,
  "is_stable": true,
  "equilibrium_reaction_energy_per_atom": null,
  "decomposes_to": null,
  "xas": null,
  "grain_boundaries": null,
  "band_gap": 2.0036,
  "cbm": null,
  "vbm": null,
  "efermi": 1.57488932,
  "is_gap_direct": null,
  "is_metal": null,
  "es_source_calc_id": null,
  "bandstructure": null,
  "dos": null,
  "dos_energy_up": null,
  "dos_energy_down": null,
  "is_magnetic": null,
  "ordering": null,
  "total_magnetization": 0.0,
  "total_magnetization_normalized_vol": null,
  "total_magnetization_normalized_formula_units": null,
  "num_magnetic_sites": null,
  "num_unique_magnetic_sites": null,
  "types_of_magnetic_species": null,
  "bulk_modulus": null,
  "shear_modulus": null,
  "universal_anisotropy": null,
  "homogeneous_poisson": null,
  "e_total": null,
  "e_ionic": null,
  "e_electronic": null,
  "n": null,
  "e_ij_max": null,
  "weighted_surface_energy_EV_PER_ANG2": null,
  "weighted_surface_energy": null,
  "weighted_work_function": null,
  "surface_anisotropy": null,
  "shape_factor": null,
  "has_reconstructed": null,
  "possible_species": null,
  "has_props": null,
  "theoretical": null,
  "database_IDs": null,
  "fields_not_requested": [
    "builder_meta",
    "nsites",
    "elements",
    "nelements",
    "composition",
    "composition_reduced",
    "chemsys",
    "symmetry",
    "property_name",
    "deprecated",
    "deprecation_reasons",
    "last_updated",
    "origins",
    "warnings",
    "task_ids",
    "uncorrected_energy_per_atom",
    "equilibrium_reaction_energy_per_atom",
    "decomposes_to",
    "xas",
    "grain_boundaries",
    "cbm",
    "vbm",
    "is_gap_direct",
    "is_metal",
    "es_source_calc_id",
    "bandstructure",
    "dos",
    "dos_energy_up",
    "dos_energy_down",
    "is_magnetic",
    "ordering",
    "total_magnetization_normalized_vol",
    "total_magnetization_normalized_formula_units",
    "num_magnetic_sites",
    "num_unique_magnetic_sites",
    "types_of_magnetic_species",
    "bulk_modulus",
    "shear_modulus",
    "universal_anisotropy",
    "homogeneous_poisson",
    "e_total",
    "e_ionic",
    "e_electronic",
    "n",
    "e_ij_max",
    "weighted_surface_energy_EV_PER_ANG2",
    "weighted_surface_energy",
    "weighted_work_function",
    "surface_anisotropy",
    "shape_factor",
    "has_reconstructed",
    "possible_species",
    "has_props",
    "theoretical",
    "database_IDs"
  ]
}
