{"builder_meta": null, "nsites": null, "elements": null, "nelements": null, "composition": null, "composition_reduced": null, "formula_pretty": "GaSe", "formula_anonymous": "AB", "chemsys": null, "volume": 407.231921416199, "density": 4.850188151865577, "density_atomic": 25.451995088512437, "symmetry": null, "property_name": null, "material_id": "mp-568263", "deprecated": null, "deprecation_reasons": null, "last_updated": null, "origins": null, "warnings": null, "structure": {"@module": "pymatgen.core.structure", "@class": "Structure", "charge": 0, "lattice": {"matrix": [[3.77432439, -0.0, 0.0], [-1.8871622000000001, 3.26866072, -0.0], [0.0, 0.0, 33.00902874]], "pbc": [true, true, true], "a": 3.77432439, "b": 3.7743243198723344, "c": 33.00902874, "alpha": 90.0, "beta": 90.0, "gamma": 120.00000070227189, "volume": 407.231921416199}, "properties": {}, "sites": [{"species": [{"element": "Ga", "occu": 1}], "abc": [0.333333, 0.666667, 0.21420218], "properties": {"magmom": 0.0}, "label": "Ga", "xyz": [-1.8904955301213278e-06, 2.17910823622024, 7.070605915790653]}, {"species": [{"element": "Ga", "occu": 1}], "abc": [-0.0, -0.0, 0.53766473], "properties": {"magmom": 0.0}, "label": "Ga", "xyz": [0.0, 0.0, 17.74779052505434]}, {"species": [{"element": "Ga", "occu": 1}], "abc": [0.666667, 0.333333, 0.71420218], "properties": {"magmom": 0.0}, "label": "Ga", "xyz": [1.8871640804955299, 1.08955248377976, 23.575120285790653]}, {"species": [{"element": "Ga", "occu": 1}], "abc": [-0.0, 0.0, 0.03766473], "properties": {"magmom": 0.0}, "label": "Ga", "xyz": [0.0, 0.0, 1.24327615505434]}, {"species": [{"element": "Ga", "occu": 1}], "abc": [0.333333, 0.666667, 0.28809388], "properties": {"magmom": 0.0}, "label": "Ga", "xyz": [-1.8904955301213278e-06, 2.17910823622024, 9.50969916473811]}, {"species": [{"element": "Ga", "occu": 1}], "abc": [0.666667, 0.333333, 0.78809388], "properties": {"magmom": 0.0}, "label": "Ga", "xyz": [1.8871640804955299, 1.08955248377976, 26.01421353473811]}, {"species": [{"element": "Ga", "occu": 1}], "abc": [-0.0, -0.0, 0.96378597], "properties": {"magmom": 0.0}, "label": "Ga", "xyz": [0.0, 0.0, 31.813638782938774]}, {"species": [{"element": "Ga", "occu": 1}], "abc": [-0.0, 0.0, 0.46378597], "properties": {"magmom": 0.0}, "label": "Ga", "xyz": [0.0, 0.0, 15.309124412938777]}, {"species": [{"element": "Se", "occu": 1}], "abc": [0.0, -0.0, 0.67926924], "properties": {"magmom": -0.0}, "label": "Se", "xyz": [0.0, 0.0, 22.422017865357954]}, {"species": [{"element": "Se", "occu": 1}], "abc": [0.666667, 0.333333, 0.92882656], "properties": {"magmom": -0.0}, "label": "Se", "xyz": [1.8871640804955299, 1.08955248377976, 30.65966261351533]}, {"species": [{"element": "Se", "occu": 1}], "abc": [0.666667, 0.333333, 0.07258666], "properties": {"magmom": -0.0}, "label": "Se", "xyz": [1.8871640804955299, 1.08955248377976, 2.3960151460806083]}, {"species": [{"element": "Se", "occu": 1}], "abc": [0.0, -0.0, 0.32307177], "properties": {"magmom": -0.0}, "label": "Se", "xyz": [0.0, 0.0, 10.664285341012668]}, {"species": [{"element": "Se", "occu": 1}], "abc": [-0.0, 0.0, 0.17926924], "properties": {"magmom": -0.0}, "label": "Se", "xyz": [0.0, 0.0, 5.917503495357957]}, {"species": [{"element": "Se", "occu": 1}], "abc": [0.333333, 0.666667, 0.57258666], "properties": {"magmom": -0.0}, "label": "Se", "xyz": [-1.8904955301213278e-06, 2.17910823622024, 18.900529516080606]}, {"species": [{"element": "Se", "occu": 1}], "abc": [-0.0, 0.0, 0.82307177], "properties": {"magmom": -0.0}, "label": "Se", "xyz": [0.0, 0.0, 27.168799711012667]}, {"species": [{"element": "Se", "occu": 1}], "abc": [0.333333, 0.666667, 0.42882656], "properties": {"magmom": -0.0}, "label": "Se", "xyz": [-1.8904955301213278e-06, 2.17910823622024, 14.155148243515335]}]}, "task_ids": null, "uncorrected_energy_per_atom": null, "energy_per_atom": -13.56718679875, "formation_energy_per_atom": -0.69001870828125, "energy_above_hull": 0.0, "is_stable": true, "equilibrium_reaction_energy_per_atom": null, "decomposes_to": null, "xas": null, "grain_boundaries": null, "band_gap": 1.2121, "cbm": null, "vbm": null, "efermi": 1.43152927, "is_gap_direct": null, "is_metal": null, "es_source_calc_id": null, "bandstructure": null, "dos": null, "dos_energy_up": null, "dos_energy_down": null, "is_magnetic": null, "ordering": null, "total_magnetization": 0.0, "total_magnetization_normalized_vol": null, "total_magnetization_normalized_formula_units": null, "num_magnetic_sites": null, "num_unique_magnetic_sites": null, "types_of_magnetic_species": null, "bulk_modulus": null, "shear_modulus": null, "universal_anisotropy": null, "homogeneous_poisson": null, "e_total": null, "e_ionic": null, "e_electronic": null, "n": null, "e_ij_max": null, "weighted_surface_energy_EV_PER_ANG2": null, "weighted_surface_energy": null, "weighted_work_function": null, "surface_anisotropy": null, "shape_factor": null, "has_reconstructed": null, "possible_species": null, "has_props": null, "theoretical": null, "database_IDs": null, "fields_not_requested": ["builder_meta", "nsites", "elements", "nelements", "composition", "composition_reduced", "chemsys", "symmetry", "property_name", "deprecated", "deprecation_reasons", "last_updated", "origins", "warnings", "task_ids", "uncorrected_energy_per_atom", "equilibrium_reaction_energy_per_atom", "decomposes_to", "xas", "grain_boundaries", "cbm", "vbm", "is_gap_direct", "is_metal", "es_source_calc_id", "bandstructure", "dos", "dos_energy_up", "dos_energy_down", "is_magnetic", "ordering", "total_magnetization_normalized_vol", "total_magnetization_normalized_formula_units", "num_magnetic_sites", "num_unique_magnetic_sites", "types_of_magnetic_species", "bulk_modulus", "shear_modulus", "universal_anisotropy", "homogeneous_poisson", "e_total", "e_ionic", "e_electronic", "n", "e_ij_max", "weighted_surface_energy_EV_PER_ANG2", "weighted_surface_energy", "weighted_work_function", "surface_anisotropy", "shape_factor", "has_reconstructed", "possible_species", "has_props", "theoretical", "database_IDs"]}