{"builder_meta": null, "nsites": null, "elements": null, "nelements": null, "composition": null, "composition_reduced": null, "formula_pretty": "Gd2Br3", "formula_anonymous": "A2B3", "chemsys": null, "volume": 317.02974125205515, "density": 5.805705632184458, "density_atomic": 31.702974125205515, "symmetry": null, "property_name": null, "material_id": "mp-618813", "deprecated": null, "deprecation_reasons": null, "last_updated": null, "origins": null, "warnings": null, "structure": {"@module": "pymatgen.core.structure", "@class": "Structure", "charge": 0, "lattice": {"matrix": [[3.91073986, 0.0017781, 0.79090646], [1.46397252, 8.0454409, 2.8368044], [-0.00892355, 0.02094424, 10.08171621]], "pbc": [true, true, true], "a": 3.98991509216702, "b": 8.655622104653558, "c": 10.081741914466495, "alpha": 70.760252741398, "beta": 78.61742232216669, "gamma": 76.63460410763193, "volume": 317.02974125205515}, "properties": {}, "sites": [{"species": [{"element": "Gd", "occu": 1}], "abc": [0.86436574, 0.9863431500000001, 0.28566759], "properties": {"magmom": -7.053}, "label": "Gd", "xyz": [4.82173965090389, 7.94308553973231, 6.361714608173175]}, {"species": [{"element": "Gd", "occu": 1}], "abc": [0.58626915, 0.78677733, 0.04115835], "properties": {"magmom": 7.204}, "label": "Gd", "xyz": [3.4441992454781483, 6.331874985510815, 3.110564253969815]}, {"species": [{"element": "Gd", "occu": 1}], "abc": [0.41375707, 0.21295672000000002, 0.95895741], "properties": {"magmom": -7.204}, "label": "Gd", "xyz": [1.9213017476391392, 1.7341510406088334, 10.599296164935856]}, {"species": [{"element": "Gd", "occu": 1}], "abc": [0.13561585, 0.01383569, 0.7142256300000001], "properties": {"magmom": 7.053}, "label": "Gd", "xyz": [0.5442399520774334, 0.1265142777574772, 7.34712870968089]}, {"species": [{"element": "Br", "occu": 1}], "abc": [0.04377391, 0.65048648, 0.26262925], "properties": {"magmom": -0.002}, "label": "Br", "xyz": [1.1211391207727446, 5.239028935521422, 4.527677543748113]}, {"species": [{"element": "Br", "occu": 1}], "abc": [0.95640375, 0.34923501, 0.73763576], "properties": {"magmom": 0.002}, "label": "Br", "xyz": [4.244934395454252, 2.8268994350638064, 9.183771715912938]}, {"species": [{"element": "Br", "occu": 1}], "abc": [0.22993065000000001, 0.66327645, 0.8772721800000001], "properties": {"magmom": -0.007}, "label": "Br", "xyz": [1.8623890717920242, 5.355134117608813, 10.907848345901417]}, {"species": [{"element": "Br", "occu": 1}], "abc": [0.76983776, 0.33690262, 0.12251397], "properties": {"magmom": 0.007}, "label": "Br", "xyz": [3.5027581318241223, 2.714464928777246, 2.799747569623911]}, {"species": [{"element": "Br", "occu": 1}], "abc": [0.65895835, 0.18540875, 0.49487642], "properties": {"magmom": -0.001}, "label": "Br", "xyz": [2.84403194591469, 1.5032316448208305, 6.036346399145209]}, {"species": [{"element": "Br", "occu": 1}], "abc": [0.34108977, 0.81477881, 0.50506343], "properties": {"magmom": 0.001}, "label": "Br", "xyz": [2.5222201883247566, 6.5664394238405075, 7.673044385076879]}]}, "task_ids": null, "uncorrected_energy_per_atom": null, "energy_per_atom": -8.459324943999997, "formation_energy_per_atom": -1.846708126999996, "energy_above_hull": 0.007978507000004001, "is_stable": false, "equilibrium_reaction_energy_per_atom": null, "decomposes_to": null, "xas": null, "grain_boundaries": null, "band_gap": 0.229499999999999, "cbm": null, "vbm": null, "efermi": 3.34861786, "is_gap_direct": null, "is_metal": null, "es_source_calc_id": null, "bandstructure": null, "dos": null, "dos_energy_up": null, "dos_energy_down": null, "is_magnetic": null, "ordering": null, "total_magnetization": 0.0, "total_magnetization_normalized_vol": null, "total_magnetization_normalized_formula_units": null, "num_magnetic_sites": null, "num_unique_magnetic_sites": null, "types_of_magnetic_species": null, "bulk_modulus": null, "shear_modulus": null, "universal_anisotropy": null, "homogeneous_poisson": null, "e_total": null, "e_ionic": null, "e_electronic": null, "n": null, "e_ij_max": null, "weighted_surface_energy_EV_PER_ANG2": null, "weighted_surface_energy": null, "weighted_work_function": null, "surface_anisotropy": null, "shape_factor": null, "has_reconstructed": null, "possible_species": null, "has_props": null, "theoretical": null, "database_IDs": null, "fields_not_requested": ["builder_meta", "nsites", "elements", "nelements", "composition", "composition_reduced", "chemsys", "symmetry", "property_name", "deprecated", "deprecation_reasons", "last_updated", "origins", "warnings", "task_ids", "uncorrected_energy_per_atom", "equilibrium_reaction_energy_per_atom", "decomposes_to", "xas", "grain_boundaries", "cbm", "vbm", "is_gap_direct", "is_metal", "es_source_calc_id", "bandstructure", "dos", "dos_energy_up", "dos_energy_down", "is_magnetic", "ordering", "total_magnetization_normalized_vol", "total_magnetization_normalized_formula_units", "num_magnetic_sites", "num_unique_magnetic_sites", "types_of_magnetic_species", "bulk_modulus", "shear_modulus", "universal_anisotropy", "homogeneous_poisson", "e_total", "e_ionic", "e_electronic", "n", "e_ij_max", "weighted_surface_energy_EV_PER_ANG2", "weighted_surface_energy", "weighted_work_function", "surface_anisotropy", "shape_factor", "has_reconstructed", "possible_species", "has_props", "theoretical", "database_IDs"]}