{"builder_meta": null, "nsites": null, "elements": null, "nelements": null, "composition": null, "composition_reduced": null, "formula_pretty": "Gd2B5", "formula_anonymous": "A2B5", "chemsys": null, "volume": 358.52765324894153, "density": 6.827924932929226, "density_atomic": 12.804559044605055, "symmetry": null, "property_name": null, "material_id": "mp-28366", "deprecated": null, "deprecation_reasons": null, "last_updated": null, "origins": null, "warnings": null, "structure": {"@module": "pymatgen.core.structure", "@class": "Structure", "charge": 0, "lattice": {"matrix": [[6.97388387, -2.019999999999999e-06, -1.55377425], [1.0340000000000001e-05, 7.15653802, 5.443e-05], [0.01263044, 5.4470000000000005e-05, 7.18083264]], "pbc": [true, true, true], "a": 7.1448772314304545, "b": 7.156538020214457, "c": 7.1808437481030705, "alpha": 89.9991294695896, "beta": 102.45951681239009, "gamma": 90.0000301627248, "volume": 358.52765324894153}, "properties": {}, "sites": [{"species": [{"element": "Gd", "occu": 1}], "abc": [0.24073801, 0.68460038, 0.255506199999999], "properties": {"magmom": 6.944}, "label": "Gd", "xyz": [1.682113159331556, 4.899382079108381, 1.4607320025468018]}, {"species": [{"element": "Gd", "occu": 1}], "abc": [0.75926299, 0.18460038, 0.244494799999999], "properties": {"magmom": 6.944}, "label": "Gd", "xyz": [5.298101904718612, 1.321111421896964, 0.5759630051089408]}, {"species": [{"element": "Gd", "occu": 1}], "abc": [0.75926299, 0.31540062, 0.7444938], "properties": {"magmom": 6.944}, "label": "Gd", "xyz": [5.304418464562654, 2.2572155474276188, 4.166379263733371]}, {"species": [{"element": "Gd", "occu": 1}], "abc": [0.24073701, 0.81539962, 0.7555062], "properties": {"magmom": 6.944}, "label": "Gd", "xyz": [1.6884227579118274, 5.835479048157506, 5.051156995723693]}, {"species": [{"element": "Gd", "occu": 1}], "abc": [0.23288412, 0.30849813, 0.62900555], "properties": {"magmom": -6.955}, "label": "Gd", "xyz": [1.6320546147767507, 2.207812387950289, 4.154951026844459]}, {"species": [{"element": "Gd", "occu": 1}], "abc": [0.76711588, 0.80849813, 0.87099445], "properties": {"magmom": -6.955}, "label": "Gd", "xyz": [5.360786464964578, 5.786093499937516, 5.062584481261974]}, {"species": [{"element": "Gd", "occu": 1}], "abc": [0.76711488, 0.69150187, 0.37099345], "properties": {"magmom": -6.955}, "label": "Gd", "xyz": [5.35446304870894, 4.948778081997262, 1.472156166097152]}, {"species": [{"element": "Gd", "occu": 1}], "abc": [0.23288412, 0.19150187, 0.12900555], "properties": {"magmom": -6.955}, "label": "Gd", "xyz": [1.6257381850354222, 1.3704969700624834, 0.5645283387380261]}, {"species": [{"element": "B", "occu": 1}], "abc": [0.68468023, 0.49843917, 0.038375], "properties": {"magmom": 0.001}, "label": "B", "xyz": [4.775370259100908, 3.5670995779944286, -0.7882469282540543]}, {"species": [{"element": "B", "occu": 1}], "abc": [0.31531977, 0.99843817, 0.461624999999999], "properties": {"magmom": 0.001}, "label": "B", "xyz": [2.2048443086107876, 7.145385231992039, 2.8249704732876637]}, {"species": [{"element": "B", "occu": 1}], "abc": [0.31531977, 0.50156083, 0.961625], "properties": {"magmom": 0.001}, "label": "B", "xyz": [2.211154390899092, 3.589490892005571, 6.415359748254055]}, {"species": [{"element": "B", "occu": 1}], "abc": [0.68468023, 0.00156183, 0.538374999999999], "properties": {"magmom": 0.001}, "label": "B", "xyz": [4.781680341389212, 0.011205238007961998, 2.8021423467123228]}, {"species": [{"element": "B", "occu": 1}], "abc": [0.07668011, 0.50754193, 0.92822264], "properties": {"magmom": 0.015}, "label": "B", "xyz": [0.5464872906235434, 3.6322935241825576, 6.546295475601052]}, {"species": [{"element": "B", "occu": 1}], "abc": [0.92331889, 0.0075419300000000005, 0.57177836], "properties": {"magmom": 0.015}, "label": "B", "xyz": [6.446340604090139, 0.05400338845229001, 2.6712160050203377]}, {"species": [{"element": "B", "occu": 1}], "abc": [0.92331989, 0.49245807, 0.07177836], "properties": {"magmom": 0.015}, "label": "B", "xyz": [6.440037372006897, 3.524296945871913, -0.9191754747684121]}, {"species": [{"element": "B", "occu": 1}], "abc": [0.07668111, 0.99245807, 0.42822164], "properties": {"magmom": 0.015}, "label": "B", "xyz": [0.5401840459098611, 7.102587081547711, 2.9558968149796625]}, {"species": [{"element": "B", "occu": 1}], "abc": [0.50286237, 0.67294798, 0.039541440000000004], "properties": {"magmom": 0.001}, "label": "B", "xyz": [3.507410155040519, 4.81597894239245, -0.4973575102568195]}, {"species": [{"element": "B", "occu": 1}], "abc": [0.49713763, 0.17294798, 0.46045756], "properties": {"magmom": 0.001}, "label": "B", "xyz": [3.4727976688932674, 1.2377328712574802, 2.5340384415412824]}, {"species": [{"element": "B", "occu": 1}], "abc": [0.49713763, 0.32705202, 0.96045756], "properties": {"magmom": 0.001}, "label": "B", "xyz": [3.4791144823290407, 2.3406115275530808, 6.124463149424179]}, {"species": [{"element": "B", "occu": 1}], "abc": [0.50286237, 0.82705202, 0.53954244], "properties": {"magmom": 0.001}, "label": "B", "xyz": [3.5137269811067324, 5.91885759874252, 3.0930743784587174]}, {"species": [{"element": "B", "occu": 1}], "abc": [0.50119809, 0.09035767, 0.90993804], "properties": {"magmom": 0.0}, "label": "B", "xyz": [3.506791127642054, 0.6466966526585104, 5.755369009786421]}, {"species": [{"element": "B", "occu": 1}], "abc": [0.49880191, 0.5903576700000001, 0.59006196], "properties": {"magmom": 0.0}, "label": "B", "xyz": [3.4860454409545616, 4.224948243848718, 3.4621427515495347]}, {"species": [{"element": "B", "occu": 1}], "abc": [0.49880091, 0.90964233, 0.09006296], "properties": {"magmom": 0.0}, "label": "B", "xyz": [3.479726561104516, 6.50989381739798, -0.12824745517953118]}, {"species": [{"element": "B", "occu": 1}], "abc": [0.50119809, 0.40964233, 0.40993804], "properties": {"magmom": 0.0}, "label": "B", "xyz": [3.500479209045438, 2.9316422261512836, 2.164970068450465]}, {"species": [{"element": "B", "occu": 1}], "abc": [0.50315396, 0.0386073, 0.67344783], "properties": {"magmom": 0.001}, "label": "B", "xyz": [3.5174436273800525, 0.2763302766318469, 4.054130593562981]}, {"species": [{"element": "B", "occu": 1}], "abc": [0.49684604, 0.538608299999999, 0.82655217], "properties": {"magmom": 0.001}, "label": "B", "xyz": [3.4753918710292515, 3.8546147955052588, 5.163375534282128]}, {"species": [{"element": "B", "occu": 1}], "abc": [0.49684604, 0.9613917, 0.32655217000000003], "properties": {"magmom": 0.001}, "label": "B", "xyz": [3.4690810226096076, 6.8802530368301325, 1.57298222638259]}, {"species": [{"element": "B", "occu": 1}], "abc": [0.50315396, 0.461391699999999, 0.17344783], "properties": {"magmom": 0.001}, "label": "B", "xyz": [3.5111327789707487, 3.3019756744947277, 0.4637372857178721]}]}, "task_ids": null, "uncorrected_energy_per_atom": null, "energy_per_atom": -18.260243058928573, "formation_energy_per_atom": -0.613702832142856, "energy_above_hull": 0.0, "is_stable": true, "equilibrium_reaction_energy_per_atom": null, "decomposes_to": null, "xas": null, "grain_boundaries": null, "band_gap": 0.0, "cbm": null, "vbm": null, "efermi": 4.80748213, "is_gap_direct": null, "is_metal": null, "es_source_calc_id": null, "bandstructure": null, "dos": null, "dos_energy_up": null, "dos_energy_down": null, "is_magnetic": null, "ordering": null, "total_magnetization": 0.0731671, "total_magnetization_normalized_vol": null, "total_magnetization_normalized_formula_units": null, "num_magnetic_sites": null, "num_unique_magnetic_sites": null, "types_of_magnetic_species": null, "bulk_modulus": null, "shear_modulus": null, "universal_anisotropy": null, "homogeneous_poisson": null, "e_total": null, "e_ionic": null, "e_electronic": null, "n": null, "e_ij_max": null, "weighted_surface_energy_EV_PER_ANG2": null, "weighted_surface_energy": null, "weighted_work_function": null, "surface_anisotropy": null, "shape_factor": null, "has_reconstructed": null, "possible_species": null, "has_props": null, "theoretical": null, "database_IDs": null, "fields_not_requested": ["builder_meta", "nsites", "elements", "nelements", "composition", "composition_reduced", "chemsys", "symmetry", "property_name", "deprecated", "deprecation_reasons", "last_updated", "origins", "warnings", "task_ids", "uncorrected_energy_per_atom", "equilibrium_reaction_energy_per_atom", "decomposes_to", "xas", "grain_boundaries", "cbm", "vbm", "is_gap_direct", "is_metal", "es_source_calc_id", "bandstructure", "dos", "dos_energy_up", "dos_energy_down", "is_magnetic", "ordering", "total_magnetization_normalized_vol", "total_magnetization_normalized_formula_units", "num_magnetic_sites", "num_unique_magnetic_sites", "types_of_magnetic_species", "bulk_modulus", "shear_modulus", "universal_anisotropy", "homogeneous_poisson", "e_total", "e_ionic", "e_electronic", "n", "e_ij_max", "weighted_surface_energy_EV_PER_ANG2", "weighted_surface_energy", "weighted_work_function", "surface_anisotropy", "shape_factor", "has_reconstructed", "possible_species", "has_props", "theoretical", "database_IDs"]}