{
  "builder_meta": null,
  "nsites": null,
  "elements": null,
  "nelements": null,
  "composition": null,
  "composition_reduced": null,
  "formula_pretty": "Gd2C3",
  "formula_anonymous": "A2B3",
  "chemsys": null,
  "volume": 289.80973483106754,
  "density": 8.033853610702655,
  "density_atomic": 14.490486741553378,
  "symmetry": null,
  "property_name": null,
  "material_id": "mp-1189998",
  "deprecated": null,
  "deprecation_reasons": null,
  "last_updated": null,
  "origins": null,
  "warnings": null,
  "structure": {
    "@module": "pymatgen.core.structure",
    "@class": "Structure",
    "charge": 0,
    "lattice": {
      "matrix": [
        [-4.16886421, -4.16886318, 4.16886317],
        [-4.16886318, 4.16886317, -4.16886317],
        [4.16886318, -4.16886317, -4.16886317]
      ],
      "pbc": [true, true, true],
      "a": 7.220683426460481,
      "b": 7.220682826016152,
      "c": 7.220682826016152,
      "alpha": 109.47122069927931,
      "beta": 109.47122397110428,
      "gamma": 109.47121386408038,
      "volume": 289.80973483106754
    },
    "properties": {},
    "sites": [
      {
        "species": [{ "element": "Gd", "occu": 1 }],
        "abc": [0.10124726, -0.0, 0.5],
        "properties": { "magmom": 6.923 },
        "label": "Gd",
        "xyz": [1.6623455114254353, -2.506517559289887, -1.6623456117225857]
      },
      {
        "species": [{ "element": "Gd", "occu": 1 }],
        "abc": [0.0, 0.5, 0.10124626],
        "properties": { "magmom": 6.923 },
        "label": "Gd",
        "xyz": [-1.662349784573293, 1.6623497805857557, -2.506513389414244]
      },
      {
        "species": [{ "element": "Gd", "occu": 1 }],
        "abc": [0.5, 0.10124726, -0.0],
        "properties": { "magmom": 6.923 },
        "label": "Gd",
        "xyz": [-2.5065180792898865, -1.6623456167225856, 1.6623456117225857]
      },
      {
        "species": [{ "element": "Gd", "occu": 1 }],
        "abc": [0.39875274, 0.39875274, 0.39875274],
        "properties": { "magmom": 6.923 },
        "label": "Gd",
        "xyz": [-1.6623460264254353, -1.662345615710113, -1.6623456117225857]
      },
      {
        "species": [{ "element": "Gd", "occu": 1 }],
        "abc": [0.0, 0.5, 0.6012472600000001],
        "properties": { "magmom": 6.923 },
        "label": "Gd",
        "xyz": [0.42208597428988703, -0.42208597327741426, -4.590949143277414]
      },
      {
        "species": [{ "element": "Gd", "occu": 1 }],
        "abc": [0.6012472600000001, -0.0, 0.5],
        "properties": { "magmom": 6.923 },
        "label": "Gd",
        "xyz": [-0.4220865935745648, -4.590949149289887, 0.42208597327741426]
      },
      {
        "species": [{ "element": "Gd", "occu": 1 }],
        "abc": [0.5, 0.6012472600000001, -0.0],
        "properties": { "magmom": 6.923 },
        "label": "Gd",
        "xyz": [-4.590949669289887, 0.4220859682774143, -0.42208597327741426]
      },
      {
        "species": [{ "element": "Gd", "occu": 1 }],
        "abc": [0.89875274, 0.89875274, 0.89875374],
        "properties": { "magmom": 6.923 },
        "label": "Gd",
        "xyz": [-3.746773962562256, -3.7467813745732825, -3.7467813655857554]
      },
      {
        "species": [{ "element": "C", "occu": 1 }],
        "abc": [0.29508502000000003, 0.75, 0.54508502],
        "properties": { "magmom": -0.039 },
        "label": "C",
        "xyz": [-2.0844318939375706, -0.3759065617442774, -4.16886317]
      },
      {
        "species": [{ "element": "C", "occu": 1 }],
        "abc": [0.20491498, 0.25, 0.95491498],
        "properties": { "magmom": -0.039 },
        "label": "C",
        "xyz": [2.0844313789375706, -3.792956613255723, -4.16886317]
      },
      {
        "species": [{ "element": "C", "occu": 1 }],
        "abc": [0.04508502, 0.25, 0.79508502],
        "properties": { "magmom": -0.039 },
        "label": "C",
        "xyz": [2.084431543562429, -2.460338144244277, -4.16886317]
      },
      {
        "species": [{ "element": "C", "occu": 1 }],
        "abc": [0.45491498, 0.75, 0.70491498],
        "properties": { "magmom": -0.039 },
        "label": "C",
        "xyz": [-2.08443205856243, -1.708525030755723, -4.16886317]
      },
      {
        "species": [{ "element": "C", "occu": 1 }],
        "abc": [0.75, 0.54508502, 0.29508502000000003],
        "properties": { "magmom": -0.039 },
        "label": "C",
        "xyz": [-4.1688639525, -2.0844315925, -0.37590655879342716]
      },
      {
        "species": [{ "element": "C", "occu": 1 }],
        "abc": [0.25, 0.95491498, 0.20491498],
        "properties": { "magmom": -0.039 },
        "label": "C",
        "xyz": [-4.1688634375, 2.0844315824999997, -3.7929566112065727]
      },
      {
        "species": [{ "element": "C", "occu": 1 }],
        "abc": [0.25, 0.79508502, 0.04508502],
        "properties": { "magmom": -0.039 },
        "label": "C",
        "xyz": [-4.168863437500001, 2.0844315825, -2.460338143793427]
      },
      {
        "species": [{ "element": "C", "occu": 1 }],
        "abc": [0.75, 0.70491498, 0.45491498],
        "properties": { "magmom": -0.039 },
        "label": "C",
        "xyz": [-4.1688639525, -2.0844315925000005, -1.708525026206573]
      },
      {
        "species": [{ "element": "C", "occu": 1 }],
        "abc": [0.54508502, 0.29508502000000003, 0.75],
        "properties": { "magmom": -0.039 },
        "label": "C",
        "xyz": [-0.37590712113269786, -4.16886317545085, -2.084431585]
      },
      {
        "species": [{ "element": "C", "occu": 1 }],
        "abc": [0.95491498, 0.20491498, 0.25],
        "properties": { "magmom": -0.039 },
        "label": "C",
        "xyz": [-3.7929576038673023, -4.168863179549149, 2.0844315849999995]
      },
      {
        "species": [{ "element": "C", "occu": 1 }],
        "abc": [0.79508502, 0.04508502, 0.25],
        "properties": { "magmom": -0.039 },
        "label": "C",
        "xyz": [-2.4603389686326977, -4.1688631779508505, 2.084431585]
      },
      {
        "species": [{ "element": "C", "occu": 1 }],
        "abc": [0.70491498, 0.45491498, 0.75],
        "properties": { "magmom": -0.039 },
        "label": "C",
        "xyz": [-1.708525756367302, -4.1688631770491495, -2.084431585]
      }
    ]
  },
  "task_ids": null,
  "uncorrected_energy_per_atom": null,
  "energy_per_atom": -11.397210140999999,
  "formation_energy_per_atom": -0.22956194949999803,
  "energy_above_hull": 0.0,
  "is_stable": true,
  "equilibrium_reaction_energy_per_atom": null,
  "decomposes_to": null,
  "xas": null,
  "grain_boundaries": null,
  "band_gap": 0.0,
  "cbm": null,
  "vbm": null,
  "efermi": 4.92997471,
  "is_gap_direct": null,
  "is_metal": null,
  "es_source_calc_id": null,
  "bandstructure": null,
  "dos": null,
  "dos_energy_up": null,
  "dos_energy_down": null,
  "is_magnetic": null,
  "ordering": null,
  "total_magnetization": 56.4795759,
  "total_magnetization_normalized_vol": null,
  "total_magnetization_normalized_formula_units": null,
  "num_magnetic_sites": null,
  "num_unique_magnetic_sites": null,
  "types_of_magnetic_species": null,
  "bulk_modulus": null,
  "shear_modulus": null,
  "universal_anisotropy": null,
  "homogeneous_poisson": null,
  "e_total": null,
  "e_ionic": null,
  "e_electronic": null,
  "n": null,
  "e_ij_max": null,
  "weighted_surface_energy_EV_PER_ANG2": null,
  "weighted_surface_energy": null,
  "weighted_work_function": null,
  "surface_anisotropy": null,
  "shape_factor": null,
  "has_reconstructed": null,
  "possible_species": null,
  "has_props": null,
  "theoretical": null,
  "database_IDs": null,
  "fields_not_requested": [
    "builder_meta",
    "nsites",
    "elements",
    "nelements",
    "composition",
    "composition_reduced",
    "chemsys",
    "symmetry",
    "property_name",
    "deprecated",
    "deprecation_reasons",
    "last_updated",
    "origins",
    "warnings",
    "task_ids",
    "uncorrected_energy_per_atom",
    "equilibrium_reaction_energy_per_atom",
    "decomposes_to",
    "xas",
    "grain_boundaries",
    "cbm",
    "vbm",
    "is_gap_direct",
    "is_metal",
    "es_source_calc_id",
    "bandstructure",
    "dos",
    "dos_energy_up",
    "dos_energy_down",
    "is_magnetic",
    "ordering",
    "total_magnetization_normalized_vol",
    "total_magnetization_normalized_formula_units",
    "num_magnetic_sites",
    "num_unique_magnetic_sites",
    "types_of_magnetic_species",
    "bulk_modulus",
    "shear_modulus",
    "universal_anisotropy",
    "homogeneous_poisson",
    "e_total",
    "e_ionic",
    "e_electronic",
    "n",
    "e_ij_max",
    "weighted_surface_energy_EV_PER_ANG2",
    "weighted_surface_energy",
    "weighted_work_function",
    "surface_anisotropy",
    "shape_factor",
    "has_reconstructed",
    "possible_species",
    "has_props",
    "theoretical",
    "database_IDs"
  ]
}
