{
  "builder_meta": null,
  "nsites": null,
  "elements": null,
  "nelements": null,
  "composition": null,
  "composition_reduced": null,
  "formula_pretty": "Gd2Cl3",
  "formula_anonymous": "A2B3",
  "chemsys": null,
  "volume": 273.76022379706694,
  "density": 5.105583282604672,
  "density_atomic": 27.376022379706693,
  "symmetry": null,
  "property_name": null,
  "material_id": "mp-1078829",
  "deprecated": null,
  "deprecation_reasons": null,
  "last_updated": null,
  "origins": null,
  "warnings": null,
  "structure": {
    "@module": "pymatgen.core.structure",
    "@class": "Structure",
    "charge": 0,
    "lattice": {
      "matrix": [
        [3.83362551, 0.00023344000000000001, 0.78844245],
        [1.4466522400000001, 7.39723869, 2.68003677],
        [0.00977688, 0.01292532, 9.65992701]
      ],
      "pbc": [true, true, true],
      "a": 3.91386332188274,
      "b": 7.999658744526666,
      "c": 9.659940604879887,
      "alpha": 70.33995073660546,
      "beta": 78.3203320438904,
      "gamma": 75.83730545362225,
      "volume": 273.76022379706694
    },
    "properties": {},
    "sites": [
      {
        "species": [{ "element": "Gd", "occu": 1 }],
        "abc": [0.45141482, 0.7519665600000001, 0.34266511],
        "properties": { "magmom": 7.024 },
        "label": "Gd",
        "xyz": [2.8217396736338096, 5.567010565693374, 5.681332588731141]
      },
      {
        "species": [{ "element": "Gd", "occu": 1 }],
        "abc": [0.72742293, 0.78248488, 0.75988807],
        "properties": { "magmom": -7.024 },
        "label": "Gd",
        "xyz": [3.9280799398988973, 5.798219034753719, 10.011082659454189]
      },
      {
        "species": [{ "element": "Gd", "occu": 1 }],
        "abc": [0.99639849, 0.00019054, 0.0045547],
        "properties": { "magmom": 7.206 },
        "label": "Gd",
        "xyz": [3.8201388452626257, 0.0017009400785022, 0.8301115903905033]
      },
      {
        "species": [{ "element": "Gd", "occu": 1 }],
        "abc": [0.18267315, 0.53420274, 0.097975899999999],
        "properties": { "magmom": -7.206 },
        "label": "Gd",
        "xyz": [1.4740639368843864, 3.9529341897119346, 2.522150294509017]
      },
      {
        "species": [{ "element": "Cl", "occu": 1 }],
        "abc": [0.54327699, 0.12282263, 0.7878773800000001],
        "properties": { "magmom": -0.001 },
        "label": "Cl",
        "xyz": [2.2681051432711805, 0.9188587004813619, 8.368349789242366]
      },
      {
        "species": [{ "element": "Cl", "occu": 1 }],
        "abc": [0.63569327, 0.41172885000000004, 0.31460569],
        "properties": { "magmom": 0.001 },
        "label": "Cl",
        "xyz": [3.035714261610889, 3.0498713544632268, 4.643724018847813]
      },
      {
        "species": [{ "element": "Cl", "occu": 1 }],
        "abc": [0.93038633, 0.57918926, 0.55735505],
        "properties": { "magmom": -0.0 },
        "label": "Cl",
        "xyz": [4.410087402647465, 4.291822384664211, 7.6698136927156995]
      },
      {
        "species": [{ "element": "Cl", "occu": 1 }],
        "abc": [0.24826479, 0.95518354, 0.54524533],
        "properties": { "magmom": 0.0 },
        "label": "Cl",
        "xyz": [2.3389034380928932, 7.072826063440496, 8.022699598918464]
      },
      {
        "species": [{ "element": "Cl", "occu": 1 }],
        "abc": [0.35684165, 0.11230089, 0.17181777],
        "properties": { "magmom": -0.007 },
        "label": "Cl",
        "xyz": [1.5321374282621427, 0.8330205892031465, 2.2420667365127356]
      },
      {
        "species": [{ "element": "Cl", "occu": 1 }],
        "abc": [0.82225359, 0.42216112, 0.930678999999999],
        "properties": { "magmom": 0.007 },
        "label": "Cl",
        "xyz": [3.7720318051035093, 3.135047841048063, 10.76999816922506]
      }
    ]
  },
  "task_ids": null,
  "uncorrected_energy_per_atom": null,
  "energy_per_atom": -23.102012621,
  "formation_energy_per_atom": -2.051747162499998,
  "energy_above_hull": 0.0,
  "is_stable": true,
  "equilibrium_reaction_energy_per_atom": null,
  "decomposes_to": null,
  "xas": null,
  "grain_boundaries": null,
  "band_gap": 0.1814,
  "cbm": null,
  "vbm": null,
  "efermi": 4.06503389,
  "is_gap_direct": null,
  "is_metal": null,
  "es_source_calc_id": null,
  "bandstructure": null,
  "dos": null,
  "dos_energy_up": null,
  "dos_energy_down": null,
  "is_magnetic": null,
  "ordering": null,
  "total_magnetization": 0.0,
  "total_magnetization_normalized_vol": null,
  "total_magnetization_normalized_formula_units": null,
  "num_magnetic_sites": null,
  "num_unique_magnetic_sites": null,
  "types_of_magnetic_species": null,
  "bulk_modulus": null,
  "shear_modulus": null,
  "universal_anisotropy": null,
  "homogeneous_poisson": null,
  "e_total": null,
  "e_ionic": null,
  "e_electronic": null,
  "n": null,
  "e_ij_max": null,
  "weighted_surface_energy_EV_PER_ANG2": null,
  "weighted_surface_energy": null,
  "weighted_work_function": null,
  "surface_anisotropy": null,
  "shape_factor": null,
  "has_reconstructed": null,
  "possible_species": null,
  "has_props": null,
  "theoretical": null,
  "database_IDs": null,
  "fields_not_requested": [
    "builder_meta",
    "nsites",
    "elements",
    "nelements",
    "composition",
    "composition_reduced",
    "chemsys",
    "symmetry",
    "property_name",
    "deprecated",
    "deprecation_reasons",
    "last_updated",
    "origins",
    "warnings",
    "task_ids",
    "uncorrected_energy_per_atom",
    "equilibrium_reaction_energy_per_atom",
    "decomposes_to",
    "xas",
    "grain_boundaries",
    "cbm",
    "vbm",
    "is_gap_direct",
    "is_metal",
    "es_source_calc_id",
    "bandstructure",
    "dos",
    "dos_energy_up",
    "dos_energy_down",
    "is_magnetic",
    "ordering",
    "total_magnetization_normalized_vol",
    "total_magnetization_normalized_formula_units",
    "num_magnetic_sites",
    "num_unique_magnetic_sites",
    "types_of_magnetic_species",
    "bulk_modulus",
    "shear_modulus",
    "universal_anisotropy",
    "homogeneous_poisson",
    "e_total",
    "e_ionic",
    "e_electronic",
    "n",
    "e_ij_max",
    "weighted_surface_energy_EV_PER_ANG2",
    "weighted_surface_energy",
    "weighted_work_function",
    "surface_anisotropy",
    "shape_factor",
    "has_reconstructed",
    "possible_species",
    "has_props",
    "theoretical",
    "database_IDs"
  ]
}
