{
  "builder_meta": null,
  "nsites": null,
  "elements": null,
  "nelements": null,
  "composition": null,
  "composition_reduced": null,
  "formula_pretty": "Gd2In",
  "formula_anonymous": "AB2",
  "chemsys": null,
  "volume": 173.31379458639503,
  "density": 8.226688622170881,
  "density_atomic": 28.88563243106584,
  "symmetry": null,
  "property_name": null,
  "material_id": "mp-638079",
  "deprecated": null,
  "deprecation_reasons": null,
  "last_updated": null,
  "origins": null,
  "warnings": null,
  "structure": {
    "@module": "pymatgen.core.structure",
    "@class": "Structure",
    "charge": 0,
    "lattice": {
      "matrix": [
        [5.44231435, 2.969999999999998e-6, 7.604000000000001e-5],
        [-2.72115508, 4.71304576, -4.5260000000000004e-5],
        [9.714000000000001e-5, -9.58e-6, 6.75690347]
      ],
      "pbc": [true, true, true],
      "a": 5.442314350532026,
      "b": 5.4421948979536054,
      "c": 6.756903470705054,
      "alpha": 90.0009587133041,
      "beta": 89.99837575608895,
      "gamma": 120.00066934589184,
      "volume": 173.31379458639503
    },
    "properties": {},
    "sites": [
      {
        "species": [{ "element": "Gd", "occu": 1 }],
        "abc": [0.33333532, 0.66667612, 0.75001429],
        "properties": { "magmom": 7.195 },
        "label": "Gd",
        "xyz": [5.934113328310406e-5, 3.142068865528253, 5.067769331707128]
      },
      {
        "species": [{ "element": "Gd", "occu": 1 }],
        "abc": [0.99999746, 6.179999999999998e-6, 0.99996092],
        "properties": { "magmom": 7.377 },
        "label": "Gd",
        "xyz": [5.442380845986925, 2.251698963939999e-5, 6.756715449739544]
      },
      {
        "species": [{ "element": "Gd", "occu": 1 }],
        "abc": [0.99999823, 1.429999999999999e-6, 0.50003791],
        "properties": { "magmom": 7.377 },
        "label": "Gd",
        "xyz": [5.442349399534414, 4.919287002099993e-6, 3.3787839290112354]
      },
      {
        "species": [{ "element": "Gd", "occu": 1 }],
        "abc": [0.66666572, 0.33332216000000003, 0.24998076],
        "properties": { "magmom": 7.194 },
        "label": "Gd",
        "xyz": [2.7212074087795357, 1.5709621780835492, 1.6891314717776245]
      },
      {
        "species": [{ "element": "In", "occu": 1 }],
        "abc": [0.66667714, 0.33335363, 0.74999872],
        "properties": { "magmom": -0.14200000000000002 },
        "label": "In",
        "xyz": [2.7212324970036796, 1.5711057074954768, 5.06770456020799]
      },
      {
        "species": [{ "element": "In", "occu": 1 }],
        "abc": [0.33332713, 0.66664049, 0.2500054],
        "properties": { "magmom": -0.14200000000000002 },
        "label": "In",
        "xyz": [6.315247068242571e-5, 3.1419057297686668, 1.6892575288251257]
      }
    ]
  },
  "task_ids": null,
  "uncorrected_energy_per_atom": null,
  "energy_per_atom": -36.940455271666664,
  "formation_energy_per_atom": -0.48292161166665903,
  "energy_above_hull": 0.0,
  "is_stable": true,
  "equilibrium_reaction_energy_per_atom": null,
  "decomposes_to": null,
  "xas": null,
  "grain_boundaries": null,
  "band_gap": 0.0,
  "cbm": null,
  "vbm": null,
  "efermi": 4.52021362,
  "is_gap_direct": null,
  "is_metal": null,
  "es_source_calc_id": null,
  "bandstructure": null,
  "dos": null,
  "dos_energy_up": null,
  "dos_energy_down": null,
  "is_magnetic": null,
  "ordering": null,
  "total_magnetization": 30.7488421,
  "total_magnetization_normalized_vol": null,
  "total_magnetization_normalized_formula_units": null,
  "num_magnetic_sites": null,
  "num_unique_magnetic_sites": null,
  "types_of_magnetic_species": null,
  "bulk_modulus": null,
  "shear_modulus": null,
  "universal_anisotropy": null,
  "homogeneous_poisson": null,
  "e_total": null,
  "e_ionic": null,
  "e_electronic": null,
  "n": null,
  "e_ij_max": null,
  "weighted_surface_energy_EV_PER_ANG2": null,
  "weighted_surface_energy": null,
  "weighted_work_function": null,
  "surface_anisotropy": null,
  "shape_factor": null,
  "has_reconstructed": null,
  "possible_species": null,
  "has_props": null,
  "theoretical": null,
  "database_IDs": null,
  "fields_not_requested": [
    "builder_meta",
    "nsites",
    "elements",
    "nelements",
    "composition",
    "composition_reduced",
    "chemsys",
    "symmetry",
    "property_name",
    "deprecated",
    "deprecation_reasons",
    "last_updated",
    "origins",
    "warnings",
    "task_ids",
    "uncorrected_energy_per_atom",
    "equilibrium_reaction_energy_per_atom",
    "decomposes_to",
    "xas",
    "grain_boundaries",
    "cbm",
    "vbm",
    "is_gap_direct",
    "is_metal",
    "es_source_calc_id",
    "bandstructure",
    "dos",
    "dos_energy_up",
    "dos_energy_down",
    "is_magnetic",
    "ordering",
    "total_magnetization_normalized_vol",
    "total_magnetization_normalized_formula_units",
    "num_magnetic_sites",
    "num_unique_magnetic_sites",
    "types_of_magnetic_species",
    "bulk_modulus",
    "shear_modulus",
    "universal_anisotropy",
    "homogeneous_poisson",
    "e_total",
    "e_ionic",
    "e_electronic",
    "n",
    "e_ij_max",
    "weighted_surface_energy_EV_PER_ANG2",
    "weighted_surface_energy",
    "weighted_work_function",
    "surface_anisotropy",
    "shape_factor",
    "has_reconstructed",
    "possible_species",
    "has_props",
    "theoretical",
    "database_IDs"
  ]
}
