{"builder_meta": null, "nsites": null, "elements": null, "nelements": null, "composition": null, "composition_reduced": null, "formula_pretty": "Gd2Mg", "formula_anonymous": "AB2", "chemsys": null, "volume": 178.8885784039371, "density": 6.289936937047412, "density_atomic": 29.814763067322847, "symmetry": null, "property_name": null, "material_id": "mp-865078", "deprecated": null, "deprecation_reasons": null, "last_updated": null, "origins": null, "warnings": null, "structure": {"@module": "pymatgen.core.structure", "@class": "Structure", "charge": 0, "lattice": {"matrix": [[3.7204702, 1e-08, 0.0], [1.86023563, 8.74218254, 0.0], [0.0, 0.0, 5.50002815]], "pbc": [true, true, true], "a": 3.7204702, "b": 8.937909831823228, "c": 5.50002815, "alpha": 90.0, "beta": 90.0, "gamma": 77.98728756141523, "volume": 178.8885784039371}, "properties": {}, "sites": [{"species": [{"element": "Gd", "occu": 1}], "abc": [0.97750116, 0.04500168, -0.0], "properties": {"magmom": 7.307}, "label": "Gd", "xyz": [3.72047766479129, 0.3934129109416788, 0.0]}, {"species": [{"element": "Gd", "occu": 1}], "abc": [0.66118568, 0.67763163, 0.0], "properties": {"magmom": -7.219}, "label": "Gd", "xyz": [3.720476121247713, 5.923979410949597, 0.0]}, {"species": [{"element": "Gd", "occu": 1}], "abc": [0.80027884, 0.39944232, 0.5], "properties": {"magmom": 7.307}, "label": "Gd", "xyz": [3.7204704117044294, 3.491997683643881, 2.750014075]}, {"species": [{"element": "Gd", "occu": 1}], "abc": [0.11659232, 0.76681437, 0.5], "properties": {"magmom": -7.219}, "label": "Gd", "xyz": [1.860233664778867, 6.703631198001023, 2.750014075]}, {"species": [{"element": "Mg", "occu": 1}], "abc": [0.31989703, 0.36020495, -0.0], "properties": {"magmom": -0.0}, "label": "Mg", "xyz": [1.8602334492758745, 3.148977427910544, 0.0]}, {"species": [{"element": "Mg", "occu": 1}], "abc": [0.45787997, 0.08423905, 0.5], "properties": {"magmom": -0.0}, "label": "Mg", "xyz": [1.8602332658092455, 0.7364331566749867, 2.750014075]}]}, "task_ids": null, "uncorrected_energy_per_atom": null, "energy_per_atom": -30.343570438333334, "formation_energy_per_atom": -0.022465710000001003, "energy_above_hull": 0.030073251666667, "is_stable": false, "equilibrium_reaction_energy_per_atom": null, "decomposes_to": null, "xas": null, "grain_boundaries": null, "band_gap": 0.0, "cbm": null, "vbm": null, "efermi": 2.59108401, "is_gap_direct": null, "is_metal": null, "es_source_calc_id": null, "bandstructure": null, "dos": null, "dos_energy_up": null, "dos_energy_down": null, "is_magnetic": null, "ordering": null, "total_magnetization": 0.6981495, "total_magnetization_normalized_vol": null, "total_magnetization_normalized_formula_units": null, "num_magnetic_sites": null, "num_unique_magnetic_sites": null, "types_of_magnetic_species": null, "bulk_modulus": null, "shear_modulus": null, "universal_anisotropy": null, "homogeneous_poisson": null, "e_total": null, "e_ionic": null, "e_electronic": null, "n": null, "e_ij_max": null, "weighted_surface_energy_EV_PER_ANG2": null, "weighted_surface_energy": null, "weighted_work_function": null, "surface_anisotropy": null, "shape_factor": null, "has_reconstructed": null, "possible_species": null, "has_props": null, "theoretical": null, "database_IDs": null, "fields_not_requested": ["builder_meta", "nsites", "elements", "nelements", "composition", "composition_reduced", "chemsys", "symmetry", "property_name", "deprecated", "deprecation_reasons", "last_updated", "origins", "warnings", "task_ids", "uncorrected_energy_per_atom", "equilibrium_reaction_energy_per_atom", "decomposes_to", "xas", "grain_boundaries", "cbm", "vbm", "is_gap_direct", "is_metal", "es_source_calc_id", "bandstructure", "dos", "dos_energy_up", "dos_energy_down", "is_magnetic", "ordering", "total_magnetization_normalized_vol", "total_magnetization_normalized_formula_units", "num_magnetic_sites", "num_unique_magnetic_sites", "types_of_magnetic_species", "bulk_modulus", "shear_modulus", "universal_anisotropy", "homogeneous_poisson", "e_total", "e_ionic", "e_electronic", "n", "e_ij_max", "weighted_surface_energy_EV_PER_ANG2", "weighted_surface_energy", "weighted_work_function", "surface_anisotropy", "shape_factor", "has_reconstructed", "possible_species", "has_props", "theoretical", "database_IDs"]}