{
  "builder_meta": null,
  "nsites": null,
  "elements": null,
  "nelements": null,
  "composition": null,
  "composition_reduced": null,
  "formula_pretty": "Gd2Ni7",
  "formula_anonymous": "A2B7",
  "chemsys": null,
  "volume": 254.59167744366292,
  "density": 9.462040032893807,
  "density_atomic": 14.143982080203495,
  "symmetry": null,
  "property_name": null,
  "material_id": "mp-669713",
  "deprecated": null,
  "deprecation_reasons": null,
  "last_updated": null,
  "origins": null,
  "warnings": null,
  "structure": {
    "@module": "pymatgen.core.structure",
    "@class": "Structure",
    "charge": 0,
    "lattice": {
      "matrix": [
        [4.84621956, -0.00033063, 11.35639907],
        [2.32155655, 4.25396527, 11.35639907],
        [-0.00055714, -0.00033063, 12.34721228]
      ],
      "pbc": [true, true, true],
      "a": 12.347211991787443,
      "b": 12.347212040388346,
      "c": 12.347212296996597,
      "alpha": 23.112423784743864,
      "beta": 23.112423249519722,
      "gamma": 23.112424317364244,
      "volume": 254.5916774436629
    },
    "properties": {},
    "sites": [
      {
        "species": [{ "element": "Gd", "occu": 1 }],
        "abc": [0.94911425, 0.94911425, 0.94911425],
        "properties": { "magmom": -7.041 },
        "label": "Gd",
        "xyz": [6.802509657297322, 4.0368714454731425, 33.275955494770486]
      },
      {
        "species": [{ "element": "Gd", "occu": 1 }],
        "abc": [0.14727135, 0.14727135, 0.14727135],
        "properties": { "magmom": -7.044 },
        "label": "Gd",
        "xyz": [1.0555260134575095, 0.6263898235131135, 5.163335065567467]
      },
      {
        "species": [{ "element": "Gd", "occu": 1 }],
        "abc": [0.05088575, 0.05088575, 0.05088575],
        "properties": { "magmom": -7.041 },
        "label": "Gd",
        "xyz": [0.36470931270267753, 0.21643256452685752, 1.784054925229515]
      },
      {
        "species": [{ "element": "Gd", "occu": 1 }],
        "abc": [0.85272865, 0.85272865, 0.85272865],
        "properties": { "magmom": -7.044 },
        "label": "Gd",
        "xyz": [6.11169295654249, 3.626914186486886, 29.896675354432535]
      },
      {
        "species": [{ "element": "Ni", "occu": 1 }],
        "abc": [0.72156275, 0.72156275, 0.72156275],
        "properties": { "magmom": 0.22 },
        "label": "Ni",
        "xyz": [5.171598229845367, 3.0690257380416273, 25.297997533683855]
      },
      {
        "species": [{ "element": "Ni", "occu": 1 }],
        "abc": [0.3878971, 0.3878971, 0.3878971],
        "properties": { "magmom": 0.23900000000000002 },
        "label": "Ni",
        "xyz": [2.780143453527987, 1.649844290897371, 13.599676367887781]
      },
      {
        "species": [{ "element": "Ni", "occu": 1 }],
        "abc": [0.10972549000000001, 0.6097415700000001, 0.6097415700000001],
        "properties": { "magmom": 0.17300000000000001 },
        "label": "Ni",
        "xyz": [1.9469636400910582, 2.5935815850612265, 15.699163651810116]
      },
      {
        "species": [{ "element": "Ni", "occu": 1 }],
        "abc": [0.6097415700000001, 0.10972549000000001, 0.6097415700000001],
        "properties": { "magmom": 0.189 },
        "label": "Ni",
        "xyz": [3.2093357416722585, 0.46636522598315416, 15.699163651810116]
      },
      {
        "species": [{ "element": "Ni", "occu": 1 }],
        "abc": [0.39025843, 0.39025843, 0.89027451],
        "properties": { "magmom": 0.176 },
        "label": "Ni",
        "xyz": [2.7967890437396052, 1.659722424938774, 19.856269305466306]
      },
      {
        "species": [{ "element": "Ni", "occu": 1 }],
        "abc": [0.6121029, 0.6121029, 0.6121029],
        "properties": { "magmom": 0.23900000000000002 },
        "label": "Ni",
        "xyz": [4.387075516472012, 2.603459719102629, 21.46033405211222]
      },
      {
        "species": [{ "element": "Ni", "occu": 1 }],
        "abc": [0.5, 0.0, 0.5],
        "properties": { "magmom": 0.356 },
        "label": "Ni",
        "xyz": [2.42283121, -0.00033063, 11.851805675000001]
      },
      {
        "species": [{ "element": "Ni", "occu": 1 }],
        "abc": [0.89027451, 0.39025843, 0.39025843],
        "properties": { "magmom": 0.17300000000000001 },
        "label": "Ni",
        "xyz": [5.220255329908942, 1.659722424938774, 19.360846768189887]
      },
      {
        "species": [{ "element": "Ni", "occu": 1 }],
        "abc": [0.5, 0.5, 0.5],
        "properties": { "magmom": 0.092 },
        "label": "Ni",
        "xyz": [3.583609485, 2.1266520050000004, 17.53000521]
      },
      {
        "species": [{ "element": "Ni", "occu": 1 }],
        "abc": [0.39025843, 0.89027451, 0.39025843],
        "properties": { "magmom": 0.189 },
        "label": "Ni",
        "xyz": [3.957883228327741, 3.786938784016846, 19.360846768189887]
      },
      {
        "species": [{ "element": "Ni", "occu": 1 }],
        "abc": [0.27843725, 0.27843725, 0.27843725],
        "properties": { "magmom": 0.22 },
        "label": "Ni",
        "xyz": [1.9956207401546326, 1.1842782719583727, 9.762012886316146]
      },
      {
        "species": [{ "element": "Ni", "occu": 1 }],
        "abc": [0.6097415700000001, 0.6097415700000001, 0.10972549000000001],
        "properties": { "magmom": 0.176 },
        "label": "Ni",
        "xyz": [4.370429926260393, 2.5935815850612265, 15.203741114533699]
      },
      {
        "species": [{ "element": "Ni", "occu": 1 }],
        "abc": [0.0, 0.5, 0.5],
        "properties": { "magmom": 0.295 },
        "label": "Ni",
        "xyz": [1.1604997049999999, 2.1268173200000002, 11.851805675000001]
      },
      {
        "species": [{ "element": "Ni", "occu": 1 }],
        "abc": [0.5, 0.5, 0.0],
        "properties": { "magmom": 0.337 },
        "label": "Ni",
        "xyz": [3.583888055, 2.1268173200000002, 11.35639907]
      }
    ]
  },
  "task_ids": null,
  "uncorrected_energy_per_atom": null,
  "energy_per_atom": -7.993545752222222,
  "formation_energy_per_atom": -0.36985672555555504,
  "energy_above_hull": 0.0,
  "is_stable": true,
  "equilibrium_reaction_energy_per_atom": null,
  "decomposes_to": null,
  "xas": null,
  "grain_boundaries": null,
  "band_gap": 0.0,
  "cbm": null,
  "vbm": null,
  "efermi": 6.37737425,
  "is_gap_direct": null,
  "is_metal": null,
  "es_source_calc_id": null,
  "bandstructure": null,
  "dos": null,
  "dos_energy_up": null,
  "dos_energy_down": null,
  "is_magnetic": null,
  "ordering": null,
  "total_magnetization": 25.9478768,
  "total_magnetization_normalized_vol": null,
  "total_magnetization_normalized_formula_units": null,
  "num_magnetic_sites": null,
  "num_unique_magnetic_sites": null,
  "types_of_magnetic_species": null,
  "bulk_modulus": null,
  "shear_modulus": null,
  "universal_anisotropy": null,
  "homogeneous_poisson": null,
  "e_total": null,
  "e_ionic": null,
  "e_electronic": null,
  "n": null,
  "e_ij_max": null,
  "weighted_surface_energy_EV_PER_ANG2": null,
  "weighted_surface_energy": null,
  "weighted_work_function": null,
  "surface_anisotropy": null,
  "shape_factor": null,
  "has_reconstructed": null,
  "possible_species": null,
  "has_props": null,
  "theoretical": null,
  "database_IDs": null,
  "fields_not_requested": [
    "builder_meta",
    "nsites",
    "elements",
    "nelements",
    "composition",
    "composition_reduced",
    "chemsys",
    "symmetry",
    "property_name",
    "deprecated",
    "deprecation_reasons",
    "last_updated",
    "origins",
    "warnings",
    "task_ids",
    "uncorrected_energy_per_atom",
    "equilibrium_reaction_energy_per_atom",
    "decomposes_to",
    "xas",
    "grain_boundaries",
    "cbm",
    "vbm",
    "is_gap_direct",
    "is_metal",
    "es_source_calc_id",
    "bandstructure",
    "dos",
    "dos_energy_up",
    "dos_energy_down",
    "is_magnetic",
    "ordering",
    "total_magnetization_normalized_vol",
    "total_magnetization_normalized_formula_units",
    "num_magnetic_sites",
    "num_unique_magnetic_sites",
    "types_of_magnetic_species",
    "bulk_modulus",
    "shear_modulus",
    "universal_anisotropy",
    "homogeneous_poisson",
    "e_total",
    "e_ionic",
    "e_electronic",
    "n",
    "e_ij_max",
    "weighted_surface_energy_EV_PER_ANG2",
    "weighted_surface_energy",
    "weighted_work_function",
    "surface_anisotropy",
    "shape_factor",
    "has_reconstructed",
    "possible_species",
    "has_props",
    "theoretical",
    "database_IDs"
  ]
}
