{"builder_meta": null, "nsites": null, "elements": null, "nelements": null, "composition": null, "composition_reduced": null, "formula_pretty": "Gd2O3", "formula_anonymous": "A2B3", "chemsys": null, "volume": 630.9088590562675, "density": 7.632702112600969, "density_atomic": 15.772721476406687, "symmetry": null, "property_name": null, "material_id": "mp-504886", "deprecated": null, "deprecation_reasons": null, "last_updated": null, "origins": null, "warnings": null, "structure": {"@module": "pymatgen.core.structure", "@class": "Structure", "charge": 0, "lattice": {"matrix": [[8.82307379, 0.0, -3.11942725], [-4.41153639, 7.64100535, -3.11942725], [1e-08, 1e-08, 9.35828377]], "pbc": [true, true, true], "a": 9.358282827091065, "b": 9.358282024338944, "c": 9.35828377, "alpha": 109.47122001824157, "beta": 109.47121824177421, "gamma": 109.47122161178902, "volume": 630.9088590562675}, "properties": {}, "sites": [{"species": [{"element": "Gd", "occu": 1}], "abc": [0.5, 0.5, 0.5], "properties": {"magmom": 6.869}, "label": "Gd", "xyz": [2.205768705, 3.82050268, 1.5597146349999997]}, {"species": [{"element": "Gd", "occu": 1}], "abc": [0.0, 0.0, 0.5], "properties": {"magmom": 6.869}, "label": "Gd", "xyz": [5e-09, 5e-09, 4.679141885]}, {"species": [{"element": "Gd", "occu": 1}], "abc": [0.5, 0.0, 0.0], "properties": {"magmom": 6.869}, "label": "Gd", "xyz": [4.411536895, 0.0, -1.559713625]}, {"species": [{"element": "Gd", "occu": 1}], "abc": [0.0, 0.5, 0.0], "properties": {"magmom": 6.869}, "label": "Gd", "xyz": [-2.205768195, 3.820502675, -1.559713625]}, {"species": [{"element": "Gd", "occu": 1}], "abc": [0.25, 0.2183059, 0.968305899999999], "properties": {"magmom": 6.876}, "label": "Gd", "xyz": [1.242704035181358, 1.668076559519624, 7.600835202569458]}, {"species": [{"element": "Gd", "occu": 1}], "abc": [0.2816941, 0.5316941, 0.75], "properties": {"magmom": 6.876}, "label": "Gd", "xyz": [0.13981996750934017, 4.062677470163434, 4.48140751159155]}, {"species": [{"element": "Gd", "occu": 1}], "abc": [0.5316941, 0.75, 0.2816941], "properties": {"magmom": 6.876}, "label": "Gd", "xyz": [1.3825239883245795, 5.730754015316942, -1.3619781775694677]}, {"species": [{"element": "Gd", "occu": 1}], "abc": [0.2183059, 0.968305899999999, 0.25], "properties": {"magmom": 6.876}, "label": "Gd", "xyz": [-2.345587647509336, 7.398830564836558, -1.3619782415915473]}, {"species": [{"element": "Gd", "occu": 1}], "abc": [0.968305899999999, 0.25, 0.2183059], "properties": {"magmom": 6.876}, "label": "Gd", "xyz": [7.440550311675411, 1.9102513396830592, -1.7574480624305298]}, {"species": [{"element": "Gd", "occu": 1}], "abc": [0.75, 0.2816941, 0.5316941], "properties": {"magmom": 6.876}, "label": "Gd", "xyz": [5.374601574818642, 2.1524261304803765, 1.7574495774305317]}, {"species": [{"element": "Gd", "occu": 1}], "abc": [0.75, 0.7816941, 0.031694099999999004], "properties": {"magmom": 6.876}, "label": "Gd", "xyz": [3.168833374818642, 5.972928800480376, -4.481405932569477]}, {"species": [{"element": "Gd", "occu": 1}], "abc": [0.718305899999999, 0.4683059, 0.25], "properties": {"magmom": 6.876}, "label": "Gd", "xyz": [4.271717442490652, 3.578327889836565, -1.3619782415915473]}, {"species": [{"element": "Gd", "occu": 1}], "abc": [0.4683059, 0.25, 0.718305899999999], "properties": {"magmom": 6.876}, "label": "Gd", "xyz": [3.02901342167542, 1.9102513446830591, 4.48140744756946]}, {"species": [{"element": "Gd", "occu": 1}], "abc": [0.7816941, 0.031694099999999004, 0.75], "properties": {"magmom": 6.876}, "label": "Gd", "xyz": [6.757125057509344, 0.2421747951634274, 4.481407511591553]}, {"species": [{"element": "Gd", "occu": 1}], "abc": [0.031694099999999004, 0.75, 0.7816941], "properties": {"magmom": 6.876}, "label": "Gd", "xyz": [-3.0290129016754292, 5.730754020316941, 4.876877332430535]}, {"species": [{"element": "Gd", "occu": 1}], "abc": [0.25, 0.718305899999999, 0.4683059], "properties": {"magmom": 6.876}, "label": "Gd", "xyz": [-0.9630641648186378, 5.488579229519617, 1.361979692569471]}, {"species": [{"element": "O", "occu": 1}], "abc": [0.53029573, 0.77013979, 0.54156195], "properties": {"magmom": -0.025}, "label": "O", "xyz": [1.281338652755578, 5.884642261053496, 1.0114764091786306]}, {"species": [{"element": "O", "occu": 1}], "abc": [0.98873378, 0.95843805, 0.72857784], "properties": {"magmom": -0.025}, "label": "O", "xyz": [4.495486771755765, 7.323430274979346, 0.7441773083192889]}, {"species": [{"element": "O", "occu": 1}], "abc": [0.26015494, 0.77142216, 0.72986021], "properties": {"magmom": -0.025}, "label": "O", "xyz": [-1.1077906911407776, 5.894440858967158, 3.6123092413958173]}, {"species": [{"element": "O", "occu": 1}], "abc": [0.51126622, 0.23984506, 0.96970427], "properties": {"magmom": -0.025}, "label": "O", "xyz": [3.4528543849396836, 1.8326573963281139, 6.731730737026318]}, {"species": [{"element": "O", "occu": 1}], "abc": [0.95843805, 0.72857784, 0.98873378], "properties": {"magmom": -0.025}, "label": "O", "xyz": [5.24222199407345, 5.567067183218782, 3.9903279477757465]}, {"species": [{"element": "O", "occu": 1}], "abc": [0.72986021, 0.26015494, 0.77142216], "properties": {"magmom": -0.025}, "label": "O", "xyz": [5.291927512080851, 1.9878452960831507, 4.130907242923506]}, {"species": [{"element": "O", "occu": 1}], "abc": [0.23984506, 0.96970427, 0.51126622], "properties": {"magmom": -0.025}, "label": "O", "xyz": [-2.161715006983746, 7.409515520100507, 1.0114732285540065]}, {"species": [{"element": "O", "occu": 1}], "abc": [0.54156195, 0.53029573, 0.77013979], "properties": {"magmom": -0.025}, "label": "O", "xyz": [2.438822144051074, 4.051992517713553, 3.863604642274428]}, {"species": [{"element": "O", "occu": 1}], "abc": [0.77013979, 0.54156195, 0.53029573], "properties": {"magmom": -0.025}, "label": "O", "xyz": [4.405879951223701, 4.13807776260939, 0.8708997717308868]}, {"species": [{"element": "O", "occu": 1}], "abc": [0.72857784, 0.98873378, 0.95843805], "properties": {"magmom": -0.025}, "label": "O", "xyz": [2.0664610031709403, 7.5549201122901035, 3.612306583695803]}, {"species": [{"element": "O", "occu": 1}], "abc": [0.77142216, 0.72986021, 0.26015494], "properties": {"magmom": -0.025}, "label": "O", "xyz": [3.586509767494694, 5.576865771963673, -2.248537382235259]}, {"species": [{"element": "O", "occu": 1}], "abc": [0.96970427, 0.51126622, 0.23984506], "properties": {"magmom": -0.025}, "label": "O", "xyz": [6.300302796578788, 3.9065879246927278, -2.3752415706391763]}, {"species": [{"element": "O", "occu": 1}], "abc": [0.46970427000000003, 0.22986021, 0.45843805], "properties": {"magmom": -0.025}, "label": "O", "xyz": [3.1301987572444223, 1.756363098946504, 2.107952860821368]}, {"species": [{"element": "O", "occu": 1}], "abc": [0.01126622, 0.04156195, 0.27142216], "properties": {"magmom": -0.025}, "label": "O", "xyz": [-0.0839493617557651, 0.3175750850206541, 2.375251961680711]}, {"species": [{"element": "O", "occu": 1}], "abc": [0.73984506, 0.22857784, 0.27013979], "properties": {"magmom": -0.025}, "label": "O", "xyz": [5.519328101140778, 1.746564501032842, -0.49287997139581696]}, {"species": [{"element": "O", "occu": 1}], "abc": [0.48873378, 0.7601549400000001, 0.03029573], "properties": {"magmom": -0.025}, "label": "O", "xyz": [0.9586830250603163, 5.8083479636718875, -3.6123014670263185]}, {"species": [{"element": "O", "occu": 1}], "abc": [0.04156195, 0.27142216, 0.01126622], "properties": {"magmom": -0.025}, "label": "O", "xyz": [-0.8306845840734497, 2.0739381767812186, -0.8708986777757483]}, {"species": [{"element": "O", "occu": 1}], "abc": [0.27013979, 0.73984506, 0.22857784], "properties": {"magmom": -0.025}, "label": "O", "xyz": [-0.8803901020808509, 5.65316006391685, -1.011477972923506]}, {"species": [{"element": "O", "occu": 1}], "abc": [0.7601549400000001, 0.03029573, 0.48873378], "properties": {"magmom": -0.025}, "label": "O", "xyz": [6.573252416983746, 0.23148983989949332, 2.1079560414459926]}, {"species": [{"element": "O", "occu": 1}], "abc": [0.45843805, 0.46970427000000003, 0.22986021], "properties": {"magmom": -0.025}, "label": "O", "xyz": [1.9727152659489264, 3.589012842286447, -0.7441753722744289]}, {"species": [{"element": "O", "occu": 1}], "abc": [0.22986021, 0.45843805, 0.46970427000000003], "properties": {"magmom": -0.025}, "label": "O", "xyz": [0.005657458776299363, 3.5029275973906104, 2.2485294982691126]}, {"species": [{"element": "O", "occu": 1}], "abc": [0.27142216, 0.01126622, 0.04156195], "properties": {"magmom": -0.025}, "label": "O", "xyz": [2.3450764068290604, 0.0860852477098965, -0.4928773136958036]}, {"species": [{"element": "O", "occu": 1}], "abc": [0.22857784, 0.27013979, 0.73984506], "properties": {"magmom": -0.025}, "label": "O", "xyz": [0.8250276425053061, 2.064139588036327, 5.367966652235259]}, {"species": [{"element": "O", "occu": 1}], "abc": [0.03029573, 0.48873378, 0.7601549400000001], "properties": {"magmom": -0.025}, "label": "O", "xyz": [-1.8887653865787883, 3.734417435307273, 5.494670840639176]}]}, "task_ids": null, "uncorrected_energy_per_atom": null, "energy_per_atom": -12.494637291, "formation_energy_per_atom": -3.895411792000001, "energy_above_hull": 0.0, "is_stable": true, "equilibrium_reaction_energy_per_atom": null, "decomposes_to": null, "xas": null, "grain_boundaries": null, "band_gap": 2.9411, "cbm": null, "vbm": null, "efermi": 1.60112538, "is_gap_direct": null, "is_metal": null, "es_source_calc_id": null, "bandstructure": null, "dos": null, "dos_energy_up": null, "dos_energy_down": null, "is_magnetic": null, "ordering": null, "total_magnetization": 112.0001729, "total_magnetization_normalized_vol": null, "total_magnetization_normalized_formula_units": null, "num_magnetic_sites": null, "num_unique_magnetic_sites": null, "types_of_magnetic_species": null, "bulk_modulus": null, "shear_modulus": null, "universal_anisotropy": null, "homogeneous_poisson": null, "e_total": null, "e_ionic": null, "e_electronic": null, "n": null, "e_ij_max": null, "weighted_surface_energy_EV_PER_ANG2": null, "weighted_surface_energy": null, "weighted_work_function": null, "surface_anisotropy": null, "shape_factor": null, "has_reconstructed": null, "possible_species": null, "has_props": null, "theoretical": null, "database_IDs": null, "fields_not_requested": ["builder_meta", "nsites", "elements", "nelements", "composition", "composition_reduced", "chemsys", "symmetry", "property_name", "deprecated", "deprecation_reasons", "last_updated", "origins", "warnings", "task_ids", "uncorrected_energy_per_atom", "equilibrium_reaction_energy_per_atom", "decomposes_to", "xas", "grain_boundaries", "cbm", "vbm", "is_gap_direct", "is_metal", "es_source_calc_id", "bandstructure", "dos", "dos_energy_up", "dos_energy_down", "is_magnetic", "ordering", "total_magnetization_normalized_vol", "total_magnetization_normalized_formula_units", "num_magnetic_sites", "num_unique_magnetic_sites", "types_of_magnetic_species", "bulk_modulus", "shear_modulus", "universal_anisotropy", "homogeneous_poisson", "e_total", "e_ionic", "e_electronic", "n", "e_ij_max", "weighted_surface_energy_EV_PER_ANG2", "weighted_surface_energy", "weighted_work_function", "surface_anisotropy", "shape_factor", "has_reconstructed", "possible_species", "has_props", "theoretical", "database_IDs"]}