{
  "builder_meta": null,
  "nsites": null,
  "elements": null,
  "nelements": null,
  "composition": null,
  "composition_reduced": null,
  "formula_pretty": "Gd2Se3",
  "formula_anonymous": "A2B3",
  "chemsys": null,
  "volume": 505.5070882187631,
  "density": 7.244907554259087,
  "density_atomic": 25.275354410938156,
  "symmetry": null,
  "property_name": null,
  "material_id": "mp-1188175",
  "deprecated": null,
  "deprecation_reasons": null,
  "last_updated": null,
  "origins": null,
  "warnings": null,
  "structure": {
    "@module": "pymatgen.core.structure",
    "@class": "Structure",
    "charge": 0,
    "lattice": {
      "matrix": [
        [0.0, 4.07105522, 0.0],
        [0.0, -0.0, 11.06228277],
        [11.2247196, 0.0, 0.0]
      ],
      "pbc": [true, true, true],
      "a": 4.07105522,
      "b": 11.06228277,
      "c": 11.2247196,
      "alpha": 90.0,
      "beta": 90.0,
      "gamma": 90.0,
      "volume": 505.5070882187631
    },
    "properties": {},
    "sites": [
      {
        "species": [{ "element": "Gd", "occu": 1 }],
        "abc": [0.25, 0.18724445, 0.48908529],
        "properties": { "magmom": -6.907 },
        "label": "Gd",
        "xyz": [5.4898452407346845, 1.017763805, 2.0713510530131263]
      },
      {
        "species": [{ "element": "Gd", "occu": 1 }],
        "abc": [0.25, 0.31275555, 0.98908529],
        "properties": { "magmom": -6.907 },
        "label": "Gd",
        "xyz": [11.102205040734685, 1.017763805, 3.4597903319868735]
      },
      {
        "species": [{ "element": "Gd", "occu": 1 }],
        "abc": [0.75, 0.81275555, 0.51091471],
        "properties": { "magmom": -6.907 },
        "label": "Gd",
        "xyz": [5.734874359265316, 3.053291415, 8.990931716986873]
      },
      {
        "species": [{ "element": "Gd", "occu": 1 }],
        "abc": [0.75, 0.68724445, 0.010914710000000001],
        "properties": { "magmom": -6.907 },
        "label": "Gd",
        "xyz": [0.12251455926531601, 3.053291415, 7.602492438013126]
      },
      {
        "species": [{ "element": "Gd", "occu": 1 }],
        "abc": [0.75, 0.49640386000000003, 0.69273546],
        "properties": { "magmom": 6.914 },
        "label": "Gd",
        "xyz": [7.7757612954770154, 3.053291415, 5.491359867439492]
      },
      {
        "species": [{ "element": "Gd", "occu": 1 }],
        "abc": [0.75, 0.0035961400000000003, 0.19273546],
        "properties": { "magmom": 6.914 },
        "label": "Gd",
        "xyz": [2.163401495477016, 3.053291415, 0.0397815175605078]
      },
      {
        "species": [{ "element": "Gd", "occu": 1 }],
        "abc": [0.25, 0.50359614, 0.30726454000000003],
        "properties": { "magmom": 6.914 },
        "label": "Gd",
        "xyz": [3.4489583045229844, 1.017763805, 5.570922902560508]
      },
      {
        "species": [{ "element": "Gd", "occu": 1 }],
        "abc": [0.25, 0.99640386, 0.80726454],
        "properties": { "magmom": 6.914 },
        "label": "Gd",
        "xyz": [9.061318104522984, 1.017763805, 11.022501252439492]
      },
      {
        "species": [{ "element": "Se", "occu": 1 }],
        "abc": [0.25, 0.62636658, 0.54566757],
        "properties": { "magmom": -0.008 },
        "label": "Se",
        "xyz": [6.124965468063372, 1.017763805, 6.929044225637826]
      },
      {
        "species": [{ "element": "Se", "occu": 1 }],
        "abc": [0.25, 0.87363342, 0.04566757],
        "properties": { "magmom": -0.008 },
        "label": "Se",
        "xyz": [0.5126056680633719, 1.017763805, 9.664379929362173]
      },
      {
        "species": [{ "element": "Se", "occu": 1 }],
        "abc": [0.75, 0.37363342, 0.45433243],
        "properties": { "magmom": -0.008 },
        "label": "Se",
        "xyz": [5.099754131936629, 3.053291415, 4.1332385443621735]
      },
      {
        "species": [{ "element": "Se", "occu": 1 }],
        "abc": [0.75, 0.12636658, 0.95433243],
        "properties": { "magmom": -0.008 },
        "label": "Se",
        "xyz": [10.712113931936628, 3.053291415, 1.3979028406378267]
      },
      {
        "species": [{ "element": "Se", "occu": 1 }],
        "abc": [0.75, 0.05580546, 0.61935666],
        "properties": { "magmom": 0.008 },
        "label": "Se",
        "xyz": [6.952104840892536, 3.053291415, 0.6173357786299242]
      },
      {
        "species": [{ "element": "Se", "occu": 1 }],
        "abc": [0.75, 0.44419454, 0.11935666],
        "properties": { "magmom": 0.008 },
        "label": "Se",
        "xyz": [1.339745040892536, 3.053291415, 4.913805606370076]
      },
      {
        "species": [{ "element": "Se", "occu": 1 }],
        "abc": [0.25, 0.94419454, 0.38064334],
        "properties": { "magmom": 0.008 },
        "label": "Se",
        "xyz": [4.272614759107464, 1.017763805, 10.444946991370076]
      },
      {
        "species": [{ "element": "Se", "occu": 1 }],
        "abc": [0.25, 0.55580546, 0.88064334],
        "properties": { "magmom": 0.008 },
        "label": "Se",
        "xyz": [9.884974559107464, 1.017763805, 6.148477163629924]
      },
      {
        "species": [{ "element": "Se", "occu": 1 }],
        "abc": [0.25, 0.3032316, 0.72724253],
        "properties": { "magmom": -0.01 },
        "label": "Se",
        "xyz": [8.163093480444589, 1.017763805, 3.354433703999532]
      },
      {
        "species": [{ "element": "Se", "occu": 1 }],
        "abc": [0.25, 0.196768399999999, 0.22724253],
        "properties": { "magmom": -0.01 },
        "label": "Se",
        "xyz": [2.550733680444588, 1.017763805, 2.176707681000457]
      },
      {
        "species": [{ "element": "Se", "occu": 1 }],
        "abc": [0.75, 0.6967684, 0.27275747],
        "properties": { "magmom": -0.01 },
        "label": "Se",
        "xyz": [3.061626119555412, 3.053291415, 7.707849066000467]
      },
      {
        "species": [{ "element": "Se", "occu": 1 }],
        "abc": [0.75, 0.803231599999999, 0.7727574700000001],
        "properties": { "magmom": -0.01 },
        "label": "Se",
        "xyz": [8.673985919555413, 3.053291415, 8.885575088999522]
      }
    ]
  },
  "task_ids": null,
  "uncorrected_energy_per_atom": null,
  "energy_per_atom": -28.0896133195,
  "formation_energy_per_atom": -2.143875060937501,
  "energy_above_hull": 0.0,
  "is_stable": true,
  "equilibrium_reaction_energy_per_atom": null,
  "decomposes_to": null,
  "xas": null,
  "grain_boundaries": null,
  "band_gap": 0.449,
  "cbm": null,
  "vbm": null,
  "efermi": 3.5799460400000003,
  "is_gap_direct": null,
  "is_metal": null,
  "es_source_calc_id": null,
  "bandstructure": null,
  "dos": null,
  "dos_energy_up": null,
  "dos_energy_down": null,
  "is_magnetic": null,
  "ordering": null,
  "total_magnetization": 7e-7,
  "total_magnetization_normalized_vol": null,
  "total_magnetization_normalized_formula_units": null,
  "num_magnetic_sites": null,
  "num_unique_magnetic_sites": null,
  "types_of_magnetic_species": null,
  "bulk_modulus": null,
  "shear_modulus": null,
  "universal_anisotropy": null,
  "homogeneous_poisson": null,
  "e_total": null,
  "e_ionic": null,
  "e_electronic": null,
  "n": null,
  "e_ij_max": null,
  "weighted_surface_energy_EV_PER_ANG2": null,
  "weighted_surface_energy": null,
  "weighted_work_function": null,
  "surface_anisotropy": null,
  "shape_factor": null,
  "has_reconstructed": null,
  "possible_species": null,
  "has_props": null,
  "theoretical": null,
  "database_IDs": null,
  "fields_not_requested": [
    "builder_meta",
    "nsites",
    "elements",
    "nelements",
    "composition",
    "composition_reduced",
    "chemsys",
    "symmetry",
    "property_name",
    "deprecated",
    "deprecation_reasons",
    "last_updated",
    "origins",
    "warnings",
    "task_ids",
    "uncorrected_energy_per_atom",
    "equilibrium_reaction_energy_per_atom",
    "decomposes_to",
    "xas",
    "grain_boundaries",
    "cbm",
    "vbm",
    "is_gap_direct",
    "is_metal",
    "es_source_calc_id",
    "bandstructure",
    "dos",
    "dos_energy_up",
    "dos_energy_down",
    "is_magnetic",
    "ordering",
    "total_magnetization_normalized_vol",
    "total_magnetization_normalized_formula_units",
    "num_magnetic_sites",
    "num_unique_magnetic_sites",
    "types_of_magnetic_species",
    "bulk_modulus",
    "shear_modulus",
    "universal_anisotropy",
    "homogeneous_poisson",
    "e_total",
    "e_ionic",
    "e_electronic",
    "n",
    "e_ij_max",
    "weighted_surface_energy_EV_PER_ANG2",
    "weighted_surface_energy",
    "weighted_work_function",
    "surface_anisotropy",
    "shape_factor",
    "has_reconstructed",
    "possible_species",
    "has_props",
    "theoretical",
    "database_IDs"
  ]
}
