{"builder_meta": null, "nsites": null, "elements": null, "nelements": null, "composition": null, "composition_reduced": null, "formula_pretty": "Gd2Si3", "formula_anonymous": "A2B3", "chemsys": null, "volume": 109.80860544960103, "density": 6.030044217386869, "density_atomic": 21.961721089920207, "symmetry": null, "property_name": null, "material_id": "mp-1224874", "deprecated": null, "deprecation_reasons": null, "last_updated": null, "origins": null, "warnings": null, "structure": {"@module": "pymatgen.core.structure", "@class": "Structure", "charge": 0, "lattice": {"matrix": [[1.990568999999999, -3.447767, 0.0], [1.990568999999999, 3.447767, 0.0], [0.0, 0.0, 8.000023]], "pbc": [true, true, true], "a": 3.981138308329666, "b": 3.981138308329666, "c": 8.000023, "alpha": 90.0, "beta": 90.0, "gamma": 120.00000512389293, "volume": 109.80860544960098}, "properties": {}, "sites": [{"species": [{"element": "Gd", "occu": 1}], "abc": [0.0, 0.0, 0.24265899999999901], "properties": {"magmom": 7.008}, "label": "Gd", "xyz": [0.0, 0.0, 1.9412775811569922]}, {"species": [{"element": "Gd", "occu": 1}], "abc": [0.0, 0.0, 0.757340999999999], "properties": {"magmom": 7.031}, "label": "Gd", "xyz": [0.0, 0.0, 6.058745418842992]}, {"species": [{"element": "Si", "occu": 1}], "abc": [0.333333, 0.666667, 0.5], "properties": {"magmom": -0.031}, "label": "Si", "xyz": [1.990568999999999, 1.1492579651780002, 4.0000115]}, {"species": [{"element": "Si", "occu": 1}], "abc": [0.666667, 0.333333, 0.0], "properties": {"magmom": 0.074}, "label": "Si", "xyz": [1.990568999999999, -1.1492579651780002, 0.0]}, {"species": [{"element": "Si", "occu": 1}], "abc": [0.666667, 0.333333, 0.5], "properties": {"magmom": -0.028}, "label": "Si", "xyz": [1.990568999999999, -1.1492579651780002, 4.0000115]}]}, "task_ids": null, "uncorrected_energy_per_atom": null, "energy_per_atom": -9.300295772, "formation_energy_per_atom": -0.41465605799999905, "energy_above_hull": 0.22031028200000102, "is_stable": false, "equilibrium_reaction_energy_per_atom": null, "decomposes_to": null, "xas": null, "grain_boundaries": null, "band_gap": 0.0, "cbm": null, "vbm": null, "efermi": 5.11807899, "is_gap_direct": null, "is_metal": null, "es_source_calc_id": null, "bandstructure": null, "dos": null, "dos_energy_up": null, "dos_energy_down": null, "is_magnetic": null, "ordering": null, "total_magnetization": 14.3828718, "total_magnetization_normalized_vol": null, "total_magnetization_normalized_formula_units": null, "num_magnetic_sites": null, "num_unique_magnetic_sites": null, "types_of_magnetic_species": null, "bulk_modulus": null, "shear_modulus": null, "universal_anisotropy": null, "homogeneous_poisson": null, "e_total": null, "e_ionic": null, "e_electronic": null, "n": null, "e_ij_max": null, "weighted_surface_energy_EV_PER_ANG2": null, "weighted_surface_energy": null, "weighted_work_function": null, "surface_anisotropy": null, "shape_factor": null, "has_reconstructed": null, "possible_species": null, "has_props": null, "theoretical": null, "database_IDs": null, "fields_not_requested": ["builder_meta", "nsites", "elements", "nelements", "composition", "composition_reduced", "chemsys", "symmetry", "property_name", "deprecated", "deprecation_reasons", "last_updated", "origins", "warnings", "task_ids", "uncorrected_energy_per_atom", "equilibrium_reaction_energy_per_atom", "decomposes_to", "xas", "grain_boundaries", "cbm", "vbm", "is_gap_direct", "is_metal", "es_source_calc_id", "bandstructure", "dos", "dos_energy_up", "dos_energy_down", "is_magnetic", "ordering", "total_magnetization_normalized_vol", "total_magnetization_normalized_formula_units", "num_magnetic_sites", "num_unique_magnetic_sites", "types_of_magnetic_species", "bulk_modulus", "shear_modulus", "universal_anisotropy", "homogeneous_poisson", "e_total", "e_ionic", "e_electronic", "n", "e_ij_max", "weighted_surface_energy_EV_PER_ANG2", "weighted_surface_energy", "weighted_work_function", "surface_anisotropy", "shape_factor", "has_reconstructed", "possible_species", "has_props", "theoretical", "database_IDs"]}