{"builder_meta": null, "nsites": null, "elements": null, "nelements": null, "composition": null, "composition_reduced": null, "formula_pretty": "Gd2S3", "formula_anonymous": "A2B3", "chemsys": null, "volume": 445.18002117190946, "density": 6.127634300946648, "density_atomic": 22.259001058595473, "symmetry": null, "property_name": null, "material_id": "mp-669509", "deprecated": null, "deprecation_reasons": null, "last_updated": null, "origins": null, "warnings": null, "structure": {"@module": "pymatgen.core.structure", "@class": "Structure", "charge": 0, "lattice": {"matrix": [[3.93795851, -0.0, -0.0], [0.0, 7.39173681, 1.05e-06], [0.0, 2.109999999999999e-06, 15.29389255]], "pbc": [true, true, true], "a": 3.93795851, "b": 7.391736810000075, "c": 15.293892550000146, "alpha": 89.99998395637495, "beta": 90.0, "gamma": 90.0, "volume": 445.18002117190946}, "properties": {}, "sites": [{"species": [{"element": "Gd", "occu": 1}], "abc": [0.25, 0.63906838, 0.70500275], "properties": {"magmom": 6.892}, "label": "Gd", "xyz": [0.9844896275, 4.72382675610887, 10.78223697697631]}, {"species": [{"element": "Gd", "occu": 1}], "abc": [0.75, 0.36093162, 0.29499725], "properties": {"magmom": 6.892}, "label": "Gd", "xyz": [2.9534688825, 2.66791216389113, 4.511656623023688]}, {"species": [{"element": "Gd", "occu": 1}], "abc": [0.75, 0.86093162, 0.20500275], "properties": {"magmom": 6.892}, "label": "Gd", "xyz": [2.9534688825, 6.363780379002735, 3.135290934932714]}, {"species": [{"element": "Gd", "occu": 1}], "abc": [0.25, 0.13906838, 0.79499725], "properties": {"magmom": 6.892}, "label": "Gd", "xyz": [0.9844896275, 1.0279585409972654, 12.158602665067287]}, {"species": [{"element": "Gd", "occu": 1}], "abc": [0.25, 0.76648894, 0.45730685], "properties": {"magmom": 6.895}, "label": "Gd", "xyz": [0.9844896275, 5.665685477173335, 6.994002631092354]}, {"species": [{"element": "Gd", "occu": 1}], "abc": [0.25, 0.26648894, 0.04269215], "properties": {"magmom": 6.895}, "label": "Gd", "xyz": [0.9844896275, 1.969816197336318, 0.6529294346418695]}, {"species": [{"element": "Gd", "occu": 1}], "abc": [0.75, 0.23351106, 0.54269315], "properties": {"magmom": 6.895}, "label": "Gd", "xyz": [2.9534688825, 1.7260534428266652, 8.299890968907645]}, {"species": [{"element": "Gd", "occu": 1}], "abc": [0.75, 0.73351106, 0.9573078500000001], "properties": {"magmom": 6.895}, "label": "Gd", "xyz": [2.9534688825, 5.421922722663682, 14.640964165358133]}, {"species": [{"element": "S", "occu": 1}], "abc": [0.75, 0.62387028, 0.56772495], "properties": {"magmom": -0.041}, "label": "S", "xyz": [2.9534688825, 4.6114861112406516, 8.682725038317916]}, {"species": [{"element": "S", "occu": 1}], "abc": [0.25, 0.15220912, 0.21857748000000002], "properties": {"magmom": -0.041}, "label": "S", "xyz": [0.9844896275, 1.12509021632019, 3.3429006527893503]}, {"species": [{"element": "S", "occu": 1}], "abc": [0.25, 0.65220912, 0.28142252], "properties": {"magmom": -0.041}, "label": "S", "xyz": [0.9844896275, 4.820958753923224, 4.304046466849803]}, {"species": [{"element": "S", "occu": 1}], "abc": [0.25, 0.51002706, 0.89224961], "properties": {"magmom": -0.039}, "label": "S", "xyz": [0.9844896275, 3.7699876761447557, 13.64597019864782]}, {"species": [{"element": "S", "occu": 1}], "abc": [0.25, 0.37612972, 0.43227505], "properties": {"magmom": -0.041}, "label": "S", "xyz": [0.9844896275, 2.780252808759349, 6.611168561682084]}, {"species": [{"element": "S", "occu": 1}], "abc": [0.75, 0.12387028, 0.93227505], "properties": {"magmom": -0.041}, "label": "S", "xyz": [2.9534688825, 0.9156184754413623, 14.258114571809672]}, {"species": [{"element": "S", "occu": 1}], "abc": [0.75, 0.98997294, 0.39224961], "properties": {"magmom": -0.039}, "label": "S", "xyz": [2.9534688825, 7.317620249148599, 5.999024427590993]}, {"species": [{"element": "S", "occu": 1}], "abc": [0.75, 0.84779088, 0.78142352], "properties": {"magmom": -0.041}, "label": "S", "xyz": [2.9534688825, 6.26664870368192, 11.951008241103201]}, {"species": [{"element": "S", "occu": 1}], "abc": [0.75, 0.34779088, 0.71857648], "properties": {"magmom": -0.041}, "label": "S", "xyz": [2.9534688825, 2.570780166074666, 10.989831839257649]}, {"species": [{"element": "S", "occu": 1}], "abc": [0.75, 0.48997294, 0.10775039], "properties": {"magmom": -0.039}, "label": "S", "xyz": [2.9534688825, 3.6217512438552446, 1.6479234013521817]}, {"species": [{"element": "S", "occu": 1}], "abc": [0.25, 0.01002706, 0.60775039], "properties": {"magmom": -0.039}, "label": "S", "xyz": [0.9844896275, 0.07411867085140152, 9.294869172409008]}, {"species": [{"element": "S", "occu": 1}], "abc": [0.25, 0.87612972, 0.06772495], "properties": {"magmom": -0.041}, "label": "S", "xyz": [0.9844896275, 6.476120444558638, 1.0357790281903287]}]}, "task_ids": null, "uncorrected_energy_per_atom": null, "energy_per_atom": -24.5140683825, "formation_energy_per_atom": -2.334266813187497, "energy_above_hull": 0.0, "is_stable": true, "equilibrium_reaction_energy_per_atom": null, "decomposes_to": null, "xas": null, "grain_boundaries": null, "band_gap": 0.5267000000000001, "cbm": null, "vbm": null, "efermi": 4.03454538, "is_gap_direct": null, "is_metal": null, "es_source_calc_id": null, "bandstructure": null, "dos": null, "dos_energy_up": null, "dos_energy_down": null, "is_magnetic": null, "ordering": null, "total_magnetization": 55.9999992, "total_magnetization_normalized_vol": null, "total_magnetization_normalized_formula_units": null, "num_magnetic_sites": null, "num_unique_magnetic_sites": null, "types_of_magnetic_species": null, "bulk_modulus": null, "shear_modulus": null, "universal_anisotropy": null, "homogeneous_poisson": null, "e_total": null, "e_ionic": null, "e_electronic": null, "n": null, "e_ij_max": null, "weighted_surface_energy_EV_PER_ANG2": null, "weighted_surface_energy": null, "weighted_work_function": null, "surface_anisotropy": null, "shape_factor": null, "has_reconstructed": null, "possible_species": null, "has_props": null, "theoretical": null, "database_IDs": null, "fields_not_requested": ["builder_meta", "nsites", "elements", "nelements", "composition", "composition_reduced", "chemsys", "symmetry", "property_name", "deprecated", "deprecation_reasons", "last_updated", "origins", "warnings", "task_ids", "uncorrected_energy_per_atom", "equilibrium_reaction_energy_per_atom", "decomposes_to", "xas", "grain_boundaries", "cbm", "vbm", "is_gap_direct", "is_metal", "es_source_calc_id", "bandstructure", "dos", "dos_energy_up", "dos_energy_down", "is_magnetic", "ordering", "total_magnetization_normalized_vol", "total_magnetization_normalized_formula_units", "num_magnetic_sites", "num_unique_magnetic_sites", "types_of_magnetic_species", "bulk_modulus", "shear_modulus", "universal_anisotropy", "homogeneous_poisson", "e_total", "e_ionic", "e_electronic", "n", "e_ij_max", "weighted_surface_energy_EV_PER_ANG2", "weighted_surface_energy", "weighted_work_function", "surface_anisotropy", "shape_factor", "has_reconstructed", "possible_species", "has_props", "theoretical", "database_IDs"]}