{"builder_meta": null, "nsites": null, "elements": null, "nelements": null, "composition": null, "composition_reduced": null, "formula_pretty": "Gd2Tl", "formula_anonymous": "AB2", "chemsys": null, "volume": 173.57236785937897, "density": 9.92814698886151, "density_atomic": 28.928727976563163, "symmetry": null, "property_name": null, "material_id": "mp-579628", "deprecated": null, "deprecation_reasons": null, "last_updated": null, "origins": null, "warnings": null, "structure": {"@module": "pymatgen.core.structure", "@class": "Structure", "charge": 0, "lattice": {"matrix": [[5.45596922, -1e-08, 0.0], [-2.72798513, 4.72500867, 0.0], [-0.0, 0.0, 6.73296051]], "pbc": [true, true, true], "a": 5.45596922, "b": 5.4559701063217245, "c": 6.73296051, "alpha": 90.0, "beta": 90.0, "gamma": 120.00000103677152, "volume": 173.57236785937897}, "properties": {}, "sites": [{"species": [{"element": "Gd", "occu": 1}], "abc": [0.333333, 0.666667, 0.7515162400000001], "properties": {"magmom": 6.889}, "label": "Gd", "xyz": [-3.0746514498858346e-06, 3.15000735166956, 5.059929166543682]}, {"species": [{"element": "Gd", "occu": 1}], "abc": [-0.0, 0.0, 1.3340000000000001e-05], "properties": {"magmom": -7.549}, "label": "Gd", "xyz": [0.0, 0.0, 8.981769320340001e-05]}, {"species": [{"element": "Gd", "occu": 1}], "abc": [-0.0, 0.0, 0.49998509], "properties": {"magmom": -1.484}, "label": "Gd", "xyz": [0.0, 0.0, 3.366379866558796]}, {"species": [{"element": "Gd", "occu": 1}], "abc": [0.666667, 0.333333, 0.24848596], "properties": {"magmom": 6.889}, "label": "Gd", "xyz": [2.72798716465145, 1.57500130833044, 1.6730461559694396]}, {"species": [{"element": "Tl", "occu": 1}], "abc": [0.666667, 0.333333, 0.7497808300000001], "properties": {"magmom": 0.025}, "label": "Tl", "xyz": [2.72798716465145, 1.57500130833044, 5.048244719545024]}, {"species": [{"element": "Tl", "occu": 1}], "abc": [0.333333, 0.666667, 0.25022054], "properties": {"magmom": 0.025}, "label": "Tl", "xyz": [-3.0746514498858346e-06, 3.15000735166956, 1.6847250146108752]}]}, "task_ids": null, "uncorrected_energy_per_atom": null, "energy_per_atom": -46.190395605, "formation_energy_per_atom": 0.46737612166667003, "energy_above_hull": 0.7628240916666651, "is_stable": false, "equilibrium_reaction_energy_per_atom": null, "decomposes_to": null, "xas": null, "grain_boundaries": null, "band_gap": 0.0, "cbm": null, "vbm": null, "efermi": 4.37058506, "is_gap_direct": null, "is_metal": null, "es_source_calc_id": null, "bandstructure": null, "dos": null, "dos_energy_up": null, "dos_energy_down": null, "is_magnetic": null, "ordering": null, "total_magnetization": 4.162094, "total_magnetization_normalized_vol": null, "total_magnetization_normalized_formula_units": null, "num_magnetic_sites": null, "num_unique_magnetic_sites": null, "types_of_magnetic_species": null, "bulk_modulus": null, "shear_modulus": null, "universal_anisotropy": null, "homogeneous_poisson": null, "e_total": null, "e_ionic": null, "e_electronic": null, "n": null, "e_ij_max": null, "weighted_surface_energy_EV_PER_ANG2": null, "weighted_surface_energy": null, "weighted_work_function": null, "surface_anisotropy": null, "shape_factor": null, "has_reconstructed": null, "possible_species": null, "has_props": null, "theoretical": null, "database_IDs": null, "fields_not_requested": ["builder_meta", "nsites", "elements", "nelements", "composition", "composition_reduced", "chemsys", "symmetry", "property_name", "deprecated", "deprecation_reasons", "last_updated", "origins", "warnings", "task_ids", "uncorrected_energy_per_atom", "equilibrium_reaction_energy_per_atom", "decomposes_to", "xas", "grain_boundaries", "cbm", "vbm", "is_gap_direct", "is_metal", "es_source_calc_id", "bandstructure", "dos", "dos_energy_up", "dos_energy_down", "is_magnetic", "ordering", "total_magnetization_normalized_vol", "total_magnetization_normalized_formula_units", "num_magnetic_sites", "num_unique_magnetic_sites", "types_of_magnetic_species", "bulk_modulus", "shear_modulus", "universal_anisotropy", "homogeneous_poisson", "e_total", "e_ionic", "e_electronic", "n", "e_ij_max", "weighted_surface_energy_EV_PER_ANG2", "weighted_surface_energy", "weighted_work_function", "surface_anisotropy", "shape_factor", "has_reconstructed", "possible_species", "has_props", "theoretical", "database_IDs"]}