{"builder_meta": null, "nsites": null, "elements": null, "nelements": null, "composition": null, "composition_reduced": null, "formula_pretty": "Gd2Te3", "formula_anonymous": "A2B3", "chemsys": null, "volume": 626.1443176199352, "density": 7.396977716201284, "density_atomic": 31.30721588099676, "symmetry": null, "property_name": null, "material_id": "mp-1105966", "deprecated": null, "deprecation_reasons": null, "last_updated": null, "origins": null, "warnings": null, "structure": {"@module": "pymatgen.core.structure", "@class": "Structure", "charge": 0, "lattice": {"matrix": [[0.0, 4.34185113, 0.0], [0.0, 0.0, 11.94596689], [12.07197169, 0.0, 0.0]], "pbc": [true, true, true], "a": 4.34185113, "b": 11.94596689, "c": 12.07197169, "alpha": 90.0, "beta": 90.0, "gamma": 90.0, "volume": 626.1443176199352}, "properties": {}, "sites": [{"species": [{"element": "Gd", "occu": 1}], "abc": [0.25, 0.18790348, 0.48415664], "properties": {"magmom": -6.932}, "label": "Gd", "xyz": [5.844725251605522, 1.0854627825, 2.244688750595777]}, {"species": [{"element": "Gd", "occu": 1}], "abc": [0.25, 0.31209652, 0.98415664], "properties": {"magmom": -6.932}, "label": "Gd", "xyz": [11.880711096605522, 1.0854627825, 3.7282946944042226]}, {"species": [{"element": "Gd", "occu": 1}], "abc": [0.75, 0.81209652, 0.51584336], "properties": {"magmom": -6.932}, "label": "Gd", "xyz": [6.227246438394478, 3.2563883475, 9.701278139404222]}, {"species": [{"element": "Gd", "occu": 1}], "abc": [0.75, 0.68790348, 0.01584336], "properties": {"magmom": -6.932}, "label": "Gd", "xyz": [0.1912605933944784, 3.2563883475, 8.217672195595776]}, {"species": [{"element": "Gd", "occu": 1}], "abc": [0.25, 0.0008916999999990001, 0.80511438], "properties": {"magmom": 6.94}, "label": "Gd", "xyz": [9.719318002571903, 1.0854627825, 0.010652218675801054]}, {"species": [{"element": "Gd", "occu": 1}], "abc": [0.25, 0.4991083, 0.30511438], "properties": {"magmom": 6.94}, "label": "Gd", "xyz": [3.6833321575719022, 1.0854627825, 5.962331226324187]}, {"species": [{"element": "Gd", "occu": 1}], "abc": [0.75, 0.9991083, 0.19488562], "properties": {"magmom": 6.94}, "label": "Gd", "xyz": [2.3526536874280977, 3.2563883475, 11.935314671324186]}, {"species": [{"element": "Gd", "occu": 1}], "abc": [0.75, 0.500891699999999, 0.69488562], "properties": {"magmom": 6.94}, "label": "Gd", "xyz": [8.388639532428098, 3.2563883475, 5.983635663675801]}, {"species": [{"element": "Te", "occu": 1}], "abc": [0.25, 0.62454973, 0.54377438], "properties": {"magmom": -0.01}, "label": "Te", "xyz": [6.564428921107302, 1.0854627825, 7.46085039573844]}, {"species": [{"element": "Te", "occu": 1}], "abc": [0.25, 0.87545027, 0.04377438], "properties": {"magmom": -0.01}, "label": "Te", "xyz": [0.5284430761073022, 1.0854627825, 10.45809993926156]}, {"species": [{"element": "Te", "occu": 1}], "abc": [0.75, 0.37545027000000003, 0.45622562], "properties": {"magmom": -0.01}, "label": "Te", "xyz": [5.507542768892698, 3.2563883475, 4.48511649426156]}, {"species": [{"element": "Te", "occu": 1}], "abc": [0.75, 0.12454973, 0.95622562], "properties": {"magmom": -0.01}, "label": "Te", "xyz": [11.543528613892697, 3.2563883475, 1.4878669507384397]}, {"species": [{"element": "Te", "occu": 1}], "abc": [0.25, 0.94352344, 0.38170985], "properties": {"magmom": 0.01}, "label": "Te", "xyz": [4.607990502994147, 1.0854627825, 11.271299774178901]}, {"species": [{"element": "Te", "occu": 1}], "abc": [0.25, 0.55647656, 0.88170985], "properties": {"magmom": 0.01}, "label": "Te", "xyz": [10.643976347994146, 1.0854627825, 6.6476505608210985]}, {"species": [{"element": "Te", "occu": 1}], "abc": [0.75, 0.05647656, 0.61829015], "properties": {"magmom": 0.01}, "label": "Te", "xyz": [7.463981187005853, 3.2563883475, 0.6746671158210984]}, {"species": [{"element": "Te", "occu": 1}], "abc": [0.75, 0.44352344, 0.11829015], "properties": {"magmom": 0.01}, "label": "Te", "xyz": [1.4279953420058535, 3.2563883475, 5.298316329178901]}, {"species": [{"element": "Te", "occu": 1}], "abc": [0.25, 0.30533464, 0.72397952], "properties": {"magmom": -0.011}, "label": "Te", "xyz": [8.739860269579788, 1.0854627825, 3.6475174998100695]}, {"species": [{"element": "Te", "occu": 1}], "abc": [0.25, 0.19466536, 0.22397952000000002], "properties": {"magmom": -0.011}, "label": "Te", "xyz": [2.703874424579789, 1.0854627825, 2.32546594518993]}, {"species": [{"element": "Te", "occu": 1}], "abc": [0.75, 0.69466536, 0.27602048], "properties": {"magmom": -0.011}, "label": "Te", "xyz": [3.3321114204202114, 3.2563883475, 8.29844939018993]}, {"species": [{"element": "Te", "occu": 1}], "abc": [0.75, 0.80533464, 0.77602048], "properties": {"magmom": -0.011}, "label": "Te", "xyz": [9.36809726542021, 3.2563883475, 9.620500944810068]}]}, "task_ids": null, "uncorrected_energy_per_atom": null, "energy_per_atom": -34.242153842, "formation_energy_per_atom": -1.633017135999995, "energy_above_hull": 0.0, "is_stable": true, "equilibrium_reaction_energy_per_atom": null, "decomposes_to": null, "xas": null, "grain_boundaries": null, "band_gap": 0.056499999999999, "cbm": null, "vbm": null, "efermi": 5.12201495, "is_gap_direct": null, "is_metal": null, "es_source_calc_id": null, "bandstructure": null, "dos": null, "dos_energy_up": null, "dos_energy_down": null, "is_magnetic": null, "ordering": null, "total_magnetization": 1.1e-06, "total_magnetization_normalized_vol": null, "total_magnetization_normalized_formula_units": null, "num_magnetic_sites": null, "num_unique_magnetic_sites": null, "types_of_magnetic_species": null, "bulk_modulus": null, "shear_modulus": null, "universal_anisotropy": null, "homogeneous_poisson": null, "e_total": null, "e_ionic": null, "e_electronic": null, "n": null, "e_ij_max": null, "weighted_surface_energy_EV_PER_ANG2": null, "weighted_surface_energy": null, "weighted_work_function": null, "surface_anisotropy": null, "shape_factor": null, "has_reconstructed": null, "possible_species": null, "has_props": null, "theoretical": null, "database_IDs": null, "fields_not_requested": ["builder_meta", "nsites", "elements", "nelements", "composition", "composition_reduced", "chemsys", "symmetry", "property_name", "deprecated", "deprecation_reasons", "last_updated", "origins", "warnings", "task_ids", "uncorrected_energy_per_atom", "equilibrium_reaction_energy_per_atom", "decomposes_to", "xas", "grain_boundaries", "cbm", "vbm", "is_gap_direct", "is_metal", "es_source_calc_id", "bandstructure", "dos", "dos_energy_up", "dos_energy_down", "is_magnetic", "ordering", "total_magnetization_normalized_vol", "total_magnetization_normalized_formula_units", "num_magnetic_sites", "num_unique_magnetic_sites", "types_of_magnetic_species", "bulk_modulus", "shear_modulus", "universal_anisotropy", "homogeneous_poisson", "e_total", "e_ionic", "e_electronic", "n", "e_ij_max", "weighted_surface_energy_EV_PER_ANG2", "weighted_surface_energy", "weighted_work_function", "surface_anisotropy", "shape_factor", "has_reconstructed", "possible_species", "has_props", "theoretical", "database_IDs"]}