{
  "builder_meta": null,
  "nsites": null,
  "elements": null,
  "nelements": null,
  "composition": null,
  "composition_reduced": null,
  "formula_pretty": "Gd3Cd",
  "formula_anonymous": "AB3",
  "chemsys": null,
  "volume": 237.92980246307778,
  "density": 8.153851696108156,
  "density_atomic": 29.741225307884722,
  "symmetry": null,
  "property_name": null,
  "material_id": "mp-1184421",
  "deprecated": null,
  "deprecation_reasons": null,
  "last_updated": null,
  "origins": null,
  "warnings": null,
  "structure": {
    "@module": "pymatgen.core.structure",
    "@class": "Structure",
    "charge": 0,
    "lattice": {
      "matrix": [
        [3.48182305, -6.03060462, -0.0],
        [3.48175109, 6.03056222, 0.0],
        [-0.0, -0.0, 5.66574874]
      ],
      "pbc": [true, true, true],
      "a": 6.963568326244573,
      "b": 6.9634956266237085,
      "c": 5.66574874,
      "alpha": 90.0,
      "beta": 90.0,
      "gamma": 119.99959941139105,
      "volume": 237.92980246307778
    },
    "properties": {},
    "sites": [
      {
        "species": [{ "element": "Gd", "occu": 1 }],
        "abc": [0.1704437, 0.34088801, 0.25],
        "properties": { "magmom": 7.458 },
        "label": "Gd",
        "xyz": [1.780342003772716, 1.0278677896870885, 1.416437185]
      },
      {
        "species": [{ "element": "Gd", "occu": 1 }],
        "abc": [0.65910929, 0.82955565, 0.25],
        "properties": { "magmom": 7.458 },
        "label": "Gd",
        "xyz": [5.183208206994292, 1.027859432918623, 1.416437185]
      },
      {
        "species": [{ "element": "Gd", "occu": 1 }],
        "abc": [0.1704447, 0.82955669, 0.25],
        "properties": { "magmom": 7.458 },
        "label": "Gd",
        "xyz": [3.481768194834627, 3.9748086387877377, 1.416437185]
      },
      {
        "species": [{ "element": "Gd", "occu": 1 }],
        "abc": [0.829556299999999, 0.65911199, 0.75],
        "properties": { "magmom": 7.458 },
        "label": "Gd",
        "xyz": [5.18323213622728, -1.0279101896870828, 4.249311555]
      },
      {
        "species": [{ "element": "Gd", "occu": 1 }],
        "abc": [0.34089071, 0.17044435, 0.75],
        "properties": { "magmom": 7.458 },
        "label": "Gd",
        "xyz": [1.780365933005707, -1.027901832918623, 4.249311555]
      },
      {
        "species": [{ "element": "Gd", "occu": 1 }],
        "abc": [0.8295553, 0.17044331000000001, 0.75],
        "properties": { "magmom": 7.458 },
        "label": "Gd",
        "xyz": [3.481805945165373, -3.9748510387877376, 4.249311555]
      },
      {
        "species": [{ "element": "Cd", "occu": 1 }],
        "abc": [0.33333046, 0.66666623, 0.75],
        "properties": { "magmom": 0.005 },
        "label": "Cd",
        "xyz": [3.4817635518637937, 2.0101879679251056, 4.249311555]
      },
      {
        "species": [{ "element": "Cd", "occu": 1 }],
        "abc": [0.66666954, 0.33333377000000003, 0.25],
        "properties": { "magmom": 0.005 },
        "label": "Cd",
        "xyz": [3.4818105881362067, -2.010230367925105, 1.416437185]
      }
    ]
  },
  "task_ids": null,
  "uncorrected_energy_per_atom": null,
  "energy_per_atom": -37.70612466375,
  "formation_energy_per_atom": -0.132123766249996,
  "energy_above_hull": 0.046261111249997,
  "is_stable": false,
  "equilibrium_reaction_energy_per_atom": null,
  "decomposes_to": null,
  "xas": null,
  "grain_boundaries": null,
  "band_gap": 0.0,
  "cbm": null,
  "vbm": null,
  "efermi": 2.85988323,
  "is_gap_direct": null,
  "is_metal": null,
  "es_source_calc_id": null,
  "bandstructure": null,
  "dos": null,
  "dos_energy_up": null,
  "dos_energy_down": null,
  "is_magnetic": null,
  "ordering": null,
  "total_magnetization": 48.6900867,
  "total_magnetization_normalized_vol": null,
  "total_magnetization_normalized_formula_units": null,
  "num_magnetic_sites": null,
  "num_unique_magnetic_sites": null,
  "types_of_magnetic_species": null,
  "bulk_modulus": null,
  "shear_modulus": null,
  "universal_anisotropy": null,
  "homogeneous_poisson": null,
  "e_total": null,
  "e_ionic": null,
  "e_electronic": null,
  "n": null,
  "e_ij_max": null,
  "weighted_surface_energy_EV_PER_ANG2": null,
  "weighted_surface_energy": null,
  "weighted_work_function": null,
  "surface_anisotropy": null,
  "shape_factor": null,
  "has_reconstructed": null,
  "possible_species": null,
  "has_props": null,
  "theoretical": null,
  "database_IDs": null,
  "fields_not_requested": [
    "builder_meta",
    "nsites",
    "elements",
    "nelements",
    "composition",
    "composition_reduced",
    "chemsys",
    "symmetry",
    "property_name",
    "deprecated",
    "deprecation_reasons",
    "last_updated",
    "origins",
    "warnings",
    "task_ids",
    "uncorrected_energy_per_atom",
    "equilibrium_reaction_energy_per_atom",
    "decomposes_to",
    "xas",
    "grain_boundaries",
    "cbm",
    "vbm",
    "is_gap_direct",
    "is_metal",
    "es_source_calc_id",
    "bandstructure",
    "dos",
    "dos_energy_up",
    "dos_energy_down",
    "is_magnetic",
    "ordering",
    "total_magnetization_normalized_vol",
    "total_magnetization_normalized_formula_units",
    "num_magnetic_sites",
    "num_unique_magnetic_sites",
    "types_of_magnetic_species",
    "bulk_modulus",
    "shear_modulus",
    "universal_anisotropy",
    "homogeneous_poisson",
    "e_total",
    "e_ionic",
    "e_electronic",
    "n",
    "e_ij_max",
    "weighted_surface_energy_EV_PER_ANG2",
    "weighted_surface_energy",
    "weighted_work_function",
    "surface_anisotropy",
    "shape_factor",
    "has_reconstructed",
    "possible_species",
    "has_props",
    "theoretical",
    "database_IDs"
  ]
}
