{
  "builder_meta": null,
  "nsites": null,
  "elements": null,
  "nelements": null,
  "composition": null,
  "composition_reduced": null,
  "formula_pretty": "Gd3Ga2",
  "formula_anonymous": "A2B3",
  "chemsys": null,
  "volume": 260.36060527036943,
  "density": 7.796224273604857,
  "density_atomic": 26.036060527036945,
  "symmetry": null,
  "property_name": null,
  "material_id": "mp-1985644",
  "deprecated": null,
  "deprecation_reasons": null,
  "last_updated": null,
  "origins": null,
  "warnings": null,
  "structure": {
    "@module": "pymatgen.core.structure",
    "@class": "Structure",
    "charge": 0,
    "lattice": {
      "matrix": [
        [0.0, 0.0, 4.373561],
        [7.715606, 0.0, 0.0],
        [0.0, 7.715606, 0.0]
      ],
      "pbc": [true, true, true],
      "a": 4.373561,
      "b": 7.715606,
      "c": 7.715606,
      "alpha": 90.0,
      "beta": 90.0,
      "gamma": 90.0,
      "volume": 260.36060527036943
    },
    "properties": {},
    "sites": [
      {
        "species": [{ "element": "Gd", "occu": 1 }],
        "abc": [0.0, 0.326686, 0.673314],
        "properties": { "magmom": 7.122 },
        "label": "Gd",
        "xyz": [2.520580461716, 5.195025538284, 0.0]
      },
      {
        "species": [{ "element": "Gd", "occu": 1 }],
        "abc": [0.0, 0.673314, 0.326686],
        "properties": { "magmom": 7.122 },
        "label": "Gd",
        "xyz": [5.195025538284, 2.520580461716, 0.0]
      },
      {
        "species": [{ "element": "Gd", "occu": 1 }],
        "abc": [0.0, 0.173314, 0.173314],
        "properties": { "magmom": 7.122 },
        "label": "Gd",
        "xyz": [1.337222538284, 1.337222538284, 0.0]
      },
      {
        "species": [{ "element": "Gd", "occu": 1 }],
        "abc": [0.0, 0.826685999999999, 0.826685999999999],
        "properties": { "magmom": 7.122 },
        "label": "Gd",
        "xyz": [6.378383461715993, 6.378383461715993, 0.0]
      },
      {
        "species": [{ "element": "Gd", "occu": 1 }],
        "abc": [0.5, 0.0, 0.5],
        "properties": { "magmom": 7.158 },
        "label": "Gd",
        "xyz": [0.0, 3.857803, 2.1867805]
      },
      {
        "species": [{ "element": "Gd", "occu": 1 }],
        "abc": [0.5, 0.5, 0.0],
        "properties": { "magmom": 7.158 },
        "label": "Gd",
        "xyz": [3.857803, 0.0, 2.1867805]
      },
      {
        "species": [{ "element": "Ga", "occu": 1 }],
        "abc": [0.5, 0.11910899999999901, 0.880891],
        "properties": { "magmom": -0.007 },
        "label": "Ga",
        "xyz": [0.9189981150539923, 6.796607884946, 2.1867805]
      },
      {
        "species": [{ "element": "Ga", "occu": 1 }],
        "abc": [0.5, 0.880891, 0.11910899999999901],
        "properties": { "magmom": -0.007 },
        "label": "Ga",
        "xyz": [6.796607884946, 0.9189981150539923, 2.1867805]
      },
      {
        "species": [{ "element": "Ga", "occu": 1 }],
        "abc": [0.5, 0.380891, 0.380891],
        "properties": { "magmom": -0.007 },
        "label": "Ga",
        "xyz": [2.938804884946, 2.938804884946, 2.1867805]
      },
      {
        "species": [{ "element": "Ga", "occu": 1 }],
        "abc": [0.5, 0.619109, 0.619109],
        "properties": { "magmom": -0.007 },
        "label": "Ga",
        "xyz": [4.776801115054, 4.776801115054, 2.1867805]
      }
    ]
  },
  "task_ids": null,
  "uncorrected_energy_per_atom": null,
  "energy_per_atom": -10.166034626,
  "formation_energy_per_atom": -0.509122872999999,
  "energy_above_hull": 0.0,
  "is_stable": true,
  "equilibrium_reaction_energy_per_atom": null,
  "decomposes_to": null,
  "xas": null,
  "grain_boundaries": null,
  "band_gap": 0.0,
  "cbm": null,
  "vbm": null,
  "efermi": 3.10123631,
  "is_gap_direct": null,
  "is_metal": null,
  "es_source_calc_id": null,
  "bandstructure": null,
  "dos": null,
  "dos_energy_up": null,
  "dos_energy_down": null,
  "is_magnetic": null,
  "ordering": null,
  "total_magnetization": 44.5024453,
  "total_magnetization_normalized_vol": null,
  "total_magnetization_normalized_formula_units": null,
  "num_magnetic_sites": null,
  "num_unique_magnetic_sites": null,
  "types_of_magnetic_species": null,
  "bulk_modulus": null,
  "shear_modulus": null,
  "universal_anisotropy": null,
  "homogeneous_poisson": null,
  "e_total": null,
  "e_ionic": null,
  "e_electronic": null,
  "n": null,
  "e_ij_max": null,
  "weighted_surface_energy_EV_PER_ANG2": null,
  "weighted_surface_energy": null,
  "weighted_work_function": null,
  "surface_anisotropy": null,
  "shape_factor": null,
  "has_reconstructed": null,
  "possible_species": null,
  "has_props": null,
  "theoretical": null,
  "database_IDs": null,
  "fields_not_requested": [
    "builder_meta",
    "nsites",
    "elements",
    "nelements",
    "composition",
    "composition_reduced",
    "chemsys",
    "symmetry",
    "property_name",
    "deprecated",
    "deprecation_reasons",
    "last_updated",
    "origins",
    "warnings",
    "task_ids",
    "uncorrected_energy_per_atom",
    "equilibrium_reaction_energy_per_atom",
    "decomposes_to",
    "xas",
    "grain_boundaries",
    "cbm",
    "vbm",
    "is_gap_direct",
    "is_metal",
    "es_source_calc_id",
    "bandstructure",
    "dos",
    "dos_energy_up",
    "dos_energy_down",
    "is_magnetic",
    "ordering",
    "total_magnetization_normalized_vol",
    "total_magnetization_normalized_formula_units",
    "num_magnetic_sites",
    "num_unique_magnetic_sites",
    "types_of_magnetic_species",
    "bulk_modulus",
    "shear_modulus",
    "universal_anisotropy",
    "homogeneous_poisson",
    "e_total",
    "e_ionic",
    "e_electronic",
    "n",
    "e_ij_max",
    "weighted_surface_energy_EV_PER_ANG2",
    "weighted_surface_energy",
    "weighted_work_function",
    "surface_anisotropy",
    "shape_factor",
    "has_reconstructed",
    "possible_species",
    "has_props",
    "theoretical",
    "database_IDs"
  ]
}
