{
  "builder_meta": null,
  "nsites": null,
  "elements": null,
  "nelements": null,
  "composition": null,
  "composition_reduced": null,
  "formula_pretty": "Gd3Ho",
  "formula_anonymous": "AB3",
  "chemsys": null,
  "volume": 130.41963607294767,
  "density": 8.106390848261888,
  "density_atomic": 32.60490901823692,
  "symmetry": null,
  "property_name": null,
  "material_id": "mp-1184498",
  "deprecated": null,
  "deprecation_reasons": null,
  "last_updated": null,
  "origins": null,
  "warnings": null,
  "structure": {
    "@module": "pymatgen.core.structure",
    "@class": "Structure",
    "charge": 0,
    "lattice": {
      "matrix": [
        [-2.53244577, 2.53244577, 5.08396655],
        [2.53244577, -2.53244577, 5.08396655],
        [2.53244577, 2.53244577, -5.08396655]
      ],
      "pbc": [true, true, true],
      "a": 6.218784369754324,
      "b": 6.218784369754324,
      "c": 6.218784369754324,
      "alpha": 131.93870879903614,
      "beta": 131.93870879903614,
      "gamma": 70.3258469131497,
      "volume": 130.41963607294767
    },
    "properties": {},
    "sites": [
      {
        "species": [{ "element": "Gd", "occu": 1 }],
        "abc": [0.750000999999999, 0.25, 0.5],
        "properties": { "magmom": 7.244 },
        "label": "Gd",
        "xyz": [-2.532445767533531e-6, 2.5324483024457676, 2.541988358966545]
      },
      {
        "species": [{ "element": "Gd", "occu": 1 }],
        "abc": [0.25, 0.750000999999999, 0.5],
        "properties": { "magmom": 7.244 },
        "label": "Gd",
        "xyz": [2.5324483024457676, -2.532445767533531e-6, 2.541988358966545]
      },
      {
        "species": [{ "element": "Gd", "occu": 1 }],
        "abc": [0.500001, 0.500001, -0.0],
        "properties": { "magmom": -7.275 },
        "label": "Gd",
        "xyz": [0.0, 0.0, 5.0839767179331]
      },
      {
        "species": [{ "element": "Ho", "occu": 1 }],
        "abc": [-0.0, -0.0, -0.0],
        "properties": { "magmom": 0.117 },
        "label": "Ho",
        "xyz": [0.0, 0.0, 0.0]
      }
    ]
  },
  "task_ids": null,
  "uncorrected_energy_per_atom": null,
  "energy_per_atom": -40.664607645,
  "formation_energy_per_atom": 0.10348230875001001,
  "energy_above_hull": 0.10348230875001001,
  "is_stable": false,
  "equilibrium_reaction_energy_per_atom": null,
  "decomposes_to": null,
  "xas": null,
  "grain_boundaries": null,
  "band_gap": 0.0,
  "cbm": null,
  "vbm": null,
  "efermi": 3.15918064,
  "is_gap_direct": null,
  "is_metal": null,
  "es_source_calc_id": null,
  "bandstructure": null,
  "dos": null,
  "dos_energy_up": null,
  "dos_energy_down": null,
  "is_magnetic": null,
  "ordering": null,
  "total_magnetization": 7.8758221,
  "total_magnetization_normalized_vol": null,
  "total_magnetization_normalized_formula_units": null,
  "num_magnetic_sites": null,
  "num_unique_magnetic_sites": null,
  "types_of_magnetic_species": null,
  "bulk_modulus": null,
  "shear_modulus": null,
  "universal_anisotropy": null,
  "homogeneous_poisson": null,
  "e_total": null,
  "e_ionic": null,
  "e_electronic": null,
  "n": null,
  "e_ij_max": null,
  "weighted_surface_energy_EV_PER_ANG2": null,
  "weighted_surface_energy": null,
  "weighted_work_function": null,
  "surface_anisotropy": null,
  "shape_factor": null,
  "has_reconstructed": null,
  "possible_species": null,
  "has_props": null,
  "theoretical": null,
  "database_IDs": null,
  "fields_not_requested": [
    "builder_meta",
    "nsites",
    "elements",
    "nelements",
    "composition",
    "composition_reduced",
    "chemsys",
    "symmetry",
    "property_name",
    "deprecated",
    "deprecation_reasons",
    "last_updated",
    "origins",
    "warnings",
    "task_ids",
    "uncorrected_energy_per_atom",
    "equilibrium_reaction_energy_per_atom",
    "decomposes_to",
    "xas",
    "grain_boundaries",
    "cbm",
    "vbm",
    "is_gap_direct",
    "is_metal",
    "es_source_calc_id",
    "bandstructure",
    "dos",
    "dos_energy_up",
    "dos_energy_down",
    "is_magnetic",
    "ordering",
    "total_magnetization_normalized_vol",
    "total_magnetization_normalized_formula_units",
    "num_magnetic_sites",
    "num_unique_magnetic_sites",
    "types_of_magnetic_species",
    "bulk_modulus",
    "shear_modulus",
    "universal_anisotropy",
    "homogeneous_poisson",
    "e_total",
    "e_ionic",
    "e_electronic",
    "n",
    "e_ij_max",
    "weighted_surface_energy_EV_PER_ANG2",
    "weighted_surface_energy",
    "weighted_work_function",
    "surface_anisotropy",
    "shape_factor",
    "has_reconstructed",
    "possible_species",
    "has_props",
    "theoretical",
    "database_IDs"
  ]
}
