{"builder_meta": null, "nsites": null, "elements": null, "nelements": null, "composition": null, "composition_reduced": null, "formula_pretty": "Gd3Lu", "formula_anonymous": "AB3", "chemsys": null, "volume": 252.93635303079895, "density": 8.491455108499869, "density_atomic": 31.61704412884987, "symmetry": null, "property_name": null, "material_id": "mp-1184496", "deprecated": null, "deprecation_reasons": null, "last_updated": null, "origins": null, "warnings": null, "structure": {"@module": "pymatgen.core.structure", "@class": "Structure", "charge": 0, "lattice": {"matrix": [[3.575225, -6.192471, 0.0], [3.575225, 6.192471, 0.0], [0.0, 0.0, 5.712338]], "pbc": [true, true, true], "a": 7.150449698198429, "b": 7.150449698198429, "c": 5.712338, "alpha": 90.0, "beta": 90.0, "gamma": 119.99999720758385, "volume": 252.93635303079895}, "properties": {}, "sites": [{"species": [{"element": "Gd", "occu": 1}], "abc": [0.832186, 0.167814, 0.75], "properties": {"magmom": 7.314}, "label": "Gd", "xyz": [3.575225, -4.114104343212, 4.2842535]}, {"species": [{"element": "Gd", "occu": 1}], "abc": [0.335628, 0.167814, 0.75], "properties": {"magmom": 7.2780000000000005}, "label": "Gd", "xyz": [1.79991842445, -1.039183328394, 4.2842535]}, {"species": [{"element": "Gd", "occu": 1}], "abc": [0.832186, 0.664372, 0.75], "properties": {"magmom": 7.297}, "label": "Gd", "xyz": [5.350531575550001, -1.0391833283939995, 4.2842535]}, {"species": [{"element": "Gd", "occu": 1}], "abc": [0.167814, 0.832186, 0.25], "properties": {"magmom": 7.315}, "label": "Gd", "xyz": [3.575225, 4.114104343212, 1.4280845]}, {"species": [{"element": "Gd", "occu": 1}], "abc": [0.664372, 0.832186, 0.25], "properties": {"magmom": 7.2780000000000005}, "label": "Gd", "xyz": [5.350531575550001, 1.0391833283939995, 1.4280845]}, {"species": [{"element": "Gd", "occu": 1}], "abc": [0.167814, 0.335628, 0.25], "properties": {"magmom": 7.297}, "label": "Gd", "xyz": [1.79991842445, 1.039183328394, 1.4280845]}, {"species": [{"element": "Lu", "occu": 1}], "abc": [0.666667, 0.333333, 0.25], "properties": {"magmom": 0.223}, "label": "Lu", "xyz": [3.575225, -2.0641611283140002, 1.4280845]}, {"species": [{"element": "Lu", "occu": 1}], "abc": [0.333333, 0.666667, 0.75], "properties": {"magmom": 0.223}, "label": "Lu", "xyz": [3.575225, 2.0641611283140002, 4.2842535]}]}, "task_ids": null, "uncorrected_energy_per_atom": null, "energy_per_atom": -11.69252047875, "formation_energy_per_atom": -0.005006935416666, "energy_above_hull": 0.0, "is_stable": true, "equilibrium_reaction_energy_per_atom": null, "decomposes_to": null, "xas": null, "grain_boundaries": null, "band_gap": 0.0, "cbm": null, "vbm": null, "efermi": 2.9559016, "is_gap_direct": null, "is_metal": null, "es_source_calc_id": null, "bandstructure": null, "dos": null, "dos_energy_up": null, "dos_energy_down": null, "is_magnetic": null, "ordering": null, "total_magnetization": 46.8875131, "total_magnetization_normalized_vol": null, "total_magnetization_normalized_formula_units": null, "num_magnetic_sites": null, "num_unique_magnetic_sites": null, "types_of_magnetic_species": null, "bulk_modulus": null, "shear_modulus": null, "universal_anisotropy": null, "homogeneous_poisson": null, "e_total": null, "e_ionic": null, "e_electronic": null, "n": null, "e_ij_max": null, "weighted_surface_energy_EV_PER_ANG2": null, "weighted_surface_energy": null, "weighted_work_function": null, "surface_anisotropy": null, "shape_factor": null, "has_reconstructed": null, "possible_species": null, "has_props": null, "theoretical": null, "database_IDs": null, "fields_not_requested": ["builder_meta", "nsites", "elements", "nelements", "composition", "composition_reduced", "chemsys", "symmetry", "property_name", "deprecated", "deprecation_reasons", "last_updated", "origins", "warnings", "task_ids", "uncorrected_energy_per_atom", "equilibrium_reaction_energy_per_atom", "decomposes_to", "xas", "grain_boundaries", "cbm", "vbm", "is_gap_direct", "is_metal", "es_source_calc_id", "bandstructure", "dos", "dos_energy_up", "dos_energy_down", "is_magnetic", "ordering", "total_magnetization_normalized_vol", "total_magnetization_normalized_formula_units", "num_magnetic_sites", "num_unique_magnetic_sites", "types_of_magnetic_species", "bulk_modulus", "shear_modulus", "universal_anisotropy", "homogeneous_poisson", "e_total", "e_ionic", "e_electronic", "n", "e_ij_max", "weighted_surface_energy_EV_PER_ANG2", "weighted_surface_energy", "weighted_work_function", "surface_anisotropy", "shape_factor", "has_reconstructed", "possible_species", "has_props", "theoretical", "database_IDs"]}