{"builder_meta": null, "nsites": null, "elements": null, "nelements": null, "composition": null, "composition_reduced": null, "formula_pretty": "Gd3Pd2", "formula_anonymous": "A2B3", "chemsys": null, "volume": 245.04423798848495, "density": 9.278230322290735, "density_atomic": 24.504423798848496, "symmetry": null, "property_name": null, "material_id": "mp-22077", "deprecated": null, "deprecation_reasons": null, "last_updated": null, "origins": null, "warnings": null, "structure": {"@module": "pymatgen.core.structure", "@class": "Structure", "charge": 0, "lattice": {"matrix": [[4.02179667, 0.0, 0.0], [0.0, 7.80570605, 0.00015537], [0.0, 0.00015537, 7.80570605]], "pbc": [true, true, true], "a": 4.02179667, "b": 7.805706051546295, "c": 7.805706051546295, "alpha": 89.99771909287776, "beta": 90.0, "gamma": 90.0, "volume": 245.04423798848495}, "properties": {}, "sites": [{"species": [{"element": "Gd", "occu": 1}], "abc": [0.5, 0.66480698, 0.8351930200000001], "properties": {"magmom": 7.035}, "label": "Gd", "xyz": [2.010898335, 5.189417629807747, 6.519374500192255]}, {"species": [{"element": "Gd", "occu": 1}], "abc": [0.5, 0.83518999, 0.33518999], "properties": {"magmom": 7.035}, "label": "Gd", "xyz": [2.010898335, 6.519299636311186, 2.616524296311186]}, {"species": [{"element": "Gd", "occu": 1}], "abc": [0.5, 0.33519302, 0.16480698], "properties": {"magmom": 7.035}, "label": "Gd", "xyz": [2.010898335, 2.6164437901922537, 1.2864869198077462]}, {"species": [{"element": "Gd", "occu": 1}], "abc": [0.5, 0.16481001, 0.6648100100000001], "properties": {"magmom": 7.035}, "label": "Gd", "xyz": [2.010898335, 1.2865617836888144, 5.189337123688815]}, {"species": [{"element": "Gd", "occu": 1}], "abc": [0.0, 0.5, 0.5], "properties": {"magmom": -7.114}, "label": "Gd", "xyz": [0.0, 3.90293071, 3.90293071]}, {"species": [{"element": "Gd", "occu": 1}], "abc": [0.0, -0.0, -0.0], "properties": {"magmom": -7.114}, "label": "Gd", "xyz": [0.0, 0.0, 0.0]}, {"species": [{"element": "Pd", "occu": 1}], "abc": [0.0, 0.63175653, 0.13175653], "properties": {"magmom": -0.011}, "label": "Pd", "xyz": [0.0, 4.9313262393600725, 1.0285508993600727]}, {"species": [{"element": "Pd", "occu": 1}], "abc": [0.0, 0.86826471, 0.6317352900000001], "properties": {"magmom": -0.011}, "label": "Pd", "xyz": [0.0, 6.777517252560504, 4.931274877439498]}, {"species": [{"element": "Pd", "occu": 1}], "abc": [0.0, 0.13173529, 0.36826471], "properties": {"magmom": -0.011}, "label": "Pd", "xyz": [0.0, 1.0283441674394973, 2.874586542560503]}, {"species": [{"element": "Pd", "occu": 1}], "abc": [0.0, 0.36824347, 0.86824347], "properties": {"magmom": -0.011}, "label": "Pd", "xyz": [0.0, 2.8745351806399277, 6.777310520639928]}]}, "task_ids": null, "uncorrected_energy_per_atom": null, "energy_per_atom": -35.860514077, "formation_energy_per_atom": -0.638129452999993, "energy_above_hull": 0.045382471000003005, "is_stable": false, "equilibrium_reaction_energy_per_atom": null, "decomposes_to": null, "xas": null, "grain_boundaries": null, "band_gap": 0.0, "cbm": null, "vbm": null, "efermi": 3.95431269, "is_gap_direct": null, "is_metal": null, "es_source_calc_id": null, "bandstructure": null, "dos": null, "dos_energy_up": null, "dos_energy_down": null, "is_magnetic": null, "ordering": null, "total_magnetization": 14.3783797, "total_magnetization_normalized_vol": null, "total_magnetization_normalized_formula_units": null, "num_magnetic_sites": null, "num_unique_magnetic_sites": null, "types_of_magnetic_species": null, "bulk_modulus": null, "shear_modulus": null, "universal_anisotropy": null, "homogeneous_poisson": null, "e_total": null, "e_ionic": null, "e_electronic": null, "n": null, "e_ij_max": null, "weighted_surface_energy_EV_PER_ANG2": null, "weighted_surface_energy": null, "weighted_work_function": null, "surface_anisotropy": null, "shape_factor": null, "has_reconstructed": null, "possible_species": null, "has_props": null, "theoretical": null, "database_IDs": null, "fields_not_requested": ["builder_meta", "nsites", "elements", "nelements", "composition", "composition_reduced", "chemsys", "symmetry", "property_name", "deprecated", "deprecation_reasons", "last_updated", "origins", "warnings", "task_ids", "uncorrected_energy_per_atom", "equilibrium_reaction_energy_per_atom", "decomposes_to", "xas", "grain_boundaries", "cbm", "vbm", "is_gap_direct", "is_metal", "es_source_calc_id", "bandstructure", "dos", "dos_energy_up", "dos_energy_down", "is_magnetic", "ordering", "total_magnetization_normalized_vol", "total_magnetization_normalized_formula_units", "num_magnetic_sites", "num_unique_magnetic_sites", "types_of_magnetic_species", "bulk_modulus", "shear_modulus", "universal_anisotropy", "homogeneous_poisson", "e_total", "e_ionic", "e_electronic", "n", "e_ij_max", "weighted_surface_energy_EV_PER_ANG2", "weighted_surface_energy", "weighted_work_function", "surface_anisotropy", "shape_factor", "has_reconstructed", "possible_species", "has_props", "theoretical", "database_IDs"]}