{
  "builder_meta": null,
  "nsites": null,
  "elements": null,
  "nelements": null,
  "composition": null,
  "composition_reduced": null,
  "formula_pretty": "Gd3Pt",
  "formula_anonymous": "AB3",
  "chemsys": null,
  "volume": 458.3573225024849,
  "density": 9.66323742264326,
  "density_atomic": 28.647332656405307,
  "symmetry": null,
  "property_name": null,
  "material_id": "mp-1106170",
  "deprecated": null,
  "deprecation_reasons": null,
  "last_updated": null,
  "origins": null,
  "warnings": null,
  "structure": {
    "@module": "pymatgen.core.structure",
    "@class": "Structure",
    "charge": 0,
    "lattice": {
      "matrix": [
        [6.537278, 0.0, 0.0],
        [0.0, 7.180227, 0.0],
        [0.0, 0.0, 9.764928]
      ],
      "pbc": [true, true, true],
      "a": 6.537278,
      "b": 7.180227,
      "c": 9.764928,
      "alpha": 90.0,
      "beta": 90.0,
      "gamma": 90.0,
      "volume": 458.3573225024849
    },
    "properties": {},
    "sites": [
      {
        "species": [{ "element": "Gd", "occu": 1 }],
        "abc": [0.324963, 0.67956, 0.060107999999999],
        "properties": { "magmom": 7.11 },
        "label": "Gd",
        "xyz": [2.124373470714, 4.87939506012, 0.5869502922239902]
      },
      {
        "species": [{ "element": "Gd", "occu": 1 }],
        "abc": [0.175037, 0.17956000000000003, 0.439892],
        "properties": { "magmom": 7.11 },
        "label": "Gd",
        "xyz": [1.144265529286, 1.2892815601200003, 4.295513707776]
      },
      {
        "species": [{ "element": "Gd", "occu": 1 }],
        "abc": [0.675037, 0.32044, 0.560107999999999],
        "properties": { "magmom": 7.11 },
        "label": "Gd",
        "xyz": [4.412904529286, 2.30083193988, 5.46941429222399]
      },
      {
        "species": [{ "element": "Gd", "occu": 1 }],
        "abc": [0.824963, 0.8204400000000001, 0.939892],
        "properties": { "magmom": 7.11 },
        "label": "Gd",
        "xyz": [5.393012470714, 5.89094543988, 9.177977707775998]
      },
      {
        "species": [{ "element": "Gd", "occu": 1 }],
        "abc": [0.675037, 0.32044, 0.939892],
        "properties": { "magmom": 7.11 },
        "label": "Gd",
        "xyz": [4.412904529286, 2.30083193988, 9.177977707775998]
      },
      {
        "species": [{ "element": "Gd", "occu": 1 }],
        "abc": [0.824963, 0.8204400000000001, 0.560107999999999],
        "properties": { "magmom": 7.11 },
        "label": "Gd",
        "xyz": [5.393012470714, 5.89094543988, 5.46941429222399]
      },
      {
        "species": [{ "element": "Gd", "occu": 1 }],
        "abc": [0.324963, 0.67956, 0.439892],
        "properties": { "magmom": 7.11 },
        "label": "Gd",
        "xyz": [2.124373470714, 4.87939506012, 4.295513707776]
      },
      {
        "species": [{ "element": "Gd", "occu": 1 }],
        "abc": [0.175037, 0.17956000000000003, 0.060107999999999],
        "properties": { "magmom": 7.11 },
        "label": "Gd",
        "xyz": [1.144265529286, 1.2892815601200003, 0.5869502922239902]
      },
      {
        "species": [{ "element": "Gd", "occu": 1 }],
        "abc": [0.864818, 0.530149, 0.25],
        "properties": { "magmom": -7.017 },
        "label": "Gd",
        "xyz": [5.653555685403999, 3.806590163823, 2.441232]
      },
      {
        "species": [{ "element": "Gd", "occu": 1 }],
        "abc": [0.635182, 0.030149, 0.25],
        "properties": { "magmom": -7.017 },
        "label": "Gd",
        "xyz": [4.152361314596, 0.21647666382300002, 2.441232]
      },
      {
        "species": [{ "element": "Gd", "occu": 1 }],
        "abc": [0.135182, 0.469850999999999, 0.75],
        "properties": { "magmom": -7.017 },
        "label": "Gd",
        "xyz": [0.8837223145959999, 3.3736368361769933, 7.323696]
      },
      {
        "species": [{ "element": "Gd", "occu": 1 }],
        "abc": [0.364818, 0.9698509999999991, 0.75],
        "properties": { "magmom": -7.017 },
        "label": "Gd",
        "xyz": [2.384916685404, 6.963750336176994, 7.323696]
      },
      {
        "species": [{ "element": "Pt", "occu": 1 }],
        "abc": [0.05491000000000001, 0.887643, 0.25],
        "properties": { "magmom": -0.005 },
        "label": "Pt",
        "xyz": [0.35896193498, 6.373478234961, 2.441232]
      },
      {
        "species": [{ "element": "Pt", "occu": 1 }],
        "abc": [0.44509000000000004, 0.387642999999999, 0.25],
        "properties": { "magmom": -0.005 },
        "label": "Pt",
        "xyz": [2.9096770650200003, 2.783364734960993, 2.441232]
      },
      {
        "species": [{ "element": "Pt", "occu": 1 }],
        "abc": [0.9450900000000001, 0.112357, 0.75],
        "properties": { "magmom": -0.005 },
        "label": "Pt",
        "xyz": [6.178316065020001, 0.8067487650390001, 7.323696]
      },
      {
        "species": [{ "element": "Pt", "occu": 1 }],
        "abc": [0.55491, 0.612356999999999, 0.75],
        "properties": { "magmom": -0.005 },
        "label": "Pt",
        "xyz": [3.62760093498, 4.396862265038993, 7.323696]
      }
    ]
  },
  "task_ids": null,
  "uncorrected_energy_per_atom": null,
  "energy_per_atom": -12.75216661,
  "formation_energy_per_atom": -0.6772916000000001,
  "energy_above_hull": 0.0,
  "is_stable": true,
  "equilibrium_reaction_energy_per_atom": null,
  "decomposes_to": null,
  "xas": null,
  "grain_boundaries": null,
  "band_gap": 0.0,
  "cbm": null,
  "vbm": null,
  "efermi": 3.651594369999999,
  "is_gap_direct": null,
  "is_metal": null,
  "es_source_calc_id": null,
  "bandstructure": null,
  "dos": null,
  "dos_energy_up": null,
  "dos_energy_down": null,
  "is_magnetic": null,
  "ordering": null,
  "total_magnetization": 30.168471,
  "total_magnetization_normalized_vol": null,
  "total_magnetization_normalized_formula_units": null,
  "num_magnetic_sites": null,
  "num_unique_magnetic_sites": null,
  "types_of_magnetic_species": null,
  "bulk_modulus": null,
  "shear_modulus": null,
  "universal_anisotropy": null,
  "homogeneous_poisson": null,
  "e_total": null,
  "e_ionic": null,
  "e_electronic": null,
  "n": null,
  "e_ij_max": null,
  "weighted_surface_energy_EV_PER_ANG2": null,
  "weighted_surface_energy": null,
  "weighted_work_function": null,
  "surface_anisotropy": null,
  "shape_factor": null,
  "has_reconstructed": null,
  "possible_species": null,
  "has_props": null,
  "theoretical": null,
  "database_IDs": null,
  "fields_not_requested": [
    "builder_meta",
    "nsites",
    "elements",
    "nelements",
    "composition",
    "composition_reduced",
    "chemsys",
    "symmetry",
    "property_name",
    "deprecated",
    "deprecation_reasons",
    "last_updated",
    "origins",
    "warnings",
    "task_ids",
    "uncorrected_energy_per_atom",
    "equilibrium_reaction_energy_per_atom",
    "decomposes_to",
    "xas",
    "grain_boundaries",
    "cbm",
    "vbm",
    "is_gap_direct",
    "is_metal",
    "es_source_calc_id",
    "bandstructure",
    "dos",
    "dos_energy_up",
    "dos_energy_down",
    "is_magnetic",
    "ordering",
    "total_magnetization_normalized_vol",
    "total_magnetization_normalized_formula_units",
    "num_magnetic_sites",
    "num_unique_magnetic_sites",
    "types_of_magnetic_species",
    "bulk_modulus",
    "shear_modulus",
    "universal_anisotropy",
    "homogeneous_poisson",
    "e_total",
    "e_ionic",
    "e_electronic",
    "n",
    "e_ij_max",
    "weighted_surface_energy_EV_PER_ANG2",
    "weighted_surface_energy",
    "weighted_work_function",
    "surface_anisotropy",
    "shape_factor",
    "has_reconstructed",
    "possible_species",
    "has_props",
    "theoretical",
    "database_IDs"
  ]
}
