{
  "builder_meta": null,
  "nsites": null,
  "elements": null,
  "nelements": null,
  "composition": null,
  "composition_reduced": null,
  "formula_pretty": "Gd3Se4",
  "formula_anonymous": "A3B4",
  "chemsys": null,
  "volume": 337.5162912647014,
  "density": 7.749693850705514,
  "density_atomic": 24.108306518907245,
  "symmetry": null,
  "property_name": null,
  "material_id": "mp-672292",
  "deprecated": null,
  "deprecation_reasons": null,
  "last_updated": null,
  "origins": null,
  "warnings": null,
  "structure": {
    "@module": "pymatgen.core.structure",
    "@class": "Structure",
    "charge": 0,
    "lattice": {
      "matrix": [
        [-4.38604787, 4.38618339, 4.38615242],
        [4.38607374, -4.38605942, 4.3860542],
        [4.38605434, 4.3860649800000004, -4.3860284400000005]
      ],
      "pbc": [true, true, true],
      "a": 7.596996360412139,
      "b": 7.596883014357004,
      "c": 7.5968601513193645,
      "alpha": 109.47106939319559,
      "beta": 109.47056274648078,
      "gamma": 109.471070317789,
      "volume": 337.5162912647014
    },
    "properties": {},
    "sites": [
      {
        "species": [{ "element": "Gd", "occu": 1 }],
        "abc": [0.25000503, 0.12500673, 0.87500614],
        "properties": { "magmom": 6.971 },
        "label": "Gd",
        "xyz": [3.2895791843291318, 4.386114752261533, -2.192955354723183]
      },
      {
        "species": [{ "element": "Gd", "occu": 1 }],
        "abc": [0.12500608, 0.8750060900000001, 0.24999813],
        "properties": { "magmom": 6.971 },
        "label": "Gd",
        "xyz": [4.386063965846412, -2.193021068798369, 3.289620948249975]
      },
      {
        "species": [{ "element": "Gd", "occu": 1 }],
        "abc": [0.74999997, 0.37500569, 0.62500311],
        "properties": { "magmom": 6.971 },
        "label": "Gd",
        "xyz": [1.0965644414700142, 4.386144424898487, 2.1931280495153778]
      },
      {
        "species": [{ "element": "Gd", "occu": 1 }],
        "abc": [0.87499492, 0.24999901, 0.12499306],
        "properties": { "magmom": 6.971 },
        "label": "Gd",
        "xyz": [-2.1930291590569424, 3.2896053548462443, 4.3861471776894225]
      },
      {
        "species": [{ "element": "Gd", "occu": 1 }],
        "abc": [0.62499131, 0.74999615, 0.37499403000000003],
        "properties": { "magmom": 6.971 },
        "label": "Gd",
        "xyz": [2.193040807377682, 1.096547006837178, 4.386096430116587]
      },
      {
        "species": [{ "element": "Gd", "occu": 1 }],
        "abc": [0.37500569, 0.62500685, 0.7500007200000001],
        "properties": { "magmom": 6.971 },
        "label": "Gd",
        "xyz": [4.386077137201864, 2.1930784395932488, 1.0966215462380626]
      },
      {
        "species": [{ "element": "Se", "occu": 1 }],
        "abc": [0.14326169, 0.50000332, 5.95e-6],
        "properties": { "magmom": -0.044 },
        "label": "Se",
        "xyz": [1.5647248985110396, -1.5646461295293144, 2.821383173117516]
      },
      {
        "species": [{ "element": "Se", "occu": 1 }],
        "abc": [0.35673999, 0.35673981, 0.35673826000000003],
        "properties": { "magmom": -0.044 },
        "label": "Se",
        "xyz": [1.5646818328873169, 1.5647222037593913, 1.564731958410863]
      },
      {
        "species": [{ "element": "Se", "occu": 1 }],
        "abc": [0.64325801, 0.49999782000000004, -7.3e-7],
        "properties": { "magmom": -0.044 },
        "label": "Se",
        "xyz": [-0.62833631808136, 0.6284242487285543, 5.014448417448491]
      },
      {
        "species": [{ "element": "Se", "occu": 1 }],
        "abc": [0.49999818, -6.179999999999998e-6, 0.64326244],
        "properties": { "magmom": -0.044 },
        "label": "Se",
        "xyz": [0.6283409583923998, 5.0145016790267976, -0.6283262348361545]
      },
      {
        "species": [{ "element": "Se", "occu": 1 }],
        "abc": [0.50000082, -3.359999999999998e-6, 0.14326126],
        "properties": { "magmom": -0.044 },
        "label": "Se",
        "xyz": [-1.5646905975901515, 2.821463224306706, 1.5647171087926381]
      },
      {
        "species": [{ "element": "Se", "occu": 1 }],
        "abc": [-4.2e-7, 0.64325251, 0.49999747],
        "properties": { "magmom": -0.044 },
        "label": "Se",
        "xyz": [5.014370857722713, -0.628324179865567, 0.6283354076139789]
      },
      {
        "species": [{ "element": "Se", "occu": 1 }],
        "abc": [0.85673731, 0.85674363, 0.85674426],
        "properties": { "magmom": -0.044 },
        "label": "Se",
        "xyz": [3.7577767636233355, 3.757814485430802, 3.7577997320787815]
      },
      {
        "species": [{ "element": "Se", "occu": 1 }],
        "abc": [0.99999942, 0.14325193, 0.499996899999999],
        "properties": { "magmom": -0.044 },
        "label": "Se",
        "xyz": [-1.564718224483375, 5.950888262202511, 2.82145998195437]
      }
    ]
  },
  "task_ids": null,
  "uncorrected_energy_per_atom": null,
  "energy_per_atom": -28.83754996,
  "formation_energy_per_atom": -2.060798985178568,
  "energy_above_hull": 0.044679209642854004,
  "is_stable": false,
  "equilibrium_reaction_energy_per_atom": null,
  "decomposes_to": null,
  "xas": null,
  "grain_boundaries": null,
  "band_gap": 0.0,
  "cbm": null,
  "vbm": null,
  "efermi": 5.63476485,
  "is_gap_direct": null,
  "is_metal": null,
  "es_source_calc_id": null,
  "bandstructure": null,
  "dos": null,
  "dos_energy_up": null,
  "dos_energy_down": null,
  "is_magnetic": null,
  "ordering": null,
  "total_magnetization": 42.965905,
  "total_magnetization_normalized_vol": null,
  "total_magnetization_normalized_formula_units": null,
  "num_magnetic_sites": null,
  "num_unique_magnetic_sites": null,
  "types_of_magnetic_species": null,
  "bulk_modulus": null,
  "shear_modulus": null,
  "universal_anisotropy": null,
  "homogeneous_poisson": null,
  "e_total": null,
  "e_ionic": null,
  "e_electronic": null,
  "n": null,
  "e_ij_max": null,
  "weighted_surface_energy_EV_PER_ANG2": null,
  "weighted_surface_energy": null,
  "weighted_work_function": null,
  "surface_anisotropy": null,
  "shape_factor": null,
  "has_reconstructed": null,
  "possible_species": null,
  "has_props": null,
  "theoretical": null,
  "database_IDs": null,
  "fields_not_requested": [
    "builder_meta",
    "nsites",
    "elements",
    "nelements",
    "composition",
    "composition_reduced",
    "chemsys",
    "symmetry",
    "property_name",
    "deprecated",
    "deprecation_reasons",
    "last_updated",
    "origins",
    "warnings",
    "task_ids",
    "uncorrected_energy_per_atom",
    "equilibrium_reaction_energy_per_atom",
    "decomposes_to",
    "xas",
    "grain_boundaries",
    "cbm",
    "vbm",
    "is_gap_direct",
    "is_metal",
    "es_source_calc_id",
    "bandstructure",
    "dos",
    "dos_energy_up",
    "dos_energy_down",
    "is_magnetic",
    "ordering",
    "total_magnetization_normalized_vol",
    "total_magnetization_normalized_formula_units",
    "num_magnetic_sites",
    "num_unique_magnetic_sites",
    "types_of_magnetic_species",
    "bulk_modulus",
    "shear_modulus",
    "universal_anisotropy",
    "homogeneous_poisson",
    "e_total",
    "e_ionic",
    "e_electronic",
    "n",
    "e_ij_max",
    "weighted_surface_energy_EV_PER_ANG2",
    "weighted_surface_energy",
    "weighted_work_function",
    "surface_anisotropy",
    "shape_factor",
    "has_reconstructed",
    "possible_species",
    "has_props",
    "theoretical",
    "database_IDs"
  ]
}
