{"builder_meta": null, "nsites": null, "elements": null, "nelements": null, "composition": null, "composition_reduced": null, "formula_pretty": "Gd3Si", "formula_anonymous": "AB3", "chemsys": null, "volume": 204.06994019904494, "density": 8.134430517439126, "density_atomic": 25.508742524880617, "symmetry": null, "property_name": null, "material_id": "mp-1184530", "deprecated": null, "deprecation_reasons": null, "last_updated": null, "origins": null, "warnings": null, "structure": {"@module": "pymatgen.core.structure", "@class": "Structure", "charge": 0, "lattice": {"matrix": [[6.731834, 0.0, 0.0], [-3.365919, 5.8299389999999995, 0.0], [0.0, 0.0, 5.19974]], "pbc": [true, true, true], "a": 6.731834, "b": 6.731834776513903, "c": 5.19974, "alpha": 90.0, "beta": 90.0, "gamma": 120.00001583997138, "volume": 204.06994019904488}, "properties": {}, "sites": [{"species": [{"element": "Gd", "occu": 1}], "abc": [0.177184999999999, 0.35437, 0.25], "properties": {"magmom": 7.272}, "label": "Gd", "xyz": [-7.087400064609284e-07, 2.06595548343, 1.299935]}, {"species": [{"element": "Gd", "occu": 1}], "abc": [0.645632, 0.822816, 0.25], "properties": {"magmom": 7.276}, "label": "Gd", "xyz": [1.576755441184, 4.796967088223999, 1.299935]}, {"species": [{"element": "Gd", "occu": 1}], "abc": [0.177183999999999, 0.822816, 0.25], "properties": {"magmom": 7.269}, "label": "Gd", "xyz": [-1.5767587324480066, 4.796967088223999, 1.299935]}, {"species": [{"element": "Gd", "occu": 1}], "abc": [0.822816, 0.645631, 0.750000999999999], "properties": {"magmom": 7.271}, "label": "Gd", "xyz": [3.3659190746550003, 3.7639893465089993, 3.899810199739995]}, {"species": [{"element": "Gd", "occu": 1}], "abc": [0.354367999999999, 0.177182999999999, 0.750000999999999], "properties": {"magmom": 7.275}, "label": "Gd", "xyz": [1.7891629247349967, 1.0329660818369941, 3.899810199739995]}, {"species": [{"element": "Gd", "occu": 1}], "abc": [0.822816, 0.177182999999999, 0.750000999999999], "properties": {"magmom": 7.269}, "label": "Gd", "xyz": [4.942677098367003, 1.0329660818369941, 3.899810199739995]}, {"species": [{"element": "Si", "occu": 1}], "abc": [0.333333999999999, 0.666667, 0.750000999999999], "properties": {"magmom": -0.074}, "label": "Si", "xyz": [2.0325829934719764e-06, 3.8866279433129995, 3.899810199739995]}, {"species": [{"element": "Si", "occu": 1}], "abc": [0.666667, 0.333333999999999, 0.25], "properties": {"magmom": -0.074}, "label": "Si", "xyz": [3.3659163333320032, 1.9433168866259942, 1.299935]}]}, "task_ids": null, "uncorrected_energy_per_atom": null, "energy_per_atom": -12.1766026225, "formation_energy_per_atom": -0.263181435000001, "energy_above_hull": 0.13189332984374602, "is_stable": false, "equilibrium_reaction_energy_per_atom": null, "decomposes_to": null, "xas": null, "grain_boundaries": null, "band_gap": 0.0, "cbm": null, "vbm": null, "efermi": 4.3890034, "is_gap_direct": null, "is_metal": null, "es_source_calc_id": null, "bandstructure": null, "dos": null, "dos_energy_up": null, "dos_energy_down": null, "is_magnetic": null, "ordering": null, "total_magnetization": 44.900244, "total_magnetization_normalized_vol": null, "total_magnetization_normalized_formula_units": null, "num_magnetic_sites": null, "num_unique_magnetic_sites": null, "types_of_magnetic_species": null, "bulk_modulus": null, "shear_modulus": null, "universal_anisotropy": null, "homogeneous_poisson": null, "e_total": null, "e_ionic": null, "e_electronic": null, "n": null, "e_ij_max": null, "weighted_surface_energy_EV_PER_ANG2": null, "weighted_surface_energy": null, "weighted_work_function": null, "surface_anisotropy": null, "shape_factor": null, "has_reconstructed": null, "possible_species": null, "has_props": null, "theoretical": null, "database_IDs": null, "fields_not_requested": ["builder_meta", "nsites", "elements", "nelements", "composition", "composition_reduced", "chemsys", "symmetry", "property_name", "deprecated", "deprecation_reasons", "last_updated", "origins", "warnings", "task_ids", "uncorrected_energy_per_atom", "equilibrium_reaction_energy_per_atom", "decomposes_to", "xas", "grain_boundaries", "cbm", "vbm", "is_gap_direct", "is_metal", "es_source_calc_id", "bandstructure", "dos", "dos_energy_up", "dos_energy_down", "is_magnetic", "ordering", "total_magnetization_normalized_vol", "total_magnetization_normalized_formula_units", "num_magnetic_sites", "num_unique_magnetic_sites", "types_of_magnetic_species", "bulk_modulus", "shear_modulus", "universal_anisotropy", "homogeneous_poisson", "e_total", "e_ionic", "e_electronic", "n", "e_ij_max", "weighted_surface_energy_EV_PER_ANG2", "weighted_surface_energy", "weighted_work_function", "surface_anisotropy", "shape_factor", "has_reconstructed", "possible_species", "has_props", "theoretical", "database_IDs"]}