{"builder_meta": null, "nsites": null, "elements": null, "nelements": null, "composition": null, "composition_reduced": null, "formula_pretty": "Gd3Sb4", "formula_anonymous": "A3B4", "chemsys": null, "volume": 398.6633721235524, "density": 7.987231147846676, "density_atomic": 28.475955151682314, "symmetry": null, "property_name": null, "material_id": "mp-1212641", "deprecated": null, "deprecation_reasons": null, "last_updated": null, "origins": null, "warnings": null, "structure": {"@module": "pymatgen.core.structure", "@class": "Structure", "charge": 0, "lattice": {"matrix": [[-4.636413, 4.636413, 4.636413], [4.636413, -4.636413, 4.636413], [4.636413, 4.636413, -4.636413]], "pbc": [true, true, true], "a": 8.030502880872842, "b": 8.030502880872842, "c": 8.030502880872842, "alpha": 109.47122063449069, "beta": 109.47122063449069, "gamma": 109.47122063449069, "volume": 398.6633721235524}, "properties": {}, "sites": [{"species": [{"element": "Gd", "occu": 1}], "abc": [0.125, 0.875, 0.25], "properties": {"magmom": 6.923}, "label": "Gd", "xyz": [4.636413, -2.3182065000000005, 3.47730975]}, {"species": [{"element": "Gd", "occu": 1}], "abc": [0.375, 0.625, 0.75], "properties": {"magmom": 6.923}, "label": "Gd", "xyz": [4.636413, 2.3182064999999996, 1.1591032500000003]}, {"species": [{"element": "Gd", "occu": 1}], "abc": [0.875, 0.25, 0.125], "properties": {"magmom": 6.923}, "label": "Gd", "xyz": [-2.3182065, 3.4773097500000003, 4.636413000000001]}, {"species": [{"element": "Gd", "occu": 1}], "abc": [0.625, 0.75, 0.375], "properties": {"magmom": 6.923}, "label": "Gd", "xyz": [2.3182064999999996, 1.1591032500000003, 4.636413]}, {"species": [{"element": "Gd", "occu": 1}], "abc": [0.25, 0.125, 0.875], "properties": {"magmom": 6.923}, "label": "Gd", "xyz": [3.4773097500000003, 4.636413, -2.3182065000000005]}, {"species": [{"element": "Gd", "occu": 1}], "abc": [0.75, 0.375, 0.625], "properties": {"magmom": 6.923}, "label": "Gd", "xyz": [1.1591032500000003, 4.636413, 2.3182064999999996]}, {"species": [{"element": "Sb", "occu": 1}], "abc": [0.338179, 0.338179, 0.338179], "properties": {"magmom": -0.06}, "label": "Sb", "xyz": [1.567937511927, 1.567937511927, 1.567937511927]}, {"species": [{"element": "Sb", "occu": 1}], "abc": [0.161821, 0.5, 0.0], "properties": {"magmom": -0.06}, "label": "Sb", "xyz": [1.567937511927, -1.567937511927, 3.068475488073]}, {"species": [{"element": "Sb", "occu": 1}], "abc": [0.0, 0.161821, 0.5], "properties": {"magmom": -0.06}, "label": "Sb", "xyz": [3.068475488073, 1.567937511927, -1.567937511927]}, {"species": [{"element": "Sb", "occu": 1}], "abc": [0.838179, 0.838179, 0.838179], "properties": {"magmom": -0.06}, "label": "Sb", "xyz": [3.886144011927, 3.886144011927, 3.886144011927]}, {"species": [{"element": "Sb", "occu": 1}], "abc": [0.5, 0.0, 0.161821], "properties": {"magmom": -0.06}, "label": "Sb", "xyz": [-1.567937511927, 3.068475488073, 1.567937511927]}, {"species": [{"element": "Sb", "occu": 1}], "abc": [0.661821, 0.5, 0.0], "properties": {"magmom": -0.06}, "label": "Sb", "xyz": [-0.750268988073, 0.750268988073, 5.386681988073001]}, {"species": [{"element": "Sb", "occu": 1}], "abc": [0.5, 0.0, 0.661821], "properties": {"magmom": -0.06}, "label": "Sb", "xyz": [0.750268988073, 5.386681988073001, -0.750268988073]}, {"species": [{"element": "Sb", "occu": 1}], "abc": [0.0, 0.661821, 0.5], "properties": {"magmom": -0.06}, "label": "Sb", "xyz": [5.386681988073001, -0.750268988073, 0.750268988073]}]}, "task_ids": null, "uncorrected_energy_per_atom": null, "energy_per_atom": -34.32748780428572, "formation_energy_per_atom": -1.039447972857138, "energy_above_hull": 0.10597049857143001, "is_stable": false, "equilibrium_reaction_energy_per_atom": null, "decomposes_to": null, "xas": null, "grain_boundaries": null, "band_gap": 0.0, "cbm": null, "vbm": null, "efermi": 5.62868309, "is_gap_direct": null, "is_metal": null, "es_source_calc_id": null, "bandstructure": null, "dos": null, "dos_energy_up": null, "dos_energy_down": null, "is_magnetic": null, "ordering": null, "total_magnetization": 41.0793054, "total_magnetization_normalized_vol": null, "total_magnetization_normalized_formula_units": null, "num_magnetic_sites": null, "num_unique_magnetic_sites": null, "types_of_magnetic_species": null, "bulk_modulus": null, "shear_modulus": null, "universal_anisotropy": null, "homogeneous_poisson": null, "e_total": null, "e_ionic": null, "e_electronic": null, "n": null, "e_ij_max": null, "weighted_surface_energy_EV_PER_ANG2": null, "weighted_surface_energy": null, "weighted_work_function": null, "surface_anisotropy": null, "shape_factor": null, "has_reconstructed": null, "possible_species": null, "has_props": null, "theoretical": null, "database_IDs": null, "fields_not_requested": ["builder_meta", "nsites", "elements", "nelements", "composition", "composition_reduced", "chemsys", "symmetry", "property_name", "deprecated", "deprecation_reasons", "last_updated", "origins", "warnings", "task_ids", "uncorrected_energy_per_atom", "equilibrium_reaction_energy_per_atom", "decomposes_to", "xas", "grain_boundaries", "cbm", "vbm", "is_gap_direct", "is_metal", "es_source_calc_id", "bandstructure", "dos", "dos_energy_up", "dos_energy_down", "is_magnetic", "ordering", "total_magnetization_normalized_vol", "total_magnetization_normalized_formula_units", "num_magnetic_sites", "num_unique_magnetic_sites", "types_of_magnetic_species", "bulk_modulus", "shear_modulus", "universal_anisotropy", "homogeneous_poisson", "e_total", "e_ionic", "e_electronic", "n", "e_ij_max", "weighted_surface_energy_EV_PER_ANG2", "weighted_surface_energy", "weighted_work_function", "surface_anisotropy", "shape_factor", "has_reconstructed", "possible_species", "has_props", "theoretical", "database_IDs"]}