{"builder_meta": null, "nsites": null, "elements": null, "nelements": null, "composition": null, "composition_reduced": null, "formula_pretty": "Gd3S4", "formula_anonymous": "A3B4", "chemsys": null, "volume": 296.43872718085487, "density": 6.722063981490562, "density_atomic": 21.17419479863249, "symmetry": null, "property_name": null, "material_id": "mp-20036", "deprecated": null, "deprecation_reasons": null, "last_updated": null, "origins": null, "warnings": null, "structure": {"@module": "pymatgen.core.structure", "@class": "Structure", "charge": 0, "lattice": {"matrix": [[6.8593182, 0.00041128000000000003, -2.42488385], [-3.429541539999999, 5.94013988, -2.42555617], [0.00023822, -0.00041233000000000003, 7.27532387]], "pbc": [true, true, true], "a": 7.275321850199708, "b": 7.275324027311571, "c": 7.275323885584516, "alpha": 109.47871443248881, "beta": 109.46747838240421, "gamma": 109.46747817117858, "volume": 296.43872718085487}, "properties": {}, "sites": [{"species": [{"element": "Gd", "occu": 1}], "abc": [0.75, 0.875, 0.125], "properties": {"magmom": 6.955}, "label": "Gd", "xyz": [2.1436695800000005, 5.19787931375, -3.0316090525]}, {"species": [{"element": "Gd", "occu": 1}], "abc": [0.62500756, 0.37500656, 0.25], "properties": {"magmom": 6.955}, "label": "Gd", "xyz": [3.00108471115309, 2.22774539292689, -0.6063392462703814]}, {"species": [{"element": "Gd", "occu": 1}], "abc": [0.87499244, 0.12499344, 0.75], "properties": {"magmom": 6.955}, "label": "Gd", "xyz": [5.57336003884691, 0.7425291370731104, 3.031559256270381]}, {"species": [{"element": "Gd", "occu": 1}], "abc": [0.12500756, 0.75, 0.87500656], "properties": {"magmom": 6.955}, "label": "Gd", "xyz": [-1.714481079491684, 4.454795531654392, 4.243660171502682]}, {"species": [{"element": "Gd", "occu": 1}], "abc": [0.37499244, 0.25, 0.62499344], "properties": {"magmom": 6.955}, "label": "Gd", "xyz": [1.7149559694916852, 1.4849314933456081, 3.0313275384973193]}, {"species": [{"element": "Gd", "occu": 1}], "abc": [0.25, 0.625, 0.375], "properties": {"magmom": 6.955}, "label": "Gd", "xyz": [-0.4285445799999994, 3.7125356212500003, 0.6060528824999998]}, {"species": [{"element": "S", "occu": 1}], "abc": [0.64333161, 0.64330946, 0.6433197700000001], "properties": {"magmom": -0.044}, "label": "S", "xyz": [2.206712956598943, 3.8213475079110615, 1.5599720175180432]}, {"species": [{"element": "S", "occu": 1}], "abc": [0.35666839, 0.49997685000000003, -1.284e-05], "properties": {"magmom": -0.044}, "label": "S", "xyz": [0.7318105997196047, 2.9700791216315343, -2.077694767249657]}, {"species": [{"element": "S", "occu": 1}], "abc": [0.50001031, 2.315e-05, 0.35669054], "properties": {"magmom": -0.044}, "label": "S", "xyz": [3.4297353965044297, 0.00019608426816059997, 1.3825161226873612]}, {"species": [{"element": "S", "occu": 1}], "abc": [-1.031e-05, 0.35668023, 0.50001284], "properties": {"magmom": -0.044}, "label": "S", "xyz": [-1.223201271793651, 2.118524284095958, 2.7726324181174653]}, {"species": [{"element": "S", "occu": 1}], "abc": [0.49998969, 1.284e-05, 0.85668023], "properties": {"magmom": -0.044}, "label": "S", "xyz": [3.429748423480375, -7.132780347350002e-05, 5.020178057687361]}, {"species": [{"element": "S", "occu": 1}], "abc": [1.031e-05, 0.85669054, 0.50002315], "properties": {"magmom": -0.044}, "label": "S", "xyz": [-2.937865958769595, 5.088655471167592, 1.5598543331174648]}, {"species": [{"element": "S", "occu": 1}], "abc": [0.14333161, 0.14331977, 0.14330946], "properties": {"magmom": -0.044}, "label": "S", "xyz": [0.4916701555696174, 0.8513393400043466, 0.3474300764448308]}, {"species": [{"element": "S", "occu": 1}], "abc": [0.8566683900000001, 0.49998716, -2.315e-05], "properties": {"magmom": -0.044}, "label": "S", "xyz": [4.161434338690279, 2.9703460087248197, -3.2902367083228694]}]}, "task_ids": null, "uncorrected_energy_per_atom": null, "energy_per_atom": -25.45171576357143, "formation_energy_per_atom": -2.261571159464284, "energy_above_hull": 0.04382667535714101, "is_stable": false, "equilibrium_reaction_energy_per_atom": null, "decomposes_to": null, "xas": null, "grain_boundaries": null, "band_gap": 0.0, "cbm": null, "vbm": null, "efermi": 6.3623556, "is_gap_direct": null, "is_metal": null, "es_source_calc_id": null, "bandstructure": null, "dos": null, "dos_energy_up": null, "dos_energy_down": null, "is_magnetic": null, "ordering": null, "total_magnetization": 42.8448819, "total_magnetization_normalized_vol": null, "total_magnetization_normalized_formula_units": null, "num_magnetic_sites": null, "num_unique_magnetic_sites": null, "types_of_magnetic_species": null, "bulk_modulus": null, "shear_modulus": null, "universal_anisotropy": null, "homogeneous_poisson": null, "e_total": null, "e_ionic": null, "e_electronic": null, "n": null, "e_ij_max": null, "weighted_surface_energy_EV_PER_ANG2": null, "weighted_surface_energy": null, "weighted_work_function": null, "surface_anisotropy": null, "shape_factor": null, "has_reconstructed": null, "possible_species": null, "has_props": null, "theoretical": null, "database_IDs": null, "fields_not_requested": ["builder_meta", "nsites", "elements", "nelements", "composition", "composition_reduced", "chemsys", "symmetry", "property_name", "deprecated", "deprecation_reasons", "last_updated", "origins", "warnings", "task_ids", "uncorrected_energy_per_atom", "equilibrium_reaction_energy_per_atom", "decomposes_to", "xas", "grain_boundaries", "cbm", "vbm", "is_gap_direct", "is_metal", "es_source_calc_id", "bandstructure", "dos", "dos_energy_up", "dos_energy_down", "is_magnetic", "ordering", "total_magnetization_normalized_vol", "total_magnetization_normalized_formula_units", "num_magnetic_sites", "num_unique_magnetic_sites", "types_of_magnetic_species", "bulk_modulus", "shear_modulus", "universal_anisotropy", "homogeneous_poisson", "e_total", "e_ionic", "e_electronic", "n", "e_ij_max", "weighted_surface_energy_EV_PER_ANG2", "weighted_surface_energy", "weighted_work_function", "surface_anisotropy", "shape_factor", "has_reconstructed", "possible_species", "has_props", "theoretical", "database_IDs"]}