{
  "builder_meta": null,
  "nsites": null,
  "elements": null,
  "nelements": null,
  "composition": null,
  "composition_reduced": null,
  "formula_pretty": "Gd4Co3",
  "formula_anonymous": "A3B4",
  "chemsys": null,
  "volume": 453.24306821260194,
  "density": 8.85658348412904,
  "density_atomic": 21.58300324821914,
  "symmetry": null,
  "property_name": null,
  "material_id": "mp-1225806",
  "deprecated": null,
  "deprecation_reasons": null,
  "last_updated": null,
  "origins": null,
  "warnings": null,
  "structure": {
    "@module": "pymatgen.core.structure",
    "@class": "Structure",
    "charge": 0,
    "lattice": {
      "matrix": [
        [5.663895, -9.810154, 0.0],
        [5.663895, 9.810154, 0.0],
        [0.0, 0.0, 4.078591]
      ],
      "pbc": [true, true, true],
      "a": 11.327790079037527,
      "b": 11.327790079037527,
      "c": 4.078591,
      "alpha": 90.0,
      "beta": 90.0,
      "gamma": 120.00000046161526,
      "volume": 453.24306821260194
    },
    "properties": {},
    "sites": [
      {
        "species": [{ "element": "Gd", "occu": 1 }],
        "abc": [0.514324, 0.37944000000000006, 0.250828],
        "properties": { "magmom": -7.062 },
        "label": "Gd",
        "xyz": [5.06218545078, -1.3232328121359997, 1.0230248233480002]
      },
      {
        "species": [{ "element": "Gd", "occu": 1 }],
        "abc": [0.865116, 0.485676, 0.250828],
        "properties": { "magmom": -7.058 },
        "label": "Gd",
        "xyz": [7.6507440548400005, -3.7223648337600004, 1.0230248233480002]
      },
      {
        "species": [{ "element": "Gd", "occu": 1 }],
        "abc": [0.62056, 0.134884, 0.250828],
        "properties": { "magmom": -7.06 },
        "label": "Gd",
        "xyz": [4.27875549438, -4.764556354104, 1.0230248233480002]
      },
      {
        "species": [{ "element": "Gd", "occu": 1 }],
        "abc": [0.485676, 0.62056, 0.749172],
        "properties": { "magmom": -7.062 },
        "label": "Gd",
        "xyz": [6.26560454922, 1.3232328121360002, 3.055566176652]
      },
      {
        "species": [{ "element": "Gd", "occu": 1 }],
        "abc": [0.134884, 0.514324, 0.749172],
        "properties": { "magmom": -7.058 },
        "label": "Gd",
        "xyz": [3.67704594516, 3.7223648337600004, 3.055566176652]
      },
      {
        "species": [{ "element": "Gd", "occu": 1 }],
        "abc": [0.37944000000000006, 0.865116, 0.749172],
        "properties": { "magmom": -7.06 },
        "label": "Gd",
        "xyz": [7.04903450562, 4.764556354104, 3.055566176652]
      },
      {
        "species": [{ "element": "Gd", "occu": 1 }],
        "abc": [0.981273, 0.22341000000000003, 0.249849],
        "properties": { "magmom": 7.059 },
        "label": "Gd",
        "xyz": [6.823198020285, -7.434752740902001, 1.019031882759]
      },
      {
        "species": [{ "element": "Gd", "occu": 1 }],
        "abc": [0.242137, 0.018727, 0.249849],
        "properties": { "magmom": 7.072 },
        "label": "Gd",
        "xyz": [1.4775063052800002, -2.19168650514, 1.019031882759]
      },
      {
        "species": [{ "element": "Gd", "occu": 1 }],
        "abc": [0.7765900000000001, 0.757863, 0.249849],
        "properties": { "magmom": 7.067 },
        "label": "Gd",
        "xyz": [8.690980674435, -0.18371475395800196, 1.019031882759]
      },
      {
        "species": [{ "element": "Gd", "occu": 1 }],
        "abc": [0.018727, 0.7765900000000001, 0.750151],
        "properties": { "magmom": 7.058 },
        "label": "Gd",
        "xyz": [4.504591979715, 7.4347527409020016, 3.059559117241]
      },
      {
        "species": [{ "element": "Gd", "occu": 1 }],
        "abc": [0.757863, 0.981273, 0.750151],
        "properties": { "magmom": 7.072 },
        "label": "Gd",
        "xyz": [9.85028369472, 2.1916865051400007, 3.059559117241]
      },
      {
        "species": [{ "element": "Gd", "occu": 1 }],
        "abc": [0.22341000000000003, 0.242137, 0.750151],
        "properties": { "magmom": 7.067 },
        "label": "Gd",
        "xyz": [2.6368093255650003, 0.18371475395799974, 3.059559117241]
      },
      {
        "species": [{ "element": "Co", "occu": 1 }],
        "abc": [0.152897, 0.7175800000000001, 0.25373],
        "properties": { "magmom": 0.026000000000000002 },
        "label": "Co",
        "xyz": [4.930290327915001, 5.539627191182001, 1.0348608944300002]
      },
      {
        "species": [{ "element": "Co", "occu": 1 }],
        "abc": [0.564682999999999, 0.847102999999999, 0.25373],
        "properties": { "magmom": 0.014 },
        "label": "Co",
        "xyz": [7.996207666469989, 2.77058369268, 1.0348608944300002]
      },
      {
        "species": [{ "element": "Co", "occu": 1 }],
        "abc": [0.28242, 0.435316999999999, 0.25373],
        "properties": { "magmom": 0.019 },
        "label": "Co",
        "xyz": [4.065187005614995, 1.4999431161379904, 1.0348608944300002]
      },
      {
        "species": [{ "element": "Co", "occu": 1 }],
        "abc": [0.847102999999999, 0.28242, 0.7462700000000001],
        "properties": { "magmom": 0.026000000000000002 },
        "label": "Co",
        "xyz": [6.397499672084995, -5.5396271911819905, 3.043730105570001]
      },
      {
        "species": [{ "element": "Co", "occu": 1 }],
        "abc": [0.435316999999999, 0.152897, 0.7462700000000001],
        "properties": { "magmom": 0.014 },
        "label": "Co",
        "xyz": [3.3315823335299943, -2.7705836926799905, 3.043730105570001]
      },
      {
        "species": [{ "element": "Co", "occu": 1 }],
        "abc": [0.7175800000000001, 0.564682999999999, 0.7462700000000001],
        "properties": { "magmom": 0.02 },
        "label": "Co",
        "xyz": [7.262602994384995, -1.4999431161380103, 3.043730105570001]
      },
      {
        "species": [{ "element": "Co", "occu": 1 }],
        "abc": [0.333333, 0.666667, 0.246706999999999],
        "properties": { "magmom": 0.114 },
        "label": "Co",
        "xyz": [5.663895, 3.2700578734360004, 1.006216949836996]
      },
      {
        "species": [{ "element": "Co", "occu": 1 }],
        "abc": [0.666667, 0.333333, 0.753293],
        "properties": { "magmom": 0.115 },
        "label": "Co",
        "xyz": [5.663895, -3.2700578734360004, 3.0723740501630004]
      },
      {
        "species": [{ "element": "Co", "occu": 1 }],
        "abc": [0.0, 0.0, 0.5],
        "properties": { "magmom": -0.243 },
        "label": "Co",
        "xyz": [0.0, 0.0, 2.0392955]
      }
    ]
  },
  "task_ids": null,
  "uncorrected_energy_per_atom": null,
  "energy_per_atom": -11.224442412857142,
  "formation_energy_per_atom": -0.123765395714285,
  "energy_above_hull": 0.0,
  "is_stable": true,
  "equilibrium_reaction_energy_per_atom": null,
  "decomposes_to": null,
  "xas": null,
  "grain_boundaries": null,
  "band_gap": 0.0,
  "cbm": null,
  "vbm": null,
  "efermi": 3.71993637,
  "is_gap_direct": null,
  "is_metal": null,
  "es_source_calc_id": null,
  "bandstructure": null,
  "dos": null,
  "dos_energy_up": null,
  "dos_energy_down": null,
  "is_magnetic": null,
  "ordering": null,
  "total_magnetization": 0.0295666,
  "total_magnetization_normalized_vol": null,
  "total_magnetization_normalized_formula_units": null,
  "num_magnetic_sites": null,
  "num_unique_magnetic_sites": null,
  "types_of_magnetic_species": null,
  "bulk_modulus": null,
  "shear_modulus": null,
  "universal_anisotropy": null,
  "homogeneous_poisson": null,
  "e_total": null,
  "e_ionic": null,
  "e_electronic": null,
  "n": null,
  "e_ij_max": null,
  "weighted_surface_energy_EV_PER_ANG2": null,
  "weighted_surface_energy": null,
  "weighted_work_function": null,
  "surface_anisotropy": null,
  "shape_factor": null,
  "has_reconstructed": null,
  "possible_species": null,
  "has_props": null,
  "theoretical": null,
  "database_IDs": null,
  "fields_not_requested": [
    "builder_meta",
    "nsites",
    "elements",
    "nelements",
    "composition",
    "composition_reduced",
    "chemsys",
    "symmetry",
    "property_name",
    "deprecated",
    "deprecation_reasons",
    "last_updated",
    "origins",
    "warnings",
    "task_ids",
    "uncorrected_energy_per_atom",
    "equilibrium_reaction_energy_per_atom",
    "decomposes_to",
    "xas",
    "grain_boundaries",
    "cbm",
    "vbm",
    "is_gap_direct",
    "is_metal",
    "es_source_calc_id",
    "bandstructure",
    "dos",
    "dos_energy_up",
    "dos_energy_down",
    "is_magnetic",
    "ordering",
    "total_magnetization_normalized_vol",
    "total_magnetization_normalized_formula_units",
    "num_magnetic_sites",
    "num_unique_magnetic_sites",
    "types_of_magnetic_species",
    "bulk_modulus",
    "shear_modulus",
    "universal_anisotropy",
    "homogeneous_poisson",
    "e_total",
    "e_ionic",
    "e_electronic",
    "n",
    "e_ij_max",
    "weighted_surface_energy_EV_PER_ANG2",
    "weighted_surface_energy",
    "weighted_work_function",
    "surface_anisotropy",
    "shape_factor",
    "has_reconstructed",
    "possible_species",
    "has_props",
    "theoretical",
    "database_IDs"
  ]
}
