{
  "builder_meta": null,
  "nsites": null,
  "elements": null,
  "nelements": null,
  "composition": null,
  "composition_reduced": null,
  "formula_pretty": "Gd4Sb3",
  "formula_anonymous": "A3B4",
  "chemsys": null,
  "volume": 404.280763900984,
  "density": 8.167792932851086,
  "density_atomic": 28.87719742149886,
  "symmetry": null,
  "property_name": null,
  "material_id": "mp-20831",
  "deprecated": null,
  "deprecation_reasons": null,
  "last_updated": null,
  "origins": null,
  "warnings": null,
  "structure": {
    "@module": "pymatgen.core.structure",
    "@class": "Structure",
    "charge": 0,
    "lattice": {
      "matrix": [
        [-4.65808807, 4.65808807, 4.65808807],
        [4.65808807, -4.65808807, 4.65808807],
        [4.65808807, 4.65808807, -4.65808807]
      ],
      "pbc": [true, true, true],
      "a": 8.068045203370453,
      "b": 8.068045203370453,
      "c": 8.068045203370453,
      "alpha": 109.47122063449069,
      "beta": 109.47122063449069,
      "gamma": 109.47122063449069,
      "volume": 404.280763900984
    },
    "properties": {},
    "sites": [
      {
        "species": [{ "element": "Gd", "occu": 1 }],
        "abc": [0.5, -0.0, 0.35347185000000003],
        "properties": { "magmom": 7.304 },
        "label": "Gd",
        "xyz": [-0.6825410274341703, 3.9755470425658297, 0.6825410274341703]
      },
      {
        "species": [{ "element": "Gd", "occu": 1 }],
        "abc": [0.5, 0.0, 0.85347185],
        "properties": { "magmom": 7.304 },
        "label": "Gd",
        "xyz": [1.6465030075658298, 6.30459107756583, -1.6465030075658298]
      },
      {
        "species": [{ "element": "Gd", "occu": 1 }],
        "abc": [0.64652815, 0.64652815, 0.64652815],
        "properties": { "magmom": 7.304 },
        "label": "Gd",
        "xyz": [3.01158506243417, 3.01158506243417, 3.01158506243417]
      },
      {
        "species": [{ "element": "Gd", "occu": 1 }],
        "abc": [0.0, 0.35347185000000003, 0.5],
        "properties": { "magmom": 7.304 },
        "label": "Gd",
        "xyz": [3.9755470425658297, 0.6825410274341703, -0.6825410274341703]
      },
      {
        "species": [{ "element": "Gd", "occu": 1 }],
        "abc": [0.14652815, 0.14652815, 0.14652815],
        "properties": { "magmom": 7.304 },
        "label": "Gd",
        "xyz": [0.6825410274341704, 0.6825410274341704, 0.6825410274341704]
      },
      {
        "species": [{ "element": "Gd", "occu": 1 }],
        "abc": [0.85347185, 0.5, 0.0],
        "properties": { "magmom": 7.304 },
        "label": "Gd",
        "xyz": [-1.6465030075658298, 1.6465030075658298, 6.30459107756583]
      },
      {
        "species": [{ "element": "Gd", "occu": 1 }],
        "abc": [-0.0, 0.85347185, 0.5],
        "properties": { "magmom": 7.304 },
        "label": "Gd",
        "xyz": [6.30459107756583, -1.6465030075658298, 1.6465030075658298]
      },
      {
        "species": [{ "element": "Gd", "occu": 1 }],
        "abc": [0.35347185000000003, 0.5, -0.0],
        "properties": { "magmom": 7.304 },
        "label": "Gd",
        "xyz": [0.6825410274341703, -0.6825410274341703, 3.9755470425658297]
      },
      {
        "species": [{ "element": "Sb", "occu": 1 }],
        "abc": [0.125, 0.75, 0.875],
        "properties": { "magmom": -0.12 },
        "label": "Sb",
        "xyz": [6.987132105, 1.1645220175000004, 0.0]
      },
      {
        "species": [{ "element": "Sb", "occu": 1 }],
        "abc": [0.875, 0.125, 0.75],
        "properties": { "magmom": -0.12 },
        "label": "Sb",
        "xyz": [-4.440892098500626e-16, 6.987132105000001, 1.1645220175]
      },
      {
        "species": [{ "element": "Sb", "occu": 1 }],
        "abc": [0.625, 0.375, 0.25],
        "properties": { "magmom": -0.12 },
        "label": "Sb",
        "xyz": [2.220446049250313e-16, 2.329044035, 3.4935660525]
      },
      {
        "species": [{ "element": "Sb", "occu": 1 }],
        "abc": [0.375, 0.25, 0.625],
        "properties": { "magmom": -0.12 },
        "label": "Sb",
        "xyz": [2.329044035, 3.4935660524999994, 0.0]
      },
      {
        "species": [{ "element": "Sb", "occu": 1 }],
        "abc": [0.75, 0.875, 0.125],
        "properties": { "magmom": -0.12 },
        "label": "Sb",
        "xyz": [1.1645220175000002, -2.220446049250313e-16, 6.987132105]
      },
      {
        "species": [{ "element": "Sb", "occu": 1 }],
        "abc": [0.25, 0.625, 0.375],
        "properties": { "magmom": -0.12 },
        "label": "Sb",
        "xyz": [3.4935660524999994, 2.220446049250313e-16, 2.329044034999999]
      }
    ]
  },
  "task_ids": null,
  "uncorrected_energy_per_atom": null,
  "energy_per_atom": -37.03696874857143,
  "formation_energy_per_atom": -1.22168755,
  "energy_above_hull": 0.0,
  "is_stable": true,
  "equilibrium_reaction_energy_per_atom": null,
  "decomposes_to": null,
  "xas": null,
  "grain_boundaries": null,
  "band_gap": 0.0,
  "cbm": null,
  "vbm": null,
  "efermi": 5.52312909,
  "is_gap_direct": null,
  "is_metal": null,
  "es_source_calc_id": null,
  "bandstructure": null,
  "dos": null,
  "dos_energy_up": null,
  "dos_energy_down": null,
  "is_magnetic": null,
  "ordering": null,
  "total_magnetization": 61.9981932,
  "total_magnetization_normalized_vol": null,
  "total_magnetization_normalized_formula_units": null,
  "num_magnetic_sites": null,
  "num_unique_magnetic_sites": null,
  "types_of_magnetic_species": null,
  "bulk_modulus": null,
  "shear_modulus": null,
  "universal_anisotropy": null,
  "homogeneous_poisson": null,
  "e_total": null,
  "e_ionic": null,
  "e_electronic": null,
  "n": null,
  "e_ij_max": null,
  "weighted_surface_energy_EV_PER_ANG2": null,
  "weighted_surface_energy": null,
  "weighted_work_function": null,
  "surface_anisotropy": null,
  "shape_factor": null,
  "has_reconstructed": null,
  "possible_species": null,
  "has_props": null,
  "theoretical": null,
  "database_IDs": null,
  "fields_not_requested": [
    "builder_meta",
    "nsites",
    "elements",
    "nelements",
    "composition",
    "composition_reduced",
    "chemsys",
    "symmetry",
    "property_name",
    "deprecated",
    "deprecation_reasons",
    "last_updated",
    "origins",
    "warnings",
    "task_ids",
    "uncorrected_energy_per_atom",
    "equilibrium_reaction_energy_per_atom",
    "decomposes_to",
    "xas",
    "grain_boundaries",
    "cbm",
    "vbm",
    "is_gap_direct",
    "is_metal",
    "es_source_calc_id",
    "bandstructure",
    "dos",
    "dos_energy_up",
    "dos_energy_down",
    "is_magnetic",
    "ordering",
    "total_magnetization_normalized_vol",
    "total_magnetization_normalized_formula_units",
    "num_magnetic_sites",
    "num_unique_magnetic_sites",
    "types_of_magnetic_species",
    "bulk_modulus",
    "shear_modulus",
    "universal_anisotropy",
    "homogeneous_poisson",
    "e_total",
    "e_ionic",
    "e_electronic",
    "n",
    "e_ij_max",
    "weighted_surface_energy_EV_PER_ANG2",
    "weighted_surface_energy",
    "weighted_work_function",
    "surface_anisotropy",
    "shape_factor",
    "has_reconstructed",
    "possible_species",
    "has_props",
    "theoretical",
    "database_IDs"
  ]
}
