{"builder_meta": null, "nsites": null, "elements": null, "nelements": null, "composition": null, "composition_reduced": null, "formula_pretty": "Gd5Ge4", "formula_anonymous": "A4B5", "chemsys": null, "volume": 905.7267961159376, "density": 7.896796605658388, "density_atomic": 25.159077669887157, "symmetry": null, "property_name": null, "material_id": "mp-1198083", "deprecated": null, "deprecation_reasons": null, "last_updated": null, "origins": null, "warnings": null, "structure": {"@module": "pymatgen.core.structure", "@class": "Structure", "charge": 0, "lattice": {"matrix": [[7.737264, 0.0, 0.0], [0.0, 7.838966, 0.0], [0.0, 0.0, 14.933136]], "pbc": [true, true, true], "a": 7.737264, "b": 7.838966, "c": 14.933136, "alpha": 90.0, "beta": 90.0, "gamma": 90.0, "volume": 905.7267961159376}, "properties": {}, "sites": [{"species": [{"element": "Gd", "occu": 1}], "abc": [0.475900999999999, 0.321797, 0.900193999999999], "properties": {"magmom": 7.007}, "label": "Gd", "xyz": [3.682171674863992, 2.522555741902, 13.442719428383985]}, {"species": [{"element": "Gd", "occu": 1}], "abc": [0.9759009999999991, 0.178203, 0.599806], "properties": {"magmom": 7.007}, "label": "Gd", "xyz": [7.550803674863993, 1.3969272580980001, 8.956984571616]}, {"species": [{"element": "Gd", "occu": 1}], "abc": [0.524099, 0.678203, 0.400194], "properties": {"magmom": 7.007}, "label": "Gd", "xyz": [4.055092325136, 5.316410258098, 5.976151428384]}, {"species": [{"element": "Gd", "occu": 1}], "abc": [0.024099, 0.821797, 0.099805999999999], "properties": {"magmom": 7.007}, "label": "Gd", "xyz": [0.18646032513599997, 6.442038741902, 1.4904165716159852]}, {"species": [{"element": "Gd", "occu": 1}], "abc": [0.524099, 0.678203, 0.099805999999999], "properties": {"magmom": 7.007}, "label": "Gd", "xyz": [4.055092325136, 5.316410258098, 1.4904165716159852]}, {"species": [{"element": "Gd", "occu": 1}], "abc": [0.024099, 0.821797, 0.400194], "properties": {"magmom": 7.007}, "label": "Gd", "xyz": [0.18646032513599997, 6.442038741902, 5.976151428384]}, {"species": [{"element": "Gd", "occu": 1}], "abc": [0.475900999999999, 0.321797, 0.599806], "properties": {"magmom": 7.007}, "label": "Gd", "xyz": [3.682171674863992, 2.522555741902, 8.956984571616]}, {"species": [{"element": "Gd", "occu": 1}], "abc": [0.9759009999999991, 0.178203, 0.900193999999999], "properties": {"magmom": 7.007}, "label": "Gd", "xyz": [7.550803674863993, 1.3969272580980001, 13.442719428383985]}, {"species": [{"element": "Gd", "occu": 1}], "abc": [0.122637, 0.661887, 0.883265], "properties": {"magmom": 7.016}, "label": "Gd", "xyz": [0.9488748451679999, 5.188509688842, 13.189916369039999]}, {"species": [{"element": "Gd", "occu": 1}], "abc": [0.622637, 0.838113, 0.616734999999999], "properties": {"magmom": 7.016}, "label": "Gd", "xyz": [4.817506845167999, 6.5699393111580005, 9.209787630959985]}, {"species": [{"element": "Gd", "occu": 1}], "abc": [0.877363, 0.338113, 0.383264999999999], "properties": {"magmom": 7.016}, "label": "Gd", "xyz": [6.788389154832, 2.650456311158, 5.723348369039985]}, {"species": [{"element": "Gd", "occu": 1}], "abc": [0.377363, 0.161887, 0.116734999999999], "properties": {"magmom": 7.016}, "label": "Gd", "xyz": [2.919757154832, 1.269026688842, 1.743219630959985]}, {"species": [{"element": "Gd", "occu": 1}], "abc": [0.877363, 0.338113, 0.116734999999999], "properties": {"magmom": 7.016}, "label": "Gd", "xyz": [6.788389154832, 2.650456311158, 1.743219630959985]}, {"species": [{"element": "Gd", "occu": 1}], "abc": [0.377363, 0.161887, 0.383264999999999], "properties": {"magmom": 7.016}, "label": "Gd", "xyz": [2.919757154832, 1.269026688842, 5.723348369039985]}, {"species": [{"element": "Gd", "occu": 1}], "abc": [0.122637, 0.661887, 0.616734999999999], "properties": {"magmom": 7.016}, "label": "Gd", "xyz": [0.9488748451679999, 5.188509688842, 9.209787630959985]}, {"species": [{"element": "Gd", "occu": 1}], "abc": [0.622637, 0.838113, 0.883265], "properties": {"magmom": 7.016}, "label": "Gd", "xyz": [4.817506845167999, 6.5699393111580005, 13.189916369039999]}, {"species": [{"element": "Gd", "occu": 1}], "abc": [0.709272999999999, 0.000616, 0.25], "properties": {"magmom": -7.045}, "label": "Gd", "xyz": [5.487832449071992, 0.004828803056, 3.733284]}, {"species": [{"element": "Gd", "occu": 1}], "abc": [0.209273, 0.499384, 0.25], "properties": {"magmom": -7.045}, "label": "Gd", "xyz": [1.6192004490719998, 3.914654196944, 3.733284]}, {"species": [{"element": "Gd", "occu": 1}], "abc": [0.290727, 0.999383999999999, 0.75], "properties": {"magmom": -7.045}, "label": "Gd", "xyz": [2.249431550928, 7.834137196943993, 11.199852]}, {"species": [{"element": "Gd", "occu": 1}], "abc": [0.790727, 0.500616, 0.75], "properties": {"magmom": -7.045}, "label": "Gd", "xyz": [6.1180635509279995, 3.924311803056, 11.199852]}, {"species": [{"element": "Ge", "occu": 1}], "abc": [0.282144, 0.967102999999999, 0.955892], "properties": {"magmom": -0.053}, "label": "Ge", "xyz": [2.183022614016, 7.581087535497993, 14.274465237311999]}, {"species": [{"element": "Ge", "occu": 1}], "abc": [0.782144, 0.532897, 0.544107999999999], "properties": {"magmom": -0.053}, "label": "Ge", "xyz": [6.051654614015999, 4.177361464502, 8.125238762687985]}, {"species": [{"element": "Ge", "occu": 1}], "abc": [0.717855999999999, 0.032896999999999, 0.455891999999999], "properties": {"magmom": -0.053}, "label": "Ge", "xyz": [5.5542413859839925, 0.2578784645019922, 6.807897237311985]}, {"species": [{"element": "Ge", "occu": 1}], "abc": [0.217856, 0.467103, 0.044108], "properties": {"magmom": -0.053}, "label": "Ge", "xyz": [1.6856093859839998, 3.661604535498, 0.658670762688]}, {"species": [{"element": "Ge", "occu": 1}], "abc": [0.717855999999999, 0.032896999999999, 0.044108], "properties": {"magmom": -0.053}, "label": "Ge", "xyz": [5.5542413859839925, 0.2578784645019922, 0.658670762688]}, {"species": [{"element": "Ge", "occu": 1}], "abc": [0.217856, 0.467103, 0.455891999999999], "properties": {"magmom": -0.053}, "label": "Ge", "xyz": [1.6856093859839998, 3.661604535498, 6.807897237311985]}, {"species": [{"element": "Ge", "occu": 1}], "abc": [0.282144, 0.967102999999999, 0.544107999999999], "properties": {"magmom": -0.053}, "label": "Ge", "xyz": [2.183022614016, 7.581087535497993, 8.125238762687985]}, {"species": [{"element": "Ge", "occu": 1}], "abc": [0.782144, 0.532897, 0.955892], "properties": {"magmom": -0.053}, "label": "Ge", "xyz": [6.051654614015999, 4.177361464502, 14.274465237311999]}, {"species": [{"element": "Ge", "occu": 1}], "abc": [0.582286, 0.387416, 0.25], "properties": {"magmom": -0.025}, "label": "Ge", "xyz": [4.505300505504, 3.036940851856, 3.733284]}, {"species": [{"element": "Ge", "occu": 1}], "abc": [0.082286, 0.112583999999999, 0.25], "properties": {"magmom": -0.025}, "label": "Ge", "xyz": [0.636668505504, 0.8825421481439922, 3.733284]}, {"species": [{"element": "Ge", "occu": 1}], "abc": [0.417714, 0.612584, 0.75], "properties": {"magmom": -0.025}, "label": "Ge", "xyz": [3.2319634944959996, 4.802025148144001, 11.199852]}, {"species": [{"element": "Ge", "occu": 1}], "abc": [0.917713999999999, 0.887416, 0.75], "properties": {"magmom": -0.025}, "label": "Ge", "xyz": [7.100595494495992, 6.956423851856, 11.199852]}, {"species": [{"element": "Ge", "occu": 1}], "abc": [0.825438, 0.633532, 0.25], "properties": {"magmom": -0.029}, "label": "Ge", "xyz": [6.386631721632, 4.966235807912, 3.733284]}, {"species": [{"element": "Ge", "occu": 1}], "abc": [0.325438, 0.866468, 0.25], "properties": {"magmom": -0.029}, "label": "Ge", "xyz": [2.517999721632, 6.792213192088, 3.733284]}, {"species": [{"element": "Ge", "occu": 1}], "abc": [0.174562, 0.366467999999999, 0.75], "properties": {"magmom": -0.029}, "label": "Ge", "xyz": [1.3506322783679998, 2.8727301920879924, 11.199852]}, {"species": [{"element": "Ge", "occu": 1}], "abc": [0.674562, 0.133531999999999, 0.75], "properties": {"magmom": -0.029}, "label": "Ge", "xyz": [5.219264278368, 1.0467528079119923, 11.199852]}]}, "task_ids": null, "uncorrected_energy_per_atom": null, "energy_per_atom": -10.7159055225, "formation_energy_per_atom": -0.8411585647222211, "energy_above_hull": 0.0, "is_stable": true, "equilibrium_reaction_energy_per_atom": null, "decomposes_to": null, "xas": null, "grain_boundaries": null, "band_gap": 0.0, "cbm": null, "vbm": null, "efermi": 3.3286704, "is_gap_direct": null, "is_metal": null, "es_source_calc_id": null, "bandstructure": null, "dos": null, "dos_energy_up": null, "dos_energy_down": null, "is_magnetic": null, "ordering": null, "total_magnetization": 84.8189549, "total_magnetization_normalized_vol": null, "total_magnetization_normalized_formula_units": null, "num_magnetic_sites": null, "num_unique_magnetic_sites": null, "types_of_magnetic_species": null, "bulk_modulus": null, "shear_modulus": null, "universal_anisotropy": null, "homogeneous_poisson": null, "e_total": null, "e_ionic": null, "e_electronic": null, "n": null, "e_ij_max": null, "weighted_surface_energy_EV_PER_ANG2": null, "weighted_surface_energy": null, "weighted_work_function": null, "surface_anisotropy": null, "shape_factor": null, "has_reconstructed": null, "possible_species": null, "has_props": null, "theoretical": null, "database_IDs": null, "fields_not_requested": ["builder_meta", "nsites", "elements", "nelements", "composition", "composition_reduced", "chemsys", "symmetry", "property_name", "deprecated", "deprecation_reasons", "last_updated", "origins", "warnings", "task_ids", "uncorrected_energy_per_atom", "equilibrium_reaction_energy_per_atom", "decomposes_to", "xas", "grain_boundaries", "cbm", "vbm", "is_gap_direct", "is_metal", "es_source_calc_id", "bandstructure", "dos", "dos_energy_up", "dos_energy_down", "is_magnetic", "ordering", "total_magnetization_normalized_vol", "total_magnetization_normalized_formula_units", "num_magnetic_sites", "num_unique_magnetic_sites", "types_of_magnetic_species", "bulk_modulus", "shear_modulus", "universal_anisotropy", "homogeneous_poisson", "e_total", "e_ionic", "e_electronic", "n", "e_ij_max", "weighted_surface_energy_EV_PER_ANG2", "weighted_surface_energy", "weighted_work_function", "surface_anisotropy", "shape_factor", "has_reconstructed", "possible_species", "has_props", "theoretical", "database_IDs"]}