{
  "builder_meta": null,
  "nsites": null,
  "elements": null,
  "nelements": null,
  "composition": null,
  "composition_reduced": null,
  "formula_pretty": "Gd5Pb3",
  "formula_anonymous": "A3B5",
  "chemsys": null,
  "volume": 486.33587795029223,
  "density": 9.613890444462548,
  "density_atomic": 30.395992371893264,
  "symmetry": null,
  "property_name": null,
  "material_id": "mp-1106250",
  "deprecated": null,
  "deprecation_reasons": null,
  "last_updated": null,
  "origins": null,
  "warnings": null,
  "structure": {
    "@module": "pymatgen.core.structure",
    "@class": "Structure",
    "charge": 0.0,
    "lattice": {
      "matrix": [
        [4.59533593, -7.95927979, -4.49e-6],
        [4.59532202, 7.95927176, 3.169999999999999e-6],
        [-1.05e-6, 3.62e-6, 6.64838489]
      ],
      "pbc": [true, true, true],
      "a": 9.190606459046736,
      "b": 9.190592549832706,
      "c": 6.6483848900010685,
      "alpha": 89.9999577446526,
      "beta": 90.00005953336219,
      "gamma": 119.99957927326119,
      "volume": 486.33587795029223
    },
    "properties": {},
    "sites": [
      {
        "species": [{ "element": "Gd", "occu": 1 }],
        "abc": [0.66666578, 0.3333331, 8.9e-7],
        "properties": { "magmom": -7.287 },
        "label": "Gd",
        "xyz": [4.595326146559403, -2.653090739932108, 3.980399126899999e-6]
      },
      {
        "species": [{ "element": "Gd", "occu": 1 }],
        "abc": [0.33333293, 0.66666608, -1.8e-7],
        "properties": { "magmom": -7.287 },
        "label": "Gd",
        "xyz": [4.5953221072924455, 2.653086450802765, -5.800426623000008e-7]
      },
      {
        "species": [{ "element": "Gd", "occu": 1 }],
        "abc": [0.33333387000000003, 0.66666812, 0.49999962000000003],
        "properties": { "magmom": -7.287 },
        "label": "Gd",
        "xyz": [4.5953352763653506, 2.653097015993428, 3.324190535282606]
      },
      {
        "species": [{ "element": "Gd", "occu": 1 }],
        "abc": [0.66666317, 0.33333001, 0.50000061],
        "properties": { "magmom": -7.287 },
        "label": "Gd",
        "xyz": [4.595299428187878, -2.6530927503626085, 3.3241945638532813]
      },
      {
        "species": [{ "element": "Gd", "occu": 1 }],
        "abc": [0.76069665, 0.76069843, 0.75000002],
        "properties": { "magmom": 6.955 },
        "label": "Gd",
        "xyz": [6.991310106034042, 1.0774109706262248e-5, 4.986287796353762]
      },
      {
        "species": [{ "element": "Gd", "occu": 1 }],
        "abc": [0.23930319, -3.5e-7, 0.75000004],
        "properties": { "magmom": 6.955 },
        "label": "Gd",
        "xyz": [1.0996761513078677, -1.9046811145945013, 4.986287858962963]
      },
      {
        "species": [{ "element": "Gd", "occu": 1 }],
        "abc": [7.3e-7, 0.23930254, 0.7499989300000001],
        "properties": { "magmom": 6.955 },
        "label": "Gd",
        "xyz": [1.0996747986002833, 1.9046708534401504, 4.986282312313942]
      },
      {
        "species": [{ "element": "Gd", "occu": 1 }],
        "abc": [0.23930286, 0.23930251, 0.24999939000000002],
        "properties": { "magmom": 6.955 },
        "label": "Gd",
        "xyz": [2.1993488618546704, -3.8023492901114503e-6, 1.6620918511043323]
      },
      {
        "species": [{ "element": "Gd", "occu": 1 }],
        "abc": [0.76069765, -3.0000000000000004e-8, 0.24999868],
        "properties": { "magmom": 6.955 },
        "label": "Gd",
        "xyz": [3.4956608425532902, -6.054604765728424, 1.6620840310994016]
      },
      {
        "species": [{ "element": "Gd", "occu": 1 }],
        "abc": [1.64e-6, 0.76069854, 0.25000146],
        "properties": { "magmom": 6.955 },
        "label": "Gd",
        "xyz": [3.4956620252932433, 6.05459425908166, 1.6621083405489478]
      },
      {
        "species": [{ "element": "Pb", "occu": 1 }],
        "abc": [0.39127096, 0.39127154000000003, 0.75000099],
        "properties": { "magmom": 0.01 },
        "label": "Pb",
        "xyz": [3.5960394369138644, 4.1894753960017275e-6, 4.986294732925213]
      },
      {
        "species": [{ "element": "Pb", "occu": 1 }],
        "abc": [0.60873163, 7.4e-7, 0.75000064],
        "properties": { "magmom": 0.01 },
        "label": "Pb",
        "xyz": [2.797328944104089, -4.845056755329337, 4.986290189263657]
      },
      {
        "species": [{ "element": "Pb", "occu": 1 }],
        "abc": [-3.15e-6, 0.60872886, 0.74999973],
        "properties": { "magmom": 0.01 },
        "label": "Pb",
        "xyz": [2.797289871759601, 4.845066211625355, 4.9862888021207095]
      },
      {
        "species": [{ "element": "Pb", "occu": 1 }],
        "abc": [0.60873327, 0.60873161, 0.25000001],
        "properties": { "magmom": 0.01 },
        "label": "Pb",
        "xyz": [5.594651376620433, -1.7195519243662228e-5, 1.6620954854506702]
      },
      {
        "species": [{ "element": "Pb", "occu": 1 }],
        "abc": [0.39127066, 0.99999886, 0.24999832],
        "properties": { "magmom": 0.01 },
        "label": "Pb",
        "xyz": [6.393336641087475, 4.845030934866151, 1.6620864664045076]
      },
      {
        "species": [{ "element": "Pb", "occu": 1 }],
        "abc": [-1.839999999999999e-6, 0.39126943000000003, 0.25000085],
        "properties": { "magmom": 0.01 },
        "label": "Pb",
        "xyz": [1.798000309512845, 3.1142352748281876, 1.662103113959511]
      }
    ]
  },
  "task_ids": null,
  "uncorrected_energy_per_atom": null,
  "energy_per_atom": -48.878041935,
  "formation_energy_per_atom": -0.647988331249997,
  "energy_above_hull": 0.0,
  "is_stable": true,
  "equilibrium_reaction_energy_per_atom": null,
  "decomposes_to": null,
  "xas": null,
  "grain_boundaries": null,
  "band_gap": 0.0,
  "cbm": null,
  "vbm": null,
  "efermi": 4.61112821,
  "is_gap_direct": null,
  "is_metal": null,
  "es_source_calc_id": null,
  "bandstructure": null,
  "dos": null,
  "dos_energy_up": null,
  "dos_energy_down": null,
  "is_magnetic": null,
  "ordering": null,
  "total_magnetization": 11.936772,
  "total_magnetization_normalized_vol": null,
  "total_magnetization_normalized_formula_units": null,
  "num_magnetic_sites": null,
  "num_unique_magnetic_sites": null,
  "types_of_magnetic_species": null,
  "bulk_modulus": null,
  "shear_modulus": null,
  "universal_anisotropy": null,
  "homogeneous_poisson": null,
  "e_total": null,
  "e_ionic": null,
  "e_electronic": null,
  "n": null,
  "e_ij_max": null,
  "weighted_surface_energy_EV_PER_ANG2": null,
  "weighted_surface_energy": null,
  "weighted_work_function": null,
  "surface_anisotropy": null,
  "shape_factor": null,
  "has_reconstructed": null,
  "possible_species": null,
  "has_props": null,
  "theoretical": null,
  "database_IDs": null,
  "fields_not_requested": [
    "builder_meta",
    "nsites",
    "elements",
    "nelements",
    "composition",
    "composition_reduced",
    "chemsys",
    "symmetry",
    "property_name",
    "deprecated",
    "deprecation_reasons",
    "last_updated",
    "origins",
    "warnings",
    "task_ids",
    "uncorrected_energy_per_atom",
    "equilibrium_reaction_energy_per_atom",
    "decomposes_to",
    "xas",
    "grain_boundaries",
    "cbm",
    "vbm",
    "is_gap_direct",
    "is_metal",
    "es_source_calc_id",
    "bandstructure",
    "dos",
    "dos_energy_up",
    "dos_energy_down",
    "is_magnetic",
    "ordering",
    "total_magnetization_normalized_vol",
    "total_magnetization_normalized_formula_units",
    "num_magnetic_sites",
    "num_unique_magnetic_sites",
    "types_of_magnetic_species",
    "bulk_modulus",
    "shear_modulus",
    "universal_anisotropy",
    "homogeneous_poisson",
    "e_total",
    "e_ionic",
    "e_electronic",
    "n",
    "e_ij_max",
    "weighted_surface_energy_EV_PER_ANG2",
    "weighted_surface_energy",
    "weighted_work_function",
    "surface_anisotropy",
    "shape_factor",
    "has_reconstructed",
    "possible_species",
    "has_props",
    "theoretical",
    "database_IDs"
  ]
}
