{
  "builder_meta": null,
  "nsites": null,
  "elements": null,
  "nelements": null,
  "composition": null,
  "composition_reduced": null,
  "formula_pretty": "GdAg2",
  "formula_anonymous": "AB2",
  "chemsys": null,
  "volume": 65.3084282461806,
  "density": 9.483592013205675,
  "density_atomic": 21.769476082060198,
  "symmetry": null,
  "property_name": null,
  "material_id": "mp-19783",
  "deprecated": null,
  "deprecation_reasons": null,
  "last_updated": null,
  "origins": null,
  "warnings": null,
  "structure": {
    "@module": "pymatgen.core.structure",
    "@class": "Structure",
    "charge": 0,
    "lattice": {
      "matrix": [
        [3.50384554, -0.0, -1.30195385],
        [-0.48479817000000003, 3.47314157, -1.30469586],
        [0.00017537, 0.0007323200000000001, 5.36625347]
      ],
      "pbc": [true, true, true],
      "a": 3.7379161836118953,
      "b": 3.7416537677875215,
      "c": 5.366253522834554,
      "alpha": 110.40002948554299,
      "beta": 110.38211363995063,
      "gamma": 90.00001682803212,
      "volume": 65.3084282461806
    },
    "properties": {},
    "sites": [
      {
        "species": [{ "element": "Gd", "occu": 1 }],
        "abc": [0.0, 0.0, 0.0],
        "properties": { "magmom": 7.025 },
        "label": "Gd",
        "xyz": [0.0, 0.0, 0.0]
      },
      {
        "species": [{ "element": "Ag", "occu": 1 }],
        "abc": [0.32718278, 0.32729503, 0.6543655700000001],
        "properties": { "magmom": -0.007 },
        "label": "Ag",
        "xyz": [0.9878406489637169, 1.1372211793416194, 2.6584941599467498]
      },
      {
        "species": [{ "element": "Ag", "occu": 1 }],
        "abc": [0.67281722, 0.6727049700000001, 0.34563443],
        "properties": { "magmom": -0.007 },
        "label": "Ag",
        "xyz": [2.0313820910362828, 2.336652710658381, 0.10110960005325076]
      }
    ]
  },
  "task_ids": null,
  "uncorrected_energy_per_atom": null,
  "energy_per_atom": -28.953197273333334,
  "formation_energy_per_atom": -0.25027741000000003,
  "energy_above_hull": 0.0,
  "is_stable": true,
  "equilibrium_reaction_energy_per_atom": null,
  "decomposes_to": null,
  "xas": null,
  "grain_boundaries": null,
  "band_gap": 0.0,
  "cbm": null,
  "vbm": null,
  "efermi": 3.4826904,
  "is_gap_direct": null,
  "is_metal": null,
  "es_source_calc_id": null,
  "bandstructure": null,
  "dos": null,
  "dos_energy_up": null,
  "dos_energy_down": null,
  "is_magnetic": null,
  "ordering": null,
  "total_magnetization": 7.3015144,
  "total_magnetization_normalized_vol": null,
  "total_magnetization_normalized_formula_units": null,
  "num_magnetic_sites": null,
  "num_unique_magnetic_sites": null,
  "types_of_magnetic_species": null,
  "bulk_modulus": null,
  "shear_modulus": null,
  "universal_anisotropy": null,
  "homogeneous_poisson": null,
  "e_total": null,
  "e_ionic": null,
  "e_electronic": null,
  "n": null,
  "e_ij_max": null,
  "weighted_surface_energy_EV_PER_ANG2": null,
  "weighted_surface_energy": null,
  "weighted_work_function": null,
  "surface_anisotropy": null,
  "shape_factor": null,
  "has_reconstructed": null,
  "possible_species": null,
  "has_props": null,
  "theoretical": null,
  "database_IDs": null,
  "fields_not_requested": [
    "builder_meta",
    "nsites",
    "elements",
    "nelements",
    "composition",
    "composition_reduced",
    "chemsys",
    "symmetry",
    "property_name",
    "deprecated",
    "deprecation_reasons",
    "last_updated",
    "origins",
    "warnings",
    "task_ids",
    "uncorrected_energy_per_atom",
    "equilibrium_reaction_energy_per_atom",
    "decomposes_to",
    "xas",
    "grain_boundaries",
    "cbm",
    "vbm",
    "is_gap_direct",
    "is_metal",
    "es_source_calc_id",
    "bandstructure",
    "dos",
    "dos_energy_up",
    "dos_energy_down",
    "is_magnetic",
    "ordering",
    "total_magnetization_normalized_vol",
    "total_magnetization_normalized_formula_units",
    "num_magnetic_sites",
    "num_unique_magnetic_sites",
    "types_of_magnetic_species",
    "bulk_modulus",
    "shear_modulus",
    "universal_anisotropy",
    "homogeneous_poisson",
    "e_total",
    "e_ionic",
    "e_electronic",
    "n",
    "e_ij_max",
    "weighted_surface_energy_EV_PER_ANG2",
    "weighted_surface_energy",
    "weighted_work_function",
    "surface_anisotropy",
    "shape_factor",
    "has_reconstructed",
    "possible_species",
    "has_props",
    "theoretical",
    "database_IDs"
  ]
}
