{
  "builder_meta": null,
  "nsites": null,
  "elements": null,
  "nelements": null,
  "composition": null,
  "composition_reduced": null,
  "formula_pretty": "GdAg3",
  "formula_anonymous": "AB3",
  "chemsys": null,
  "volume": 173.25022366267459,
  "density": 9.217625602711902,
  "density_atomic": 21.656277957834323,
  "symmetry": null,
  "property_name": null,
  "material_id": "mp-1184474",
  "deprecated": null,
  "deprecation_reasons": null,
  "last_updated": null,
  "origins": null,
  "warnings": null,
  "structure": {
    "@module": "pymatgen.core.structure",
    "@class": "Structure",
    "charge": 0,
    "lattice": {
      "matrix": [
        [3.179799, -5.507573, 0.0],
        [3.179799, 5.507573, 0.0],
        [0.0, 0.0, 4.946339]
      ],
      "pbc": [true, true, true],
      "a": 6.359597631197276,
      "b": 6.359597631197276,
      "c": 4.946339,
      "alpha": 90.0,
      "beta": 90.0,
      "gamma": 119.99999616331196,
      "volume": 173.25022366267459
    },
    "properties": {},
    "sites": [
      {
        "species": [{ "element": "Gd", "occu": 1 }],
        "abc": [0.333333, 0.666667, 0.75],
        "properties": { "magmom": -2.049 },
        "label": "Gd",
        "xyz": [3.179799, 1.8358613383820002, 3.70975425]
      },
      {
        "species": [{ "element": "Gd", "occu": 1 }],
        "abc": [0.666667, 0.333333, 0.25],
        "properties": { "magmom": -2.048 },
        "label": "Gd",
        "xyz": [3.179799, -1.8358613383820002, 1.23658475]
      },
      {
        "species": [{ "element": "Ag", "occu": 1 }],
        "abc": [0.155656, 0.311311, 0.25],
        "properties": { "magmom": -0.001 },
        "label": "Ag",
        "xyz": [1.4848611996330001, 0.8572812753150002, 1.23658475]
      },
      {
        "species": [{ "element": "Ag", "occu": 1 }],
        "abc": [0.688689, 0.844344, 0.25],
        "properties": { "magmom": 0.002 },
        "label": "Ag",
        "xyz": [4.874736800367, 0.8572812753150001, 1.23658475]
      },
      {
        "species": [{ "element": "Ag", "occu": 1 }],
        "abc": [0.155656, 0.844344, 0.25],
        "properties": { "magmom": -0.003 },
        "label": "Ag",
        "xyz": [3.179799, 3.792999434224, 1.23658475]
      },
      {
        "species": [{ "element": "Ag", "occu": 1 }],
        "abc": [0.844344, 0.688689, 0.75],
        "properties": { "magmom": -0.0 },
        "label": "Ag",
        "xyz": [4.874736800367, -0.8572812753150001, 3.70975425]
      },
      {
        "species": [{ "element": "Ag", "occu": 1 }],
        "abc": [0.311311, 0.155656, 0.75],
        "properties": { "magmom": 0.002 },
        "label": "Ag",
        "xyz": [1.4848611996330001, -0.8572812753150002, 3.70975425]
      },
      {
        "species": [{ "element": "Ag", "occu": 1 }],
        "abc": [0.844344, 0.155656, 0.75],
        "properties": { "magmom": -0.002 },
        "label": "Ag",
        "xyz": [3.179799, -3.792999434224, 3.70975425]
      }
    ]
  },
  "task_ids": null,
  "uncorrected_energy_per_atom": null,
  "energy_per_atom": -25.80997533541667,
  "formation_energy_per_atom": 1.056183848333333,
  "energy_above_hull": 1.243891905833333,
  "is_stable": false,
  "equilibrium_reaction_energy_per_atom": null,
  "decomposes_to": null,
  "xas": null,
  "grain_boundaries": null,
  "band_gap": 0.0,
  "cbm": null,
  "vbm": null,
  "efermi": 3.170963399999999,
  "is_gap_direct": null,
  "is_metal": null,
  "es_source_calc_id": null,
  "bandstructure": null,
  "dos": null,
  "dos_energy_up": null,
  "dos_energy_down": null,
  "is_magnetic": null,
  "ordering": null,
  "total_magnetization": 3.4648963,
  "total_magnetization_normalized_vol": null,
  "total_magnetization_normalized_formula_units": null,
  "num_magnetic_sites": null,
  "num_unique_magnetic_sites": null,
  "types_of_magnetic_species": null,
  "bulk_modulus": null,
  "shear_modulus": null,
  "universal_anisotropy": null,
  "homogeneous_poisson": null,
  "e_total": null,
  "e_ionic": null,
  "e_electronic": null,
  "n": null,
  "e_ij_max": null,
  "weighted_surface_energy_EV_PER_ANG2": null,
  "weighted_surface_energy": null,
  "weighted_work_function": null,
  "surface_anisotropy": null,
  "shape_factor": null,
  "has_reconstructed": null,
  "possible_species": null,
  "has_props": null,
  "theoretical": null,
  "database_IDs": null,
  "fields_not_requested": [
    "builder_meta",
    "nsites",
    "elements",
    "nelements",
    "composition",
    "composition_reduced",
    "chemsys",
    "symmetry",
    "property_name",
    "deprecated",
    "deprecation_reasons",
    "last_updated",
    "origins",
    "warnings",
    "task_ids",
    "uncorrected_energy_per_atom",
    "equilibrium_reaction_energy_per_atom",
    "decomposes_to",
    "xas",
    "grain_boundaries",
    "cbm",
    "vbm",
    "is_gap_direct",
    "is_metal",
    "es_source_calc_id",
    "bandstructure",
    "dos",
    "dos_energy_up",
    "dos_energy_down",
    "is_magnetic",
    "ordering",
    "total_magnetization_normalized_vol",
    "total_magnetization_normalized_formula_units",
    "num_magnetic_sites",
    "num_unique_magnetic_sites",
    "types_of_magnetic_species",
    "bulk_modulus",
    "shear_modulus",
    "universal_anisotropy",
    "homogeneous_poisson",
    "e_total",
    "e_ionic",
    "e_electronic",
    "n",
    "e_ij_max",
    "weighted_surface_energy_EV_PER_ANG2",
    "weighted_surface_energy",
    "weighted_work_function",
    "surface_anisotropy",
    "shape_factor",
    "has_reconstructed",
    "possible_species",
    "has_props",
    "theoretical",
    "database_IDs"
  ]
}
