{
  "builder_meta": null,
  "nsites": null,
  "elements": null,
  "nelements": null,
  "composition": null,
  "composition_reduced": null,
  "formula_pretty": "GdAl3",
  "formula_anonymous": "AB3",
  "chemsys": null,
  "volume": 159.01286712148055,
  "density": 4.9748359632746535,
  "density_atomic": 19.87660839018507,
  "symmetry": null,
  "property_name": null,
  "material_id": "mp-865411",
  "deprecated": null,
  "deprecation_reasons": null,
  "last_updated": null,
  "origins": null,
  "warnings": null,
  "structure": {
    "@module": "pymatgen.core.structure",
    "@class": "Structure",
    "charge": 0,
    "lattice": {
      "matrix": [
        [6.32525056, 0.000116699999999, 0.0],
        [-3.16252001, 5.47868944, 0.0],
        [0.0, 0.0, 4.58852631]
      ],
      "pbc": [true, true, true],
      "a": 6.325250561076549,
      "b": 6.325944261026801,
      "c": 4.58852631,
      "alpha": 90.0,
      "beta": 90.0,
      "gamma": 119.99421454108449,
      "volume": 159.01286712148053
    },
    "properties": {},
    "sites": [
      {
        "species": [{ "element": "Gd", "occu": 1 }],
        "abc": [0.66668858, 0.3334084, 0.25],
        "properties": { "magmom": 6.987 },
        "label": "Gd",
        "xyz": [3.1625615774885203, 1.8267188828445815, 1.1471315775]
      },
      {
        "species": [{ "element": "Gd", "occu": 1 }],
        "abc": [0.33329972, 0.66658552, 0.75],
        "properties": { "magmom": 6.987 },
        "label": "Gd",
        "xyz": [0.00011419520158773011, 3.652053945358233, 3.4413947325]
      },
      {
        "species": [{ "element": "Al", "occu": 1 }],
        "abc": [0.85585305, 0.14412231, 0.75],
        "properties": { "magmom": -0.018000000000000002 },
        "label": "Al",
        "xyz": [4.957695294527785, 0.7897012559163405, 3.4413947325]
      },
      {
        "species": [{ "element": "Al", "occu": 1 }],
        "abc": [0.28825644, 0.14410852, 0.75],
        "properties": { "magmom": -0.018000000000000002 },
        "label": "Al",
        "xyz": [1.367548130422121, 0.7895594662645764, 3.4413947325]
      },
      {
        "species": [{ "element": "Al", "occu": 1 }],
        "abc": [0.85594614, 0.71186807, 0.75],
        "properties": { "magmom": -0.018000000000000002 },
        "label": "Al",
        "xyz": [3.1627767855097577, 3.9002039666967177, 3.4413947325]
      },
      {
        "species": [{ "element": "Al", "occu": 1 }],
        "abc": [0.14414994, 0.85587629, 0.25],
        "properties": { "magmom": -0.018000000000000002 },
        "label": "Al",
        "xyz": [-1.7949414045005965, 4.689097214267376, 1.1471315775]
      },
      {
        "species": [{ "element": "Al", "occu": 1 }],
        "abc": [0.71174486, 0.85589331, 0.25],
        "properties": { "magmom": -0.018000000000000002 },
        "label": "Al",
        "xyz": [1.7951848549919882, 4.689256699888808, 1.1471315775]
      },
      {
        "species": [{ "element": "Al", "occu": 1 }],
        "abc": [0.14406127, 0.28813358, 0.25],
        "properties": { "magmom": -0.018000000000000002 },
        "label": "Al",
        "xyz": [-4.583561124760216e-6, 1.5786112140056041, 1.1471315775]
      }
    ]
  },
  "task_ids": null,
  "uncorrected_energy_per_atom": null,
  "energy_per_atom": -16.35282870875,
  "formation_energy_per_atom": -0.454503636249999,
  "energy_above_hull": 0.0,
  "is_stable": true,
  "equilibrium_reaction_energy_per_atom": null,
  "decomposes_to": null,
  "xas": null,
  "grain_boundaries": null,
  "band_gap": 0.0,
  "cbm": null,
  "vbm": null,
  "efermi": 5.76614349,
  "is_gap_direct": null,
  "is_metal": null,
  "es_source_calc_id": null,
  "bandstructure": null,
  "dos": null,
  "dos_energy_up": null,
  "dos_energy_down": null,
  "is_magnetic": null,
  "ordering": null,
  "total_magnetization": 14.2643068,
  "total_magnetization_normalized_vol": null,
  "total_magnetization_normalized_formula_units": null,
  "num_magnetic_sites": null,
  "num_unique_magnetic_sites": null,
  "types_of_magnetic_species": null,
  "bulk_modulus": null,
  "shear_modulus": null,
  "universal_anisotropy": null,
  "homogeneous_poisson": null,
  "e_total": null,
  "e_ionic": null,
  "e_electronic": null,
  "n": null,
  "e_ij_max": null,
  "weighted_surface_energy_EV_PER_ANG2": null,
  "weighted_surface_energy": null,
  "weighted_work_function": null,
  "surface_anisotropy": null,
  "shape_factor": null,
  "has_reconstructed": null,
  "possible_species": null,
  "has_props": null,
  "theoretical": null,
  "database_IDs": null,
  "fields_not_requested": [
    "builder_meta",
    "nsites",
    "elements",
    "nelements",
    "composition",
    "composition_reduced",
    "chemsys",
    "symmetry",
    "property_name",
    "deprecated",
    "deprecation_reasons",
    "last_updated",
    "origins",
    "warnings",
    "task_ids",
    "uncorrected_energy_per_atom",
    "equilibrium_reaction_energy_per_atom",
    "decomposes_to",
    "xas",
    "grain_boundaries",
    "cbm",
    "vbm",
    "is_gap_direct",
    "is_metal",
    "es_source_calc_id",
    "bandstructure",
    "dos",
    "dos_energy_up",
    "dos_energy_down",
    "is_magnetic",
    "ordering",
    "total_magnetization_normalized_vol",
    "total_magnetization_normalized_formula_units",
    "num_magnetic_sites",
    "num_unique_magnetic_sites",
    "types_of_magnetic_species",
    "bulk_modulus",
    "shear_modulus",
    "universal_anisotropy",
    "homogeneous_poisson",
    "e_total",
    "e_ionic",
    "e_electronic",
    "n",
    "e_ij_max",
    "weighted_surface_energy_EV_PER_ANG2",
    "weighted_surface_energy",
    "weighted_work_function",
    "surface_anisotropy",
    "shape_factor",
    "has_reconstructed",
    "possible_species",
    "has_props",
    "theoretical",
    "database_IDs"
  ]
}
