{"builder_meta": null, "nsites": null, "elements": null, "nelements": null, "composition": null, "composition_reduced": null, "formula_pretty": "GdAl2", "formula_anonymous": "AB2", "chemsys": null, "volume": 122.53042619238757, "density": 5.7247424491402175, "density_atomic": 20.42173769873126, "symmetry": null, "property_name": null, "material_id": "mp-19923", "deprecated": null, "deprecation_reasons": null, "last_updated": null, "origins": null, "warnings": null, "structure": {"@module": "pymatgen.core.structure", "@class": "Structure", "charge": 0, "lattice": {"matrix": [[4.82811323, 2.379999999999999e-06, 2.7875476900000002], [1.60937314, 4.55211193, 2.78754771], [-7.01e-06, -4.929999999999998e-06, 5.57510651]], "pbc": [true, true, true], "a": 5.575042554611671, "b": 5.575143689854821, "c": 5.575106510006587, "alpha": 60.00035818750045, "beta": 59.99975860031416, "gamma": 60.00034673577341, "volume": 122.53042619238757}, "properties": {}, "sites": [{"species": [{"element": "Gd", "occu": 1}], "abc": [0.8749957500000001, 0.87498911, 0.87500732], "properties": {"magmom": 7.214}, "label": "Gd", "xyz": [5.632756394393965, 3.9830461349548796, 9.75642527755741]}, {"species": [{"element": "Gd", "occu": 1}], "abc": [0.12500425, 0.12501089, 0.12499268000000001], "properties": {"magmom": 7.214}, "label": "Gd", "xyz": [0.8047229656060352, 0.5690632450451203, 1.3937766324425915]}, {"species": [{"element": "Al", "occu": 1}], "abc": [0.5, 0.5, 0.5], "properties": {"magmom": -0.03}, "label": "Al", "xyz": [3.2187396799999997, 2.2760546899999996, 5.575100955]}, {"species": [{"element": "Al", "occu": 1}], "abc": [0.5, 0.5, -0.0], "properties": {"magmom": -0.03}, "label": "Al", "xyz": [3.2187431849999997, 2.2760571549999997, 2.7875477]}, {"species": [{"element": "Al", "occu": 1}], "abc": [0.0, 0.5, 0.5], "properties": {"magmom": -0.03}, "label": "Al", "xyz": [0.804683065, 2.2760534999999997, 4.18132711]}, {"species": [{"element": "Al", "occu": 1}], "abc": [0.5, 0.0, 0.5], "properties": {"magmom": -0.03}, "label": "Al", "xyz": [2.41405311, -1.2749999999999994e-06, 4.181327100000001]}]}, "task_ids": null, "uncorrected_energy_per_atom": null, "energy_per_atom": -19.525404266666666, "formation_energy_per_atom": -0.5716702799999991, "energy_above_hull": 0.0, "is_stable": true, "equilibrium_reaction_energy_per_atom": null, "decomposes_to": null, "xas": null, "grain_boundaries": null, "band_gap": 0.0, "cbm": null, "vbm": null, "efermi": 5.82413733, "is_gap_direct": null, "is_metal": null, "es_source_calc_id": null, "bandstructure": null, "dos": null, "dos_energy_up": null, "dos_energy_down": null, "is_magnetic": null, "ordering": null, "total_magnetization": 15.141717, "total_magnetization_normalized_vol": null, "total_magnetization_normalized_formula_units": null, "num_magnetic_sites": null, "num_unique_magnetic_sites": null, "types_of_magnetic_species": null, "bulk_modulus": null, "shear_modulus": null, "universal_anisotropy": null, "homogeneous_poisson": null, "e_total": null, "e_ionic": null, "e_electronic": null, "n": null, "e_ij_max": null, "weighted_surface_energy_EV_PER_ANG2": null, "weighted_surface_energy": null, "weighted_work_function": null, "surface_anisotropy": null, "shape_factor": null, "has_reconstructed": null, "possible_species": null, "has_props": null, "theoretical": null, "database_IDs": null, "fields_not_requested": ["builder_meta", "nsites", "elements", "nelements", "composition", "composition_reduced", "chemsys", "symmetry", "property_name", "deprecated", "deprecation_reasons", "last_updated", "origins", "warnings", "task_ids", "uncorrected_energy_per_atom", "equilibrium_reaction_energy_per_atom", "decomposes_to", "xas", "grain_boundaries", "cbm", "vbm", "is_gap_direct", "is_metal", "es_source_calc_id", "bandstructure", "dos", "dos_energy_up", "dos_energy_down", "is_magnetic", "ordering", "total_magnetization_normalized_vol", "total_magnetization_normalized_formula_units", "num_magnetic_sites", "num_unique_magnetic_sites", "types_of_magnetic_species", "bulk_modulus", "shear_modulus", "universal_anisotropy", "homogeneous_poisson", "e_total", "e_ionic", "e_electronic", "n", "e_ij_max", "weighted_surface_energy_EV_PER_ANG2", "weighted_surface_energy", "weighted_work_function", "surface_anisotropy", "shape_factor", "has_reconstructed", "possible_species", "has_props", "theoretical", "database_IDs"]}