{"builder_meta": null, "nsites": null, "elements": null, "nelements": null, "composition": null, "composition_reduced": null, "formula_pretty": "GdAl", "formula_anonymous": "AB", "chemsys": null, "volume": 191.67817443529316, "density": 6.384110617631111, "density_atomic": 23.959771804411645, "symmetry": null, "property_name": null, "material_id": "mp-1078585", "deprecated": null, "deprecation_reasons": null, "last_updated": null, "origins": null, "warnings": null, "structure": {"@module": "pymatgen.core.structure", "@class": "Structure", "charge": 0, "lattice": {"matrix": [[7.2e-07, -1.754e-05, 5.5901331800000005], [4.58476972, 3.73942285, -1.2390000000000002e-05], [-4.58475855, 3.73940457, -1.444e-05]], "pbc": [true, true, true], "a": 5.590133180027564, "b": 5.916366844329762, "c": 5.916346634549357, "alpha": 101.59742849976041, "beta": 90.00025918653762, "gamma": 90.00022789608875, "volume": 191.6781744352932}, "properties": {}, "sites": [{"species": [{"element": "Gd", "occu": 1}], "abc": [0.24999892, 0.96776268, 0.33790762], "properties": {"magmom": 7.18}, "label": "Gd", "xyz": [2.8877443615041205, 4.882442792454005, 1.3975103876905277]}, {"species": [{"element": "Gd", "occu": 1}], "abc": [0.75000161, 0.66209236, 0.03223786], "properties": {"magmom": 7.18}, "label": "Gd", "xyz": [2.8877387397037952, 2.5963805457772064, 4.19260021627538]}, {"species": [{"element": "Gd", "occu": 1}], "abc": [0.75000208, 0.03223732, 0.6620933800000001], "properties": {"magmom": 7.18}, "label": "Gd", "xyz": [-2.8877370562619515, 2.5963708269330255, 4.192601552428213]}, {"species": [{"element": "Gd", "occu": 1}], "abc": [0.24999839000000001, 0.33790864, 0.96776214], "properties": {"magmom": 7.18}, "label": "Gd", "xyz": [-2.8877222649340757, 4.882433073645643, 1.3975061337122292]}, {"species": [{"element": "Al", "occu": 1}], "abc": [0.499998, 0.499998999999999, 0.499998], "properties": {"magmom": -0.027}, "label": "Al", "xyz": [1.0529745935183854e-05, 3.7393937218030864, 2.7950419947749103]}, {"species": [{"element": "Al", "occu": 1}], "abc": [0.999999, 0.500002, 0.500001], "properties": {"magmom": -0.027}, "label": "Al", "xyz": [1.0889780169609509e-05, 3.73940738826781, 5.5901141748276]}, {"species": [{"element": "Al", "occu": 1}], "abc": [0.25000919, 0.80910397, 0.80911423], "properties": {"magmom": -0.054}, "label": "Al", "xyz": [-3.782192476187163e-05, 6.051182937596554, 1.397562959916255]}, {"species": [{"element": "Al", "occu": 1}], "abc": [0.74999381, 0.19089603, 0.19088477], "properties": {"magmom": -0.054}, "label": "Al", "xyz": [5.429668547107802e-05, 1.427623202946257, 4.1925601604977265]}]}, "task_ids": null, "uncorrected_energy_per_atom": null, "energy_per_atom": -25.49371488125, "formation_energy_per_atom": -0.42916306624999806, "energy_above_hull": 0.001762349749999, "is_stable": false, "equilibrium_reaction_energy_per_atom": null, "decomposes_to": null, "xas": null, "grain_boundaries": null, "band_gap": 0.0, "cbm": null, "vbm": null, "efermi": 4.5079879, "is_gap_direct": null, "is_metal": null, "es_source_calc_id": null, "bandstructure": null, "dos": null, "dos_energy_up": null, "dos_energy_down": null, "is_magnetic": null, "ordering": null, "total_magnetization": 30.1670166, "total_magnetization_normalized_vol": null, "total_magnetization_normalized_formula_units": null, "num_magnetic_sites": null, "num_unique_magnetic_sites": null, "types_of_magnetic_species": null, "bulk_modulus": null, "shear_modulus": null, "universal_anisotropy": null, "homogeneous_poisson": null, "e_total": null, "e_ionic": null, "e_electronic": null, "n": null, "e_ij_max": null, "weighted_surface_energy_EV_PER_ANG2": null, "weighted_surface_energy": null, "weighted_work_function": null, "surface_anisotropy": null, "shape_factor": null, "has_reconstructed": null, "possible_species": null, "has_props": null, "theoretical": null, "database_IDs": null, "fields_not_requested": ["builder_meta", "nsites", "elements", "nelements", "composition", "composition_reduced", "chemsys", "symmetry", "property_name", "deprecated", "deprecation_reasons", "last_updated", "origins", "warnings", "task_ids", "uncorrected_energy_per_atom", "equilibrium_reaction_energy_per_atom", "decomposes_to", "xas", "grain_boundaries", "cbm", "vbm", "is_gap_direct", "is_metal", "es_source_calc_id", "bandstructure", "dos", "dos_energy_up", "dos_energy_down", "is_magnetic", "ordering", "total_magnetization_normalized_vol", "total_magnetization_normalized_formula_units", "num_magnetic_sites", "num_unique_magnetic_sites", "types_of_magnetic_species", "bulk_modulus", "shear_modulus", "universal_anisotropy", "homogeneous_poisson", "e_total", "e_ionic", "e_electronic", "n", "e_ij_max", "weighted_surface_energy_EV_PER_ANG2", "weighted_surface_energy", "weighted_work_function", "surface_anisotropy", "shape_factor", "has_reconstructed", "possible_species", "has_props", "theoretical", "database_IDs"]}