{"builder_meta": null, "nsites": null, "elements": null, "nelements": null, "composition": null, "composition_reduced": null, "formula_pretty": "GdAu2", "formula_anonymous": "AB2", "chemsys": null, "volume": 64.34770802897569, "density": 14.223678846308529, "density_atomic": 21.449236009658563, "symmetry": null, "property_name": null, "material_id": "mp-1063174", "deprecated": null, "deprecation_reasons": null, "last_updated": null, "origins": null, "warnings": null, "structure": {"@module": "pymatgen.core.structure", "@class": "Structure", "charge": 0, "lattice": {"matrix": [[3.7639151, 0.00035985, 0.00050597], [0.000360099999999, 3.7641289, 0.00085349], [-1.88153195, -1.88115415, 4.5411287]], "pbc": [true, true, true], "a": 3.763915151209665, "b": 3.7641290139861576, "c": 5.263150509428427, "alpha": 110.93191655869327, "beta": 110.9412050580021, "gamma": 89.98903920647045, "volume": 64.34770802897567}, "properties": {}, "sites": [{"species": [{"element": "Gd", "occu": 1}], "abc": [0.0, 0.0, 1e-06], "properties": {"magmom": 6.983}, "label": "Gd", "xyz": [-1.88153195e-06, -1.8811541499999998e-06, 4.5411287e-06]}, {"species": [{"element": "Au", "occu": 1}], "abc": [0.66563886, 0.66555142, 0.33170394000000003], "properties": {"magmom": -0.021}, "label": "Au", "xyz": [1.8815362603162442, 1.8814746212994584, 1.507215116612528]}, {"species": [{"element": "Au", "occu": 1}], "abc": [0.33435914, 0.33444858, 0.66829506], "properties": {"magmom": -0.021}, "label": "Au", "xyz": [0.001201343385504705, 0.0018618591349921498, 3.035268501246832]}]}, "task_ids": null, "uncorrected_energy_per_atom": null, "energy_per_atom": -49.05232988, "formation_energy_per_atom": -0.863354680000005, "energy_above_hull": 0.0, "is_stable": true, "equilibrium_reaction_energy_per_atom": null, "decomposes_to": null, "xas": null, "grain_boundaries": null, "band_gap": 0.0, "cbm": null, "vbm": null, "efermi": 4.5936294, "is_gap_direct": null, "is_metal": null, "es_source_calc_id": null, "bandstructure": null, "dos": null, "dos_energy_up": null, "dos_energy_down": null, "is_magnetic": null, "ordering": null, "total_magnetization": 7.2021673, "total_magnetization_normalized_vol": null, "total_magnetization_normalized_formula_units": null, "num_magnetic_sites": null, "num_unique_magnetic_sites": null, "types_of_magnetic_species": null, "bulk_modulus": null, "shear_modulus": null, "universal_anisotropy": null, "homogeneous_poisson": null, "e_total": null, "e_ionic": null, "e_electronic": null, "n": null, "e_ij_max": null, "weighted_surface_energy_EV_PER_ANG2": null, "weighted_surface_energy": null, "weighted_work_function": null, "surface_anisotropy": null, "shape_factor": null, "has_reconstructed": null, "possible_species": null, "has_props": null, "theoretical": null, "database_IDs": null, "fields_not_requested": ["builder_meta", "nsites", "elements", "nelements", "composition", "composition_reduced", "chemsys", "symmetry", "property_name", "deprecated", "deprecation_reasons", "last_updated", "origins", "warnings", "task_ids", "uncorrected_energy_per_atom", "equilibrium_reaction_energy_per_atom", "decomposes_to", "xas", "grain_boundaries", "cbm", "vbm", "is_gap_direct", "is_metal", "es_source_calc_id", "bandstructure", "dos", "dos_energy_up", "dos_energy_down", "is_magnetic", "ordering", "total_magnetization_normalized_vol", "total_magnetization_normalized_formula_units", "num_magnetic_sites", "num_unique_magnetic_sites", "types_of_magnetic_species", "bulk_modulus", "shear_modulus", "universal_anisotropy", "homogeneous_poisson", "e_total", "e_ionic", "e_electronic", "n", "e_ij_max", "weighted_surface_energy_EV_PER_ANG2", "weighted_surface_energy", "weighted_work_function", "surface_anisotropy", "shape_factor", "has_reconstructed", "possible_species", "has_props", "theoretical", "database_IDs"]}