{"builder_meta": null, "nsites": null, "elements": null, "nelements": null, "composition": null, "composition_reduced": null, "formula_pretty": "GdB4", "formula_anonymous": "AB4", "chemsys": null, "volume": 206.09965022601443, "density": 6.461498003588117, "density_atomic": 10.304982511300722, "symmetry": null, "property_name": null, "material_id": "mp-1105563", "deprecated": null, "deprecation_reasons": null, "last_updated": null, "origins": null, "warnings": null, "structure": {"@module": "pymatgen.core.structure", "@class": "Structure", "charge": 0, "lattice": {"matrix": [[1.1e-07, -3.5e-07, 4.04503389], [7.13801637, 3.4e-07, -3.4e-07], [3.5e-07, 7.13801655, 3.2e-07]], "pbc": [true, true, true], "a": 4.045033890000017, "b": 7.138016370000016, "c": 7.138016550000016, "alpha": 89.99999446147439, "beta": 90.0000023889744, "gamma": 90.0000011710367, "volume": 206.0996502260144}, "properties": {}, "sites": [{"species": [{"element": "Gd", "occu": 1}], "abc": [0.0, 0.31698993000000003, 0.81698994], "properties": {"magmom": -6.897}, "label": "Gd", "xyz": [2.262679595411633, 5.831687820680083, 1.5366020460000004e-07]}, {"species": [{"element": "Gd", "occu": 1}], "abc": [-0.0, 0.68301007, 0.18301006], "properties": {"magmom": -6.897}, "label": "Gd", "xyz": [4.875337124588366, 1.3063290693199168, -1.7366020459999998e-07]}, {"species": [{"element": "Gd", "occu": 1}], "abc": [-0.0, 0.18301017, 0.31698972000000003], "properties": {"magmom": 6.897}, "label": "Gd", "xyz": [1.3063297002828849, 2.262677929763324, 3.921325260000002e-08]}, {"species": [{"element": "Gd", "occu": 1}], "abc": [0.0, 0.81698983, 0.68301028], "properties": {"magmom": 6.897}, "label": "Gd", "xyz": [5.831687019717116, 4.875338960236676, -5.92132526e-08]}, {"species": [{"element": "B", "occu": 1}], "abc": [0.79656395, 0.5, 0.50000001], "properties": {"magmom": 0.0}, "label": "B", "xyz": [3.569008447622038, 3.569008237582783, 3.2221281633022687]}, {"species": [{"element": "B", "occu": 1}], "abc": [0.79656394, 1e-08, 1e-08], "properties": {"magmom": -0.0}, "label": "B", "xyz": [1.590022006e-07, -2.074172101e-07, 3.222128132851926]}, {"species": [{"element": "B", "occu": 1}], "abc": [0.20343605, 0.5, 0.49999999], "properties": {"magmom": 0.0}, "label": "B", "xyz": [3.5690083823779624, 3.5690083024172172, 0.8229057066977313]}, {"species": [{"element": "B", "occu": 1}], "abc": [0.20343606, -1e-08, -1e-08], "properties": {"magmom": -0.0}, "label": "B", "xyz": [-4.900220059999999e-08, -1.4258278989999998e-07, 0.8229057571480737]}, {"species": [{"element": "B", "occu": 1}], "abc": [0.49999998, 0.53852976, 0.6753821], "properties": {"magmom": -0.001}, "label": "B", "xyz": [3.8440345339959037, 4.82088861547388, 2.022516897121476]}, {"species": [{"element": "B", "occu": 1}], "abc": [0.50000002, 0.46147024000000003, 0.324617899999999], "properties": {"magmom": -0.001}, "label": "B", "xyz": [3.293982296004096, 2.3171279245261123, 2.0225169728785244]}, {"species": [{"element": "B", "occu": 1}], "abc": [0.49999999, 0.96147012, 0.17538212], "properties": {"magmom": 0.001}, "label": "B", "xyz": [6.862989572209605, 1.2518806270339302, 2.0225166337720983]}, {"species": [{"element": "B", "occu": 1}], "abc": [0.50000001, 0.03852988, 0.82461788], "properties": {"magmom": 0.001}, "label": "B", "xyz": [0.2750272577903947, 5.886135912966069, 2.0225172362279014]}, {"species": [{"element": "B", "occu": 1}], "abc": [0.50000001, 0.67538213, 0.46147015], "properties": {"magmom": 0.001}, "label": "B", "xyz": [4.820888916460022, 3.293981622660903, 2.0225169034908625]}, {"species": [{"element": "B", "occu": 1}], "abc": [0.49999999, 0.32461787000000003, 0.53852985], "properties": {"magmom": 0.001}, "label": "B", "xyz": [2.3171279135399785, 3.844034917339097, 2.022516966509137]}, {"species": [{"element": "B", "occu": 1}], "abc": [0.49999998, 0.17538213, 0.03852975], "properties": {"magmom": -0.001}, "label": "B", "xyz": [1.2518805834308786, 0.2750258777972937, 2.0225168167989183]}, {"species": [{"element": "B", "occu": 1}], "abc": [0.50000002, 0.82461787, 0.96147025], "properties": {"magmom": -0.001}, "label": "B", "xyz": [5.886136246569121, 6.862990662202706, 2.0225170532010823]}, {"species": [{"element": "B", "occu": 1}], "abc": [0.50000001, 0.5875317800000001, 0.9124682], "properties": {"magmom": 0.02}, "label": "B", "xyz": [4.193811837899109, 6.513213137709511, 2.0225170776793577]}, {"species": [{"element": "B", "occu": 1}], "abc": [0.49999999, 0.41246822, 0.08753179999999901], "properties": {"magmom": 0.02}, "label": "B", "xyz": [2.9442049921008904, 0.6248034022904813, 2.022516792320642]}, {"species": [{"element": "B", "occu": 1}], "abc": [0.50000002, 0.91246827, 0.41246823], "properties": {"magmom": -0.02}, "label": "B", "xyz": [6.513213647729462, 2.944205187328411, 2.0225168476513]}, {"species": [{"element": "B", "occu": 1}], "abc": [0.49999998, 0.08753173, 0.58753177], "properties": {"magmom": -0.02}, "label": "B", "xyz": [0.6248031822705373, 4.193811352671589, 2.022517022348701]}]}, "task_ids": null, "uncorrected_energy_per_atom": null, "energy_per_atom": -15.200206487500001, "formation_energy_per_atom": -0.6437220695000001, "energy_above_hull": 0.0, "is_stable": true, "equilibrium_reaction_energy_per_atom": null, "decomposes_to": null, "xas": null, "grain_boundaries": null, "band_gap": 0.0, "cbm": null, "vbm": null, "efermi": 5.70322629, "is_gap_direct": null, "is_metal": null, "es_source_calc_id": null, "bandstructure": null, "dos": null, "dos_energy_up": null, "dos_energy_down": null, "is_magnetic": null, "ordering": null, "total_magnetization": 2e-07, "total_magnetization_normalized_vol": null, "total_magnetization_normalized_formula_units": null, "num_magnetic_sites": null, "num_unique_magnetic_sites": null, "types_of_magnetic_species": null, "bulk_modulus": null, "shear_modulus": null, "universal_anisotropy": null, "homogeneous_poisson": null, "e_total": null, "e_ionic": null, "e_electronic": null, "n": null, "e_ij_max": null, "weighted_surface_energy_EV_PER_ANG2": null, "weighted_surface_energy": null, "weighted_work_function": null, "surface_anisotropy": null, "shape_factor": null, "has_reconstructed": null, "possible_species": null, "has_props": null, "theoretical": null, "database_IDs": null, "fields_not_requested": ["builder_meta", "nsites", "elements", "nelements", "composition", "composition_reduced", "chemsys", "symmetry", "property_name", "deprecated", "deprecation_reasons", "last_updated", "origins", "warnings", "task_ids", "uncorrected_energy_per_atom", "equilibrium_reaction_energy_per_atom", "decomposes_to", "xas", "grain_boundaries", "cbm", "vbm", "is_gap_direct", "is_metal", "es_source_calc_id", "bandstructure", "dos", "dos_energy_up", "dos_energy_down", "is_magnetic", "ordering", "total_magnetization_normalized_vol", "total_magnetization_normalized_formula_units", "num_magnetic_sites", "num_unique_magnetic_sites", "types_of_magnetic_species", "bulk_modulus", "shear_modulus", "universal_anisotropy", "homogeneous_poisson", "e_total", "e_ionic", "e_electronic", "n", "e_ij_max", "weighted_surface_energy_EV_PER_ANG2", "weighted_surface_energy", "weighted_work_function", "surface_anisotropy", "shape_factor", "has_reconstructed", "possible_species", "has_props", "theoretical", "database_IDs"]}