{"builder_meta": null, "nsites": null, "elements": null, "nelements": null, "composition": null, "composition_reduced": null, "formula_pretty": "GdBi", "formula_anonymous": "AB", "chemsys": null, "volume": 65.17713699452479, "density": 9.330570728008986, "density_atomic": 32.58856849726239, "symmetry": null, "property_name": null, "material_id": "mp-614481", "deprecated": null, "deprecation_reasons": null, "last_updated": null, "origins": null, "warnings": null, "structure": {"@module": "pymatgen.core.structure", "@class": "Structure", "charge": 0, "lattice": {"matrix": [[3.91193513, -0.00084872, 2.25712193], [1.30316345, 3.68806088, 2.25714422], [-0.00115501, -0.00078922, 4.51624199]], "pbc": [true, true, true], "a": 4.516396416230608, "b": 4.516052265184902, "c": 4.516242206653168, "alpha": 60.02724194988327, "beta": 60.03041634235302, "gamma": 60.028315641860154, "volume": 65.17713699452479}, "properties": {}, "sites": [{"species": [{"element": "Gd", "occu": 1}], "abc": [0.50000092, 0.49999956, 0.49999975], "properties": {"magmom": 6.931}, "label": "Gd", "xyz": [2.6069748108771544, 1.8432098466696956, 4.515254024348222]}, {"species": [{"element": "Bi", "occu": 1}], "abc": [0.99999908, 4.4e-07, 2.5e-07], "properties": {"magmom": -0.113}, "label": "Bi", "xyz": [3.9119321041228456, -0.0008470966696954, 2.2571219756517786]}]}, "task_ids": null, "uncorrected_energy_per_atom": null, "energy_per_atom": -52.00804412, "formation_energy_per_atom": -1.058404597500001, "energy_above_hull": 0.0, "is_stable": true, "equilibrium_reaction_energy_per_atom": null, "decomposes_to": null, "xas": null, "grain_boundaries": null, "band_gap": 0.0, "cbm": null, "vbm": null, "efermi": 4.46674912, "is_gap_direct": null, "is_metal": null, "es_source_calc_id": null, "bandstructure": null, "dos": null, "dos_energy_up": null, "dos_energy_down": null, "is_magnetic": null, "ordering": null, "total_magnetization": 7.0041645, "total_magnetization_normalized_vol": null, "total_magnetization_normalized_formula_units": null, "num_magnetic_sites": null, "num_unique_magnetic_sites": null, "types_of_magnetic_species": null, "bulk_modulus": null, "shear_modulus": null, "universal_anisotropy": null, "homogeneous_poisson": null, "e_total": null, "e_ionic": null, "e_electronic": null, "n": null, "e_ij_max": null, "weighted_surface_energy_EV_PER_ANG2": null, "weighted_surface_energy": null, "weighted_work_function": null, "surface_anisotropy": null, "shape_factor": null, "has_reconstructed": null, "possible_species": null, "has_props": null, "theoretical": null, "database_IDs": null, "fields_not_requested": ["builder_meta", "nsites", "elements", "nelements", "composition", "composition_reduced", "chemsys", "symmetry", "property_name", "deprecated", "deprecation_reasons", "last_updated", "origins", "warnings", "task_ids", "uncorrected_energy_per_atom", "equilibrium_reaction_energy_per_atom", "decomposes_to", "xas", "grain_boundaries", "cbm", "vbm", "is_gap_direct", "is_metal", "es_source_calc_id", "bandstructure", "dos", "dos_energy_up", "dos_energy_down", "is_magnetic", "ordering", "total_magnetization_normalized_vol", "total_magnetization_normalized_formula_units", "num_magnetic_sites", "num_unique_magnetic_sites", "types_of_magnetic_species", "bulk_modulus", "shear_modulus", "universal_anisotropy", "homogeneous_poisson", "e_total", "e_ionic", "e_electronic", "n", "e_ij_max", "weighted_surface_energy_EV_PER_ANG2", "weighted_surface_energy", "weighted_work_function", "surface_anisotropy", "shape_factor", "has_reconstructed", "possible_species", "has_props", "theoretical", "database_IDs"]}