{
  "builder_meta": null,
  "nsites": null,
  "elements": null,
  "nelements": null,
  "composition": null,
  "composition_reduced": null,
  "formula_pretty": "GdBr3",
  "formula_anonymous": "AB3",
  "chemsys": null,
  "volume": 302.4615696822174,
  "density": 4.358708510626524,
  "density_atomic": 37.80769621027717,
  "symmetry": null,
  "property_name": null,
  "material_id": "mp-27182",
  "deprecated": null,
  "deprecation_reasons": null,
  "last_updated": null,
  "origins": null,
  "warnings": null,
  "structure": {
    "@module": "pymatgen.core.structure",
    "@class": "Structure",
    "charge": 0,
    "lattice": {
      "matrix": [
        [6.86315897, 0.05189276, -1.19803688],
        [-1.931324609999999, 6.01710914, -3.647617969999999],
        [0.02452953, 0.00862264, 7.29657959]
      ],
      "pbc": [true, true, true],
      "a": 6.967132571716431,
      "b": 7.296624836657706,
      "c": 7.296625916200389,
      "alpha": 119.98789115135624,
      "beta": 99.70840809318517,
      "gamma": 99.708396551943,
      "volume": 302.4615696822174
    },
    "properties": {},
    "sites": [
      {
        "species": [{ "element": "Gd", "occu": 1 }],
        "abc": [-0.0, 0.83371279, 0.16628721],
        "properties": { "magmom": 6.889 },
        "label": "Gd",
        "xyz": [-1.6060910818924496, 5.0179746835923345, -1.8277378920587917]
      },
      {
        "species": [{ "element": "Gd", "occu": 1 }],
        "abc": [0.0, 0.16628721, 0.83371279],
        "properties": { "magmom": 6.889 },
        "label": "Gd",
        "xyz": [-0.3007039981075492, 1.007757096407665, 5.476699512058793]
      },
      {
        "species": [{ "element": "Br", "occu": 1 }],
        "abc": [0.7535744600000001, 0.78265575, 0.78265575],
        "properties": { "magmom": -0.019 },
        "label": "Br",
        "xyz": [3.6795371812781967, 4.755178684169644, 1.9530707985162312]
      },
      {
        "species": [{ "element": "Br", "occu": 1 }],
        "abc": [0.24642554, 0.21734425000000002, 0.21734425000000002],
        "properties": { "magmom": -0.019 },
        "label": "Br",
        "xyz": [1.2768267087218041, 1.3224458558303553, 0.49785394148377016]
      },
      {
        "species": [{ "element": "Br", "occu": 1 }],
        "abc": [0.24248171000000002, 0.57761051, 0.93613417],
        "properties": { "magmom": -0.018000000000000002 },
        "label": "Br",
        "xyz": [0.5716000612968284, 3.4962004722020894, 4.4331729710812615]
      },
      {
        "species": [{ "element": "Br", "occu": 1 }],
        "abc": [0.75751829, 0.06386583, 0.42238949000000003],
        "properties": { "magmom": -0.018000000000000002 },
        "label": "Br",
        "xyz": [5.085983813402125, 0.4272394967573202, 1.941505533893009]
      },
      {
        "species": [{ "element": "Br", "occu": 1 }],
        "abc": [0.75751829, 0.42238949000000003, 0.06386583],
        "properties": { "magmom": -0.018000000000000002 },
        "label": "Br",
        "xyz": [4.384763828703172, 2.5814240677979106, -1.9822482310812604]
      },
      {
        "species": [{ "element": "Br", "occu": 1 }],
        "abc": [0.24248171000000002, 0.93613417, 0.57761051],
        "properties": { "magmom": -0.018000000000000002 },
        "label": "Br",
        "xyz": [-0.12961992340212358, 5.65038504324268, 0.5094192061069922]
      }
    ]
  },
  "task_ids": null,
  "uncorrected_energy_per_atom": null,
  "energy_per_atom": -7.06509875375,
  "formation_energy_per_atom": -2.3183582925,
  "energy_above_hull": 0.0,
  "is_stable": true,
  "equilibrium_reaction_energy_per_atom": null,
  "decomposes_to": null,
  "xas": null,
  "grain_boundaries": null,
  "band_gap": 2.2701000000000002,
  "cbm": null,
  "vbm": null,
  "efermi": -1.8354874300000001,
  "is_gap_direct": null,
  "is_metal": null,
  "es_source_calc_id": null,
  "bandstructure": null,
  "dos": null,
  "dos_energy_up": null,
  "dos_energy_down": null,
  "is_magnetic": null,
  "ordering": null,
  "total_magnetization": 13.9999998,
  "total_magnetization_normalized_vol": null,
  "total_magnetization_normalized_formula_units": null,
  "num_magnetic_sites": null,
  "num_unique_magnetic_sites": null,
  "types_of_magnetic_species": null,
  "bulk_modulus": null,
  "shear_modulus": null,
  "universal_anisotropy": null,
  "homogeneous_poisson": null,
  "e_total": null,
  "e_ionic": null,
  "e_electronic": null,
  "n": null,
  "e_ij_max": null,
  "weighted_surface_energy_EV_PER_ANG2": null,
  "weighted_surface_energy": null,
  "weighted_work_function": null,
  "surface_anisotropy": null,
  "shape_factor": null,
  "has_reconstructed": null,
  "possible_species": null,
  "has_props": null,
  "theoretical": null,
  "database_IDs": null,
  "fields_not_requested": [
    "builder_meta",
    "nsites",
    "elements",
    "nelements",
    "composition",
    "composition_reduced",
    "chemsys",
    "symmetry",
    "property_name",
    "deprecated",
    "deprecation_reasons",
    "last_updated",
    "origins",
    "warnings",
    "task_ids",
    "uncorrected_energy_per_atom",
    "equilibrium_reaction_energy_per_atom",
    "decomposes_to",
    "xas",
    "grain_boundaries",
    "cbm",
    "vbm",
    "is_gap_direct",
    "is_metal",
    "es_source_calc_id",
    "bandstructure",
    "dos",
    "dos_energy_up",
    "dos_energy_down",
    "is_magnetic",
    "ordering",
    "total_magnetization_normalized_vol",
    "total_magnetization_normalized_formula_units",
    "num_magnetic_sites",
    "num_unique_magnetic_sites",
    "types_of_magnetic_species",
    "bulk_modulus",
    "shear_modulus",
    "universal_anisotropy",
    "homogeneous_poisson",
    "e_total",
    "e_ionic",
    "e_electronic",
    "n",
    "e_ij_max",
    "weighted_surface_energy_EV_PER_ANG2",
    "weighted_surface_energy",
    "weighted_work_function",
    "surface_anisotropy",
    "shape_factor",
    "has_reconstructed",
    "possible_species",
    "has_props",
    "theoretical",
    "database_IDs"
  ]
}
