{
  "builder_meta": null,
  "nsites": null,
  "elements": null,
  "nelements": null,
  "composition": null,
  "composition_reduced": null,
  "formula_pretty": "GdC2",
  "formula_anonymous": "AB2",
  "chemsys": null,
  "volume": 43.413907104549395,
  "density": 6.933452007265482,
  "density_atomic": 14.471302368183132,
  "symmetry": null,
  "property_name": null,
  "material_id": "mp-12765",
  "deprecated": null,
  "deprecation_reasons": null,
  "last_updated": null,
  "origins": null,
  "warnings": null,
  "structure": {
    "@module": "pymatgen.core.structure",
    "@class": "Structure",
    "charge": 0,
    "lattice": {
      "matrix": [
        [3.31607711, -1e-8, -1.692040309999999],
        [-0.86337019, 3.2017123, -1.692040309999999],
        [-0.00192099, -0.00250791, 4.09169619]
      ],
      "pbc": [true, true, true],
      "a": 3.722817187310014,
      "b": 3.7228175012504736,
      "c": 4.091697409520365,
      "alpha": 117.0600072399924,
      "beta": 117.06000578077442,
      "gamma": 90.00000721756122,
      "volume": 43.413907104549395
    },
    "properties": {},
    "sites": [
      {
        "species": [{ "element": "Gd", "occu": 1 }],
        "abc": [0.0, -0.0, -0.0],
        "properties": { "magmom": 6.895 },
        "label": "Gd",
        "xyz": [0.0, 0.0, 0.0]
      },
      {
        "species": [{ "element": "C", "occu": 1 }],
        "abc": [0.60323887, 0.60323887, 0.20647773],
        "properties": { "magmom": -0.027 },
        "label": "C",
        "xyz": [1.479171509207428, 1.9308794763208679, -1.1965648280368493]
      },
      {
        "species": [{ "element": "C", "occu": 1 }],
        "abc": [0.39676113, 0.39676113, 0.79352227],
        "properties": { "magmom": -0.027 },
        "label": "C",
        "xyz": [0.9716144207925724, 1.2683249036791322, 1.9041803980368517]
      }
    ]
  },
  "task_ids": null,
  "uncorrected_energy_per_atom": null,
  "energy_per_atom": -11.020271613333334,
  "formation_energy_per_atom": -0.175787204999998,
  "energy_above_hull": 0.015514419583331001,
  "is_stable": false,
  "equilibrium_reaction_energy_per_atom": null,
  "decomposes_to": null,
  "xas": null,
  "grain_boundaries": null,
  "band_gap": 0.0,
  "cbm": null,
  "vbm": null,
  "efermi": 4.18198477,
  "is_gap_direct": null,
  "is_metal": null,
  "es_source_calc_id": null,
  "bandstructure": null,
  "dos": null,
  "dos_energy_up": null,
  "dos_energy_down": null,
  "is_magnetic": null,
  "ordering": null,
  "total_magnetization": 7.0194645,
  "total_magnetization_normalized_vol": null,
  "total_magnetization_normalized_formula_units": null,
  "num_magnetic_sites": null,
  "num_unique_magnetic_sites": null,
  "types_of_magnetic_species": null,
  "bulk_modulus": null,
  "shear_modulus": null,
  "universal_anisotropy": null,
  "homogeneous_poisson": null,
  "e_total": null,
  "e_ionic": null,
  "e_electronic": null,
  "n": null,
  "e_ij_max": null,
  "weighted_surface_energy_EV_PER_ANG2": null,
  "weighted_surface_energy": null,
  "weighted_work_function": null,
  "surface_anisotropy": null,
  "shape_factor": null,
  "has_reconstructed": null,
  "possible_species": null,
  "has_props": null,
  "theoretical": null,
  "database_IDs": null,
  "fields_not_requested": [
    "builder_meta",
    "nsites",
    "elements",
    "nelements",
    "composition",
    "composition_reduced",
    "chemsys",
    "symmetry",
    "property_name",
    "deprecated",
    "deprecation_reasons",
    "last_updated",
    "origins",
    "warnings",
    "task_ids",
    "uncorrected_energy_per_atom",
    "equilibrium_reaction_energy_per_atom",
    "decomposes_to",
    "xas",
    "grain_boundaries",
    "cbm",
    "vbm",
    "is_gap_direct",
    "is_metal",
    "es_source_calc_id",
    "bandstructure",
    "dos",
    "dos_energy_up",
    "dos_energy_down",
    "is_magnetic",
    "ordering",
    "total_magnetization_normalized_vol",
    "total_magnetization_normalized_formula_units",
    "num_magnetic_sites",
    "num_unique_magnetic_sites",
    "types_of_magnetic_species",
    "bulk_modulus",
    "shear_modulus",
    "universal_anisotropy",
    "homogeneous_poisson",
    "e_total",
    "e_ionic",
    "e_electronic",
    "n",
    "e_ij_max",
    "weighted_surface_energy_EV_PER_ANG2",
    "weighted_surface_energy",
    "weighted_work_function",
    "surface_anisotropy",
    "shape_factor",
    "has_reconstructed",
    "possible_species",
    "has_props",
    "theoretical",
    "database_IDs"
  ]
}
