{
  "builder_meta": null,
  "nsites": null,
  "elements": null,
  "nelements": null,
  "composition": null,
  "composition_reduced": null,
  "formula_pretty": "GdCd3",
  "formula_anonymous": "AB3",
  "chemsys": null,
  "volume": 189.853576277396,
  "density": 8.649911741139311,
  "density_atomic": 23.7316970346745,
  "symmetry": null,
  "property_name": null,
  "material_id": "mp-22138",
  "deprecated": null,
  "deprecation_reasons": null,
  "last_updated": null,
  "origins": null,
  "warnings": null,
  "structure": {
    "@module": "pymatgen.core.structure",
    "@class": "Structure",
    "charge": 0,
    "lattice": {
      "matrix": [
        [6.64793854, -1.06e-6, 0.0],
        [-3.32397184, 5.75728418, 0.0],
        [0.0, 0.0, 4.960371]
      ],
      "pbc": [true, true, true],
      "a": 6.6479385400000846,
      "b": 6.647940276686551,
      "c": 4.960371,
      "alpha": 90.0,
      "beta": 90.0,
      "gamma": 120.00002607036875,
      "volume": 189.853576277396
    },
    "properties": {},
    "sites": [
      {
        "species": [{ "element": "Gd", "occu": 1 }],
        "abc": [0.666667, 0.333333, 0.75],
        "properties": { "magmom": -7.105 },
        "label": "Gd",
        "xyz": [3.32397173730346, 1.91909210090492, 3.7202782500000002]
      },
      {
        "species": [{ "element": "Gd", "occu": 1 }],
        "abc": [0.333333, 0.666667, 0.25],
        "properties": { "magmom": -7.105 },
        "label": "Gd",
        "xyz": [-5.037303460131426e-6, 3.83819101909508, 1.24009275]
      },
      {
        "species": [{ "element": "Cd", "occu": 1 }],
        "abc": [0.15981163, 0.31962326, 0.75],
        "properties": { "magmom": -0.004 },
        "label": "Cd",
        "xyz": [-8.214317781529701e-7, 1.8401617689576992, 3.7202782500000002]
      },
      {
        "species": [{ "element": "Cd", "occu": 1 }],
        "abc": [0.84018837, 0.15981163, 0.25],
        "properties": { "magmom": -0.004 },
        "label": "Cd",
        "xyz": [5.0543112879582806, 0.9200800785793413, 1.24009275]
      },
      {
        "species": [{ "element": "Cd", "occu": 1 }],
        "abc": [0.84018837, 0.68037674, 0.25],
        "properties": { "magmom": -0.004 },
        "label": "Cd",
        "xyz": [3.3239675214317783, 3.9171213510423013, 1.24009275]
      },
      {
        "species": [{ "element": "Cd", "occu": 1 }],
        "abc": [0.15981163, 0.84018837, 0.75],
        "properties": { "magmom": -0.004 },
        "label": "Cd",
        "xyz": [-1.7303445879582808, 4.8372030414206595, 3.7202782500000002]
      },
      {
        "species": [{ "element": "Cd", "occu": 1 }],
        "abc": [0.68037674, 0.84018837, 0.75],
        "properties": { "magmom": -0.004 },
        "label": "Cd",
        "xyz": [1.7303402693900587, 4.837202489621642, 3.7202782500000002]
      },
      {
        "species": [{ "element": "Cd", "occu": 1 }],
        "abc": [0.31962326, 0.15981163, 0.25],
        "properties": { "magmom": -0.004 },
        "label": "Cd",
        "xyz": [1.5936264306099412, 0.9200806303783579, 1.24009275]
      }
    ]
  },
  "task_ids": null,
  "uncorrected_energy_per_atom": null,
  "energy_per_atom": -26.22453673375,
  "formation_energy_per_atom": -0.296544641249997,
  "energy_above_hull": 0.0,
  "is_stable": true,
  "equilibrium_reaction_energy_per_atom": null,
  "decomposes_to": null,
  "xas": null,
  "grain_boundaries": null,
  "band_gap": 0.0,
  "cbm": null,
  "vbm": null,
  "efermi": 2.8083025999999993,
  "is_gap_direct": null,
  "is_metal": null,
  "es_source_calc_id": null,
  "bandstructure": null,
  "dos": null,
  "dos_energy_up": null,
  "dos_energy_down": null,
  "is_magnetic": null,
  "ordering": null,
  "total_magnetization": 15.0464839,
  "total_magnetization_normalized_vol": null,
  "total_magnetization_normalized_formula_units": null,
  "num_magnetic_sites": null,
  "num_unique_magnetic_sites": null,
  "types_of_magnetic_species": null,
  "bulk_modulus": null,
  "shear_modulus": null,
  "universal_anisotropy": null,
  "homogeneous_poisson": null,
  "e_total": null,
  "e_ionic": null,
  "e_electronic": null,
  "n": null,
  "e_ij_max": null,
  "weighted_surface_energy_EV_PER_ANG2": null,
  "weighted_surface_energy": null,
  "weighted_work_function": null,
  "surface_anisotropy": null,
  "shape_factor": null,
  "has_reconstructed": null,
  "possible_species": null,
  "has_props": null,
  "theoretical": null,
  "database_IDs": null,
  "fields_not_requested": [
    "builder_meta",
    "nsites",
    "elements",
    "nelements",
    "composition",
    "composition_reduced",
    "chemsys",
    "symmetry",
    "property_name",
    "deprecated",
    "deprecation_reasons",
    "last_updated",
    "origins",
    "warnings",
    "task_ids",
    "uncorrected_energy_per_atom",
    "equilibrium_reaction_energy_per_atom",
    "decomposes_to",
    "xas",
    "grain_boundaries",
    "cbm",
    "vbm",
    "is_gap_direct",
    "is_metal",
    "es_source_calc_id",
    "bandstructure",
    "dos",
    "dos_energy_up",
    "dos_energy_down",
    "is_magnetic",
    "ordering",
    "total_magnetization_normalized_vol",
    "total_magnetization_normalized_formula_units",
    "num_magnetic_sites",
    "num_unique_magnetic_sites",
    "types_of_magnetic_species",
    "bulk_modulus",
    "shear_modulus",
    "universal_anisotropy",
    "homogeneous_poisson",
    "e_total",
    "e_ionic",
    "e_electronic",
    "n",
    "e_ij_max",
    "weighted_surface_energy_EV_PER_ANG2",
    "weighted_surface_energy",
    "weighted_work_function",
    "surface_anisotropy",
    "shape_factor",
    "has_reconstructed",
    "possible_species",
    "has_props",
    "theoretical",
    "database_IDs"
  ]
}
