{"builder_meta": null, "nsites": null, "elements": null, "nelements": null, "composition": null, "composition_reduced": null, "formula_pretty": "GdCl", "formula_anonymous": "AB", "chemsys": null, "volume": 111.13333767033473, "density": 5.7586835140367825, "density_atomic": 27.78333441758368, "symmetry": null, "property_name": null, "material_id": "mp-1184482", "deprecated": null, "deprecation_reasons": null, "last_updated": null, "origins": null, "warnings": null, "structure": {"@module": "pymatgen.core.structure", "@class": "Structure", "charge": 0, "lattice": {"matrix": [[1.834168, -3.1768710000000002, 0.0], [1.834168, 3.1768710000000002, 0.0], [0.0, 0.0, 9.536207]], "pbc": [true, true, true], "a": 3.66833499054612, "b": 3.66833499054612, "c": 9.536207, "alpha": 90.0, "beta": 90.0, "gamma": 119.99998179421063, "volume": 111.13333767033474}, "properties": {}, "sites": [{"species": [{"element": "Gd", "occu": 1}], "abc": [0.666667, 0.333333, 0.831766999999999], "properties": {"magmom": 6.909}, "label": "Gd", "xyz": [1.834168, -1.058959117914, 7.93190228776899]}, {"species": [{"element": "Gd", "occu": 1}], "abc": [0.333333, 0.666667, 0.331767], "properties": {"magmom": 6.908}, "label": "Gd", "xyz": [1.834168, 1.058959117914, 3.1637987877689997]}, {"species": [{"element": "Cl", "occu": 1}], "abc": [0.666667, 0.333333, 0.543231999999999], "properties": {"magmom": -0.019}, "label": "Cl", "xyz": [1.834168, -1.058959117914, 5.1803728010239904]}, {"species": [{"element": "Cl", "occu": 1}], "abc": [0.333333, 0.666667, 0.043232], "properties": {"magmom": -0.019}, "label": "Cl", "xyz": [1.834168, 1.058959117914, 0.41226930102399995]}]}, "task_ids": null, "uncorrected_energy_per_atom": null, "energy_per_atom": -26.252896140833332, "formation_energy_per_atom": -1.4781740420833311, "energy_above_hull": 0.23161526000000102, "is_stable": false, "equilibrium_reaction_energy_per_atom": null, "decomposes_to": null, "xas": null, "grain_boundaries": null, "band_gap": 0.0, "cbm": null, "vbm": null, "efermi": 4.3844994, "is_gap_direct": null, "is_metal": null, "es_source_calc_id": null, "bandstructure": null, "dos": null, "dos_energy_up": null, "dos_energy_down": null, "is_magnetic": null, "ordering": null, "total_magnetization": 14.0007747, "total_magnetization_normalized_vol": null, "total_magnetization_normalized_formula_units": null, "num_magnetic_sites": null, "num_unique_magnetic_sites": null, "types_of_magnetic_species": null, "bulk_modulus": null, "shear_modulus": null, "universal_anisotropy": null, "homogeneous_poisson": null, "e_total": null, "e_ionic": null, "e_electronic": null, "n": null, "e_ij_max": null, "weighted_surface_energy_EV_PER_ANG2": null, "weighted_surface_energy": null, "weighted_work_function": null, "surface_anisotropy": null, "shape_factor": null, "has_reconstructed": null, "possible_species": null, "has_props": null, "theoretical": null, "database_IDs": null, "fields_not_requested": ["builder_meta", "nsites", "elements", "nelements", "composition", "composition_reduced", "chemsys", "symmetry", "property_name", "deprecated", "deprecation_reasons", "last_updated", "origins", "warnings", "task_ids", "uncorrected_energy_per_atom", "equilibrium_reaction_energy_per_atom", "decomposes_to", "xas", "grain_boundaries", "cbm", "vbm", "is_gap_direct", "is_metal", "es_source_calc_id", "bandstructure", "dos", "dos_energy_up", "dos_energy_down", "is_magnetic", "ordering", "total_magnetization_normalized_vol", "total_magnetization_normalized_formula_units", "num_magnetic_sites", "num_unique_magnetic_sites", "types_of_magnetic_species", "bulk_modulus", "shear_modulus", "universal_anisotropy", "homogeneous_poisson", "e_total", "e_ionic", "e_electronic", "n", "e_ij_max", "weighted_surface_energy_EV_PER_ANG2", "weighted_surface_energy", "weighted_work_function", "surface_anisotropy", "shape_factor", "has_reconstructed", "possible_species", "has_props", "theoretical", "database_IDs"]}