{
  "builder_meta": null,
  "nsites": null,
  "elements": null,
  "nelements": null,
  "composition": null,
  "composition_reduced": null,
  "formula_pretty": "GdCl3",
  "formula_anonymous": "AB3",
  "chemsys": null,
  "volume": 196.30434204330473,
  "density": 4.459738773488724,
  "density_atomic": 24.53804275541309,
  "symmetry": null,
  "property_name": null,
  "material_id": "mp-23265",
  "deprecated": null,
  "deprecation_reasons": null,
  "last_updated": null,
  "origins": null,
  "warnings": null,
  "structure": {
    "@module": "pymatgen.core.structure",
    "@class": "Structure",
    "charge": 0,
    "lattice": {
      "matrix": [
        [7.458316, 3.63e-5, -0.0],
        [-3.7291886, 6.4590767, -0.0],
        [-0.0, 0.0, 4.07490477]
      ],
      "pbc": [true, true, true],
      "a": 7.458316000088336,
      "b": 7.458318807268354,
      "c": 4.07490477,
      "alpha": 90.0,
      "beta": 90.0,
      "gamma": 119.99998012701681,
      "volume": 196.30434204330473
    },
    "properties": {},
    "sites": [
      {
        "species": [{ "element": "Gd", "occu": 1 }],
        "abc": [0.333333, 0.666667, 0.25],
        "properties": { "magmom": 6.889 },
        "label": "Gd",
        "xyz": [-2.4129168199937823e-5, 4.306065386346799, 1.0187261925]
      },
      {
        "species": [{ "element": "Gd", "occu": 1 }],
        "abc": [0.666667, 0.333333, 0.75],
        "properties": { "magmom": 6.889 },
        "label": "Gd",
        "xyz": [3.7291515291682007, 2.1530476136531997, 3.0561785775]
      },
      {
        "species": [{ "element": "Cl", "occu": 1 }],
        "abc": [0.39179993, 0.30223372, 0.25],
        "properties": { "magmom": -0.019 },
        "label": "Cl",
        "xyz": [1.7950811435582883, 1.952165001143783, 1.0187261925]
      },
      {
        "species": [{ "element": "Cl", "occu": 1 }],
        "abc": [0.0895662, 0.39179993, 0.75],
        "properties": { "magmom": -0.019 },
        "label": "Cl",
        "xyz": [-0.7930828099175982, 2.530669050177691, 3.0561785775]
      },
      {
        "species": [{ "element": "Cl", "occu": 1 }],
        "abc": [0.30223372, 0.9104338, 0.75],
        "properties": { "magmom": -0.019 },
        "label": "Cl",
        "xyz": [-1.1410247583991602, 5.880572715556496, 3.0561785775]
      },
      {
        "species": [{ "element": "Cl", "occu": 1 }],
        "abc": [0.69776628, 0.0895662, 0.25],
        "properties": { "magmom": -0.019 },
        "label": "Cl",
        "xyz": [4.87015215839916, 0.5785402844435039, 1.0187261925]
      },
      {
        "species": [{ "element": "Cl", "occu": 1 }],
        "abc": [0.9104338, 0.60820007, 0.25],
        "properties": { "magmom": -0.019 },
        "label": "Cl",
        "xyz": [4.522210209917597, 3.928443949822309, 1.0187261925]
      },
      {
        "species": [{ "element": "Cl", "occu": 1 }],
        "abc": [0.60820007, 0.69776628, 0.75],
        "properties": { "magmom": -0.019 },
        "label": "Cl",
        "xyz": [1.9340462564417122, 4.506947998856217, 3.0561785775]
      }
    ]
  },
  "task_ids": null,
  "uncorrected_energy_per_atom": null,
  "energy_per_atom": -17.96989442875,
  "formation_energy_per_atom": -2.506313930624998,
  "energy_above_hull": 0.0,
  "is_stable": true,
  "equilibrium_reaction_energy_per_atom": null,
  "decomposes_to": null,
  "xas": null,
  "grain_boundaries": null,
  "band_gap": 2.0054,
  "cbm": null,
  "vbm": null,
  "efermi": 0.79749129,
  "is_gap_direct": null,
  "is_metal": null,
  "es_source_calc_id": null,
  "bandstructure": null,
  "dos": null,
  "dos_energy_up": null,
  "dos_energy_down": null,
  "is_magnetic": null,
  "ordering": null,
  "total_magnetization": 14.0000006,
  "total_magnetization_normalized_vol": null,
  "total_magnetization_normalized_formula_units": null,
  "num_magnetic_sites": null,
  "num_unique_magnetic_sites": null,
  "types_of_magnetic_species": null,
  "bulk_modulus": null,
  "shear_modulus": null,
  "universal_anisotropy": null,
  "homogeneous_poisson": null,
  "e_total": null,
  "e_ionic": null,
  "e_electronic": null,
  "n": null,
  "e_ij_max": null,
  "weighted_surface_energy_EV_PER_ANG2": null,
  "weighted_surface_energy": null,
  "weighted_work_function": null,
  "surface_anisotropy": null,
  "shape_factor": null,
  "has_reconstructed": null,
  "possible_species": null,
  "has_props": null,
  "theoretical": null,
  "database_IDs": null,
  "fields_not_requested": [
    "builder_meta",
    "nsites",
    "elements",
    "nelements",
    "composition",
    "composition_reduced",
    "chemsys",
    "symmetry",
    "property_name",
    "deprecated",
    "deprecation_reasons",
    "last_updated",
    "origins",
    "warnings",
    "task_ids",
    "uncorrected_energy_per_atom",
    "equilibrium_reaction_energy_per_atom",
    "decomposes_to",
    "xas",
    "grain_boundaries",
    "cbm",
    "vbm",
    "is_gap_direct",
    "is_metal",
    "es_source_calc_id",
    "bandstructure",
    "dos",
    "dos_energy_up",
    "dos_energy_down",
    "is_magnetic",
    "ordering",
    "total_magnetization_normalized_vol",
    "total_magnetization_normalized_formula_units",
    "num_magnetic_sites",
    "num_unique_magnetic_sites",
    "types_of_magnetic_species",
    "bulk_modulus",
    "shear_modulus",
    "universal_anisotropy",
    "homogeneous_poisson",
    "e_total",
    "e_ionic",
    "e_electronic",
    "n",
    "e_ij_max",
    "weighted_surface_energy_EV_PER_ANG2",
    "weighted_surface_energy",
    "weighted_work_function",
    "surface_anisotropy",
    "shape_factor",
    "has_reconstructed",
    "possible_species",
    "has_props",
    "theoretical",
    "database_IDs"
  ]
}
