{"builder_meta": null, "nsites": null, "elements": null, "nelements": null, "composition": null, "composition_reduced": null, "formula_pretty": "GdCo2", "formula_anonymous": "AB2", "chemsys": null, "volume": 91.78228041059042, "density": 9.954895681677751, "density_atomic": 15.297046735098403, "symmetry": null, "property_name": null, "material_id": "mp-542633", "deprecated": null, "deprecation_reasons": null, "last_updated": null, "origins": null, "warnings": null, "structure": {"@module": "pymatgen.core.structure", "@class": "Structure", "charge": 0, "lattice": {"matrix": [[4.38482433, 4.56e-06, 2.53170345], [1.46164491, 4.13414718, 2.5316467400000002], [0.00010967, 8.48e-06, 5.06321768]], "pbc": [true, true, true], "a": 5.063220987051883, "b": 5.0632809486521175, "c": 5.0632176811948355, "alpha": 59.999413984672486, "beta": 59.99754432583503, "gamma": 59.999487426660664, "volume": 91.78228041059042}, "properties": {}, "sites": [{"species": [{"element": "Gd", "occu": 1}], "abc": [0.87500308, 0.8749969200000001, 0.8750040800000001], "properties": {"magmom": 7.525}, "label": "Gd", "xyz": [5.1157655500900665, 3.617377459375329, 8.860767544352804]}, {"species": [{"element": "Gd", "occu": 1}], "abc": [0.12499692, 0.12500308000000002, 0.12499592], "properties": {"magmom": 7.525}, "label": "Gd", "xyz": [0.7308133599099329, 0.5167827606246713, 1.2658003256471988]}, {"species": [{"element": "Co", "occu": 1}], "abc": [0.5, 0.5, 0.5], "properties": {"magmom": -1.487}, "label": "Co", "xyz": [2.9232894549999995, 2.06708011, 5.063283935]}, {"species": [{"element": "Co", "occu": 1}], "abc": [0.5, 0.5, 0.0], "properties": {"magmom": -1.496}, "label": "Co", "xyz": [2.9232346199999997, 2.06707587, 2.531675095]}, {"species": [{"element": "Co", "occu": 1}], "abc": [-0.0, 0.5, 0.5], "properties": {"magmom": -1.427}, "label": "Co", "xyz": [0.73087729, 2.06707783, 3.79743221]}, {"species": [{"element": "Co", "occu": 1}], "abc": [0.5, 0.0, 0.5], "properties": {"magmom": -1.436}, "label": "Co", "xyz": [2.1924669999999997, 6.52e-06, 3.797460565]}]}, "task_ids": null, "uncorrected_energy_per_atom": null, "energy_per_atom": -7.898908866666667, "formation_energy_per_atom": 1.5487430266666662, "energy_above_hull": 1.630257117058822, "is_stable": false, "equilibrium_reaction_energy_per_atom": null, "decomposes_to": null, "xas": null, "grain_boundaries": null, "band_gap": 0.0, "cbm": null, "vbm": null, "efermi": 4.81313388, "is_gap_direct": null, "is_metal": null, "es_source_calc_id": null, "bandstructure": null, "dos": null, "dos_energy_up": null, "dos_energy_down": null, "is_magnetic": null, "ordering": null, "total_magnetization": 10.3007027, "total_magnetization_normalized_vol": null, "total_magnetization_normalized_formula_units": null, "num_magnetic_sites": null, "num_unique_magnetic_sites": null, "types_of_magnetic_species": null, "bulk_modulus": null, "shear_modulus": null, "universal_anisotropy": null, "homogeneous_poisson": null, "e_total": null, "e_ionic": null, "e_electronic": null, "n": null, "e_ij_max": null, "weighted_surface_energy_EV_PER_ANG2": null, "weighted_surface_energy": null, "weighted_work_function": null, "surface_anisotropy": null, "shape_factor": null, "has_reconstructed": null, "possible_species": null, "has_props": null, "theoretical": null, "database_IDs": null, "fields_not_requested": ["builder_meta", "nsites", "elements", "nelements", "composition", "composition_reduced", "chemsys", "symmetry", "property_name", "deprecated", "deprecation_reasons", "last_updated", "origins", "warnings", "task_ids", "uncorrected_energy_per_atom", "equilibrium_reaction_energy_per_atom", "decomposes_to", "xas", "grain_boundaries", "cbm", "vbm", "is_gap_direct", "is_metal", "es_source_calc_id", "bandstructure", "dos", "dos_energy_up", "dos_energy_down", "is_magnetic", "ordering", "total_magnetization_normalized_vol", "total_magnetization_normalized_formula_units", "num_magnetic_sites", "num_unique_magnetic_sites", "types_of_magnetic_species", "bulk_modulus", "shear_modulus", "universal_anisotropy", "homogeneous_poisson", "e_total", "e_ionic", "e_electronic", "n", "e_ij_max", "weighted_surface_energy_EV_PER_ANG2", "weighted_surface_energy", "weighted_work_function", "surface_anisotropy", "shape_factor", "has_reconstructed", "possible_species", "has_props", "theoretical", "database_IDs"]}