{"builder_meta": null, "nsites": null, "elements": null, "nelements": null, "composition": null, "composition_reduced": null, "formula_pretty": "GdCo5", "formula_anonymous": "AB5", "chemsys": null, "volume": 83.2771175938173, "density": 9.011168409650171, "density_atomic": 13.87951959896955, "symmetry": null, "property_name": null, "material_id": "mp-1077071", "deprecated": null, "deprecation_reasons": null, "last_updated": null, "origins": null, "warnings": null, "structure": {"@module": "pymatgen.core.structure", "@class": "Structure", "charge": 0, "lattice": {"matrix": [[2.49651761, -4.3240861, -0.0], [2.49650997, 4.3240817400000005, -0.0], [-0.0, -0.0, 3.85715957]], "pbc": [true, true, true], "a": 4.993027215753317, "b": 4.993019619880422, "c": 3.85715957, "alpha": 90.0, "beta": 90.0, "gamma": 119.99994484950824, "volume": 83.2771175938173}, "properties": {}, "sites": [{"species": [{"element": "Gd", "occu": 1}], "abc": [-0.0, -0.0, 0.0], "properties": {"magmom": 6.671}, "label": "Gd", "xyz": [0.0, 0.0, 0.0]}, {"species": [{"element": "Co", "occu": 1}], "abc": [0.666667, 0.333333999999999, -0.0], "properties": {"magmom": 1.75}, "label": "Co", "xyz": [2.4965175598458478, -1.4413620453075437, 0.0]}, {"species": [{"element": "Co", "occu": 1}], "abc": [0.333333, 0.666666, -0.0], "properties": {"magmom": 1.75}, "label": "Co", "xyz": [2.49651002015415, 1.44135768530754, 0.0]}, {"species": [{"element": "Co", "occu": 1}], "abc": [0.5, 0.5, 0.5], "properties": {"magmom": 1.758}, "label": "Co", "xyz": [2.49651379, -2.1799999996297004e-06, 1.928579785]}, {"species": [{"element": "Co", "occu": 1}], "abc": [0.5, -0.0, 0.5], "properties": {"magmom": 1.758}, "label": "Co", "xyz": [1.248258805, -2.16204305, 1.928579785]}, {"species": [{"element": "Co", "occu": 1}], "abc": [-0.0, 0.5, 0.5], "properties": {"magmom": 1.758}, "label": "Co", "xyz": [1.248254985, 2.1620408700000002, 1.928579785]}]}, "task_ids": null, "uncorrected_energy_per_atom": null, "energy_per_atom": -8.342472483333333, "formation_energy_per_atom": -0.051938176666666, "energy_above_hull": 0.0, "is_stable": true, "equilibrium_reaction_energy_per_atom": null, "decomposes_to": null, "xas": null, "grain_boundaries": null, "band_gap": 0.0, "cbm": null, "vbm": null, "efermi": 4.62898787, "is_gap_direct": null, "is_metal": null, "es_source_calc_id": null, "bandstructure": null, "dos": null, "dos_energy_up": null, "dos_energy_down": null, "is_magnetic": null, "ordering": null, "total_magnetization": 15.0870016, "total_magnetization_normalized_vol": null, "total_magnetization_normalized_formula_units": null, "num_magnetic_sites": null, "num_unique_magnetic_sites": null, "types_of_magnetic_species": null, "bulk_modulus": null, "shear_modulus": null, "universal_anisotropy": null, "homogeneous_poisson": null, "e_total": null, "e_ionic": null, "e_electronic": null, "n": null, "e_ij_max": null, "weighted_surface_energy_EV_PER_ANG2": null, "weighted_surface_energy": null, "weighted_work_function": null, "surface_anisotropy": null, "shape_factor": null, "has_reconstructed": null, "possible_species": null, "has_props": null, "theoretical": null, "database_IDs": null, "fields_not_requested": ["builder_meta", "nsites", "elements", "nelements", "composition", "composition_reduced", "chemsys", "symmetry", "property_name", "deprecated", "deprecation_reasons", "last_updated", "origins", "warnings", "task_ids", "uncorrected_energy_per_atom", "equilibrium_reaction_energy_per_atom", "decomposes_to", "xas", "grain_boundaries", "cbm", "vbm", "is_gap_direct", "is_metal", "es_source_calc_id", "bandstructure", "dos", "dos_energy_up", "dos_energy_down", "is_magnetic", "ordering", "total_magnetization_normalized_vol", "total_magnetization_normalized_formula_units", "num_magnetic_sites", "num_unique_magnetic_sites", "types_of_magnetic_species", "bulk_modulus", "shear_modulus", "universal_anisotropy", "homogeneous_poisson", "e_total", "e_ionic", "e_electronic", "n", "e_ij_max", "weighted_surface_energy_EV_PER_ANG2", "weighted_surface_energy", "weighted_work_function", "surface_anisotropy", "shape_factor", "has_reconstructed", "possible_species", "has_props", "theoretical", "database_IDs"]}