{"builder_meta": null, "nsites": null, "elements": null, "nelements": null, "composition": null, "composition_reduced": null, "formula_pretty": "GdCu2", "formula_anonymous": "AB2", "chemsys": null, "volume": 107.70953981685658, "density": 8.767301393692962, "density_atomic": 17.951589969476096, "symmetry": null, "property_name": null, "material_id": "mp-1077933", "deprecated": null, "deprecation_reasons": null, "last_updated": null, "origins": null, "warnings": null, "structure": {"@module": "pymatgen.core.structure", "@class": "Structure", "charge": 0, "lattice": {"matrix": [[-4.30344967, -0.0, -1e-08], [-2.15172382, -3.44119457, 3.63669903], [-2.15172382, 3.44111936, 3.63662538]], "pbc": [true, true, true], "a": 4.30344967, "b": 5.449524318778275, "c": 5.449427676534697, "alpha": 78.31667868400598, "beta": 66.74318281851126, "gamma": 66.74361950659089, "volume": 107.70953981685658}, "properties": {}, "sites": [{"species": [{"element": "Gd", "occu": 1}], "abc": [0.54336593, 0.706635799999999, 0.20663035000000002], "properties": {"magmom": 7.065}, "label": "Gd", "xyz": [-4.303444461102433, -1.7206315801790266, 3.321258898077894]}, {"species": [{"element": "Gd", "occu": 1}], "abc": [0.45663407, 0.293364199999999, 0.79336965], "properties": {"magmom": 7.065}, "label": "Gd", "xyz": [-4.303452848897562, 1.7205563701790336, 3.9520655019220987]}, {"species": [{"element": "Cu", "occu": 1}], "abc": [0.16499416, 0.28101502, 0.38899767], "properties": {"magmom": -0.017}, "label": "Cu", "xyz": [-2.151726328179203, 0.37156005231945, 2.436605848482354]}, {"species": [{"element": "Cu", "occu": 1}], "abc": [0.83500584, 0.71898498, 0.61100233], "properties": {"magmom": -0.017}, "label": "Cu", "xyz": [-6.455170981820797, -0.3716352623194492, 4.836718551517647]}, {"species": [{"element": "Cu", "occu": 1}], "abc": [0.83500333, 0.11100209999999901, 0.21899224], "properties": {"magmom": -0.017}, "label": "Cu", "xyz": [-4.3034514867805775, 0.3715986129751729, 1.2000739590549774]}, {"species": [{"element": "Cu", "occu": 1}], "abc": [0.16499667, 0.8889979, 0.78100776], "properties": {"magmom": -0.017}, "label": "Cu", "xyz": [-4.30344582321942, -0.3716738229751688, 6.073250440945019]}]}, "task_ids": null, "uncorrected_energy_per_atom": null, "energy_per_atom": -21.897654583333335, "formation_energy_per_atom": -0.200788816666668, "energy_above_hull": 0.0, "is_stable": true, "equilibrium_reaction_energy_per_atom": null, "decomposes_to": null, "xas": null, "grain_boundaries": null, "band_gap": 0.0, "cbm": null, "vbm": null, "efermi": 4.6556527, "is_gap_direct": null, "is_metal": null, "es_source_calc_id": null, "bandstructure": null, "dos": null, "dos_energy_up": null, "dos_energy_down": null, "is_magnetic": null, "ordering": null, "total_magnetization": 14.7987048, "total_magnetization_normalized_vol": null, "total_magnetization_normalized_formula_units": null, "num_magnetic_sites": null, "num_unique_magnetic_sites": null, "types_of_magnetic_species": null, "bulk_modulus": null, "shear_modulus": null, "universal_anisotropy": null, "homogeneous_poisson": null, "e_total": null, "e_ionic": null, "e_electronic": null, "n": null, "e_ij_max": null, "weighted_surface_energy_EV_PER_ANG2": null, "weighted_surface_energy": null, "weighted_work_function": null, "surface_anisotropy": null, "shape_factor": null, "has_reconstructed": null, "possible_species": null, "has_props": null, "theoretical": null, "database_IDs": null, "fields_not_requested": ["builder_meta", "nsites", "elements", "nelements", "composition", "composition_reduced", "chemsys", "symmetry", "property_name", "deprecated", "deprecation_reasons", "last_updated", "origins", "warnings", "task_ids", "uncorrected_energy_per_atom", "equilibrium_reaction_energy_per_atom", "decomposes_to", "xas", "grain_boundaries", "cbm", "vbm", "is_gap_direct", "is_metal", "es_source_calc_id", "bandstructure", "dos", "dos_energy_up", "dos_energy_down", "is_magnetic", "ordering", "total_magnetization_normalized_vol", "total_magnetization_normalized_formula_units", "num_magnetic_sites", "num_unique_magnetic_sites", "types_of_magnetic_species", "bulk_modulus", "shear_modulus", "universal_anisotropy", "homogeneous_poisson", "e_total", "e_ionic", "e_electronic", "n", "e_ij_max", "weighted_surface_energy_EV_PER_ANG2", "weighted_surface_energy", "weighted_work_function", "surface_anisotropy", "shape_factor", "has_reconstructed", "possible_species", "has_props", "theoretical", "database_IDs"]}