{"builder_meta": null, "nsites": null, "elements": null, "nelements": null, "composition": null, "composition_reduced": null, "formula_pretty": "GdEr3", "formula_anonymous": "AB3", "chemsys": null, "volume": 253.06286302213732, "density": 8.648760757507654, "density_atomic": 31.632857877767165, "symmetry": null, "property_name": null, "material_id": "mp-975612", "deprecated": null, "deprecation_reasons": null, "last_updated": null, "origins": null, "warnings": null, "structure": {"@module": "pymatgen.core.structure", "@class": "Structure", "charge": 0, "lattice": {"matrix": [[3.57068248, -6.18449095, 0.0], [3.57063789, 6.18447172, 0.0], [0.0, 0.0, 5.72989439]], "pbc": [true, true, true], "a": 7.141267512396581, "b": 7.141228563558473, "c": 5.72989439, "alpha": 90.0, "beta": 90.0, "gamma": 119.99932988567515, "volume": 253.06286302213732}, "properties": {}, "sites": [{"species": [{"element": "Gd", "occu": 1}], "abc": [0.3333374, 0.6666445400000001, 0.75], "properties": {"magmom": 7.432}, "label": "Gd", "xyz": [3.5705882677943728, 2.06132217132588, 4.2974207925000005]}, {"species": [{"element": "Gd", "occu": 1}], "abc": [0.66667432, 0.33331359, 0.25], "properties": {"magmom": -7.393}, "label": "Gd", "xyz": [3.570624447995839, -2.0616728273907294, 1.4324735975]}, {"species": [{"element": "Er", "occu": 1}], "abc": [0.16751855000000002, 0.33506587, 0.25], "properties": {"magmom": -0.069}, "label": "Er", "xyz": [1.7945544426278182, 1.0361884409200737, 1.4324735975]}, {"species": [{"element": "Er", "occu": 1}], "abc": [0.66493286, 0.83248707, 0.25], "properties": {"magmom": -0.069}, "label": "Er", "xyz": [5.346773988655375, 1.0362214866530444, 1.4324735975]}, {"species": [{"element": "Er", "occu": 1}], "abc": [0.16753448, 0.83247251, 0.25], "properties": {"magmom": -0.069}, "label": "Er", "xyz": [3.5706703191213145, 4.112287220399462, 1.4324735975]}, {"species": [{"element": "Er", "occu": 1}], "abc": [0.83214686, 0.66430827, 0.75], "properties": {"magmom": 0.155}, "label": "Er", "xyz": [5.343336493291364, -1.0380090155637927, 4.2974207925000005]}, {"species": [{"element": "Er", "occu": 1}], "abc": [0.33568731, 0.16785787, 0.75], "properties": {"magmom": 0.155}, "label": "Er", "xyz": [1.7979924673320231, -1.037942880730408, 4.2974207925000005]}, {"species": [{"element": "Er", "occu": 1}], "abc": [0.83216723, 0.16785029, 0.75], "properties": {"magmom": 0.155}, "label": "Er", "xyz": [3.5707375539126183, -4.108465331122769, 4.2974207925000005]}]}, "task_ids": null, "uncorrected_energy_per_atom": null, "energy_per_atom": -36.27220082125, "formation_energy_per_atom": 0.021126878750003002, "energy_above_hull": 0.021126878750003002, "is_stable": false, "equilibrium_reaction_energy_per_atom": null, "decomposes_to": null, "xas": null, "grain_boundaries": null, "band_gap": 0.0, "cbm": null, "vbm": null, "efermi": 2.93426203, "is_gap_direct": null, "is_metal": null, "es_source_calc_id": null, "bandstructure": null, "dos": null, "dos_energy_up": null, "dos_energy_down": null, "is_magnetic": null, "ordering": null, "total_magnetization": 0.4074855, "total_magnetization_normalized_vol": null, "total_magnetization_normalized_formula_units": null, "num_magnetic_sites": null, "num_unique_magnetic_sites": null, "types_of_magnetic_species": null, "bulk_modulus": null, "shear_modulus": null, "universal_anisotropy": null, "homogeneous_poisson": null, "e_total": null, "e_ionic": null, "e_electronic": null, "n": null, "e_ij_max": null, "weighted_surface_energy_EV_PER_ANG2": null, "weighted_surface_energy": null, "weighted_work_function": null, "surface_anisotropy": null, "shape_factor": null, "has_reconstructed": null, "possible_species": null, "has_props": null, "theoretical": null, "database_IDs": null, "fields_not_requested": ["builder_meta", "nsites", "elements", "nelements", "composition", "composition_reduced", "chemsys", "symmetry", "property_name", "deprecated", "deprecation_reasons", "last_updated", "origins", "warnings", "task_ids", "uncorrected_energy_per_atom", "equilibrium_reaction_energy_per_atom", "decomposes_to", "xas", "grain_boundaries", "cbm", "vbm", "is_gap_direct", "is_metal", "es_source_calc_id", "bandstructure", "dos", "dos_energy_up", "dos_energy_down", "is_magnetic", "ordering", "total_magnetization_normalized_vol", "total_magnetization_normalized_formula_units", "num_magnetic_sites", "num_unique_magnetic_sites", "types_of_magnetic_species", "bulk_modulus", "shear_modulus", "universal_anisotropy", "homogeneous_poisson", "e_total", "e_ionic", "e_electronic", "n", "e_ij_max", "weighted_surface_energy_EV_PER_ANG2", "weighted_surface_energy", "weighted_work_function", "surface_anisotropy", "shape_factor", "has_reconstructed", "possible_species", "has_props", "theoretical", "database_IDs"]}