{
  "builder_meta": null,
  "nsites": null,
  "elements": null,
  "nelements": null,
  "composition": null,
  "composition_reduced": null,
  "formula_pretty": "GdFe2",
  "formula_anonymous": "AB2",
  "chemsys": null,
  "volume": 100.4792683977216,
  "density": 8.889104860989024,
  "density_atomic": 16.7465447329536,
  "symmetry": null,
  "property_name": null,
  "material_id": "mp-20089",
  "deprecated": null,
  "deprecation_reasons": null,
  "last_updated": null,
  "origins": null,
  "warnings": null,
  "structure": {
    "@module": "pymatgen.core.structure",
    "@class": "Structure",
    "charge": 0,
    "lattice": {
      "matrix": [
        [4.51920343, 5.757e-5, 2.60925595],
        [1.5064468400000002, 4.26068047, 2.60927053],
        [3.8650000000000004e-5, 4.5890000000000016e-5, 5.21844343]
      ],
      "pbc": [true, true, true],
      "a": 5.2183729511839685,
      "b": 5.218340047171312,
      "c": 5.2184434303449025,
      "alpha": 59.99810925749169,
      "beta": 59.998694825171185,
      "gamma": 59.99801408842505,
      "volume": 100.47926839772161
    },
    "properties": {},
    "sites": [
      {
        "species": [{ "element": "Gd", "occu": 1 }],
        "abc": [0.87500511, 0.87500076, 0.87500057],
        "properties": { "magmom": -7.649 },
        "label": "Gd",
        "xyz": [5.2725020430511575, 3.728189177187497, 9.132366962106262]
      },
      {
        "species": [{ "element": "Gd", "occu": 1 }],
        "abc": [0.124995, 0.12500003, 0.12499863],
        "properties": { "magmom": -7.649 },
        "label": "Gd",
        "xyz": [0.7531885641233047, 0.5325981187196949, 1.3046011214808666]
      },
      {
        "species": [{ "element": "Fe", "occu": 1 }],
        "abc": [0.50000194, 0.50000134, 0.49999829],
        "properties": { "magmom": 2.594 },
        "label": "Fe",
        "xyz": [3.0128552458273288, 2.1303976743450432, 5.218484589840788]
      },
      {
        "species": [{ "element": "Fe", "occu": 1 }],
        "abc": [0.49999894, 0.50000199, 0.99999848],
        "properties": { "magmom": 2.594 },
        "label": "Fe",
        "xyz": [3.012861992414828, 2.1304233886233583, 7.827701164603034]
      },
      {
        "species": [{ "element": "Fe", "occu": 1 }],
        "abc": [0.99999709, 0.49999888000000003, 0.50000126],
        "properties": { "magmom": 2.594 },
        "label": "Fe",
        "xyz": [5.272431336946258, 2.130415977928166, 6.523108989920914]
      },
      {
        "species": [{ "element": "Fe", "occu": 1 }],
        "abc": [0.50000192, 0.999996999999999, 0.50000276],
        "properties": { "magmom": 2.594 },
        "label": "Fe",
        "xyz": [3.7660720376367385, 4.260719418195777, 6.523131804863699]
      }
    ]
  },
  "task_ids": null,
  "uncorrected_energy_per_atom": null,
  "energy_per_atom": -10.322487463333331,
  "formation_energy_per_atom": 0.016234090000002,
  "energy_above_hull": 0.020493659215688003,
  "is_stable": false,
  "equilibrium_reaction_energy_per_atom": null,
  "decomposes_to": null,
  "xas": null,
  "grain_boundaries": null,
  "band_gap": 0.0,
  "cbm": null,
  "vbm": null,
  "efermi": 4.46101956,
  "is_gap_direct": null,
  "is_metal": null,
  "es_source_calc_id": null,
  "bandstructure": null,
  "dos": null,
  "dos_energy_up": null,
  "dos_energy_down": null,
  "is_magnetic": null,
  "ordering": null,
  "total_magnetization": 6.8814218,
  "total_magnetization_normalized_vol": null,
  "total_magnetization_normalized_formula_units": null,
  "num_magnetic_sites": null,
  "num_unique_magnetic_sites": null,
  "types_of_magnetic_species": null,
  "bulk_modulus": null,
  "shear_modulus": null,
  "universal_anisotropy": null,
  "homogeneous_poisson": null,
  "e_total": null,
  "e_ionic": null,
  "e_electronic": null,
  "n": null,
  "e_ij_max": null,
  "weighted_surface_energy_EV_PER_ANG2": null,
  "weighted_surface_energy": null,
  "weighted_work_function": null,
  "surface_anisotropy": null,
  "shape_factor": null,
  "has_reconstructed": null,
  "possible_species": null,
  "has_props": null,
  "theoretical": null,
  "database_IDs": null,
  "fields_not_requested": [
    "builder_meta",
    "nsites",
    "elements",
    "nelements",
    "composition",
    "composition_reduced",
    "chemsys",
    "symmetry",
    "property_name",
    "deprecated",
    "deprecation_reasons",
    "last_updated",
    "origins",
    "warnings",
    "task_ids",
    "uncorrected_energy_per_atom",
    "equilibrium_reaction_energy_per_atom",
    "decomposes_to",
    "xas",
    "grain_boundaries",
    "cbm",
    "vbm",
    "is_gap_direct",
    "is_metal",
    "es_source_calc_id",
    "bandstructure",
    "dos",
    "dos_energy_up",
    "dos_energy_down",
    "is_magnetic",
    "ordering",
    "total_magnetization_normalized_vol",
    "total_magnetization_normalized_formula_units",
    "num_magnetic_sites",
    "num_unique_magnetic_sites",
    "types_of_magnetic_species",
    "bulk_modulus",
    "shear_modulus",
    "universal_anisotropy",
    "homogeneous_poisson",
    "e_total",
    "e_ionic",
    "e_electronic",
    "n",
    "e_ij_max",
    "weighted_surface_energy_EV_PER_ANG2",
    "weighted_surface_energy",
    "weighted_work_function",
    "surface_anisotropy",
    "shape_factor",
    "has_reconstructed",
    "possible_species",
    "has_props",
    "theoretical",
    "database_IDs"
  ]
}
