{"builder_meta": null, "nsites": null, "elements": null, "nelements": null, "composition": null, "composition_reduced": null, "formula_pretty": "GdFe5", "formula_anonymous": "AB5", "chemsys": null, "volume": 90.54440553408804, "density": 8.004732979569559, "density_atomic": 15.09073425568134, "symmetry": null, "property_name": null, "material_id": "mp-1181137", "deprecated": null, "deprecation_reasons": null, "last_updated": null, "origins": null, "warnings": null, "structure": {"@module": "pymatgen.core.structure", "@class": "Structure", "charge": 0, "lattice": {"matrix": [[5.16705006, 3.0000000000000004e-08, 0.0], [-2.58352448, 4.47373584, 0.0], [0.0, 0.0, 3.916955289999999]], "pbc": [true, true, true], "a": 5.16705006, "b": 5.166131154438472, "c": 3.916955289999999, "alpha": 90.0, "beta": 90.0, "gamma": 120.00587672732094, "volume": 90.54440553408801}, "properties": {}, "sites": [{"species": [{"element": "Gd", "occu": 1}], "abc": [0.0, -0.0, -0.0], "properties": {"magmom": 6.55}, "label": "Gd", "xyz": [0.0, 0.0, 0.0]}, {"species": [{"element": "Fe", "occu": 1}], "abc": [0.3334452, 0.66689241, -0.0], "properties": {"magmom": 2.654}, "label": "Fe", "xyz": [-4.826094484711163e-06, 2.98350048604433, 0.0]}, {"species": [{"element": "Fe", "occu": 1}], "abc": [0.6665548, 0.33310759, 0.0], "properties": {"magmom": 2.654}, "label": "Fe", "xyz": [2.583530406094485, 1.4902353839556695, 0.0]}, {"species": [{"element": "Fe", "occu": 1}], "abc": [0.5, -0.0, 0.5], "properties": {"magmom": 2.741}, "label": "Fe", "xyz": [2.58352503, 1.5000000000000002e-08, 1.9584776449999994]}, {"species": [{"element": "Fe", "occu": 1}], "abc": [0.5, 0.5, 0.5], "properties": {"magmom": 2.746}, "label": "Fe", "xyz": [1.2917627900000002, 2.236867935, 1.9584776449999994]}, {"species": [{"element": "Fe", "occu": 1}], "abc": [0.0, 0.5, 0.5], "properties": {"magmom": 2.746}, "label": "Fe", "xyz": [-1.29176224, 2.23686792, 1.9584776449999994]}]}, "task_ids": null, "uncorrected_energy_per_atom": null, "energy_per_atom": -9.394620511666666, "formation_energy_per_atom": 0.00975087, "energy_above_hull": 0.015075331519609, "is_stable": false, "equilibrium_reaction_energy_per_atom": null, "decomposes_to": null, "xas": null, "grain_boundaries": null, "band_gap": 0.0, "cbm": null, "vbm": null, "efermi": 4.39159805, "is_gap_direct": null, "is_metal": null, "es_source_calc_id": null, "bandstructure": null, "dos": null, "dos_energy_up": null, "dos_energy_down": null, "is_magnetic": null, "ordering": null, "total_magnetization": 19.4275835, "total_magnetization_normalized_vol": null, "total_magnetization_normalized_formula_units": null, "num_magnetic_sites": null, "num_unique_magnetic_sites": null, "types_of_magnetic_species": null, "bulk_modulus": null, "shear_modulus": null, "universal_anisotropy": null, "homogeneous_poisson": null, "e_total": null, "e_ionic": null, "e_electronic": null, "n": null, "e_ij_max": null, "weighted_surface_energy_EV_PER_ANG2": null, "weighted_surface_energy": null, "weighted_work_function": null, "surface_anisotropy": null, "shape_factor": null, "has_reconstructed": null, "possible_species": null, "has_props": null, "theoretical": null, "database_IDs": null, "fields_not_requested": ["builder_meta", "nsites", "elements", "nelements", "composition", "composition_reduced", "chemsys", "symmetry", "property_name", "deprecated", "deprecation_reasons", "last_updated", "origins", "warnings", "task_ids", "uncorrected_energy_per_atom", "equilibrium_reaction_energy_per_atom", "decomposes_to", "xas", "grain_boundaries", "cbm", "vbm", "is_gap_direct", "is_metal", "es_source_calc_id", "bandstructure", "dos", "dos_energy_up", "dos_energy_down", "is_magnetic", "ordering", "total_magnetization_normalized_vol", "total_magnetization_normalized_formula_units", "num_magnetic_sites", "num_unique_magnetic_sites", "types_of_magnetic_species", "bulk_modulus", "shear_modulus", "universal_anisotropy", "homogeneous_poisson", "e_total", "e_ionic", "e_electronic", "n", "e_ij_max", "weighted_surface_energy_EV_PER_ANG2", "weighted_surface_energy", "weighted_work_function", "surface_anisotropy", "shape_factor", "has_reconstructed", "possible_species", "has_props", "theoretical", "database_IDs"]}