{"builder_meta": null, "nsites": null, "elements": null, "nelements": null, "composition": null, "composition_reduced": null, "formula_pretty": "GdGa2", "formula_anonymous": "AB2", "chemsys": null, "volume": 63.801518200267395, "density": 7.721999613825628, "density_atomic": 21.267172733422466, "symmetry": null, "property_name": null, "material_id": "mp-19773", "deprecated": null, "deprecation_reasons": null, "last_updated": null, "origins": null, "warnings": null, "structure": {"@module": "pymatgen.core.structure", "@class": "Structure", "charge": 0, "lattice": {"matrix": [[4.19795495, -1e-08, 0.0], [-2.0989795, 3.63553516, -0.0], [0.0, 0.0, 4.18046788]], "pbc": [true, true, true], "a": 4.19795495, "b": 4.197955554911995, "c": 4.18046788, "alpha": 90.0, "beta": 90.0, "gamma": 120.00002728365409, "volume": 63.801518200267395}, "properties": {}, "sites": [{"species": [{"element": "Gd", "occu": 1}], "abc": [0.0, 0.0, 0.0], "properties": {"magmom": 7.029}, "label": "Gd", "xyz": [0.0, 0.0, 0.0]}, {"species": [{"element": "Ga", "occu": 1}], "abc": [0.666667, 0.333333, 0.5], "properties": {"magmom": -0.035}, "label": "Ga", "xyz": [2.09897889897815, 1.2118438348216098, 2.09023394]}, {"species": [{"element": "Ga", "occu": 1}], "abc": [0.333333, 0.666667, 0.5], "properties": {"magmom": -0.035}, "label": "Ga", "xyz": [-3.448978149966919e-06, 2.42369131517839, 2.09023394]}]}, "task_ids": null, "uncorrected_energy_per_atom": null, "energy_per_atom": -7.365425703333334, "formation_energy_per_atom": -0.6546542750000011, "energy_above_hull": 0.0, "is_stable": true, "equilibrium_reaction_energy_per_atom": null, "decomposes_to": null, "xas": null, "grain_boundaries": null, "band_gap": 0.0, "cbm": null, "vbm": null, "efermi": 3.49376424, "is_gap_direct": null, "is_metal": null, "es_source_calc_id": null, "bandstructure": null, "dos": null, "dos_energy_up": null, "dos_energy_down": null, "is_magnetic": null, "ordering": null, "total_magnetization": 7.2578101, "total_magnetization_normalized_vol": null, "total_magnetization_normalized_formula_units": null, "num_magnetic_sites": null, "num_unique_magnetic_sites": null, "types_of_magnetic_species": null, "bulk_modulus": null, "shear_modulus": null, "universal_anisotropy": null, "homogeneous_poisson": null, "e_total": null, "e_ionic": null, "e_electronic": null, "n": null, "e_ij_max": null, "weighted_surface_energy_EV_PER_ANG2": null, "weighted_surface_energy": null, "weighted_work_function": null, "surface_anisotropy": null, "shape_factor": null, "has_reconstructed": null, "possible_species": null, "has_props": null, "theoretical": null, "database_IDs": null, "fields_not_requested": ["builder_meta", "nsites", "elements", "nelements", "composition", "composition_reduced", "chemsys", "symmetry", "property_name", "deprecated", "deprecation_reasons", "last_updated", "origins", "warnings", "task_ids", "uncorrected_energy_per_atom", "equilibrium_reaction_energy_per_atom", "decomposes_to", "xas", "grain_boundaries", "cbm", "vbm", "is_gap_direct", "is_metal", "es_source_calc_id", "bandstructure", "dos", "dos_energy_up", "dos_energy_down", "is_magnetic", "ordering", "total_magnetization_normalized_vol", "total_magnetization_normalized_formula_units", "num_magnetic_sites", "num_unique_magnetic_sites", "types_of_magnetic_species", "bulk_modulus", "shear_modulus", "universal_anisotropy", "homogeneous_poisson", "e_total", "e_ionic", "e_electronic", "n", "e_ij_max", "weighted_surface_energy_EV_PER_ANG2", "weighted_surface_energy", "weighted_work_function", "surface_anisotropy", "shape_factor", "has_reconstructed", "possible_species", "has_props", "theoretical", "database_IDs"]}