{
  "builder_meta": null,
  "nsites": null,
  "elements": null,
  "nelements": null,
  "composition": null,
  "composition_reduced": null,
  "formula_pretty": "GdGa6",
  "formula_anonymous": "AB6",
  "chemsys": null,
  "volume": 266.6157757475348,
  "density": 7.169765986925086,
  "density_atomic": 19.043983981966772,
  "symmetry": null,
  "property_name": null,
  "material_id": "mp-1104838",
  "deprecated": null,
  "deprecation_reasons": null,
  "last_updated": null,
  "origins": null,
  "warnings": null,
  "structure": {
    "@module": "pymatgen.core.structure",
    "@class": "Structure",
    "charge": 0,
    "lattice": {
      "matrix": [
        [5.94223447, 9.679999999999999e-6, -4e-7],
        [9.839999999999999e-6, 5.94223263, -7.799999999999997e-7],
        [-1.399999999999999e-7, -1.249999999999999e-6, 7.55068598]
      ],
      "pbc": [true, true, true],
      "a": 5.942234470007898,
      "b": 5.942232630008199,
      "c": 7.550685980000105,
      "alpha": 90.00001700605755,
      "beta": 90.00000491920802,
      "gamma": 89.99981178565078,
      "volume": 266.6157757475348
    },
    "properties": {},
    "sites": [
      {
        "species": [{ "element": "Gd", "occu": 1 }],
        "abc": [1.36e-6, 0.5000009400000001, -1.33e-6],
        "properties": { "magmom": -7.023 },
        "label": "Gd",
        "xyz": [1.3001448314999998e-5, 2.9711219007135, -1.0432413630599999e-5]
      },
      {
        "species": [{ "element": "Gd", "occu": 1 }],
        "abc": [0.50000215, -9e-7, 2.299999999999999e-7],
        "properties": { "magmom": 7.023 },
        "label": "Gd",
        "xyz": [2.971130010795222, -5.079888425000002e-7, 1.5366576173999992e-6]
      },
      {
        "species": [{ "element": "Ga", "occu": 1 }],
        "abc": [0.50000011, 0.49999961, 0.16004522000000002],
        "properties": { "magmom": 0.0 },
        "label": "Ga",
        "xyz": [2.971122786235623, 2.971118637473814, 1.208450608820276]
      },
      {
        "species": [{ "element": "Ga", "occu": 1 }],
        "abc": [1.449999999999999e-6, -1.36e-6, 0.83995424],
        "properties": { "magmom": -0.0 },
        "label": "Ga",
        "xyz": [8.498633005499994e-6, -9.1313651408e-6, 6.342230703810035]
      },
      {
        "species": [{ "element": "Ga", "occu": 1 }],
        "abc": [0.5000004, 0.49999924, 0.8399545700000001],
        "properties": { "magmom": -0.0 },
        "label": "Ga",
        "xyz": [2.9711244142926696, 2.971115588963861, 6.342232605536362]
      },
      {
        "species": [{ "element": "Ga", "occu": 1 }],
        "abc": [-9e-7, 1.02e-6, 0.16004545],
        "properties": { "magmom": 0.0 },
        "label": "Ga",
        "xyz": [-5.3704073491999995e-6, 5.8610117581e-6, 1.2084529354773554]
      },
      {
        "species": [{ "element": "Ga", "occu": 1 }],
        "abc": [0.19557746, 0.69557874, 0.34688599999999903],
        "properties": { "magmom": 0.007 },
        "label": "Ga",
        "xyz": [1.1621739202978079, 4.133292145144599, 2.619226636075872]
      },
      {
        "species": [{ "element": "Ga", "occu": 1 }],
        "abc": [0.8044178200000001, 0.30442011, 0.34688586],
        "properties": { "magmom": 0.007 },
        "label": "Ga",
        "xyz": [4.7800422452161175, 1.8089424640273621, 2.6192256405474286]
      },
      {
        "species": [{ "element": "Ga", "occu": 1 }],
        "abc": [0.69558199, 0.19558105, 0.6531148],
        "properties": { "magmom": -0.007 },
        "label": "Ga",
        "xyz": [4.133313110770655, 1.162194013959825, 4.931464332904489]
      },
      {
        "species": [{ "element": "Ga", "occu": 1 }],
        "abc": [0.30442135, 0.80441967, 0.65311447],
        "properties": { "magmom": -0.007 },
        "label": "Ga",
        "xyz": [1.8089508634274611, 4.780050941693413, 4.931461522748248]
      },
      {
        "species": [{ "element": "Ga", "occu": 1 }],
        "abc": [0.19557982000000002, 0.30442036, 0.65311497],
        "properties": { "magmom": 0.007 },
        "label": "Ga",
        "xyz": [1.162184052100642, 1.808937673247292, 4.931465731627312]
      },
      {
        "species": [{ "element": "Ga", "occu": 1 }],
        "abc": [0.80442115, 0.69557834, 0.65311481],
        "properties": { "magmom": 0.007 },
        "label": "Ga",
        "xyz": [4.780065838981832, 4.1332952790724535, 4.931463974877799]
      },
      {
        "species": [{ "element": "Ga", "occu": 1 }],
        "abc": [0.69557832, 0.80441982, 0.34688579],
        "properties": { "magmom": -0.007 },
        "label": "Ga",
        "xyz": [4.133297336615708, 4.780056002213628, 2.619224765535437]
      },
      {
        "species": [{ "element": "Ga", "occu": 1 }],
        "abc": [0.30441851000000003, 0.19558036, 0.34688493],
        "properties": { "magmom": -0.007 },
        "label": "Ga",
        "xyz": [1.8089280393748919, 1.1621865101441613, 2.6192189033041964]
      }
    ]
  },
  "task_ids": null,
  "uncorrected_energy_per_atom": null,
  "energy_per_atom": -4.930282218571427,
  "formation_energy_per_atom": -0.32389673642856903,
  "energy_above_hull": 0.0,
  "is_stable": true,
  "equilibrium_reaction_energy_per_atom": null,
  "decomposes_to": null,
  "xas": null,
  "grain_boundaries": null,
  "band_gap": 0.0,
  "cbm": null,
  "vbm": null,
  "efermi": 3.38380212,
  "is_gap_direct": null,
  "is_metal": null,
  "es_source_calc_id": null,
  "bandstructure": null,
  "dos": null,
  "dos_energy_up": null,
  "dos_energy_down": null,
  "is_magnetic": null,
  "ordering": null,
  "total_magnetization": 1.2e-6,
  "total_magnetization_normalized_vol": null,
  "total_magnetization_normalized_formula_units": null,
  "num_magnetic_sites": null,
  "num_unique_magnetic_sites": null,
  "types_of_magnetic_species": null,
  "bulk_modulus": null,
  "shear_modulus": null,
  "universal_anisotropy": null,
  "homogeneous_poisson": null,
  "e_total": null,
  "e_ionic": null,
  "e_electronic": null,
  "n": null,
  "e_ij_max": null,
  "weighted_surface_energy_EV_PER_ANG2": null,
  "weighted_surface_energy": null,
  "weighted_work_function": null,
  "surface_anisotropy": null,
  "shape_factor": null,
  "has_reconstructed": null,
  "possible_species": null,
  "has_props": null,
  "theoretical": null,
  "database_IDs": null,
  "fields_not_requested": [
    "builder_meta",
    "nsites",
    "elements",
    "nelements",
    "composition",
    "composition_reduced",
    "chemsys",
    "symmetry",
    "property_name",
    "deprecated",
    "deprecation_reasons",
    "last_updated",
    "origins",
    "warnings",
    "task_ids",
    "uncorrected_energy_per_atom",
    "equilibrium_reaction_energy_per_atom",
    "decomposes_to",
    "xas",
    "grain_boundaries",
    "cbm",
    "vbm",
    "is_gap_direct",
    "is_metal",
    "es_source_calc_id",
    "bandstructure",
    "dos",
    "dos_energy_up",
    "dos_energy_down",
    "is_magnetic",
    "ordering",
    "total_magnetization_normalized_vol",
    "total_magnetization_normalized_formula_units",
    "num_magnetic_sites",
    "num_unique_magnetic_sites",
    "types_of_magnetic_species",
    "bulk_modulus",
    "shear_modulus",
    "universal_anisotropy",
    "homogeneous_poisson",
    "e_total",
    "e_ionic",
    "e_electronic",
    "n",
    "e_ij_max",
    "weighted_surface_energy_EV_PER_ANG2",
    "weighted_surface_energy",
    "weighted_work_function",
    "surface_anisotropy",
    "shape_factor",
    "has_reconstructed",
    "possible_species",
    "has_props",
    "theoretical",
    "database_IDs"
  ]
}
