{"builder_meta": null, "nsites": null, "elements": null, "nelements": null, "composition": null, "composition_reduced": null, "formula_pretty": "GdGa", "formula_anonymous": "AB", "chemsys": null, "volume": 97.61362805918344, "density": 7.722231845227342, "density_atomic": 24.40340701479586, "symmetry": null, "property_name": null, "material_id": "mp-20353", "deprecated": null, "deprecation_reasons": null, "last_updated": null, "origins": null, "warnings": null, "structure": {"@module": "pymatgen.core.structure", "@class": "Structure", "charge": 0, "lattice": {"matrix": [[4.14298222, 0.0, -0.0], [0.0, 3.95834026, -1.55926931], [-0.0, 0.05059355, 5.93236265]], "pbc": [true, true, true], "a": 4.14298222, "b": 4.254383433007037, "c": 5.9325783870435815, "alpha": 111.0118419692422, "beta": 90.0, "gamma": 90.0, "volume": 97.61362805918344}, "properties": {}, "sites": [{"species": [{"element": "Gd", "occu": 1}], "abc": [0.25, 0.85593069, 0.71186138], "properties": {"magmom": 7.177}, "label": "Gd", "xyz": [1.035745555, 3.4240805043186784, 2.8883934062853327]}, {"species": [{"element": "Gd", "occu": 1}], "abc": [0.75, 0.14406931, 0.28813962], "properties": {"magmom": 7.177}, "label": "Gd", "xyz": [3.1072366650000003, 0.5848533562748717, 1.484705866077317]}, {"species": [{"element": "Ga", "occu": 1}], "abc": [0.25, 0.56966721, 0.13933341], "properties": {"magmom": -0.043000000000000003}, "label": "Ga", "xyz": [1.035745555, 2.2619860239903797, -0.06168828008518856]}, {"species": [{"element": "Ga", "occu": 1}], "abc": [0.75, 0.43033179, 0.86066659], "properties": {"magmom": -0.043000000000000003}, "label": "Ga", "xyz": [3.1072366650000003, 1.7469438276693598, 4.434783179354499]}]}, "task_ids": null, "uncorrected_energy_per_atom": null, "energy_per_atom": -9.1832358375, "formation_energy_per_atom": -0.63112670625, "energy_above_hull": 0.0, "is_stable": true, "equilibrium_reaction_energy_per_atom": null, "decomposes_to": null, "xas": null, "grain_boundaries": null, "band_gap": 0.0, "cbm": null, "vbm": null, "efermi": 2.82454258, "is_gap_direct": null, "is_metal": null, "es_source_calc_id": null, "bandstructure": null, "dos": null, "dos_energy_up": null, "dos_energy_down": null, "is_magnetic": null, "ordering": null, "total_magnetization": 15.3720498, "total_magnetization_normalized_vol": null, "total_magnetization_normalized_formula_units": null, "num_magnetic_sites": null, "num_unique_magnetic_sites": null, "types_of_magnetic_species": null, "bulk_modulus": null, "shear_modulus": null, "universal_anisotropy": null, "homogeneous_poisson": null, "e_total": null, "e_ionic": null, "e_electronic": null, "n": null, "e_ij_max": null, "weighted_surface_energy_EV_PER_ANG2": null, "weighted_surface_energy": null, "weighted_work_function": null, "surface_anisotropy": null, "shape_factor": null, "has_reconstructed": null, "possible_species": null, "has_props": null, "theoretical": null, "database_IDs": null, "fields_not_requested": ["builder_meta", "nsites", "elements", "nelements", "composition", "composition_reduced", "chemsys", "symmetry", "property_name", "deprecated", "deprecation_reasons", "last_updated", "origins", "warnings", "task_ids", "uncorrected_energy_per_atom", "equilibrium_reaction_energy_per_atom", "decomposes_to", "xas", "grain_boundaries", "cbm", "vbm", "is_gap_direct", "is_metal", "es_source_calc_id", "bandstructure", "dos", "dos_energy_up", "dos_energy_down", "is_magnetic", "ordering", "total_magnetization_normalized_vol", "total_magnetization_normalized_formula_units", "num_magnetic_sites", "num_unique_magnetic_sites", "types_of_magnetic_species", "bulk_modulus", "shear_modulus", "universal_anisotropy", "homogeneous_poisson", "e_total", "e_ionic", "e_electronic", "n", "e_ij_max", "weighted_surface_energy_EV_PER_ANG2", "weighted_surface_energy", "weighted_work_function", "surface_anisotropy", "shape_factor", "has_reconstructed", "possible_species", "has_props", "theoretical", "database_IDs"]}