{"builder_meta": null, "nsites": null, "elements": null, "nelements": null, "composition": null, "composition_reduced": null, "formula_pretty": "GdGa3", "formula_anonymous": "AB3", "chemsys": null, "volume": 155.90139942067876, "density": 7.805613888079057, "density_atomic": 19.487674927584845, "symmetry": null, "property_name": null, "material_id": "mp-865386", "deprecated": null, "deprecation_reasons": null, "last_updated": null, "origins": null, "warnings": null, "structure": {"@module": "pymatgen.core.structure", "@class": "Structure", "charge": 0, "lattice": {"matrix": [[6.32773397, 0.00058132, 0.0], [-3.16334298, 5.47974248, 0.0], [0.0, 0.0, 4.49592047]], "pbc": [true, true, true], "a": 6.327733996702524, "b": 6.3272676927906115, "c": 4.49592047, "alpha": 90.0, "beta": 90.0, "gamma": 119.99169499353872, "volume": 155.90139942067876}, "properties": {}, "sites": [{"species": [{"element": "Gd", "occu": 1}], "abc": [0.3334335, 0.66668974, 0.750000999999999], "properties": {"magmom": -6.956}, "label": "Gd", "xyz": [0.0009101758189697939, 3.653481920820375, 3.3719448484204655]}, {"species": [{"element": "Gd", "occu": 1}], "abc": [0.6665675, 0.33331226, 0.250001], "properties": {"magmom": -6.956}, "label": "Gd", "xyz": [3.1634808152290397, 1.826852839245905, 1.1239846134204698]}, {"species": [{"element": "Ga", "occu": 1}], "abc": [0.14360145, 0.28733123, 0.250001], "properties": {"magmom": 0.03}, "label": "Ga", "xyz": [-0.0002554560490090063, 1.5745846252565643, 1.1239846134204698]}, {"species": [{"element": "Ga", "occu": 1}], "abc": [0.71278307, 0.85641713, 0.250001], "properties": {"magmom": 0.03}, "label": "Ga", "xyz": [1.8011605291426402, 4.693359682914934, 1.1239846134204698]}, {"species": [{"element": "Ga", "occu": 1}], "abc": [0.14363032, 0.85627752, 0.250001], "properties": {"magmom": 0.03}, "label": "Ga", "xyz": [-1.799845026837839, 4.692263796190672, 1.1239846134204698]}, {"species": [{"element": "Ga", "occu": 1}], "abc": [0.85639855, 0.7126687700000001, 0.750000999999999], "properties": {"magmom": 0.03}, "label": "Ga", "xyz": [3.1646464460490087, 3.9057391747434353, 3.3719448484204655]}, {"species": [{"element": "Ga", "occu": 1}], "abc": [0.28721693, 0.14358287, 0.750000999999999], "properties": {"magmom": 0.03}, "label": "Ga", "xyz": [1.3632304608573593, 0.7869641170850652, 3.3719448484204655]}, {"species": [{"element": "Ga", "occu": 1}], "abc": [0.85636968, 0.14372348000000001, 0.750000999999999], "properties": {"magmom": 0.03}, "label": "Ga", "xyz": [4.964232853494859, 0.788065483551808, 3.3719448484204655]}]}, "task_ids": null, "uncorrected_energy_per_atom": null, "energy_per_atom": -6.338610509999999, "formation_energy_per_atom": -0.548507933124998, "energy_above_hull": 0.0, "is_stable": true, "equilibrium_reaction_energy_per_atom": null, "decomposes_to": null, "xas": null, "grain_boundaries": null, "band_gap": 0.0, "cbm": null, "vbm": null, "efermi": 3.81761288, "is_gap_direct": null, "is_metal": null, "es_source_calc_id": null, "bandstructure": null, "dos": null, "dos_energy_up": null, "dos_energy_down": null, "is_magnetic": null, "ordering": null, "total_magnetization": 14.1107702, "total_magnetization_normalized_vol": null, "total_magnetization_normalized_formula_units": null, "num_magnetic_sites": null, "num_unique_magnetic_sites": null, "types_of_magnetic_species": null, "bulk_modulus": null, "shear_modulus": null, "universal_anisotropy": null, "homogeneous_poisson": null, "e_total": null, "e_ionic": null, "e_electronic": null, "n": null, "e_ij_max": null, "weighted_surface_energy_EV_PER_ANG2": null, "weighted_surface_energy": null, "weighted_work_function": null, "surface_anisotropy": null, "shape_factor": null, "has_reconstructed": null, "possible_species": null, "has_props": null, "theoretical": null, "database_IDs": null, "fields_not_requested": ["builder_meta", "nsites", "elements", "nelements", "composition", "composition_reduced", "chemsys", "symmetry", "property_name", "deprecated", "deprecation_reasons", "last_updated", "origins", "warnings", "task_ids", "uncorrected_energy_per_atom", "equilibrium_reaction_energy_per_atom", "decomposes_to", "xas", "grain_boundaries", "cbm", "vbm", "is_gap_direct", "is_metal", "es_source_calc_id", "bandstructure", "dos", "dos_energy_up", "dos_energy_down", "is_magnetic", "ordering", "total_magnetization_normalized_vol", "total_magnetization_normalized_formula_units", "num_magnetic_sites", "num_unique_magnetic_sites", "types_of_magnetic_species", "bulk_modulus", "shear_modulus", "universal_anisotropy", "homogeneous_poisson", "e_total", "e_ionic", "e_electronic", "n", "e_ij_max", "weighted_surface_energy_EV_PER_ANG2", "weighted_surface_energy", "weighted_work_function", "surface_anisotropy", "shape_factor", "has_reconstructed", "possible_species", "has_props", "theoretical", "database_IDs"]}