{"builder_meta": null, "nsites": null, "elements": null, "nelements": null, "composition": null, "composition_reduced": null, "formula_pretty": "GdGe2", "formula_anonymous": "AB2", "chemsys": null, "volume": 131.76701579757898, "density": 7.625017243924379, "density_atomic": 21.961169299596495, "symmetry": null, "property_name": null, "material_id": "mp-1072982", "deprecated": null, "deprecation_reasons": null, "last_updated": null, "origins": null, "warnings": null, "structure": {"@module": "pymatgen.core.structure", "@class": "Structure", "charge": 0, "lattice": {"matrix": [[-2.0055891, 2.00559013, 8.18959782], [2.0055891, -2.00559013, 8.18959782], [2.0055891, 2.00559013, -8.18959782]], "pbc": [true, true, true], "a": 8.666850169521853, "b": 8.666850169521853, "c": 8.666850169521853, "alpha": 153.2398939125674, "beta": 153.23987991412272, "gamma": 38.205366446878166, "volume": 131.767015797579}, "properties": {}, "sites": [{"species": [{"element": "Gd", "occu": 1}], "abc": [0.75, 0.25, 0.5], "properties": {"magmom": 6.955}, "label": "Gd", "xyz": [0.0, 2.00559013, 4.09479891]}, {"species": [{"element": "Gd", "occu": 1}], "abc": [-0.0, -0.0, -0.0], "properties": {"magmom": 6.955}, "label": "Gd", "xyz": [0.0, 0.0, 0.0]}, {"species": [{"element": "Ge", "occu": 1}], "abc": [0.17116234, 0.67116234, 0.5], "properties": {"magmom": -0.033}, "label": "Ge", "xyz": [2.0055891, 0.0, 2.8035014530601963]}, {"species": [{"element": "Ge", "occu": 1}], "abc": [0.57890168, 0.57890168, -0.0], "properties": {"magmom": -0.033}, "label": "Ge", "xyz": [0.0, 0.0, 9.481943873044674]}, {"species": [{"element": "Ge", "occu": 1}], "abc": [0.32883766000000003, 0.82883766, 0.5], "properties": {"magmom": -0.033}, "label": "Ge", "xyz": [2.0055891, 0.0, 5.386096366939803]}, {"species": [{"element": "Ge", "occu": 1}], "abc": [0.42109832, 0.42109832, 0.0], "properties": {"magmom": -0.033}, "label": "Ge", "xyz": [0.0, 0.0, 6.897251766955325]}]}, "task_ids": null, "uncorrected_energy_per_atom": null, "energy_per_atom": -8.333019081666668, "formation_energy_per_atom": -0.558959765, "energy_above_hull": 0.012451453333332, "is_stable": false, "equilibrium_reaction_energy_per_atom": null, "decomposes_to": null, "xas": null, "grain_boundaries": null, "band_gap": 0.0, "cbm": null, "vbm": null, "efermi": 5.43703042, "is_gap_direct": null, "is_metal": null, "es_source_calc_id": null, "bandstructure": null, "dos": null, "dos_energy_up": null, "dos_energy_down": null, "is_magnetic": null, "ordering": null, "total_magnetization": 14.1778224, "total_magnetization_normalized_vol": null, "total_magnetization_normalized_formula_units": null, "num_magnetic_sites": null, "num_unique_magnetic_sites": null, "types_of_magnetic_species": null, "bulk_modulus": null, "shear_modulus": null, "universal_anisotropy": null, "homogeneous_poisson": null, "e_total": null, "e_ionic": null, "e_electronic": null, "n": null, "e_ij_max": null, "weighted_surface_energy_EV_PER_ANG2": null, "weighted_surface_energy": null, "weighted_work_function": null, "surface_anisotropy": null, "shape_factor": null, "has_reconstructed": null, "possible_species": null, "has_props": null, "theoretical": null, "database_IDs": null, "fields_not_requested": ["builder_meta", "nsites", "elements", "nelements", "composition", "composition_reduced", "chemsys", "symmetry", "property_name", "deprecated", "deprecation_reasons", "last_updated", "origins", "warnings", "task_ids", "uncorrected_energy_per_atom", "equilibrium_reaction_energy_per_atom", "decomposes_to", "xas", "grain_boundaries", "cbm", "vbm", "is_gap_direct", "is_metal", "es_source_calc_id", "bandstructure", "dos", "dos_energy_up", "dos_energy_down", "is_magnetic", "ordering", "total_magnetization_normalized_vol", "total_magnetization_normalized_formula_units", "num_magnetic_sites", "num_unique_magnetic_sites", "types_of_magnetic_species", "bulk_modulus", "shear_modulus", "universal_anisotropy", "homogeneous_poisson", "e_total", "e_ionic", "e_electronic", "n", "e_ij_max", "weighted_surface_energy_EV_PER_ANG2", "weighted_surface_energy", "weighted_work_function", "surface_anisotropy", "shape_factor", "has_reconstructed", "possible_species", "has_props", "theoretical", "database_IDs"]}