{"builder_meta": null, "nsites": null, "elements": null, "nelements": null, "composition": null, "composition_reduced": null, "formula_pretty": "GdGe", "formula_anonymous": "AB", "chemsys": null, "volume": 93.39762152195493, "density": 8.174540631764122, "density_atomic": 23.349405380488733, "symmetry": null, "property_name": null, "material_id": "mp-19918", "deprecated": null, "deprecation_reasons": null, "last_updated": null, "origins": null, "warnings": null, "structure": {"@module": "pymatgen.core.structure", "@class": "Structure", "charge": 0, "lattice": {"matrix": [[4.00180246, 0.0, 0.0], [-0.0, 3.99530695, -1.5721398], [-0.0, -0.00721159, 5.84441357]], "pbc": [true, true, true], "a": 4.00180246, "b": 4.293495216657676, "c": 5.844418019292466, "alpha": 111.55016913244562, "beta": 90.0, "gamma": 90.0, "volume": 93.39762152195492}, "properties": {}, "sites": [{"species": [{"element": "Gd", "occu": 1}], "abc": [0.25, 0.85912117, 0.71824233], "properties": {"magmom": 7.126}, "label": "Gd", "xyz": [1.000450615, 3.4272731121885265, 2.8470466356208526]}, {"species": [{"element": "Gd", "occu": 1}], "abc": [0.75, 0.14087883, 0.28175767], "properties": {"magmom": 7.126}, "label": "Gd", "xyz": [3.0013518450000003, 0.5608222478114733, 1.425227134379148]}, {"species": [{"element": "Ge", "occu": 1}], "abc": [0.25, 0.5804447500000001, 0.1608895], "properties": {"magmom": -0.053}, "label": "Ge", "xyz": [1.000450615, 2.3178946746567077, 0.027764483894464842]}, {"species": [{"element": "Ge", "occu": 1}], "abc": [0.75, 0.41955525, 0.8391105], "properties": {"magmom": -0.053}, "label": "Ge", "xyz": [3.0013518450000003, 1.6702006853432925, 4.244509286105536]}]}, "task_ids": null, "uncorrected_energy_per_atom": null, "energy_per_atom": -10.206691875, "formation_energy_per_atom": -0.8571168275000001, "energy_above_hull": 0.0, "is_stable": true, "equilibrium_reaction_energy_per_atom": null, "decomposes_to": null, "xas": null, "grain_boundaries": null, "band_gap": 0.0, "cbm": null, "vbm": null, "efermi": 4.78514413, "is_gap_direct": null, "is_metal": null, "es_source_calc_id": null, "bandstructure": null, "dos": null, "dos_energy_up": null, "dos_energy_down": null, "is_magnetic": null, "ordering": null, "total_magnetization": 14.9771815, "total_magnetization_normalized_vol": null, "total_magnetization_normalized_formula_units": null, "num_magnetic_sites": null, "num_unique_magnetic_sites": null, "types_of_magnetic_species": null, "bulk_modulus": null, "shear_modulus": null, "universal_anisotropy": null, "homogeneous_poisson": null, "e_total": null, "e_ionic": null, "e_electronic": null, "n": null, "e_ij_max": null, "weighted_surface_energy_EV_PER_ANG2": null, "weighted_surface_energy": null, "weighted_work_function": null, "surface_anisotropy": null, "shape_factor": null, "has_reconstructed": null, "possible_species": null, "has_props": null, "theoretical": null, "database_IDs": null, "fields_not_requested": ["builder_meta", "nsites", "elements", "nelements", "composition", "composition_reduced", "chemsys", "symmetry", "property_name", "deprecated", "deprecation_reasons", "last_updated", "origins", "warnings", "task_ids", "uncorrected_energy_per_atom", "equilibrium_reaction_energy_per_atom", "decomposes_to", "xas", "grain_boundaries", "cbm", "vbm", "is_gap_direct", "is_metal", "es_source_calc_id", "bandstructure", "dos", "dos_energy_up", "dos_energy_down", "is_magnetic", "ordering", "total_magnetization_normalized_vol", "total_magnetization_normalized_formula_units", "num_magnetic_sites", "num_unique_magnetic_sites", "types_of_magnetic_species", "bulk_modulus", "shear_modulus", "universal_anisotropy", "homogeneous_poisson", "e_total", "e_ionic", "e_electronic", "n", "e_ij_max", "weighted_surface_energy_EV_PER_ANG2", "weighted_surface_energy", "weighted_work_function", "surface_anisotropy", "shape_factor", "has_reconstructed", "possible_species", "has_props", "theoretical", "database_IDs"]}