{
  "builder_meta": null,
  "nsites": null,
  "elements": null,
  "nelements": null,
  "composition": null,
  "composition_reduced": null,
  "formula_pretty": "GdH3",
  "formula_anonymous": "AB3",
  "chemsys": null,
  "volume": 239.7018230024038,
  "density": 6.661800134758611,
  "density_atomic": 9.987575958433492,
  "symmetry": null,
  "property_name": null,
  "material_id": "mp-505686",
  "deprecated": null,
  "deprecation_reasons": null,
  "last_updated": null,
  "origins": null,
  "warnings": null,
  "structure": {
    "@module": "pymatgen.core.structure",
    "@class": "Structure",
    "charge": 0,
    "lattice": {
      "matrix": [
        [6.43081116, 1e-8, -0.0],
        [-3.21540507, 5.56924348, 0.0],
        [-0.0, 0.0, 6.69282354]
      ],
      "pbc": [true, true, true],
      "a": 6.43081116,
      "b": 6.430808868540894,
      "c": 6.69282354,
      "alpha": 90.0,
      "beta": 90.0,
      "gamma": 120.00000645122151,
      "volume": 239.7018230024038
    },
    "properties": {},
    "sites": [
      {
        "species": [{ "element": "Gd", "occu": 1 }],
        "abc": [0.33644477, 1.0, 0.25],
        "properties": { "magmom": 6.895 },
        "label": "Gd",
        "xyz": [-1.051792288360367, 5.569243483364447, 1.673205885]
      },
      {
        "species": [{ "element": "Gd", "occu": 1 }],
        "abc": [0.0, 0.33644477, 0.25],
        "properties": { "magmom": 6.895 },
        "label": "Gd",
        "xyz": [-1.081806219232984, 1.8737428417025996, 1.673205885]
      },
      {
        "species": [{ "element": "Gd", "occu": 1 }],
        "abc": [0.66355523, 0.66355523, 0.25],
        "properties": { "magmom": 6.895 },
        "label": "Gd",
        "xyz": [2.133599527593351, 3.695500644932953, 1.673205885]
      },
      {
        "species": [{ "element": "Gd", "occu": 1 }],
        "abc": [0.66355523, 0.0, 0.75],
        "properties": { "magmom": 6.895 },
        "label": "Gd",
        "xyz": [4.2671983783603675, 6.635552300000001e-9, 5.019617655]
      },
      {
        "species": [{ "element": "Gd", "occu": 1 }],
        "abc": [1.0, 0.66355523, 0.75],
        "properties": { "magmom": 6.895 },
        "label": "Gd",
        "xyz": [4.297212309232984, 3.6955006482974007, 5.019617655]
      },
      {
        "species": [{ "element": "Gd", "occu": 1 }],
        "abc": [0.33644477, 0.33644477, 0.75],
        "properties": { "magmom": 6.895 },
        "label": "Gd",
        "xyz": [1.081806562406649, 1.8737428450670472, 5.019617655]
      },
      {
        "species": [{ "element": "H", "occu": 1 }],
        "abc": [-0.0, -0.0, 0.25],
        "properties": { "magmom": -0.015 },
        "label": "H",
        "xyz": [0.0, 0.0, 1.673205885]
      },
      {
        "species": [{ "element": "H", "occu": 1 }],
        "abc": [-0.0, -0.0, 0.75],
        "properties": { "magmom": -0.015 },
        "label": "H",
        "xyz": [0.0, 0.0, 5.019617655]
      },
      {
        "species": [{ "element": "H", "occu": 1 }],
        "abc": [0.333333, 0.666667, 0.188188],
        "properties": { "magmom": -0.016 },
        "label": "H",
        "xyz": [-2.87540541021869e-6, 3.71283084641449, 1.25950907634552]
      },
      {
        "species": [{ "element": "H", "occu": 1 }],
        "abc": [0.666667, 0.333333, 0.311812],
        "properties": { "magmom": -0.016 },
        "label": "H",
        "xyz": [3.21540896540541, 1.85641264358551, 2.08690269365448]
      },
      {
        "species": [{ "element": "H", "occu": 1 }],
        "abc": [0.666667, 0.333333, 0.811812],
        "properties": { "magmom": -0.016 },
        "label": "H",
        "xyz": [3.21540896540541, 1.85641264358551, 5.4333144636544795]
      },
      {
        "species": [{ "element": "H", "occu": 1 }],
        "abc": [0.333333, 0.666667, 0.688188],
        "properties": { "magmom": -0.016 },
        "label": "H",
        "xyz": [-2.87540541021869e-6, 3.71283084641449, 4.60592084634552]
      },
      {
        "species": [{ "element": "H", "occu": 1 }],
        "abc": [0.34908684, 0.32177633, 0.0917952],
        "properties": { "magmom": -0.017 },
        "label": "H",
        "xyz": [1.2102703035931415, 1.792050731361697, 0.614369075419008]
      },
      {
        "species": [{ "element": "H", "occu": 1 }],
        "abc": [0.6782236700000001, 0.027309510000000002, 0.0917952],
        "properties": { "magmom": -0.017 },
        "label": "H",
        "xyz": [4.273717209098942, 0.1520933172917315, 0.614369075419008]
      },
      {
        "species": [{ "element": "H", "occu": 1 }],
        "abc": [0.9726904900000001, 0.65091316, 0.0917952],
        "properties": { "magmom": -0.017 },
        "label": "H",
        "xyz": [4.162239383524147, 3.625093882103102, 0.614369075419008]
      },
      {
        "species": [{ "element": "H", "occu": 1 }],
        "abc": [0.027309510000000002, 0.6782236700000001, 0.4082048],
        "properties": { "magmom": -0.017 },
        "label": "H",
        "xyz": [-2.0051415254298757, 3.7771927524022666, 2.7320426945809917]
      },
      {
        "species": [{ "element": "H", "occu": 1 }],
        "abc": [0.65091316, 0.9726904900000001, 0.4082048],
        "properties": { "magmom": -0.017 },
        "label": "H",
        "xyz": [1.0583056804320812, 5.417150175999637, 2.7320426945809917]
      },
      {
        "species": [{ "element": "H", "occu": 1 }],
        "abc": [0.32177633, 0.34908684, 0.4082048],
        "properties": { "magmom": -0.017 },
        "label": "H",
        "xyz": [0.9468272187815638, 1.9441496108415666, 2.7320426945809917]
      },
      {
        "species": [{ "element": "H", "occu": 1 }],
        "abc": [0.65091316, 0.6782236700000001, 0.908204799999999],
        "properties": { "magmom": -0.017 },
        "label": "H",
        "xyz": [2.005135786406859, 3.777192758638303, 6.078454464580986]
      },
      {
        "species": [{ "element": "H", "occu": 1 }],
        "abc": [0.32177633, 0.9726904900000001, 0.908204799999999],
        "properties": { "magmom": -0.017 },
        "label": "H",
        "xyz": [-1.058311119098942, 5.4171501727082685, 6.078454464580986]
      },
      {
        "species": [{ "element": "H", "occu": 1 }],
        "abc": [0.027309510000000002, 0.34908684, 0.908204799999999],
        "properties": { "magmom": -0.017 },
        "label": "H",
        "xyz": [-0.9468332935241472, 1.9441496078968983, 6.078454464580986]
      },
      {
        "species": [{ "element": "H", "occu": 1 }],
        "abc": [0.9726904900000001, 0.32177633, 0.5917952],
        "properties": { "magmom": -0.017 },
        "label": "H",
        "xyz": [5.220547615429876, 1.7920507375977333, 3.960780845419008]
      },
      {
        "species": [{ "element": "H", "occu": 1 }],
        "abc": [0.34908684, 0.027309510000000002, 0.5917952],
        "properties": { "magmom": -0.017 },
        "label": "H",
        "xyz": [2.157100409567919, 0.15209331400036322, 3.960780845419008]
      },
      {
        "species": [{ "element": "H", "occu": 1 }],
        "abc": [0.6782236700000001, 0.65091316, 0.5917952],
        "properties": { "magmom": -0.017 },
        "label": "H",
        "xyz": [2.2685788712184363, 3.6250938791584333, 3.960780845419008]
      }
    ]
  },
  "task_ids": null,
  "uncorrected_energy_per_atom": null,
  "energy_per_atom": -14.115089659583333,
  "formation_energy_per_atom": -0.674504033645831,
  "energy_above_hull": 0.0,
  "is_stable": true,
  "equilibrium_reaction_energy_per_atom": null,
  "decomposes_to": null,
  "xas": null,
  "grain_boundaries": null,
  "band_gap": 0.0,
  "cbm": null,
  "vbm": null,
  "efermi": 2.3712983100000002,
  "is_gap_direct": null,
  "is_metal": null,
  "es_source_calc_id": null,
  "bandstructure": null,
  "dos": null,
  "dos_energy_up": null,
  "dos_energy_down": null,
  "is_magnetic": null,
  "ordering": null,
  "total_magnetization": 41.9999853,
  "total_magnetization_normalized_vol": null,
  "total_magnetization_normalized_formula_units": null,
  "num_magnetic_sites": null,
  "num_unique_magnetic_sites": null,
  "types_of_magnetic_species": null,
  "bulk_modulus": null,
  "shear_modulus": null,
  "universal_anisotropy": null,
  "homogeneous_poisson": null,
  "e_total": null,
  "e_ionic": null,
  "e_electronic": null,
  "n": null,
  "e_ij_max": null,
  "weighted_surface_energy_EV_PER_ANG2": null,
  "weighted_surface_energy": null,
  "weighted_work_function": null,
  "surface_anisotropy": null,
  "shape_factor": null,
  "has_reconstructed": null,
  "possible_species": null,
  "has_props": null,
  "theoretical": null,
  "database_IDs": null,
  "fields_not_requested": [
    "builder_meta",
    "nsites",
    "elements",
    "nelements",
    "composition",
    "composition_reduced",
    "chemsys",
    "symmetry",
    "property_name",
    "deprecated",
    "deprecation_reasons",
    "last_updated",
    "origins",
    "warnings",
    "task_ids",
    "uncorrected_energy_per_atom",
    "equilibrium_reaction_energy_per_atom",
    "decomposes_to",
    "xas",
    "grain_boundaries",
    "cbm",
    "vbm",
    "is_gap_direct",
    "is_metal",
    "es_source_calc_id",
    "bandstructure",
    "dos",
    "dos_energy_up",
    "dos_energy_down",
    "is_magnetic",
    "ordering",
    "total_magnetization_normalized_vol",
    "total_magnetization_normalized_formula_units",
    "num_magnetic_sites",
    "num_unique_magnetic_sites",
    "types_of_magnetic_species",
    "bulk_modulus",
    "shear_modulus",
    "universal_anisotropy",
    "homogeneous_poisson",
    "e_total",
    "e_ionic",
    "e_electronic",
    "n",
    "e_ij_max",
    "weighted_surface_energy_EV_PER_ANG2",
    "weighted_surface_energy",
    "weighted_work_function",
    "surface_anisotropy",
    "shape_factor",
    "has_reconstructed",
    "possible_species",
    "has_props",
    "theoretical",
    "database_IDs"
  ]
}
