{"builder_meta": null, "nsites": null, "elements": null, "nelements": null, "composition": null, "composition_reduced": null, "formula_pretty": "GdHg3", "formula_anonymous": "AB3", "chemsys": null, "volume": 191.86018044342507, "density": 13.138550786492022, "density_atomic": 23.982522555428133, "symmetry": null, "property_name": null, "material_id": "mp-1078842", "deprecated": null, "deprecation_reasons": null, "last_updated": null, "origins": null, "warnings": null, "structure": {"@module": "pymatgen.core.structure", "@class": "Structure", "charge": 0, "lattice": {"matrix": [[0.0, 0.0, -4.98890687], [-3.33249829, -5.77004926, -0.0], [-3.33249829, 5.77004926, 0.0]], "pbc": [true, true, true], "a": 4.98890687, "b": 6.663258460819262, "c": 6.663258460819262, "alpha": 119.98274147097025, "beta": 90.0, "gamma": 90.0, "volume": 191.86018044342507}, "properties": {}, "sites": [{"species": [{"element": "Gd", "occu": 1}], "abc": [0.75, 0.6666939, 0.3333061], "properties": {"magmom": -7.072}, "label": "Gd", "xyz": [-3.33249829, -1.923664028683028, -3.7416801525]}, {"species": [{"element": "Gd", "occu": 1}], "abc": [0.25, 0.3333061, 0.6666939], "properties": {"magmom": -7.072}, "label": "Gd", "xyz": [-3.33249829, 1.923664028683028, -1.2472267175]}, {"species": [{"element": "Hg", "occu": 1}], "abc": [0.75, 0.163948999999999, 0.32792953], "properties": {"magmom": -0.01}, "label": "Hg", "xyz": [-1.6391843601127105, 0.9461757357809139, -3.7416801525]}, {"species": [{"element": "Hg", "occu": 1}], "abc": [0.75, 0.16406197, 0.83593803], "properties": {"magmom": -0.01}, "label": "Hg", "xyz": [-3.33249829, 3.8767579628147164, -3.7416801525]}, {"species": [{"element": "Hg", "occu": 1}], "abc": [0.75, 0.67207047, 0.836051], "properties": {"magmom": -0.01}, "label": "Hg", "xyz": [-5.025812219887286, 0.946175735780908, -3.7416801525]}, {"species": [{"element": "Hg", "occu": 1}], "abc": [0.25, 0.836051, 0.67207047], "properties": {"magmom": -0.01}, "label": "Hg", "xyz": [-5.025812219887286, -0.946175735780908, -1.2472267175]}, {"species": [{"element": "Hg", "occu": 1}], "abc": [0.25, 0.83593803, 0.16406197], "properties": {"magmom": -0.01}, "label": "Hg", "xyz": [-3.33249829, -3.8767579628147164, -1.2472267175]}, {"species": [{"element": "Hg", "occu": 1}], "abc": [0.25, 0.32792953, 0.163948999999999], "properties": {"magmom": -0.01}, "label": "Hg", "xyz": [-1.6391843601127105, -0.9461757357809139, -1.2472267175]}]}, "task_ids": null, "uncorrected_energy_per_atom": null, "energy_per_atom": -48.27366656875, "formation_energy_per_atom": -0.39856035187500505, "energy_above_hull": 0.0, "is_stable": true, "equilibrium_reaction_energy_per_atom": null, "decomposes_to": null, "xas": null, "grain_boundaries": null, "band_gap": 0.0, "cbm": null, "vbm": null, "efermi": 2.81361919, "is_gap_direct": null, "is_metal": null, "es_source_calc_id": null, "bandstructure": null, "dos": null, "dos_energy_up": null, "dos_energy_down": null, "is_magnetic": null, "ordering": null, "total_magnetization": 14.9723071, "total_magnetization_normalized_vol": null, "total_magnetization_normalized_formula_units": null, "num_magnetic_sites": null, "num_unique_magnetic_sites": null, "types_of_magnetic_species": null, "bulk_modulus": null, "shear_modulus": null, "universal_anisotropy": null, "homogeneous_poisson": null, "e_total": null, "e_ionic": null, "e_electronic": null, "n": null, "e_ij_max": null, "weighted_surface_energy_EV_PER_ANG2": null, "weighted_surface_energy": null, "weighted_work_function": null, "surface_anisotropy": null, "shape_factor": null, "has_reconstructed": null, "possible_species": null, "has_props": null, "theoretical": null, "database_IDs": null, "fields_not_requested": ["builder_meta", "nsites", "elements", "nelements", "composition", "composition_reduced", "chemsys", "symmetry", "property_name", "deprecated", "deprecation_reasons", "last_updated", "origins", "warnings", "task_ids", "uncorrected_energy_per_atom", "equilibrium_reaction_energy_per_atom", "decomposes_to", "xas", "grain_boundaries", "cbm", "vbm", "is_gap_direct", "is_metal", "es_source_calc_id", "bandstructure", "dos", "dos_energy_up", "dos_energy_down", "is_magnetic", "ordering", "total_magnetization_normalized_vol", "total_magnetization_normalized_formula_units", "num_magnetic_sites", "num_unique_magnetic_sites", "types_of_magnetic_species", "bulk_modulus", "shear_modulus", "universal_anisotropy", "homogeneous_poisson", "e_total", "e_ionic", "e_electronic", "n", "e_ij_max", "weighted_surface_energy_EV_PER_ANG2", "weighted_surface_energy", "weighted_work_function", "surface_anisotropy", "shape_factor", "has_reconstructed", "possible_species", "has_props", "theoretical", "database_IDs"]}