{
  "builder_meta": null,
  "nsites": null,
  "elements": null,
  "nelements": null,
  "composition": null,
  "composition_reduced": null,
  "formula_pretty": "GdHo3",
  "formula_anonymous": "AB3",
  "chemsys": null,
  "volume": 126.60460619942411,
  "density": 8.552133446060141,
  "density_atomic": 31.651151549856028,
  "symmetry": null,
  "property_name": null,
  "material_id": "mp-1184743",
  "deprecated": null,
  "deprecation_reasons": null,
  "last_updated": null,
  "origins": null,
  "warnings": null,
  "structure": {
    "@module": "pymatgen.core.structure",
    "@class": "Structure",
    "charge": 0,
    "lattice": {
      "matrix": [
        [-2.50506261, 2.50506261, 5.04373599],
        [2.50506261, -2.50506261, 5.04373599],
        [2.50506261, 2.50506261, -5.04373599]
      ],
      "pbc": [true, true, true],
      "a": 6.163598794280928,
      "b": 6.163598794280928,
      "c": 6.163598794280928,
      "alpha": 132.03864127051762,
      "beta": 132.03864127051762,
      "gamma": 70.16800404712932,
      "volume": 126.60460619942411
    },
    "properties": {},
    "sites": [
      {
        "species": [{ "element": "Gd", "occu": 1 }],
        "abc": [0.0, 0.0, 0.0],
        "properties": { "magmom": 7.33 },
        "label": "Gd",
        "xyz": [0.0, 0.0, 0.0]
      },
      {
        "species": [{ "element": "Ho", "occu": 1 }],
        "abc": [0.75, 0.25, 0.5],
        "properties": { "magmom": 0.064 },
        "label": "Ho",
        "xyz": [-2.220446049250313e-16, 2.5050626100000004, 2.521867995]
      },
      {
        "species": [{ "element": "Ho", "occu": 1 }],
        "abc": [0.25, 0.75, 0.5],
        "properties": { "magmom": 0.064 },
        "label": "Ho",
        "xyz": [2.5050626100000004, -2.220446049250313e-16, 2.521867995]
      },
      {
        "species": [{ "element": "Ho", "occu": 1 }],
        "abc": [0.5, 0.5, 0.0],
        "properties": { "magmom": -0.036000000000000004 },
        "label": "Ho",
        "xyz": [0.0, 0.0, 5.04373599]
      }
    ]
  },
  "task_ids": null,
  "uncorrected_energy_per_atom": null,
  "energy_per_atom": -35.4452092875,
  "formation_energy_per_atom": 0.065049973749999,
  "energy_above_hull": 0.065049973749999,
  "is_stable": false,
  "equilibrium_reaction_energy_per_atom": null,
  "decomposes_to": null,
  "xas": null,
  "grain_boundaries": null,
  "band_gap": 0.0,
  "cbm": null,
  "vbm": null,
  "efermi": 3.1269861,
  "is_gap_direct": null,
  "is_metal": null,
  "es_source_calc_id": null,
  "bandstructure": null,
  "dos": null,
  "dos_energy_up": null,
  "dos_energy_down": null,
  "is_magnetic": null,
  "ordering": null,
  "total_magnetization": 7.97987,
  "total_magnetization_normalized_vol": null,
  "total_magnetization_normalized_formula_units": null,
  "num_magnetic_sites": null,
  "num_unique_magnetic_sites": null,
  "types_of_magnetic_species": null,
  "bulk_modulus": null,
  "shear_modulus": null,
  "universal_anisotropy": null,
  "homogeneous_poisson": null,
  "e_total": null,
  "e_ionic": null,
  "e_electronic": null,
  "n": null,
  "e_ij_max": null,
  "weighted_surface_energy_EV_PER_ANG2": null,
  "weighted_surface_energy": null,
  "weighted_work_function": null,
  "surface_anisotropy": null,
  "shape_factor": null,
  "has_reconstructed": null,
  "possible_species": null,
  "has_props": null,
  "theoretical": null,
  "database_IDs": null,
  "fields_not_requested": [
    "builder_meta",
    "nsites",
    "elements",
    "nelements",
    "composition",
    "composition_reduced",
    "chemsys",
    "symmetry",
    "property_name",
    "deprecated",
    "deprecation_reasons",
    "last_updated",
    "origins",
    "warnings",
    "task_ids",
    "uncorrected_energy_per_atom",
    "equilibrium_reaction_energy_per_atom",
    "decomposes_to",
    "xas",
    "grain_boundaries",
    "cbm",
    "vbm",
    "is_gap_direct",
    "is_metal",
    "es_source_calc_id",
    "bandstructure",
    "dos",
    "dos_energy_up",
    "dos_energy_down",
    "is_magnetic",
    "ordering",
    "total_magnetization_normalized_vol",
    "total_magnetization_normalized_formula_units",
    "num_magnetic_sites",
    "num_unique_magnetic_sites",
    "types_of_magnetic_species",
    "bulk_modulus",
    "shear_modulus",
    "universal_anisotropy",
    "homogeneous_poisson",
    "e_total",
    "e_ionic",
    "e_electronic",
    "n",
    "e_ij_max",
    "weighted_surface_energy_EV_PER_ANG2",
    "weighted_surface_energy",
    "weighted_work_function",
    "surface_anisotropy",
    "shape_factor",
    "has_reconstructed",
    "possible_species",
    "has_props",
    "theoretical",
    "database_IDs"
  ]
}
