{
  "builder_meta": null,
  "nsites": null,
  "elements": null,
  "nelements": null,
  "composition": null,
  "composition_reduced": null,
  "formula_pretty": "GdMn2",
  "formula_anonymous": "AB2",
  "chemsys": null,
  "volume": 96.27412083795923,
  "density": 9.214798417109286,
  "density_atomic": 16.04568680632654,
  "symmetry": null,
  "property_name": null,
  "material_id": "mp-1076939",
  "deprecated": null,
  "deprecation_reasons": null,
  "last_updated": null,
  "origins": null,
  "warnings": null,
  "structure": {
    "@module": "pymatgen.core.structure",
    "@class": "Structure",
    "charge": 0,
    "lattice": {
      "matrix": [
        [0.0, 3.637697, 3.637697],
        [3.637697, 0.0, 3.637697],
        [3.637697, 3.637697, 0.0]
      ],
      "pbc": [true, true, true],
      "a": 5.144480433203921,
      "b": 5.144480433203921,
      "c": 5.144480433203921,
      "alpha": 60.00000000000001,
      "beta": 60.00000000000001,
      "gamma": 60.00000000000001,
      "volume": 96.27412083795923
    },
    "properties": {},
    "sites": [
      {
        "species": [{ "element": "Gd", "occu": 1 }],
        "abc": [0.25, 0.25, 0.25],
        "properties": { "magmom": 6.862 },
        "label": "Gd",
        "xyz": [1.8188485, 1.8188485, 1.8188485]
      },
      {
        "species": [{ "element": "Gd", "occu": 1 }],
        "abc": [0.0, 0.0, 0.0],
        "properties": { "magmom": 6.862 },
        "label": "Gd",
        "xyz": [0.0, 0.0, 0.0]
      },
      {
        "species": [{ "element": "Mn", "occu": 1 }],
        "abc": [0.625, 0.625, 0.125],
        "properties": { "magmom": 1.088 },
        "label": "Mn",
        "xyz": [2.72827275, 2.72827275, 4.54712125]
      },
      {
        "species": [{ "element": "Mn", "occu": 1 }],
        "abc": [0.625, 0.125, 0.625],
        "properties": { "magmom": 1.218 },
        "label": "Mn",
        "xyz": [2.72827275, 4.54712125, 2.72827275]
      },
      {
        "species": [{ "element": "Mn", "occu": 1 }],
        "abc": [0.125, 0.625, 0.625],
        "properties": { "magmom": 1.3820000000000001 },
        "label": "Mn",
        "xyz": [4.54712125, 2.72827275, 2.72827275]
      },
      {
        "species": [{ "element": "Mn", "occu": 1 }],
        "abc": [0.625, 0.625, 0.625],
        "properties": { "magmom": 1.129 },
        "label": "Mn",
        "xyz": [4.54712125, 4.54712125, 4.54712125]
      }
    ]
  },
  "task_ids": null,
  "uncorrected_energy_per_atom": null,
  "energy_per_atom": -24.03624454563219,
  "formation_energy_per_atom": 0.21831367137930602,
  "energy_above_hull": 0.21831367137930902,
  "is_stable": false,
  "equilibrium_reaction_energy_per_atom": null,
  "decomposes_to": null,
  "xas": null,
  "grain_boundaries": null,
  "band_gap": 0.0,
  "cbm": null,
  "vbm": null,
  "efermi": 4.8191546800000005,
  "is_gap_direct": null,
  "is_metal": null,
  "es_source_calc_id": null,
  "bandstructure": null,
  "dos": null,
  "dos_energy_up": null,
  "dos_energy_down": null,
  "is_magnetic": null,
  "ordering": null,
  "total_magnetization": 18.789824,
  "total_magnetization_normalized_vol": null,
  "total_magnetization_normalized_formula_units": null,
  "num_magnetic_sites": null,
  "num_unique_magnetic_sites": null,
  "types_of_magnetic_species": null,
  "bulk_modulus": null,
  "shear_modulus": null,
  "universal_anisotropy": null,
  "homogeneous_poisson": null,
  "e_total": null,
  "e_ionic": null,
  "e_electronic": null,
  "n": null,
  "e_ij_max": null,
  "weighted_surface_energy_EV_PER_ANG2": null,
  "weighted_surface_energy": null,
  "weighted_work_function": null,
  "surface_anisotropy": null,
  "shape_factor": null,
  "has_reconstructed": null,
  "possible_species": null,
  "has_props": null,
  "theoretical": null,
  "database_IDs": null,
  "fields_not_requested": [
    "builder_meta",
    "nsites",
    "elements",
    "nelements",
    "composition",
    "composition_reduced",
    "chemsys",
    "symmetry",
    "property_name",
    "deprecated",
    "deprecation_reasons",
    "last_updated",
    "origins",
    "warnings",
    "task_ids",
    "uncorrected_energy_per_atom",
    "equilibrium_reaction_energy_per_atom",
    "decomposes_to",
    "xas",
    "grain_boundaries",
    "cbm",
    "vbm",
    "is_gap_direct",
    "is_metal",
    "es_source_calc_id",
    "bandstructure",
    "dos",
    "dos_energy_up",
    "dos_energy_down",
    "is_magnetic",
    "ordering",
    "total_magnetization_normalized_vol",
    "total_magnetization_normalized_formula_units",
    "num_magnetic_sites",
    "num_unique_magnetic_sites",
    "types_of_magnetic_species",
    "bulk_modulus",
    "shear_modulus",
    "universal_anisotropy",
    "homogeneous_poisson",
    "e_total",
    "e_ionic",
    "e_electronic",
    "n",
    "e_ij_max",
    "weighted_surface_energy_EV_PER_ANG2",
    "weighted_surface_energy",
    "weighted_work_function",
    "surface_anisotropy",
    "shape_factor",
    "has_reconstructed",
    "possible_species",
    "has_props",
    "theoretical",
    "database_IDs"
  ]
}
