{
  "builder_meta": null,
  "nsites": null,
  "elements": null,
  "nelements": null,
  "composition": null,
  "composition_reduced": null,
  "formula_pretty": "GdMn3",
  "formula_anonymous": "AB3",
  "chemsys": null,
  "volume": 133.1338009556458,
  "density": 8.034024031153557,
  "density_atomic": 16.641725119455725,
  "symmetry": null,
  "property_name": null,
  "material_id": "mp-976591",
  "deprecated": null,
  "deprecation_reasons": null,
  "last_updated": null,
  "origins": null,
  "warnings": null,
  "structure": {
    "@module": "pymatgen.core.structure",
    "@class": "Structure",
    "charge": 0,
    "lattice": {
      "matrix": [
        [2.965338, -5.136116, 0.0],
        [2.965338, 5.136116, 0.0],
        [0.0, 0.0, 4.370683]
      ],
      "pbc": [true, true, true],
      "a": 5.930675932783716,
      "b": 5.930675932783716,
      "c": 4.370683,
      "alpha": 90.0,
      "beta": 90.0,
      "gamma": 119.99999925017089,
      "volume": 133.1338009556458
    },
    "properties": {},
    "sites": [
      {
        "species": [{ "element": "Gd", "occu": 1 }],
        "abc": [0.333333, 0.666667, 0.75],
        "properties": { "magmom": 0.892 },
        "label": "Gd",
        "xyz": [2.965338, 1.7120420907440002, 3.2780122499999997]
      },
      {
        "species": [{ "element": "Gd", "occu": 1 }],
        "abc": [0.666667, 0.333333, 0.25],
        "properties": { "magmom": 0.892 },
        "label": "Gd",
        "xyz": [2.965338, -1.7120420907440002, 1.09267075]
      },
      {
        "species": [{ "element": "Mn", "occu": 1 }],
        "abc": [0.137957, 0.275914, 0.25],
        "properties": { "magmom": -0.731 },
        "label": "Mn",
        "xyz": [1.227267403398, 0.7085631550120001, 1.09267075]
      },
      {
        "species": [{ "element": "Mn", "occu": 1 }],
        "abc": [0.724086, 0.862043, 0.25],
        "properties": { "magmom": -0.839 },
        "label": "Mn",
        "xyz": [4.703408596602, 0.7085631550119995, 1.09267075]
      },
      {
        "species": [{ "element": "Mn", "occu": 1 }],
        "abc": [0.137957, 0.862043, 0.25],
        "properties": { "magmom": -0.6910000000000001 },
        "label": "Mn",
        "xyz": [2.965338, 3.718989689976, 1.09267075]
      },
      {
        "species": [{ "element": "Mn", "occu": 1 }],
        "abc": [0.862043, 0.724086, 0.75],
        "properties": { "magmom": -0.731 },
        "label": "Mn",
        "xyz": [4.703408596602, -0.7085631550119995, 3.2780122499999997]
      },
      {
        "species": [{ "element": "Mn", "occu": 1 }],
        "abc": [0.275914, 0.137957, 0.75],
        "properties": { "magmom": -0.839 },
        "label": "Mn",
        "xyz": [1.227267403398, -0.7085631550120001, 3.2780122499999997]
      },
      {
        "species": [{ "element": "Mn", "occu": 1 }],
        "abc": [0.862043, 0.137957, 0.75],
        "properties": { "magmom": -0.6910000000000001 },
        "label": "Mn",
        "xyz": [2.965338, -3.718989689976, 3.2780122499999997]
      }
    ]
  },
  "task_ids": null,
  "uncorrected_energy_per_atom": null,
  "energy_per_atom": -19.94872414383621,
  "formation_energy_per_atom": 1.913028187801721,
  "energy_above_hull": 1.913028187801721,
  "is_stable": false,
  "equilibrium_reaction_energy_per_atom": null,
  "decomposes_to": null,
  "xas": null,
  "grain_boundaries": null,
  "band_gap": 0.0,
  "cbm": null,
  "vbm": null,
  "efermi": 3.860723349999999,
  "is_gap_direct": null,
  "is_metal": null,
  "es_source_calc_id": null,
  "bandstructure": null,
  "dos": null,
  "dos_energy_up": null,
  "dos_energy_down": null,
  "is_magnetic": null,
  "ordering": null,
  "total_magnetization": 3.392642099999999,
  "total_magnetization_normalized_vol": null,
  "total_magnetization_normalized_formula_units": null,
  "num_magnetic_sites": null,
  "num_unique_magnetic_sites": null,
  "types_of_magnetic_species": null,
  "bulk_modulus": null,
  "shear_modulus": null,
  "universal_anisotropy": null,
  "homogeneous_poisson": null,
  "e_total": null,
  "e_ionic": null,
  "e_electronic": null,
  "n": null,
  "e_ij_max": null,
  "weighted_surface_energy_EV_PER_ANG2": null,
  "weighted_surface_energy": null,
  "weighted_work_function": null,
  "surface_anisotropy": null,
  "shape_factor": null,
  "has_reconstructed": null,
  "possible_species": null,
  "has_props": null,
  "theoretical": null,
  "database_IDs": null,
  "fields_not_requested": [
    "builder_meta",
    "nsites",
    "elements",
    "nelements",
    "composition",
    "composition_reduced",
    "chemsys",
    "symmetry",
    "property_name",
    "deprecated",
    "deprecation_reasons",
    "last_updated",
    "origins",
    "warnings",
    "task_ids",
    "uncorrected_energy_per_atom",
    "equilibrium_reaction_energy_per_atom",
    "decomposes_to",
    "xas",
    "grain_boundaries",
    "cbm",
    "vbm",
    "is_gap_direct",
    "is_metal",
    "es_source_calc_id",
    "bandstructure",
    "dos",
    "dos_energy_up",
    "dos_energy_down",
    "is_magnetic",
    "ordering",
    "total_magnetization_normalized_vol",
    "total_magnetization_normalized_formula_units",
    "num_magnetic_sites",
    "num_unique_magnetic_sites",
    "types_of_magnetic_species",
    "bulk_modulus",
    "shear_modulus",
    "universal_anisotropy",
    "homogeneous_poisson",
    "e_total",
    "e_ionic",
    "e_electronic",
    "n",
    "e_ij_max",
    "weighted_surface_energy_EV_PER_ANG2",
    "weighted_surface_energy",
    "weighted_work_function",
    "surface_anisotropy",
    "shape_factor",
    "has_reconstructed",
    "possible_species",
    "has_props",
    "theoretical",
    "database_IDs"
  ]
}
