{"builder_meta": null, "nsites": null, "elements": null, "nelements": null, "composition": null, "composition_reduced": null, "formula_pretty": "GdNi2", "formula_anonymous": "AB2", "chemsys": null, "volume": 91.23396267065799, "density": 9.997266854938019, "density_atomic": 15.205660445109665, "symmetry": null, "property_name": null, "material_id": "mp-543019", "deprecated": null, "deprecation_reasons": null, "last_updated": null, "origins": null, "warnings": null, "structure": {"@module": "pymatgen.core.structure", "@class": "Structure", "charge": 0, "lattice": {"matrix": [[4.37615493, -2.6630000000000004e-05, 2.52653895], [1.4586964500000001, 4.12585227, 2.52653381], [3.185e-05, 1.6440000000000002e-05, 5.05302444]], "pbc": [true, true, true], "a": 5.053130815439035, "b": 5.053100570954419, "c": 5.053024440127121, "alpha": 59.99991957980279, "beta": 59.999985261256434, "gamma": 60.00059913714344, "volume": 91.23396267065799}, "properties": {}, "sites": [{"species": [{"element": "Gd", "occu": 1}], "abc": [0.87499214, 0.8749931400000001, 0.87500786], "properties": {"magmom": 7.095}, "label": "Gd", "xyz": [5.105478423264945, 3.6100835169919585, 8.842837576154015]}, {"species": [{"element": "Gd", "occu": 1}], "abc": [0.12500786, 0.12500686, 0.12499214], "properties": {"magmom": 7.095}, "label": "Gd", "xyz": [0.7294048067350559, 0.5157585630080421, 1.2632596238459852]}, {"species": [{"element": "Ni", "occu": 1}], "abc": [0.5, 0.5, 0.5], "properties": {"magmom": -0.199}, "label": "Ni", "xyz": [2.917441615, 2.06292104, 5.0530486]}, {"species": [{"element": "Ni", "occu": 1}], "abc": [0.5, 0.5, 0.0], "properties": {"magmom": -0.199}, "label": "Ni", "xyz": [2.91742569, 2.06291282, 2.52653638]}, {"species": [{"element": "Ni", "occu": 1}], "abc": [-0.0, 0.5, 0.5], "properties": {"magmom": -0.199}, "label": "Ni", "xyz": [0.7293641500000001, 2.062934355, 3.789779125]}, {"species": [{"element": "Ni", "occu": 1}], "abc": [0.5, -0.0, 0.5], "properties": {"magmom": -0.199}, "label": "Ni", "xyz": [2.18809339, -5.095000000000001e-06, 3.789781695]}]}, "task_ids": null, "uncorrected_energy_per_atom": null, "energy_per_atom": -8.959365955, "formation_energy_per_atom": -0.413900755, "energy_above_hull": 0.0, "is_stable": true, "equilibrium_reaction_energy_per_atom": null, "decomposes_to": null, "xas": null, "grain_boundaries": null, "band_gap": 0.0, "cbm": null, "vbm": null, "efermi": 5.94032584, "is_gap_direct": null, "is_metal": null, "es_source_calc_id": null, "bandstructure": null, "dos": null, "dos_energy_up": null, "dos_energy_down": null, "is_magnetic": null, "ordering": null, "total_magnetization": 14.0760343, "total_magnetization_normalized_vol": null, "total_magnetization_normalized_formula_units": null, "num_magnetic_sites": null, "num_unique_magnetic_sites": null, "types_of_magnetic_species": null, "bulk_modulus": null, "shear_modulus": null, "universal_anisotropy": null, "homogeneous_poisson": null, "e_total": null, "e_ionic": null, "e_electronic": null, "n": null, "e_ij_max": null, "weighted_surface_energy_EV_PER_ANG2": null, "weighted_surface_energy": null, "weighted_work_function": null, "surface_anisotropy": null, "shape_factor": null, "has_reconstructed": null, "possible_species": null, "has_props": null, "theoretical": null, "database_IDs": null, "fields_not_requested": ["builder_meta", "nsites", "elements", "nelements", "composition", "composition_reduced", "chemsys", "symmetry", "property_name", "deprecated", "deprecation_reasons", "last_updated", "origins", "warnings", "task_ids", "uncorrected_energy_per_atom", "equilibrium_reaction_energy_per_atom", "decomposes_to", "xas", "grain_boundaries", "cbm", "vbm", "is_gap_direct", "is_metal", "es_source_calc_id", "bandstructure", "dos", "dos_energy_up", "dos_energy_down", "is_magnetic", "ordering", "total_magnetization_normalized_vol", "total_magnetization_normalized_formula_units", "num_magnetic_sites", "num_unique_magnetic_sites", "types_of_magnetic_species", "bulk_modulus", "shear_modulus", "universal_anisotropy", "homogeneous_poisson", "e_total", "e_ionic", "e_electronic", "n", "e_ij_max", "weighted_surface_energy_EV_PER_ANG2", "weighted_surface_energy", "weighted_work_function", "surface_anisotropy", "shape_factor", "has_reconstructed", "possible_species", "has_props", "theoretical", "database_IDs"]}