{
  "builder_meta": null,
  "nsites": null,
  "elements": null,
  "nelements": null,
  "composition": null,
  "composition_reduced": null,
  "formula_pretty": "GdNi",
  "formula_anonymous": "AB",
  "chemsys": null,
  "volume": 81.24658667290736,
  "density": 8.827015793735592,
  "density_atomic": 20.31164666822684,
  "symmetry": null,
  "property_name": null,
  "material_id": "mp-542632",
  "deprecated": null,
  "deprecation_reasons": null,
  "last_updated": null,
  "origins": null,
  "warnings": null,
  "structure": {
    "@module": "pymatgen.core.structure",
    "@class": "Structure",
    "charge": 0,
    "lattice": {
      "matrix": [
        [3.5426666, 0.0, -1.29128675],
        [0.0, 4.17482976, 0.0],
        [-0.00385678, 0.0, 5.49474061]
      ],
      "pbc": [true, true, true],
      "a": 3.7706641470013107,
      "b": 4.17482976,
      "c": 5.494741963544342,
      "alpha": 90.0,
      "beta": 110.06679686840097,
      "gamma": 90.0,
      "volume": 81.24658667290736
    },
    "properties": {},
    "sites": [
      {
        "species": [{ "element": "Gd", "occu": 1 }],
        "abc": [0.86084263, 0.25, 0.72168625],
        "properties": { "magmom": -7.148 },
        "label": "Gd",
        "xyz": [3.046895048061883, 1.04370744, 2.85388406359946]
      },
      {
        "species": [{ "element": "Gd", "occu": 1 }],
        "abc": [0.13915737, 0.75, 0.27831375],
        "properties": { "magmom": -7.148 },
        "label": "Gd",
        "xyz": [0.491914771938117, 3.13112232, 1.34956979640054]
      },
      {
        "species": [{ "element": "Ni", "occu": 1 }],
        "abc": [0.43004308, 0.75, 0.86008615],
        "properties": { "magmom": 0.17500000000000002 },
        "label": "Ni",
        "xyz": [1.5201820930155312, 3.13112232, 4.170641365370361]
      },
      {
        "species": [{ "element": "Ni", "occu": 1 }],
        "abc": [0.56995692, 0.25, 0.13991385],
        "properties": { "magmom": 0.17500000000000002 },
        "label": "Ni",
        "xyz": [2.018627726984469, 1.04370744, 0.03281249462963853]
      }
    ]
  },
  "task_ids": null,
  "uncorrected_energy_per_atom": null,
  "energy_per_atom": -10.338368395,
  "formation_energy_per_atom": -0.41023893499999803,
  "energy_above_hull": 0.0,
  "is_stable": true,
  "equilibrium_reaction_energy_per_atom": null,
  "decomposes_to": null,
  "xas": null,
  "grain_boundaries": null,
  "band_gap": 0.0,
  "cbm": null,
  "vbm": null,
  "efermi": 4.41516007,
  "is_gap_direct": null,
  "is_metal": null,
  "es_source_calc_id": null,
  "bandstructure": null,
  "dos": null,
  "dos_energy_up": null,
  "dos_energy_down": null,
  "is_magnetic": null,
  "ordering": null,
  "total_magnetization": 14.8865277,
  "total_magnetization_normalized_vol": null,
  "total_magnetization_normalized_formula_units": null,
  "num_magnetic_sites": null,
  "num_unique_magnetic_sites": null,
  "types_of_magnetic_species": null,
  "bulk_modulus": null,
  "shear_modulus": null,
  "universal_anisotropy": null,
  "homogeneous_poisson": null,
  "e_total": null,
  "e_ionic": null,
  "e_electronic": null,
  "n": null,
  "e_ij_max": null,
  "weighted_surface_energy_EV_PER_ANG2": null,
  "weighted_surface_energy": null,
  "weighted_work_function": null,
  "surface_anisotropy": null,
  "shape_factor": null,
  "has_reconstructed": null,
  "possible_species": null,
  "has_props": null,
  "theoretical": null,
  "database_IDs": null,
  "fields_not_requested": [
    "builder_meta",
    "nsites",
    "elements",
    "nelements",
    "composition",
    "composition_reduced",
    "chemsys",
    "symmetry",
    "property_name",
    "deprecated",
    "deprecation_reasons",
    "last_updated",
    "origins",
    "warnings",
    "task_ids",
    "uncorrected_energy_per_atom",
    "equilibrium_reaction_energy_per_atom",
    "decomposes_to",
    "xas",
    "grain_boundaries",
    "cbm",
    "vbm",
    "is_gap_direct",
    "is_metal",
    "es_source_calc_id",
    "bandstructure",
    "dos",
    "dos_energy_up",
    "dos_energy_down",
    "is_magnetic",
    "ordering",
    "total_magnetization_normalized_vol",
    "total_magnetization_normalized_formula_units",
    "num_magnetic_sites",
    "num_unique_magnetic_sites",
    "types_of_magnetic_species",
    "bulk_modulus",
    "shear_modulus",
    "universal_anisotropy",
    "homogeneous_poisson",
    "e_total",
    "e_ionic",
    "e_electronic",
    "n",
    "e_ij_max",
    "weighted_surface_energy_EV_PER_ANG2",
    "weighted_surface_energy",
    "weighted_work_function",
    "surface_anisotropy",
    "shape_factor",
    "has_reconstructed",
    "possible_species",
    "has_props",
    "theoretical",
    "database_IDs"
  ]
}
