{
  "builder_meta": null,
  "nsites": null,
  "elements": null,
  "nelements": null,
  "composition": null,
  "composition_reduced": null,
  "formula_pretty": "GdNi3",
  "formula_anonymous": "AB3",
  "chemsys": null,
  "volume": 173.01871527105646,
  "density": 9.597363238603098,
  "density_atomic": 14.418226272588038,
  "symmetry": null,
  "property_name": null,
  "material_id": "mp-1101986",
  "deprecated": null,
  "deprecation_reasons": null,
  "last_updated": null,
  "origins": null,
  "warnings": null,
  "structure": {
    "@module": "pymatgen.core.structure",
    "@class": "Structure",
    "charge": 0,
    "lattice": {
      "matrix": [
        [-2.469419, -4.277159, 0.0],
        [2.469419, -4.277159, 0.0],
        [0.0, -2.851439, 8.190547]
      ],
      "pbc": [true, true, true],
      "a": 4.938837850025246,
      "b": 4.938837850025246,
      "c": 8.672702262266935,
      "alpha": 73.45701377127588,
      "beta": 73.45701377127588,
      "gamma": 60.00000200902522,
      "volume": 173.01871527105646
    },
    "properties": {},
    "sites": [
      {
        "species": [{ "element": "Gd", "occu": 1 }],
        "abc": [0.0, 0.0, 0.0],
        "properties": { "magmom": 6.987 },
        "label": "Gd",
        "xyz": [0.0, 0.0, 0.0]
      },
      {
        "species": [{ "element": "Gd", "occu": 1 }],
        "abc": [0.138844, 0.138844, 0.583467],
        "properties": { "magmom": 6.996 },
        "label": "Gd",
        "xyz": [0.0, -2.851436287405, 4.778913886449]
      },
      {
        "species": [{ "element": "Gd", "occu": 1 }],
        "abc": [0.861155999999999, 0.861155999999999, 0.416533],
        "properties": { "magmom": 6.994 },
        "label": "Gd",
        "xyz": [0.0, -8.554320712594993, 3.4116331135510003]
      },
      {
        "species": [{ "element": "Ni", "occu": 1 }],
        "abc": [0.5, 0.5, 0.5],
        "properties": { "magmom": 0.07100000000000001 },
        "label": "Ni",
        "xyz": [0.0, -5.702878500000001, 4.0952735]
      },
      {
        "species": [{ "element": "Ni", "occu": 1 }],
        "abc": [0.332847, 0.332847, 0.0014600000000000001],
        "properties": { "magmom": 0.05 },
        "label": "Ni",
        "xyz": [0.0, -2.8514421842860003, 0.011958198620000002]
      },
      {
        "species": [{ "element": "Ni", "occu": 1 }],
        "abc": [0.667153, 0.667153, 0.9985400000000001],
        "properties": { "magmom": 0.051000000000000004 },
        "label": "Ni",
        "xyz": [0.0, -8.554314815714001, 8.178588801380002]
      },
      {
        "species": [{ "element": "Ni", "occu": 1 }],
        "abc": [0.082121, 0.581398, 0.755081999999999],
        "properties": { "magmom": 0.064 },
        "label": "Ni",
        "xyz": [1.2329241100629997, -4.991046525518997, 6.184534609853992]
      },
      {
        "species": [{ "element": "Ni", "occu": 1 }],
        "abc": [0.581398, 0.581398, 0.755081999999999],
        "properties": { "magmom": 0.064 },
        "label": "Ni",
        "xyz": [0.0, -7.126533639561997, 6.184534609853992]
      },
      {
        "species": [{ "element": "Ni", "occu": 1 }],
        "abc": [0.581398, 0.082121, 0.755081999999999],
        "properties": { "magmom": 0.064 },
        "label": "Ni",
        "xyz": [-1.2329241100629997, -4.991046525518997, 6.184534609853992]
      },
      {
        "species": [{ "element": "Ni", "occu": 1 }],
        "abc": [0.917879, 0.418602, 0.244918],
        "properties": { "magmom": 0.073 },
        "label": "Ni",
        "xyz": [-1.232924110063, -6.414710474481001, 2.006012390146]
      },
      {
        "species": [{ "element": "Ni", "occu": 1 }],
        "abc": [0.418602, 0.418602, 0.244918],
        "properties": { "magmom": 0.073 },
        "label": "Ni",
        "xyz": [0.0, -4.2792233604379994, 2.006012390146]
      },
      {
        "species": [{ "element": "Ni", "occu": 1 }],
        "abc": [0.418602, 0.917879, 0.244918],
        "properties": { "magmom": 0.073 },
        "label": "Ni",
        "xyz": [1.232924110063, -6.414710474481001, 2.006012390146]
      }
    ]
  },
  "task_ids": null,
  "uncorrected_energy_per_atom": null,
  "energy_per_atom": -8.2375557,
  "formation_energy_per_atom": -0.38342262999999904,
  "energy_above_hull": 0.0,
  "is_stable": true,
  "equilibrium_reaction_energy_per_atom": null,
  "decomposes_to": null,
  "xas": null,
  "grain_boundaries": null,
  "band_gap": 0.0,
  "cbm": null,
  "vbm": null,
  "efermi": 6.16523687,
  "is_gap_direct": null,
  "is_metal": null,
  "es_source_calc_id": null,
  "bandstructure": null,
  "dos": null,
  "dos_energy_up": null,
  "dos_energy_down": null,
  "is_magnetic": null,
  "ordering": null,
  "total_magnetization": 21.8485911,
  "total_magnetization_normalized_vol": null,
  "total_magnetization_normalized_formula_units": null,
  "num_magnetic_sites": null,
  "num_unique_magnetic_sites": null,
  "types_of_magnetic_species": null,
  "bulk_modulus": null,
  "shear_modulus": null,
  "universal_anisotropy": null,
  "homogeneous_poisson": null,
  "e_total": null,
  "e_ionic": null,
  "e_electronic": null,
  "n": null,
  "e_ij_max": null,
  "weighted_surface_energy_EV_PER_ANG2": null,
  "weighted_surface_energy": null,
  "weighted_work_function": null,
  "surface_anisotropy": null,
  "shape_factor": null,
  "has_reconstructed": null,
  "possible_species": null,
  "has_props": null,
  "theoretical": null,
  "database_IDs": null,
  "fields_not_requested": [
    "builder_meta",
    "nsites",
    "elements",
    "nelements",
    "composition",
    "composition_reduced",
    "chemsys",
    "symmetry",
    "property_name",
    "deprecated",
    "deprecation_reasons",
    "last_updated",
    "origins",
    "warnings",
    "task_ids",
    "uncorrected_energy_per_atom",
    "equilibrium_reaction_energy_per_atom",
    "decomposes_to",
    "xas",
    "grain_boundaries",
    "cbm",
    "vbm",
    "is_gap_direct",
    "is_metal",
    "es_source_calc_id",
    "bandstructure",
    "dos",
    "dos_energy_up",
    "dos_energy_down",
    "is_magnetic",
    "ordering",
    "total_magnetization_normalized_vol",
    "total_magnetization_normalized_formula_units",
    "num_magnetic_sites",
    "num_unique_magnetic_sites",
    "types_of_magnetic_species",
    "bulk_modulus",
    "shear_modulus",
    "universal_anisotropy",
    "homogeneous_poisson",
    "e_total",
    "e_ionic",
    "e_electronic",
    "n",
    "e_ij_max",
    "weighted_surface_energy_EV_PER_ANG2",
    "weighted_surface_energy",
    "weighted_work_function",
    "surface_anisotropy",
    "shape_factor",
    "has_reconstructed",
    "possible_species",
    "has_props",
    "theoretical",
    "database_IDs"
  ]
}
