{"builder_meta": null, "nsites": null, "elements": null, "nelements": null, "composition": null, "composition_reduced": null, "formula_pretty": "GdO2", "formula_anonymous": "AB2", "chemsys": null, "volume": 91.89687358949598, "density": 6.839297430529564, "density_atomic": 15.31614559824933, "symmetry": null, "property_name": null, "material_id": "mp-1181235", "deprecated": null, "deprecation_reasons": null, "last_updated": null, "origins": null, "warnings": null, "structure": {"@module": "pymatgen.core.structure", "@class": "Structure", "charge": 0, "lattice": {"matrix": [[0.0, -3.728709, 0.0], [-4.184418, 0.0, 0.0], [1.520795999999999, 0.0, -5.88989]], "pbc": [true, true, true], "a": 3.728709, "b": 4.184418, "c": 6.083060470332019, "alpha": 104.47781260426663, "beta": 90.0, "gamma": 90.0, "volume": 91.89687358949598}, "properties": {}, "sites": [{"species": [{"element": "Gd", "occu": 1}], "abc": [0.25, 0.680943, 0.797879], "properties": {"magmom": 6.855}, "label": "Gd", "xyz": [-1.6359389544900007, -0.93217725, -4.69941954331]}, {"species": [{"element": "Gd", "occu": 1}], "abc": [0.75, 0.319057, 0.202121], "properties": {"magmom": 6.855}, "label": "Gd", "xyz": [-1.0276830455100001, -2.7965317499999998, -1.19047045669]}, {"species": [{"element": "O", "occu": 1}], "abc": [0.25, 0.239448, 0.956788], "properties": {"magmom": -0.11800000000000001}, "label": "O", "xyz": [0.45312884198399916, -0.93217725, -5.63537607332]}, {"species": [{"element": "O", "occu": 1}], "abc": [0.75, 0.760552, 0.043212], "properties": {"magmom": -0.11800000000000001}, "label": "O", "xyz": [-3.116750841984, -2.7965317499999998, -0.25451392668]}, {"species": [{"element": "O", "occu": 1}], "abc": [0.25, 0.300524, 0.440984999999999], "properties": {"magmom": -0.65}, "label": "O", "xyz": [-0.5868698109720021, -0.93217725, -2.5973531416499944]}, {"species": [{"element": "O", "occu": 1}], "abc": [0.75, 0.699476, 0.559014999999999], "properties": {"magmom": -0.65}, "label": "O", "xyz": [-2.076752189028002, -2.7965317499999998, -3.2925368583499943]}]}, "task_ids": null, "uncorrected_energy_per_atom": null, "energy_per_atom": -11.093368861666667, "formation_energy_per_atom": -3.102687444999999, "energy_above_hull": 0.143489048333334, "is_stable": false, "equilibrium_reaction_energy_per_atom": null, "decomposes_to": null, "xas": null, "grain_boundaries": null, "band_gap": 0.0, "cbm": null, "vbm": null, "efermi": 0.76123556, "is_gap_direct": null, "is_metal": null, "es_source_calc_id": null, "bandstructure": null, "dos": null, "dos_energy_up": null, "dos_energy_down": null, "is_magnetic": null, "ordering": null, "total_magnetization": 11.9949107, "total_magnetization_normalized_vol": null, "total_magnetization_normalized_formula_units": null, "num_magnetic_sites": null, "num_unique_magnetic_sites": null, "types_of_magnetic_species": null, "bulk_modulus": null, "shear_modulus": null, "universal_anisotropy": null, "homogeneous_poisson": null, "e_total": null, "e_ionic": null, "e_electronic": null, "n": null, "e_ij_max": null, "weighted_surface_energy_EV_PER_ANG2": null, "weighted_surface_energy": null, "weighted_work_function": null, "surface_anisotropy": null, "shape_factor": null, "has_reconstructed": null, "possible_species": null, "has_props": null, "theoretical": null, "database_IDs": null, "fields_not_requested": ["builder_meta", "nsites", "elements", "nelements", "composition", "composition_reduced", "chemsys", "symmetry", "property_name", "deprecated", "deprecation_reasons", "last_updated", "origins", "warnings", "task_ids", "uncorrected_energy_per_atom", "equilibrium_reaction_energy_per_atom", "decomposes_to", "xas", "grain_boundaries", "cbm", "vbm", "is_gap_direct", "is_metal", "es_source_calc_id", "bandstructure", "dos", "dos_energy_up", "dos_energy_down", "is_magnetic", "ordering", "total_magnetization_normalized_vol", "total_magnetization_normalized_formula_units", "num_magnetic_sites", "num_unique_magnetic_sites", "types_of_magnetic_species", "bulk_modulus", "shear_modulus", "universal_anisotropy", "homogeneous_poisson", "e_total", "e_ionic", "e_electronic", "n", "e_ij_max", "weighted_surface_energy_EV_PER_ANG2", "weighted_surface_energy", "weighted_work_function", "surface_anisotropy", "shape_factor", "has_reconstructed", "possible_species", "has_props", "theoretical", "database_IDs"]}