{"builder_meta": null, "nsites": null, "elements": null, "nelements": null, "composition": null, "composition_reduced": null, "formula_pretty": "GdO3", "formula_anonymous": "AB3", "chemsys": null, "volume": 115.74524540667679, "density": 5.889186259907824, "density_atomic": 14.468155675834598, "symmetry": null, "property_name": null, "material_id": "mp-1206505", "deprecated": null, "deprecation_reasons": null, "last_updated": null, "origins": null, "warnings": null, "structure": {"@module": "pymatgen.core.structure", "@class": "Structure", "charge": 0, "lattice": {"matrix": [[3.042193, -5.269232, 0.0], [3.042193, 5.269232, 0.0], [0.0, 0.0, 3.610265]], "pbc": [true, true, true], "a": 6.084385270433899, "b": 6.084385270433899, "c": 3.610265, "alpha": 90.0, "beta": 90.0, "gamma": 119.99999206695443, "volume": 115.74524540667679}, "properties": {}, "sites": [{"species": [{"element": "Gd", "occu": 1}], "abc": [0.666667, 0.333333, 0.75], "properties": {"magmom": 6.841}, "label": "Gd", "xyz": [3.042193, -1.756414179488, 2.70769875]}, {"species": [{"element": "Gd", "occu": 1}], "abc": [0.333333, 0.666667, 0.25], "properties": {"magmom": 6.84}, "label": "Gd", "xyz": [3.042193, 1.756414179488, 0.90256625]}, {"species": [{"element": "O", "occu": 1}], "abc": [0.590425, 0.676975, 0.75], "properties": {"magmom": 0.064}, "label": "O", "xyz": [3.8556754081999998, 0.45605202960000035, 2.70769875]}, {"species": [{"element": "O", "occu": 1}], "abc": [0.409574999999999, 0.323025, 0.25], "properties": {"magmom": 0.064}, "label": "O", "xyz": [2.228710591799997, -0.4560520295999948, 0.90256625]}, {"species": [{"element": "O", "occu": 1}], "abc": [0.08655, 0.409574999999999, 0.75], "properties": {"magmom": 0.044}, "label": "O", "xyz": [1.509308002124997, 1.7020936667999949, 2.70769875]}, {"species": [{"element": "O", "occu": 1}], "abc": [0.9134500000000001, 0.590425, 0.25], "properties": {"magmom": 0.039}, "label": "O", "xyz": [4.575077997875001, -1.7020936668000006, 0.90256625]}, {"species": [{"element": "O", "occu": 1}], "abc": [0.323025, 0.9134500000000001, 0.75], "properties": {"magmom": 0.029}, "label": "O", "xyz": [3.7615955896750006, 3.1110863036000005, 2.70769875]}, {"species": [{"element": "O", "occu": 1}], "abc": [0.676975, 0.08655, 0.25], "properties": {"magmom": 0.03}, "label": "O", "xyz": [2.322790410325, -3.1110863036, 0.90256625]}]}, "task_ids": null, "uncorrected_energy_per_atom": null, "energy_per_atom": -8.99639736625, "formation_energy_per_atom": -1.766396052499999, "energy_above_hull": 0.668236317500001, "is_stable": false, "equilibrium_reaction_energy_per_atom": null, "decomposes_to": null, "xas": null, "grain_boundaries": null, "band_gap": 0.0, "cbm": null, "vbm": null, "efermi": -0.49632998, "is_gap_direct": null, "is_metal": null, "es_source_calc_id": null, "bandstructure": null, "dos": null, "dos_energy_up": null, "dos_energy_down": null, "is_magnetic": null, "ordering": null, "total_magnetization": 14.2774439, "total_magnetization_normalized_vol": null, "total_magnetization_normalized_formula_units": null, "num_magnetic_sites": null, "num_unique_magnetic_sites": null, "types_of_magnetic_species": null, "bulk_modulus": null, "shear_modulus": null, "universal_anisotropy": null, "homogeneous_poisson": null, "e_total": null, "e_ionic": null, "e_electronic": null, "n": null, "e_ij_max": null, "weighted_surface_energy_EV_PER_ANG2": null, "weighted_surface_energy": null, "weighted_work_function": null, "surface_anisotropy": null, "shape_factor": null, "has_reconstructed": null, "possible_species": null, "has_props": null, "theoretical": null, "database_IDs": null, "fields_not_requested": ["builder_meta", "nsites", "elements", "nelements", "composition", "composition_reduced", "chemsys", "symmetry", "property_name", "deprecated", "deprecation_reasons", "last_updated", "origins", "warnings", "task_ids", "uncorrected_energy_per_atom", "equilibrium_reaction_energy_per_atom", "decomposes_to", "xas", "grain_boundaries", "cbm", "vbm", "is_gap_direct", "is_metal", "es_source_calc_id", "bandstructure", "dos", "dos_energy_up", "dos_energy_down", "is_magnetic", "ordering", "total_magnetization_normalized_vol", "total_magnetization_normalized_formula_units", "num_magnetic_sites", "num_unique_magnetic_sites", "types_of_magnetic_species", "bulk_modulus", "shear_modulus", "universal_anisotropy", "homogeneous_poisson", "e_total", "e_ionic", "e_electronic", "n", "e_ij_max", "weighted_surface_energy_EV_PER_ANG2", "weighted_surface_energy", "weighted_work_function", "surface_anisotropy", "shape_factor", "has_reconstructed", "possible_species", "has_props", "theoretical", "database_IDs"]}