{
  "builder_meta": null,
  "nsites": null,
  "elements": null,
  "nelements": null,
  "composition": null,
  "composition_reduced": null,
  "formula_pretty": "GdOs2",
  "formula_anonymous": "AB2",
  "chemsys": null,
  "volume": 217.98966124619935,
  "density": 16.384051544408802,
  "density_atomic": 18.165805103849944,
  "symmetry": null,
  "property_name": null,
  "material_id": "mp-510184",
  "deprecated": null,
  "deprecation_reasons": null,
  "last_updated": null,
  "origins": null,
  "warnings": null,
  "structure": {
    "@module": "pymatgen.core.structure",
    "@class": "Structure",
    "charge": 0,
    "lattice": {
      "matrix": [
        [5.29662796, 1.02e-6, -0.0],
        [-2.64831245, 4.58702568, -0.0],
        [-0.0, 0.0, 8.97232937]
      ],
      "pbc": [true, true, true],
      "a": 5.296627960000098,
      "b": 5.29663699169619,
      "c": 8.97232937,
      "alpha": 90.0,
      "beta": 90.0,
      "gamma": 119.99991344852714,
      "volume": 217.98966124619935
    },
    "properties": {},
    "sites": [
      {
        "species": [{ "element": "Gd", "occu": 1 }],
        "abc": [0.333333, 0.666667, 0.06595523],
        "properties": { "magmom": -7.021 },
        "label": "Gd",
        "xyz": [-1.628313470058984e-6, 3.05801898900822, 0.5917720472341051]
      },
      {
        "species": [{ "element": "Gd", "occu": 1 }],
        "abc": [0.666667, 0.333333, 0.56595523],
        "properties": { "magmom": -7.021 },
        "label": "Gd",
        "xyz": [2.64831713831347, 1.52900771099178, 5.077936732234106]
      },
      {
        "species": [{ "element": "Gd", "occu": 1 }],
        "abc": [0.666667, 0.333333, 0.93404477],
        "properties": { "magmom": -7.021 },
        "label": "Gd",
        "xyz": [2.64831713831347, 1.52900771099178, 8.380557322765895]
      },
      {
        "species": [{ "element": "Gd", "occu": 1 }],
        "abc": [0.333333, 0.666667, 0.43404477],
        "properties": { "magmom": -7.021 },
        "label": "Gd",
        "xyz": [-1.628313470058984e-6, 3.05801898900822, 3.8943926377658955]
      },
      {
        "species": [{ "element": "Os", "occu": 1 }],
        "abc": [-0.0, 0.0, -0.0],
        "properties": { "magmom": 0.225 },
        "label": "Os",
        "xyz": [0.0, 0.0, 0.0]
      },
      {
        "species": [{ "element": "Os", "occu": 1 }],
        "abc": [-0.0, 0.0, 0.5],
        "properties": { "magmom": 0.225 },
        "label": "Os",
        "xyz": [0.0, 0.0, 4.486164685]
      },
      {
        "species": [{ "element": "Os", "occu": 1 }],
        "abc": [0.8294741800000001, 0.6589483700000001, 0.25],
        "properties": { "magmom": 0.268 },
        "label": "Os",
        "xyz": [2.6483149617078663, 3.0226139410478052, 2.2430823425]
      },
      {
        "species": [{ "element": "Os", "occu": 1 }],
        "abc": [0.17052482, 0.82947518, 0.75],
        "properties": { "magmom": 0.268 },
        "label": "Os",
        "xyz": [-1.2935029166740237, 3.8048241255179387, 6.7292470275000005]
      },
      {
        "species": [{ "element": "Os", "occu": 1 }],
        "abc": [0.6589483700000001, 0.8294741800000001, 0.75],
        "properties": { "magmom": 0.268 },
        "label": "Os",
        "xyz": [1.2934975628908845, 3.80482003668428, 6.7292470275000005]
      },
      {
        "species": [{ "element": "Os", "occu": 1 }],
        "abc": [0.34105163, 0.17052582, 0.25],
        "properties": { "magmom": 0.268 },
        "label": "Os",
        "xyz": [1.354817947109116, 0.7822066633157201, 2.2430823425]
      },
      {
        "species": [{ "element": "Os", "occu": 1 }],
        "abc": [0.82947518, 0.17052482, 0.25],
        "properties": { "magmom": 0.268 },
        "label": "Os",
        "xyz": [3.941818426674024, 0.7822025744820612, 2.2430823425]
      },
      {
        "species": [{ "element": "Os", "occu": 1 }],
        "abc": [0.17052582, 0.34105163, 0.75],
        "properties": { "magmom": 0.268 },
        "label": "Os",
        "xyz": [5.482921336952273e-7, 1.5644127589521948, 6.7292470275000005]
      }
    ]
  },
  "task_ids": null,
  "uncorrected_energy_per_atom": null,
  "energy_per_atom": -50.07208404,
  "formation_energy_per_atom": -0.282929706666673,
  "energy_above_hull": 0.0,
  "is_stable": true,
  "equilibrium_reaction_energy_per_atom": null,
  "decomposes_to": null,
  "xas": null,
  "grain_boundaries": null,
  "band_gap": 0.0,
  "cbm": null,
  "vbm": null,
  "efermi": 5.96956314,
  "is_gap_direct": null,
  "is_metal": null,
  "es_source_calc_id": null,
  "bandstructure": null,
  "dos": null,
  "dos_energy_up": null,
  "dos_energy_down": null,
  "is_magnetic": null,
  "ordering": null,
  "total_magnetization": 27.1746668,
  "total_magnetization_normalized_vol": null,
  "total_magnetization_normalized_formula_units": null,
  "num_magnetic_sites": null,
  "num_unique_magnetic_sites": null,
  "types_of_magnetic_species": null,
  "bulk_modulus": null,
  "shear_modulus": null,
  "universal_anisotropy": null,
  "homogeneous_poisson": null,
  "e_total": null,
  "e_ionic": null,
  "e_electronic": null,
  "n": null,
  "e_ij_max": null,
  "weighted_surface_energy_EV_PER_ANG2": null,
  "weighted_surface_energy": null,
  "weighted_work_function": null,
  "surface_anisotropy": null,
  "shape_factor": null,
  "has_reconstructed": null,
  "possible_species": null,
  "has_props": null,
  "theoretical": null,
  "database_IDs": null,
  "fields_not_requested": [
    "builder_meta",
    "nsites",
    "elements",
    "nelements",
    "composition",
    "composition_reduced",
    "chemsys",
    "symmetry",
    "property_name",
    "deprecated",
    "deprecation_reasons",
    "last_updated",
    "origins",
    "warnings",
    "task_ids",
    "uncorrected_energy_per_atom",
    "equilibrium_reaction_energy_per_atom",
    "decomposes_to",
    "xas",
    "grain_boundaries",
    "cbm",
    "vbm",
    "is_gap_direct",
    "is_metal",
    "es_source_calc_id",
    "bandstructure",
    "dos",
    "dos_energy_up",
    "dos_energy_down",
    "is_magnetic",
    "ordering",
    "total_magnetization_normalized_vol",
    "total_magnetization_normalized_formula_units",
    "num_magnetic_sites",
    "num_unique_magnetic_sites",
    "types_of_magnetic_species",
    "bulk_modulus",
    "shear_modulus",
    "universal_anisotropy",
    "homogeneous_poisson",
    "e_total",
    "e_ionic",
    "e_electronic",
    "n",
    "e_ij_max",
    "weighted_surface_energy_EV_PER_ANG2",
    "weighted_surface_energy",
    "weighted_work_function",
    "surface_anisotropy",
    "shape_factor",
    "has_reconstructed",
    "possible_species",
    "has_props",
    "theoretical",
    "database_IDs"
  ]
}
