{"builder_meta": null, "nsites": null, "elements": null, "nelements": null, "composition": null, "composition_reduced": null, "formula_pretty": "GdP5", "formula_anonymous": "AB5", "chemsys": null, "volume": 248.08981822424656, "density": 4.17820836933524, "density_atomic": 20.674151518687214, "symmetry": null, "property_name": null, "material_id": "mp-680742", "deprecated": null, "deprecation_reasons": null, "last_updated": null, "origins": null, "warnings": null, "structure": {"@module": "pymatgen.core.structure", "@class": "Structure", "charge": 0, "lattice": {"matrix": [[4.9844509200000005, 0.01393203, 0.0], [-1.167116829999999, 5.26035897, 0.0], [0.0, 0.0, 9.45598972]], "pbc": [true, true, true], "a": 4.984470390658246, "b": 5.3882778499376505, "c": 9.45598972, "alpha": 90.0, "beta": 90.0, "gamma": 102.34943842862108, "volume": 248.0898182242466}, "properties": {}, "sites": [{"species": [{"element": "Gd", "occu": 1}], "abc": [0.00595026, 0.35011832, 0.25], "properties": {"magmom": -6.937}, "label": "Gd", "xyz": [-0.37897020483208604, 1.841830944374158, 2.36399743]}, {"species": [{"element": "Gd", "occu": 1}], "abc": [0.99404974, 0.64988168, 0.75], "properties": {"magmom": -6.937}, "label": "Gd", "xyz": [4.196304294832087, 3.4324600556258424, 7.09199229]}, {"species": [{"element": "P", "occu": 1}], "abc": [0.61529203, 0.95445324, 0.40882755], "properties": {"magmom": 0.01}, "label": "P", "xyz": [1.9529344851501398, 5.029338929500284, 3.865869110052786]}, {"species": [{"element": "P", "occu": 1}], "abc": [0.29055000000000003, 0.40232908, 0.52971219], "properties": {"magmom": 0.024}, "label": "P", "xyz": [0.9786671743395843, 2.120443336186348, 5.008953023198687]}, {"species": [{"element": "P", "occu": 1}], "abc": [0.7141088800000001, 0.10054395, 0.75], "properties": {"magmom": 0.025}, "label": "P", "xyz": [3.442094127696492, 0.538846255601158, 7.09199229]}, {"species": [{"element": "P", "occu": 1}], "abc": [0.61529203, 0.95445324, 0.09117245], "properties": {"magmom": 0.01}, "label": "P", "xyz": [1.9529344851501398, 5.029338929500284, 0.862125749947214]}, {"species": [{"element": "P", "occu": 1}], "abc": [0.70945, 0.59767092, 0.47028781000000003], "properties": {"magmom": 0.024}, "label": "P", "xyz": [2.8386669156604176, 3.153847663813653, 4.447036696801313]}, {"species": [{"element": "P", "occu": 1}], "abc": [0.28589112, 0.8994560500000001, 0.25], "properties": {"magmom": 0.025}, "label": "P", "xyz": [0.37523996230350987, 4.735444744398843, 2.36399743]}, {"species": [{"element": "P", "occu": 1}], "abc": [0.38470797, 0.04554676, 0.59117245], "properties": {"magmom": 0.01}, "label": "P", "xyz": [1.8643996048498617, 0.2449520704997163, 5.590120609947213]}, {"species": [{"element": "P", "occu": 1}], "abc": [0.29055000000000003, 0.40232908, 0.97028781], "properties": {"magmom": 0.024}, "label": "P", "xyz": [0.9786671743395843, 2.120443336186348, 9.175031556801313]}, {"species": [{"element": "P", "occu": 1}], "abc": [0.38470797, 0.04554676, 0.90882755], "properties": {"magmom": 0.01}, "label": "P", "xyz": [1.8643996048498617, 0.2449520704997163, 8.593863970052785]}, {"species": [{"element": "P", "occu": 1}], "abc": [0.70945, 0.59767092, 0.02971219], "properties": {"magmom": 0.024}, "label": "P", "xyz": [2.8386669156604176, 3.153847663813653, 0.28095816319868677]}]}, "task_ids": null, "uncorrected_energy_per_atom": null, "energy_per_atom": -15.356296276666667, "formation_energy_per_atom": -0.621731799980156, "energy_above_hull": 0.0, "is_stable": true, "equilibrium_reaction_energy_per_atom": null, "decomposes_to": null, "xas": null, "grain_boundaries": null, "band_gap": 0.0, "cbm": null, "vbm": null, "efermi": 5.46222053, "is_gap_direct": null, "is_metal": null, "es_source_calc_id": null, "bandstructure": null, "dos": null, "dos_energy_up": null, "dos_energy_down": null, "is_magnetic": null, "ordering": null, "total_magnetization": 14.0039227, "total_magnetization_normalized_vol": null, "total_magnetization_normalized_formula_units": null, "num_magnetic_sites": null, "num_unique_magnetic_sites": null, "types_of_magnetic_species": null, "bulk_modulus": null, "shear_modulus": null, "universal_anisotropy": null, "homogeneous_poisson": null, "e_total": null, "e_ionic": null, "e_electronic": null, "n": null, "e_ij_max": null, "weighted_surface_energy_EV_PER_ANG2": null, "weighted_surface_energy": null, "weighted_work_function": null, "surface_anisotropy": null, "shape_factor": null, "has_reconstructed": null, "possible_species": null, "has_props": null, "theoretical": null, "database_IDs": null, "fields_not_requested": ["builder_meta", "nsites", "elements", "nelements", "composition", "composition_reduced", "chemsys", "symmetry", "property_name", "deprecated", "deprecation_reasons", "last_updated", "origins", "warnings", "task_ids", "uncorrected_energy_per_atom", "equilibrium_reaction_energy_per_atom", "decomposes_to", "xas", "grain_boundaries", "cbm", "vbm", "is_gap_direct", "is_metal", "es_source_calc_id", "bandstructure", "dos", "dos_energy_up", "dos_energy_down", "is_magnetic", "ordering", "total_magnetization_normalized_vol", "total_magnetization_normalized_formula_units", "num_magnetic_sites", "num_unique_magnetic_sites", "types_of_magnetic_species", "bulk_modulus", "shear_modulus", "universal_anisotropy", "homogeneous_poisson", "e_total", "e_ionic", "e_electronic", "n", "e_ij_max", "weighted_surface_energy_EV_PER_ANG2", "weighted_surface_energy", "weighted_work_function", "surface_anisotropy", "shape_factor", "has_reconstructed", "possible_species", "has_props", "theoretical", "database_IDs"]}