{"builder_meta": null, "nsites": null, "elements": null, "nelements": null, "composition": null, "composition_reduced": null, "formula_pretty": "GdPd", "formula_anonymous": "AB", "chemsys": null, "volume": 91.56567822777086, "density": 9.563284937426078, "density_atomic": 22.891419556942715, "symmetry": null, "property_name": null, "material_id": "mp-11427", "deprecated": null, "deprecation_reasons": null, "last_updated": null, "origins": null, "warnings": null, "structure": {"@module": "pymatgen.core.structure", "@class": "Structure", "charge": 0, "lattice": {"matrix": [[3.57554616, 0.0, -1.26618379], [0.0, 4.51774333, 0.0], [-0.00410074, -0.0, 5.6699603]], "pbc": [true, true, true], "a": 3.7931189979157667, "b": 4.51774333, "c": 5.66996178290865, "alpha": 90.0, "beta": 109.54167333742454, "gamma": 90.0, "volume": 91.56567822777087}, "properties": {}, "sites": [{"species": [{"element": "Gd", "occu": 1}], "abc": [0.13798405, 0.75, 0.27596911], "properties": {"magmom": 7.087}, "label": "Gd", "xyz": [0.49223666255060655, 3.3883074975, 1.3900207303377834]}, {"species": [{"element": "Gd", "occu": 1}], "abc": [0.86201595, 0.25, 0.72403089], "properties": {"magmom": 7.087}, "label": "Gd", "xyz": [3.0792087574493934, 1.1294358325, 3.0137557796622163]}, {"species": [{"element": "Pd", "occu": 1}], "abc": [0.414372099999999, 0.75, 0.828744199999999], "properties": {"magmom": -0.004}, "label": "Pd", "xyz": [1.4782081064754247, 3.3883074975, 4.174275476806996]}, {"species": [{"element": "Pd", "occu": 1}], "abc": [0.5856279, 0.25, 0.17125579999999901], "properties": {"magmom": -0.004}, "label": "Pd", "xyz": [2.0932373135245723, 1.1294358325, 0.22950103319299342]}]}, "task_ids": null, "uncorrected_energy_per_atom": null, "energy_per_atom": -34.03311936, "formation_energy_per_atom": -0.8543899049999971, "energy_above_hull": 0.0, "is_stable": true, "equilibrium_reaction_energy_per_atom": null, "decomposes_to": null, "xas": null, "grain_boundaries": null, "band_gap": 0.0, "cbm": null, "vbm": null, "efermi": 3.92852656, "is_gap_direct": null, "is_metal": null, "es_source_calc_id": null, "bandstructure": null, "dos": null, "dos_energy_up": null, "dos_energy_down": null, "is_magnetic": null, "ordering": null, "total_magnetization": 14.8781983, "total_magnetization_normalized_vol": null, "total_magnetization_normalized_formula_units": null, "num_magnetic_sites": null, "num_unique_magnetic_sites": null, "types_of_magnetic_species": null, "bulk_modulus": null, "shear_modulus": null, "universal_anisotropy": null, "homogeneous_poisson": null, "e_total": null, "e_ionic": null, "e_electronic": null, "n": null, "e_ij_max": null, "weighted_surface_energy_EV_PER_ANG2": null, "weighted_surface_energy": null, "weighted_work_function": null, "surface_anisotropy": null, "shape_factor": null, "has_reconstructed": null, "possible_species": null, "has_props": null, "theoretical": null, "database_IDs": null, "fields_not_requested": ["builder_meta", "nsites", "elements", "nelements", "composition", "composition_reduced", "chemsys", "symmetry", "property_name", "deprecated", "deprecation_reasons", "last_updated", "origins", "warnings", "task_ids", "uncorrected_energy_per_atom", "equilibrium_reaction_energy_per_atom", "decomposes_to", "xas", "grain_boundaries", "cbm", "vbm", "is_gap_direct", "is_metal", "es_source_calc_id", "bandstructure", "dos", "dos_energy_up", "dos_energy_down", "is_magnetic", "ordering", "total_magnetization_normalized_vol", "total_magnetization_normalized_formula_units", "num_magnetic_sites", "num_unique_magnetic_sites", "types_of_magnetic_species", "bulk_modulus", "shear_modulus", "universal_anisotropy", "homogeneous_poisson", "e_total", "e_ionic", "e_electronic", "n", "e_ij_max", "weighted_surface_energy_EV_PER_ANG2", "weighted_surface_energy", "weighted_work_function", "surface_anisotropy", "shape_factor", "has_reconstructed", "possible_species", "has_props", "theoretical", "database_IDs"]}