{"builder_meta": null, "nsites": null, "elements": null, "nelements": null, "composition": null, "composition_reduced": null, "formula_pretty": "GdPt2", "formula_anonymous": "AB2", "chemsys": null, "volume": 113.30246596590399, "density": 16.045705042882048, "density_atomic": 18.883744327650664, "symmetry": null, "property_name": null, "material_id": "mp-1422", "deprecated": null, "deprecation_reasons": null, "last_updated": null, "origins": null, "warnings": null, "structure": {"@module": "pymatgen.core.structure", "@class": "Structure", "charge": 0, "lattice": {"matrix": [[4.70379919, -0.0, 2.71573938], [1.56793306, 4.43478349, 2.71573938], [-0.0, -0.0, 5.43147978]], "pbc": [true, true, true], "a": 5.431479282840674, "b": 5.431478533870895, "c": 5.43147978, "alpha": 59.99999862278924, "beta": 60.00000318429458, "gamma": 59.999997596520224, "volume": 113.30246596590399}, "properties": {}, "sites": [{"species": [{"element": "Gd", "occu": 1}], "abc": [0.125001, 0.125, 0.125], "properties": {"magmom": 7.003}, "label": "Gd", "xyz": [0.7839712350491901, 0.55434793625, 1.35787253323938]}, {"species": [{"element": "Gd", "occu": 1}], "abc": [0.874999, 0.875, 0.875], "properties": {"magmom": 7.003}, "label": "Gd", "xyz": [5.48776101495081, 3.88043555375, 9.50508600676062]}, {"species": [{"element": "Pt", "occu": 1}], "abc": [0.5, 0.5, 0.5], "properties": {"magmom": -0.059000000000000004}, "label": "Pt", "xyz": [3.1358661249999997, 2.217391745, 5.4314792700000005]}, {"species": [{"element": "Pt", "occu": 1}], "abc": [0.5, 0.5, -0.0], "properties": {"magmom": -0.059000000000000004}, "label": "Pt", "xyz": [3.1358661249999997, 2.217391745, 2.71573938]}, {"species": [{"element": "Pt", "occu": 1}], "abc": [-0.0, 0.5, 0.5], "properties": {"magmom": -0.059000000000000004}, "label": "Pt", "xyz": [0.78396653, 2.217391745, 4.07360958]}, {"species": [{"element": "Pt", "occu": 1}], "abc": [0.5, 0.0, 0.5], "properties": {"magmom": -0.059000000000000004}, "label": "Pt", "xyz": [2.351899595, 0.0, 4.07360958]}]}, "task_ids": null, "uncorrected_energy_per_atom": null, "energy_per_atom": -9.83479792, "formation_energy_per_atom": -1.095334959999998, "energy_above_hull": 0.0, "is_stable": true, "equilibrium_reaction_energy_per_atom": null, "decomposes_to": null, "xas": null, "grain_boundaries": null, "band_gap": 0.0, "cbm": null, "vbm": null, "efermi": 6.04645128, "is_gap_direct": null, "is_metal": null, "es_source_calc_id": null, "bandstructure": null, "dos": null, "dos_energy_up": null, "dos_energy_down": null, "is_magnetic": null, "ordering": null, "total_magnetization": 14.2779558, "total_magnetization_normalized_vol": null, "total_magnetization_normalized_formula_units": null, "num_magnetic_sites": null, "num_unique_magnetic_sites": null, "types_of_magnetic_species": null, "bulk_modulus": null, "shear_modulus": null, "universal_anisotropy": null, "homogeneous_poisson": null, "e_total": null, "e_ionic": null, "e_electronic": null, "n": null, "e_ij_max": null, "weighted_surface_energy_EV_PER_ANG2": null, "weighted_surface_energy": null, "weighted_work_function": null, "surface_anisotropy": null, "shape_factor": null, "has_reconstructed": null, "possible_species": null, "has_props": null, "theoretical": null, "database_IDs": null, "fields_not_requested": ["builder_meta", "nsites", "elements", "nelements", "composition", "composition_reduced", "chemsys", "symmetry", "property_name", "deprecated", "deprecation_reasons", "last_updated", "origins", "warnings", "task_ids", "uncorrected_energy_per_atom", "equilibrium_reaction_energy_per_atom", "decomposes_to", "xas", "grain_boundaries", "cbm", "vbm", "is_gap_direct", "is_metal", "es_source_calc_id", "bandstructure", "dos", "dos_energy_up", "dos_energy_down", "is_magnetic", "ordering", "total_magnetization_normalized_vol", "total_magnetization_normalized_formula_units", "num_magnetic_sites", "num_unique_magnetic_sites", "types_of_magnetic_species", "bulk_modulus", "shear_modulus", "universal_anisotropy", "homogeneous_poisson", "e_total", "e_ionic", "e_electronic", "n", "e_ij_max", "weighted_surface_energy_EV_PER_ANG2", "weighted_surface_energy", "weighted_work_function", "surface_anisotropy", "shape_factor", "has_reconstructed", "possible_species", "has_props", "theoretical", "database_IDs"]}