{
  "builder_meta": null,
  "nsites": null,
  "elements": null,
  "nelements": null,
  "composition": null,
  "composition_reduced": null,
  "formula_pretty": "GdPt",
  "formula_anonymous": "AB",
  "chemsys": null,
  "volume": 181.00855482051125,
  "density": 12.928988291666021,
  "density_atomic": 22.626069352563906,
  "symmetry": null,
  "property_name": null,
  "material_id": "mp-11428",
  "deprecated": null,
  "deprecation_reasons": null,
  "last_updated": null,
  "origins": null,
  "warnings": null,
  "structure": {
    "@module": "pymatgen.core.structure",
    "@class": "Structure",
    "charge": 0,
    "lattice": {
      "matrix": [
        [4.48989306, 0.0, 0.0],
        [0.0, 5.61263353, 8.15e-6],
        [0.0, -1.5e-7, 7.18284372]
      ],
      "pbc": [true, true, true],
      "a": 4.48989306,
      "b": 5.612633530005917,
      "c": 7.182843720000002,
      "alpha": 89.99991799838511,
      "beta": 90.0,
      "gamma": 90.0,
      "volume": 181.00855482051125
    },
    "properties": {},
    "sites": [
      {
        "species": [{ "element": "Gd", "occu": 1 }],
        "abc": [0.25, 0.14009879, 0.18228007000000002],
        "properties": { "magmom": 7.031 },
        "label": "Gd",
        "xyz": [1.122473265, 0.7863231389244182, 1.309290397885799]
      },
      {
        "species": [{ "element": "Gd", "occu": 1 }],
        "abc": [0.75, 0.85990021, 0.81772093],
        "properties": { "magmom": 7.031 },
        "label": "Gd",
        "xyz": [3.367419795, 4.8263046284419024, 5.873568654949771]
      },
      {
        "species": [{ "element": "Gd", "occu": 1 }],
        "abc": [0.75, 0.64008665, 0.31768648],
        "properties": { "magmom": 7.031 },
        "label": "Gd",
        "xyz": [3.367419795, 3.5925717462424025, 2.2818975545031033]
      },
      {
        "species": [{ "element": "Gd", "occu": 1 }],
        "abc": [0.25, 0.35991235, 0.68231252],
        "properties": { "magmom": 7.031 },
        "label": "Gd",
        "xyz": [1.122473265, 2.0200560211242173, 4.900947132645027]
      },
      {
        "species": [{ "element": "Pt", "occu": 1 }],
        "abc": [0.25, 0.65419572, 0.04445939],
        "properties": { "magmom": -0.031 },
        "label": "Pt",
        "xyz": [1.122473265, 3.6717608265855834, 0.3193501819516488]
      },
      {
        "species": [{ "element": "Pt", "occu": 1 }],
        "abc": [0.75, 0.34580428, 0.9555386100000001],
        "properties": { "magmom": -0.031 },
        "label": "Pt",
        "xyz": [3.367419795, 1.940872553414717, 6.863487322360911]
      },
      {
        "species": [{ "element": "Pt", "occu": 1 }],
        "abc": [0.75, 0.1542114, 0.45554517],
        "properties": { "magmom": -0.031 },
        "label": "Pt",
        "xyz": [3.367419795, 0.8655320060164665, 3.2721110203337425]
      },
      {
        "species": [{ "element": "Pt", "occu": 1 }],
        "abc": [0.25, 0.8457886, 0.54445683],
        "properties": { "magmom": -0.031 },
        "label": "Pt",
        "xyz": [1.122473265, 4.7471013739832335, 3.9107552153536975]
      }
    ]
  },
  "task_ids": null,
  "uncorrected_energy_per_atom": null,
  "energy_per_atom": -11.303156909999998,
  "formation_energy_per_atom": -1.229529129999997,
  "energy_above_hull": 0.0,
  "is_stable": true,
  "equilibrium_reaction_energy_per_atom": null,
  "decomposes_to": null,
  "xas": null,
  "grain_boundaries": null,
  "band_gap": 0.0,
  "cbm": null,
  "vbm": null,
  "efermi": 4.77282651,
  "is_gap_direct": null,
  "is_metal": null,
  "es_source_calc_id": null,
  "bandstructure": null,
  "dos": null,
  "dos_energy_up": null,
  "dos_energy_down": null,
  "is_magnetic": null,
  "ordering": null,
  "total_magnetization": 29.154537,
  "total_magnetization_normalized_vol": null,
  "total_magnetization_normalized_formula_units": null,
  "num_magnetic_sites": null,
  "num_unique_magnetic_sites": null,
  "types_of_magnetic_species": null,
  "bulk_modulus": null,
  "shear_modulus": null,
  "universal_anisotropy": null,
  "homogeneous_poisson": null,
  "e_total": null,
  "e_ionic": null,
  "e_electronic": null,
  "n": null,
  "e_ij_max": null,
  "weighted_surface_energy_EV_PER_ANG2": null,
  "weighted_surface_energy": null,
  "weighted_work_function": null,
  "surface_anisotropy": null,
  "shape_factor": null,
  "has_reconstructed": null,
  "possible_species": null,
  "has_props": null,
  "theoretical": null,
  "database_IDs": null,
  "fields_not_requested": [
    "builder_meta",
    "nsites",
    "elements",
    "nelements",
    "composition",
    "composition_reduced",
    "chemsys",
    "symmetry",
    "property_name",
    "deprecated",
    "deprecation_reasons",
    "last_updated",
    "origins",
    "warnings",
    "task_ids",
    "uncorrected_energy_per_atom",
    "equilibrium_reaction_energy_per_atom",
    "decomposes_to",
    "xas",
    "grain_boundaries",
    "cbm",
    "vbm",
    "is_gap_direct",
    "is_metal",
    "es_source_calc_id",
    "bandstructure",
    "dos",
    "dos_energy_up",
    "dos_energy_down",
    "is_magnetic",
    "ordering",
    "total_magnetization_normalized_vol",
    "total_magnetization_normalized_formula_units",
    "num_magnetic_sites",
    "num_unique_magnetic_sites",
    "types_of_magnetic_species",
    "bulk_modulus",
    "shear_modulus",
    "universal_anisotropy",
    "homogeneous_poisson",
    "e_total",
    "e_ionic",
    "e_electronic",
    "n",
    "e_ij_max",
    "weighted_surface_energy_EV_PER_ANG2",
    "weighted_surface_energy",
    "weighted_work_function",
    "surface_anisotropy",
    "shape_factor",
    "has_reconstructed",
    "possible_species",
    "has_props",
    "theoretical",
    "database_IDs"
  ]
}
