{"builder_meta": null, "nsites": null, "elements": null, "nelements": null, "composition": null, "composition_reduced": null, "formula_pretty": "GdRe2", "formula_anonymous": "AB2", "chemsys": null, "volume": 219.76358837124374, "density": 16.00861672654976, "density_atomic": 18.313632364270312, "symmetry": null, "property_name": null, "material_id": "mp-1102209", "deprecated": null, "deprecation_reasons": null, "last_updated": null, "origins": null, "warnings": null, "structure": {"@module": "pymatgen.core.structure", "@class": "Structure", "charge": 0, "lattice": {"matrix": [[-2.69313582, -4.66438333, -9.524000000000003e-05], [-2.69319567, 4.66441626, 0.00011291], [2.839e-05, -0.000195, -8.74715642]], "pbc": [true, true, true], "a": 5.386042369237325, "b": 5.386100813780579, "c": 8.747156422219634, "alpha": 90.0024002370492, "beta": 89.99797368575886, "gamma": 119.99680752908665, "volume": 219.76358837124374}, "properties": {}, "sites": [{"species": [{"element": "Gd", "occu": 1}], "abc": [0.666669, 0.33333195, 0.5628213], "properties": {"magmom": 7.11}, "label": "Gd", "xyz": [-2.6931423498995293, -1.5549105528237626, -4.923111804652831]}, {"species": [{"element": "Gd", "occu": 1}], "abc": [0.33333121, 0.66666931, 0.43716936], "properties": {"magmom": 7.11}, "label": "Gd", "xyz": [-2.6931647093506994, 1.5547533822890514, -3.823945246783939]}, {"species": [{"element": "Gd", "occu": 1}], "abc": [0.33333099, 0.666669499999999, 0.06289271], "properties": {"magmom": 7.11}, "label": "Gd", "xyz": [-2.693175254282087, 1.5548282786392194, -0.5500888448379407]}, {"species": [{"element": "Gd", "occu": 1}], "abc": [0.66666925, 0.33333149, 0.93711659], "properties": {"magmom": 7.11}, "label": "Gd", "xyz": [-2.693131158070193, -1.5549868521326247, -8.197131253627841]}, {"species": [{"element": "Re", "occu": 1}], "abc": [7.3e-07, 1.3e-06, 0.4999592], "properties": {"magmom": -0.15}, "label": "Re", "xyz": [8.726698168400001e-06, -9.483330269289999e-05, -4.373221325940806]}, {"species": [{"element": "Re", "occu": 1}], "abc": [8.199999999999999e-07, 8.199999999999999e-07, 1.00004067], "properties": {"magmom": -0.151}, "label": "Re", "xyz": [2.39743627995e-05, -0.0001950079036474, -8.747512166837112]}, {"species": [{"element": "Re", "occu": 1}], "abc": [0.17063872, 0.34125674, 0.74992998], "properties": {"magmom": -0.153}, "label": "Re", "xyz": [-1.378603133125134, 0.795692849523955, -6.559732559440651]}, {"species": [{"element": "Re", "occu": 1}], "abc": [0.17063749, 0.82935729, 0.74993098], "properties": {"magmom": -0.152}, "label": "Re", "xyz": [-2.693150108324304, 3.0724027284553945, -6.559686195046826]}, {"species": [{"element": "Re", "occu": 1}], "abc": [0.65874275, 0.82936374, 0.74992991], "properties": {"magmom": -0.153}, "label": "Re", "xyz": [-4.007701239103167, 0.7957227761196051, -6.559723322006149]}, {"species": [{"element": "Re", "occu": 1}], "abc": [0.8293580500000001, 0.65872903, 0.25006987], "properties": {"magmom": -0.152}, "label": "Re", "xyz": [-4.007652943876042, -0.7959062281799281, -2.18740487978497]}, {"species": [{"element": "Re", "occu": 1}], "abc": [0.8293522, 0.17064446, 0.25006852], "properties": {"magmom": -0.152}, "label": "Re", "xyz": [-2.6931299385520098, -3.072508545837306, -2.1874481801954477]}, {"species": [{"element": "Re", "occu": 1}], "abc": [0.34126979, 0.17064536, 0.25006991], "properties": {"magmom": -0.152}, "label": "Re", "xyz": [-1.3786601409057242, -0.7959008912634971, -2.1874138536725245]}]}, "task_ids": null, "uncorrected_energy_per_atom": null, "energy_per_atom": -47.8589750975, "formation_energy_per_atom": 1.547103140833333, "energy_above_hull": 1.547103140833336, "is_stable": false, "equilibrium_reaction_energy_per_atom": null, "decomposes_to": null, "xas": null, "grain_boundaries": null, "band_gap": 0.0, "cbm": null, "vbm": null, "efermi": 5.13757216, "is_gap_direct": null, "is_metal": null, "es_source_calc_id": null, "bandstructure": null, "dos": null, "dos_energy_up": null, "dos_energy_down": null, "is_magnetic": null, "ordering": null, "total_magnetization": 27.565732099999998, "total_magnetization_normalized_vol": null, "total_magnetization_normalized_formula_units": null, "num_magnetic_sites": null, "num_unique_magnetic_sites": null, "types_of_magnetic_species": null, "bulk_modulus": null, "shear_modulus": null, "universal_anisotropy": null, "homogeneous_poisson": null, "e_total": null, "e_ionic": null, "e_electronic": null, "n": null, "e_ij_max": null, "weighted_surface_energy_EV_PER_ANG2": null, "weighted_surface_energy": null, "weighted_work_function": null, "surface_anisotropy": null, "shape_factor": null, "has_reconstructed": null, "possible_species": null, "has_props": null, "theoretical": null, "database_IDs": null, "fields_not_requested": ["builder_meta", "nsites", "elements", "nelements", "composition", "composition_reduced", "chemsys", "symmetry", "property_name", "deprecated", "deprecation_reasons", "last_updated", "origins", "warnings", "task_ids", "uncorrected_energy_per_atom", "equilibrium_reaction_energy_per_atom", "decomposes_to", "xas", "grain_boundaries", "cbm", "vbm", "is_gap_direct", "is_metal", "es_source_calc_id", "bandstructure", "dos", "dos_energy_up", "dos_energy_down", "is_magnetic", "ordering", "total_magnetization_normalized_vol", "total_magnetization_normalized_formula_units", "num_magnetic_sites", "num_unique_magnetic_sites", "types_of_magnetic_species", "bulk_modulus", "shear_modulus", "universal_anisotropy", "homogeneous_poisson", "e_total", "e_ionic", "e_electronic", "n", "e_ij_max", "weighted_surface_energy_EV_PER_ANG2", "weighted_surface_energy", "weighted_work_function", "surface_anisotropy", "shape_factor", "has_reconstructed", "possible_species", "has_props", "theoretical", "database_IDs"]}