{"builder_meta": null, "nsites": null, "elements": null, "nelements": null, "composition": null, "composition_reduced": null, "formula_pretty": "GdRh3", "formula_anonymous": "AB3", "chemsys": null, "volume": 415.2299069525743, "density": 11.180633630013222, "density_atomic": 17.30124612302393, "symmetry": null, "property_name": null, "material_id": "mp-1191219", "deprecated": null, "deprecation_reasons": null, "last_updated": null, "origins": null, "warnings": null, "structure": {"@module": "pymatgen.core.structure", "@class": "Structure", "charge": 0, "lattice": {"matrix": [[-2.62194734, -4.54128687, -0.0], [-2.6219452800000003, 4.541284819999999, 0.0], [0.0, 0.0, -17.43636683]], "pbc": [true, true, true], "a": 5.243843465376086, "b": 5.2438406600197816, "c": 17.43636683, "alpha": 90.0, "beta": 90.0, "gamma": 119.99936213762648, "volume": 415.2299069525743}, "properties": {}, "sites": [{"species": [{"element": "Gd", "occu": 1}], "abc": [0.6666698400000001, 0.33333016, 0.04173072], "properties": {"magmom": 6.984}, "label": "Gd", "xyz": [-2.6219466533398705, -1.5137917953608304, -0.7276321420000176]}, {"species": [{"element": "Gd", "occu": 1}], "abc": [0.33333016, 0.6666698400000001, 0.95826928], "properties": {"magmom": 6.984}, "label": "Gd", "xyz": [-2.62194596666013, 1.513789745360829, -16.708734687999982]}, {"species": [{"element": "Gd", "occu": 1}], "abc": [0.33333016, 0.6666698400000001, 0.54173072], "properties": {"magmom": 6.984}, "label": "Gd", "xyz": [-2.62194596666013, 1.513789745360829, -9.445815557000017]}, {"species": [{"element": "Gd", "occu": 1}], "abc": [0.6666698400000001, 0.33333016, 0.45826928], "properties": {"magmom": 6.984}, "label": "Gd", "xyz": [-2.6219466533398705, -1.5137917953608304, -7.990551272999983]}, {"species": [{"element": "Gd", "occu": 1}], "abc": [0.66667272, 0.33332728, 0.25], "properties": {"magmom": -6.957}, "label": "Gd", "xyz": [-2.6219466533458036, -1.5138179531672977, -4.3590917075]}, {"species": [{"element": "Gd", "occu": 1}], "abc": [0.33332728, 0.66667272, 0.75], "properties": {"magmom": -6.957}, "label": "Gd", "xyz": [-2.621945966654197, 1.5138159031672955, -13.077275122500001]}, {"species": [{"element": "Rh", "occu": 1}], "abc": [0.83291559, 0.66585474, 0.62675917], "properties": {"magmom": -0.08700000000000001}, "label": "Rh", "xyz": [-3.9296955083536584, -0.7586726095982579, -10.928402802186332]}, {"species": [{"element": "Rh", "occu": 1}], "abc": [0.83291504, 0.16708496, 0.62675114], "properties": {"magmom": -0.08700000000000001}, "label": "Rh", "xyz": [-2.621946995804983, -3.0237257424792183, -10.928262788160687]}, {"species": [{"element": "Rh", "occu": 1}], "abc": [0.33414526, 0.16708541, 0.62675917], "properties": {"magmom": -0.08700000000000001}, "label": "Rh", "xyz": [-1.3142000777369733, -0.7586670458342604, -10.928402802186332]}, {"species": [{"element": "Rh", "occu": 1}], "abc": [0.16708441000000002, 0.33414526, 0.37324083], "properties": {"magmom": -0.08700000000000001}, "label": "Rh", "xyz": [-1.3141971116463425, 0.7586705595982558, -6.50796402781367]}, {"species": [{"element": "Rh", "occu": 1}], "abc": [0.16708496, 0.83291604, 0.37324886], "properties": {"magmom": -0.08700000000000001}, "label": "Rh", "xyz": [-2.621948246140298, 3.023728233764036, -6.508104041839315]}, {"species": [{"element": "Rh", "occu": 1}], "abc": [0.66585474, 0.83291559, 0.37324083], "properties": {"magmom": -0.08700000000000001}, "label": "Rh", "xyz": [-3.929695164208307, 0.7586695371190788, -6.50796402781367]}, {"species": [{"element": "Rh", "occu": 1}], "abc": [0.16708441000000002, 0.33414526, 0.12675917], "properties": {"magmom": -0.08700000000000001}, "label": "Rh", "xyz": [-1.3141971116463425, 0.7586705595982558, -2.2102193871863314]}, {"species": [{"element": "Rh", "occu": 1}], "abc": [0.16708496, 0.83291604, 0.12675114], "properties": {"magmom": -0.08700000000000001}, "label": "Rh", "xyz": [-2.621948246140298, 3.023728233764036, -2.2100793731606867]}, {"species": [{"element": "Rh", "occu": 1}], "abc": [0.66585474, 0.83291559, 0.12675917], "properties": {"magmom": -0.08700000000000001}, "label": "Rh", "xyz": [-3.929695164208307, 0.7586695371190788, -2.2102193871863314]}, {"species": [{"element": "Rh", "occu": 1}], "abc": [0.83291559, 0.66585474, 0.87324083], "properties": {"magmom": -0.08700000000000001}, "label": "Rh", "xyz": [-3.9296955083536584, -0.7586726095982579, -15.22614744281367]}, {"species": [{"element": "Rh", "occu": 1}], "abc": [0.83291504, 0.16708496, 0.87324886], "properties": {"magmom": -0.08700000000000001}, "label": "Rh", "xyz": [-2.621946995804983, -3.0237257424792183, -15.226287456839314]}, {"species": [{"element": "Rh", "occu": 1}], "abc": [0.33414526, 0.16708541, 0.87324083], "properties": {"magmom": -0.08700000000000001}, "label": "Rh", "xyz": [-1.3142000777369733, -0.7586670458342604, -15.22614744281367]}, {"species": [{"element": "Rh", "occu": 1}], "abc": [0.66668141, 0.33331859, 0.75], "properties": {"magmom": -0.10300000000000001}, "label": "Rh", "xyz": [-2.621946653363705, -1.5138968807152835, -13.077275122500001]}, {"species": [{"element": "Rh", "occu": 1}], "abc": [0.33331859, 0.66668141, 0.25], "properties": {"magmom": -0.10300000000000001}, "label": "Rh", "xyz": [-2.6219459666362956, 1.5138948307152817, -4.3590917075]}, {"species": [{"element": "Rh", "occu": 1}], "abc": [0.99997241, 2.7590000000000002e-05, 0.75], "properties": {"magmom": -0.126}, "label": "Rh", "xyz": [-2.6219473399431648, -4.541036281847074, -13.077275122500001]}, {"species": [{"element": "Rh", "occu": 1}], "abc": [2.7590000000000002e-05, 0.99997241, 0.25], "properties": {"magmom": -0.126}, "label": "Rh", "xyz": [-2.6219452800568357, 4.541034231847072, -4.3590917075]}, {"species": [{"element": "Rh", "occu": 1}], "abc": [0.0, -0.0, 0.5], "properties": {"magmom": -0.105}, "label": "Rh", "xyz": [0.0, 0.0, -8.718183415]}, {"species": [{"element": "Rh", "occu": 1}], "abc": [0.0, -0.0, -0.0], "properties": {"magmom": -0.105}, "label": "Rh", "xyz": [0.0, 0.0, 0.0]}]}, "task_ids": null, "uncorrected_energy_per_atom": null, "energy_per_atom": -29.51548785916667, "formation_energy_per_atom": -0.564065061666662, "energy_above_hull": 0.0, "is_stable": true, "equilibrium_reaction_energy_per_atom": null, "decomposes_to": null, "xas": null, "grain_boundaries": null, "band_gap": 0.0, "cbm": null, "vbm": null, "efermi": 5.28277493, "is_gap_direct": null, "is_metal": null, "es_source_calc_id": null, "bandstructure": null, "dos": null, "dos_energy_up": null, "dos_energy_down": null, "is_magnetic": null, "ordering": null, "total_magnetization": 12.7817774, "total_magnetization_normalized_vol": null, "total_magnetization_normalized_formula_units": null, "num_magnetic_sites": null, "num_unique_magnetic_sites": null, "types_of_magnetic_species": null, "bulk_modulus": null, "shear_modulus": null, "universal_anisotropy": null, "homogeneous_poisson": null, "e_total": null, "e_ionic": null, "e_electronic": null, "n": null, "e_ij_max": null, "weighted_surface_energy_EV_PER_ANG2": null, "weighted_surface_energy": null, "weighted_work_function": null, "surface_anisotropy": null, "shape_factor": null, "has_reconstructed": null, "possible_species": null, "has_props": null, "theoretical": null, "database_IDs": null, "fields_not_requested": ["builder_meta", "nsites", "elements", "nelements", "composition", "composition_reduced", "chemsys", "symmetry", "property_name", "deprecated", "deprecation_reasons", "last_updated", "origins", "warnings", "task_ids", "uncorrected_energy_per_atom", "equilibrium_reaction_energy_per_atom", "decomposes_to", "xas", "grain_boundaries", "cbm", "vbm", "is_gap_direct", "is_metal", "es_source_calc_id", "bandstructure", "dos", "dos_energy_up", "dos_energy_down", "is_magnetic", "ordering", "total_magnetization_normalized_vol", "total_magnetization_normalized_formula_units", "num_magnetic_sites", "num_unique_magnetic_sites", "types_of_magnetic_species", "bulk_modulus", "shear_modulus", "universal_anisotropy", "homogeneous_poisson", "e_total", "e_ionic", "e_electronic", "n", "e_ij_max", "weighted_surface_energy_EV_PER_ANG2", "weighted_surface_energy", "weighted_work_function", "surface_anisotropy", "shape_factor", "has_reconstructed", "possible_species", "has_props", "theoretical", "database_IDs"]}