{"builder_meta": null, "nsites": null, "elements": null, "nelements": null, "composition": null, "composition_reduced": null, "formula_pretty": "GdRu2", "formula_anonymous": "AB2", "chemsys": null, "volume": 107.40763684428111, "density": 11.112452571888968, "density_atomic": 17.901272807380185, "symmetry": null, "property_name": null, "material_id": "mp-646926", "deprecated": null, "deprecation_reasons": null, "last_updated": null, "origins": null, "warnings": null, "structure": {"@module": "pymatgen.core.structure", "@class": "Structure", "charge": 0, "lattice": {"matrix": [[4.6266966400000005, 0.0030656200000000002, 2.66706699], [1.54416928, 4.3621726, 2.66870391], [0.00386908, 0.00478289, 5.32726199]], "pbc": [true, true, true], "a": 5.34037241451951, "b": 5.341815151868863, "c": 5.327265542087757, "alpha": 59.96491309355574, "beta": 59.99700157363018, "gamma": 59.97275408079839, "volume": 107.40763684428113}, "properties": {}, "sites": [{"species": [{"element": "Gd", "occu": 1}], "abc": [0.12503058, 0.12493722, 0.12508294], "properties": {"magmom": -6.9350000000000005}, "label": "Gd", "xyz": [0.771886737337348, 0.5459792719937282, 1.333234972036535]}, {"species": [{"element": "Gd", "occu": 1}], "abc": [0.87491885, 0.87506493, 0.87495342], "properties": {"magmom": 7.02}, "label": "Gd", "xyz": [5.402617751257268, 3.824051235554839, 9.329862481345144]}, {"species": [{"element": "Ru", "occu": 1}], "abc": [0.49999922, 0.50004306, 0.9999183700000001], "properties": {"magmom": -0.23800000000000002}, "label": "Ru", "xyz": [3.0893646072728176, 2.1875894423336617, 7.9948254096818685]}, {"species": [{"element": "Ru", "occu": 1}], "abc": [0.49997167000000003, 0.99998382, 0.50003276], "properties": {"magmom": -0.226}, "label": "Ru", "xyz": [3.8592962077763, 4.366026344885793, 6.665924183465702]}, {"species": [{"element": "Ru", "occu": 1}], "abc": [0.49997193, 0.50001305, 0.50003211], "properties": {"magmom": -0.228}, "label": "Ru", "xyz": [3.0872579042705786, 2.1850675488790743, 5.331647465398115]}, {"species": [{"element": "Ru", "occu": 1}], "abc": [0.00010674, 0.49995892000000003, 0.49997739], "properties": {"magmom": -0.226}, "label": "Ru", "xyz": [0.7744495116454324, 2.183298766032728, 3.9980375529802963]}]}, "task_ids": null, "uncorrected_energy_per_atom": null, "energy_per_atom": -31.633537083333334, "formation_energy_per_atom": -0.21817845333333202, "energy_above_hull": 0.0, "is_stable": true, "equilibrium_reaction_energy_per_atom": null, "decomposes_to": null, "xas": null, "grain_boundaries": null, "band_gap": 0.0, "cbm": null, "vbm": null, "efermi": 5.73063331, "is_gap_direct": null, "is_metal": null, "es_source_calc_id": null, "bandstructure": null, "dos": null, "dos_energy_up": null, "dos_energy_down": null, "is_magnetic": null, "ordering": null, "total_magnetization": 0.763692199999999, "total_magnetization_normalized_vol": null, "total_magnetization_normalized_formula_units": null, "num_magnetic_sites": null, "num_unique_magnetic_sites": null, "types_of_magnetic_species": null, "bulk_modulus": null, "shear_modulus": null, "universal_anisotropy": null, "homogeneous_poisson": null, "e_total": null, "e_ionic": null, "e_electronic": null, "n": null, "e_ij_max": null, "weighted_surface_energy_EV_PER_ANG2": null, "weighted_surface_energy": null, "weighted_work_function": null, "surface_anisotropy": null, "shape_factor": null, "has_reconstructed": null, "possible_species": null, "has_props": null, "theoretical": null, "database_IDs": null, "fields_not_requested": ["builder_meta", "nsites", "elements", "nelements", "composition", "composition_reduced", "chemsys", "symmetry", "property_name", "deprecated", "deprecation_reasons", "last_updated", "origins", "warnings", "task_ids", "uncorrected_energy_per_atom", "equilibrium_reaction_energy_per_atom", "decomposes_to", "xas", "grain_boundaries", "cbm", "vbm", "is_gap_direct", "is_metal", "es_source_calc_id", "bandstructure", "dos", "dos_energy_up", "dos_energy_down", "is_magnetic", "ordering", "total_magnetization_normalized_vol", "total_magnetization_normalized_formula_units", "num_magnetic_sites", "num_unique_magnetic_sites", "types_of_magnetic_species", "bulk_modulus", "shear_modulus", "universal_anisotropy", "homogeneous_poisson", "e_total", "e_ionic", "e_electronic", "n", "e_ij_max", "weighted_surface_energy_EV_PER_ANG2", "weighted_surface_energy", "weighted_work_function", "surface_anisotropy", "shape_factor", "has_reconstructed", "possible_species", "has_props", "theoretical", "database_IDs"]}