{"builder_meta": null, "nsites": null, "elements": null, "nelements": null, "composition": null, "composition_reduced": null, "formula_pretty": "GdS2", "formula_anonymous": "AB2", "chemsys": null, "volume": 248.78188487168129, "density": 5.910561193046943, "density_atomic": 20.731823739306773, "symmetry": null, "property_name": null, "material_id": "mp-1095479", "deprecated": null, "deprecation_reasons": null, "last_updated": null, "origins": null, "warnings": null, "structure": {"@module": "pymatgen.core.structure", "@class": "Structure", "charge": 0, "lattice": {"matrix": [[0.0, -3.95110384, 0.0], [-7.91220324, 0.0, -0.00565079], [-0.01721487, 0.0, -7.95799289]], "pbc": [true, true, true], "a": 3.95110384, "b": 7.912205257859159, "c": 7.958011509732796, "alpha": 89.83513708229297, "beta": 90.0, "gamma": 90.0, "volume": 248.78188487168129}, "properties": {}, "sites": [{"species": [{"element": "Gd", "occu": 1}], "abc": [0.28759717, 0.37072303, 0.27599013], "properties": {"magmom": 6.891}, "label": "Gd", "xyz": [-2.9379870933178505, -1.1363262827601328, -2.1984223702408694]}, {"species": [{"element": "Gd", "occu": 1}], "abc": [0.7875971700000001, 0.12927697, 0.72400987], "properties": {"magmom": 6.891}, "label": "Gd", "xyz": [-1.0353293966821495, -3.111878202760133, -5.762395914759131]}, {"species": [{"element": "Gd", "occu": 1}], "abc": [0.71240283, 0.62927697, 0.72400987], "properties": {"magmom": 6.891}, "label": "Gd", "xyz": [-4.99143101668215, -2.8147775572398674, -5.765221309759132]}, {"species": [{"element": "Gd", "occu": 1}], "abc": [0.21240283000000001, 0.8707230300000001, 0.27599013], "properties": {"magmom": 6.891}, "label": "Gd", "xyz": [-6.894088713317851, -0.8392256372398673, -2.2012477652408697]}, {"species": [{"element": "S", "occu": 1}], "abc": [0.84231415, 0.39088256, 0.003298499999999], "properties": {"magmom": -0.018000000000000002}, "label": "S", "xyz": [-3.0927990409401893, -3.328070672551336, -0.028458234808879445]}, {"species": [{"element": "S", "occu": 1}], "abc": [0.34231415, 0.10911744, 0.9967014999999991], "properties": {"magmom": -0.018000000000000002}, "label": "S", "xyz": [-0.8805174490598107, -1.352518752551336, -7.932360050191106]}, {"species": [{"element": "S", "occu": 1}], "abc": [0.15768585000000002, 0.60911744, 0.9967014999999991], "properties": {"magmom": -0.018000000000000002}, "label": "S", "xyz": [-4.836619069059811, -0.6230331674486641, -7.935185445191106]}, {"species": [{"element": "S", "occu": 1}], "abc": [0.65768585, 0.89088256, 0.003298499999999], "properties": {"magmom": -0.018000000000000002}, "label": "S", "xyz": [-7.048900660940189, -2.5985850874486642, -0.03128362980887944]}, {"species": [{"element": "S", "occu": 1}], "abc": [0.26179059, 0.37437679, 0.63213048], "properties": {"magmom": -0.04}, "label": "S", "xyz": [-2.9730272948550374, -1.0343618054248656, -5.032605390013452]}, {"species": [{"element": "S", "occu": 1}], "abc": [0.76179059, 0.12562321, 0.36786952], "properties": {"magmom": -0.04}, "label": "S", "xyz": [-1.000289195144963, -3.009913725424866, -2.9282128949865487]}, {"species": [{"element": "S", "occu": 1}], "abc": [0.7382094100000001, 0.62562321, 0.36786952], "properties": {"magmom": -0.04}, "label": "S", "xyz": [-4.956390815144963, -2.9167420345751345, -2.931038289986549]}, {"species": [{"element": "S", "occu": 1}], "abc": [0.23820941, 0.87437679, 0.63213048], "properties": {"magmom": -0.04}, "label": "S", "xyz": [-6.9291289148550375, -0.9411901145751345, -5.035430785013452]}]}, "task_ids": null, "uncorrected_energy_per_atom": null, "energy_per_atom": -21.783688739166667, "formation_energy_per_atom": -1.9613542510416662, "energy_above_hull": 0.005439691239583, "is_stable": false, "equilibrium_reaction_energy_per_atom": null, "decomposes_to": null, "xas": null, "grain_boundaries": null, "band_gap": 0.1922, "cbm": null, "vbm": null, "efermi": 5.1567402, "is_gap_direct": null, "is_metal": null, "es_source_calc_id": null, "bandstructure": null, "dos": null, "dos_energy_up": null, "dos_energy_down": null, "is_magnetic": null, "ordering": null, "total_magnetization": 27.99502, "total_magnetization_normalized_vol": null, "total_magnetization_normalized_formula_units": null, "num_magnetic_sites": null, "num_unique_magnetic_sites": null, "types_of_magnetic_species": null, "bulk_modulus": null, "shear_modulus": null, "universal_anisotropy": null, "homogeneous_poisson": null, "e_total": null, "e_ionic": null, "e_electronic": null, "n": null, "e_ij_max": null, "weighted_surface_energy_EV_PER_ANG2": null, "weighted_surface_energy": null, "weighted_work_function": null, "surface_anisotropy": null, "shape_factor": null, "has_reconstructed": null, "possible_species": null, "has_props": null, "theoretical": null, "database_IDs": null, "fields_not_requested": ["builder_meta", "nsites", "elements", "nelements", "composition", "composition_reduced", "chemsys", "symmetry", "property_name", "deprecated", "deprecation_reasons", "last_updated", "origins", "warnings", "task_ids", "uncorrected_energy_per_atom", "equilibrium_reaction_energy_per_atom", "decomposes_to", "xas", "grain_boundaries", "cbm", "vbm", "is_gap_direct", "is_metal", "es_source_calc_id", "bandstructure", "dos", "dos_energy_up", "dos_energy_down", "is_magnetic", "ordering", "total_magnetization_normalized_vol", "total_magnetization_normalized_formula_units", "num_magnetic_sites", "num_unique_magnetic_sites", "types_of_magnetic_species", "bulk_modulus", "shear_modulus", "universal_anisotropy", "homogeneous_poisson", "e_total", "e_ionic", "e_electronic", "n", "e_ij_max", "weighted_surface_energy_EV_PER_ANG2", "weighted_surface_energy", "weighted_work_function", "surface_anisotropy", "shape_factor", "has_reconstructed", "possible_species", "has_props", "theoretical", "database_IDs"]}