{"builder_meta": null, "nsites": null, "elements": null, "nelements": null, "composition": null, "composition_reduced": null, "formula_pretty": "GdSb", "formula_anonymous": "AB", "chemsys": null, "volume": 61.66754092292424, "density": 7.512980054630923, "density_atomic": 30.83377046146212, "symmetry": null, "property_name": null, "material_id": "mp-510403", "deprecated": null, "deprecation_reasons": null, "last_updated": null, "origins": null, "warnings": null, "structure": {"@module": "pymatgen.core.structure", "@class": "Structure", "charge": 0, "lattice": {"matrix": [[3.8405012, 0.0, 2.21731336], [1.28016741, 3.620858499999999, 2.21731336], [-1e-08, -1e-08, 4.43462776]], "pbc": [true, true, true], "a": 4.434628282464713, "b": 4.434627764658815, "c": 4.43462776, "alpha": 60.00000795742321, "beta": 60.000011784273276, "gamma": 59.999999471621315, "volume": 61.66754092292422}, "properties": {}, "sites": [{"species": [{"element": "Gd", "occu": 1}], "abc": [-0.0, 0.0, -0.0], "properties": {"magmom": 6.929}, "label": "Gd", "xyz": [0.0, 0.0, 0.0]}, {"species": [{"element": "Sb", "occu": 1}], "abc": [0.5, 0.5, 0.5], "properties": {"magmom": -0.082}, "label": "Sb", "xyz": [2.5603343, 1.8104292449999995, 4.434627239999999]}]}, "task_ids": null, "uncorrected_energy_per_atom": null, "energy_per_atom": -35.887982065, "formation_energy_per_atom": -1.336321550000001, "energy_above_hull": 0.0, "is_stable": true, "equilibrium_reaction_energy_per_atom": null, "decomposes_to": null, "xas": null, "grain_boundaries": null, "band_gap": 0.0, "cbm": null, "vbm": null, "efermi": 4.77259493, "is_gap_direct": null, "is_metal": null, "es_source_calc_id": null, "bandstructure": null, "dos": null, "dos_energy_up": null, "dos_energy_down": null, "is_magnetic": null, "ordering": null, "total_magnetization": 6.9995755, "total_magnetization_normalized_vol": null, "total_magnetization_normalized_formula_units": null, "num_magnetic_sites": null, "num_unique_magnetic_sites": null, "types_of_magnetic_species": null, "bulk_modulus": null, "shear_modulus": null, "universal_anisotropy": null, "homogeneous_poisson": null, "e_total": null, "e_ionic": null, "e_electronic": null, "n": null, "e_ij_max": null, "weighted_surface_energy_EV_PER_ANG2": null, "weighted_surface_energy": null, "weighted_work_function": null, "surface_anisotropy": null, "shape_factor": null, "has_reconstructed": null, "possible_species": null, "has_props": null, "theoretical": null, "database_IDs": null, "fields_not_requested": ["builder_meta", "nsites", "elements", "nelements", "composition", "composition_reduced", "chemsys", "symmetry", "property_name", "deprecated", "deprecation_reasons", "last_updated", "origins", "warnings", "task_ids", "uncorrected_energy_per_atom", "equilibrium_reaction_energy_per_atom", "decomposes_to", "xas", "grain_boundaries", "cbm", "vbm", "is_gap_direct", "is_metal", "es_source_calc_id", "bandstructure", "dos", "dos_energy_up", "dos_energy_down", "is_magnetic", "ordering", "total_magnetization_normalized_vol", "total_magnetization_normalized_formula_units", "num_magnetic_sites", "num_unique_magnetic_sites", "types_of_magnetic_species", "bulk_modulus", "shear_modulus", "universal_anisotropy", "homogeneous_poisson", "e_total", "e_ionic", "e_electronic", "n", "e_ij_max", "weighted_surface_energy_EV_PER_ANG2", "weighted_surface_energy", "weighted_work_function", "surface_anisotropy", "shape_factor", "has_reconstructed", "possible_species", "has_props", "theoretical", "database_IDs"]}