{"builder_meta": null, "nsites": null, "elements": null, "nelements": null, "composition": null, "composition_reduced": null, "formula_pretty": "GdSi2", "formula_anonymous": "AB2", "chemsys": null, "volume": 116.59408555427555, "density": 6.079106096129809, "density_atomic": 19.43234759237926, "symmetry": null, "property_name": null, "material_id": "mp-21192", "deprecated": null, "deprecation_reasons": null, "last_updated": null, "origins": null, "warnings": null, "structure": {"@module": "pymatgen.core.structure", "@class": "Structure", "charge": 0, "lattice": {"matrix": [[3.88770746, -0.0056852100000000004, -1.12907789], [-0.32912488, 3.8737577, -1.12907825], [0.09475729000000001, 0.102997899999999, 7.68278467]], "pbc": [true, true, true], "a": 4.048347625617056, "b": 4.048350231831155, "c": 7.684059330653269, "alpha": 105.48752868373748, "beta": 105.48753145461156, "gamma": 90.09350686029639, "volume": 116.59408555427555}, "properties": {}, "sites": [{"species": [{"element": "Gd", "occu": 1}], "abc": [0.87502728, 0.62497292, 0.25000045], "properties": {"magmom": 6.902}, "label": "Gd", "xyz": [3.2198453120020396, 2.4417684686480103, 0.22708233894727203]}, {"species": [{"element": "Gd", "occu": 1}], "abc": [0.12497239, 0.3750274, 0.7499995500000001], "properties": {"magmom": 6.902}, "label": "Gd", "xyz": [0.43349316973453694, 1.5293031628305727, 5.197546202343393]}, {"species": [{"element": "Si", "occu": 1}], "abc": [0.70737215, 0.95765879, 0.91593052], "properties": {"magmom": -0.033}, "label": "Si", "xyz": [2.5216577441150343, 3.8000554726201887, 5.156946992564047]}, {"species": [{"element": "Si", "occu": 1}], "abc": [0.45765908, 0.20737224, 0.4159325], "properties": {"magmom": -0.033}, "label": "Si", "xyz": [1.7504058923703307, 0.8435480975297908, 2.444647600531254]}, {"species": [{"element": "Si", "occu": 1}], "abc": [0.54234132, 0.79262783, 0.58406938], "properties": {"magmom": -0.033}, "label": "Si", "xyz": [1.9029356878176171, 3.1275227549952156, 2.979994842437292]}, {"species": [{"element": "Si", "occu": 1}], "abc": [0.29262777, 0.04234081, 0.08406759999999901], "properties": {"magmom": -0.033}, "label": "Si", "xyz": [1.1316817683746154, 0.17101317469549512, 0.2676676357582966]}]}, "task_ids": null, "uncorrected_energy_per_atom": null, "energy_per_atom": -8.853548156666667, "formation_energy_per_atom": -0.544628723333333, "energy_above_hull": 0.0, "is_stable": true, "equilibrium_reaction_energy_per_atom": null, "decomposes_to": null, "xas": null, "grain_boundaries": null, "band_gap": 0.0, "cbm": null, "vbm": null, "efermi": 6.73076708, "is_gap_direct": null, "is_metal": null, "es_source_calc_id": null, "bandstructure": null, "dos": null, "dos_energy_up": null, "dos_energy_down": null, "is_magnetic": null, "ordering": null, "total_magnetization": 13.9536521, "total_magnetization_normalized_vol": null, "total_magnetization_normalized_formula_units": null, "num_magnetic_sites": null, "num_unique_magnetic_sites": null, "types_of_magnetic_species": null, "bulk_modulus": null, "shear_modulus": null, "universal_anisotropy": null, "homogeneous_poisson": null, "e_total": null, "e_ionic": null, "e_electronic": null, "n": null, "e_ij_max": null, "weighted_surface_energy_EV_PER_ANG2": null, "weighted_surface_energy": null, "weighted_work_function": null, "surface_anisotropy": null, "shape_factor": null, "has_reconstructed": null, "possible_species": null, "has_props": null, "theoretical": null, "database_IDs": null, "fields_not_requested": ["builder_meta", "nsites", "elements", "nelements", "composition", "composition_reduced", "chemsys", "symmetry", "property_name", "deprecated", "deprecation_reasons", "last_updated", "origins", "warnings", "task_ids", "uncorrected_energy_per_atom", "equilibrium_reaction_energy_per_atom", "decomposes_to", "xas", "grain_boundaries", "cbm", "vbm", "is_gap_direct", "is_metal", "es_source_calc_id", "bandstructure", "dos", "dos_energy_up", "dos_energy_down", "is_magnetic", "ordering", "total_magnetization_normalized_vol", "total_magnetization_normalized_formula_units", "num_magnetic_sites", "num_unique_magnetic_sites", "types_of_magnetic_species", "bulk_modulus", "shear_modulus", "universal_anisotropy", "homogeneous_poisson", "e_total", "e_ionic", "e_electronic", "n", "e_ij_max", "weighted_surface_energy_EV_PER_ANG2", "weighted_surface_energy", "weighted_work_function", "surface_anisotropy", "shape_factor", "has_reconstructed", "possible_species", "has_props", "theoretical", "database_IDs"]}