{
  "builder_meta": null,
  "nsites": null,
  "elements": null,
  "nelements": null,
  "composition": null,
  "composition_reduced": null,
  "formula_pretty": "GdSi",
  "formula_anonymous": "AB",
  "chemsys": null,
  "volume": 178.143392235412,
  "density": 6.910317229642767,
  "density_atomic": 22.2679240294265,
  "symmetry": null,
  "property_name": null,
  "material_id": "mp-601371",
  "deprecated": null,
  "deprecation_reasons": null,
  "last_updated": null,
  "origins": null,
  "warnings": null,
  "structure": {
    "@module": "pymatgen.core.structure",
    "@class": "Structure",
    "charge": 0,
    "lattice": {
      "matrix": [
        [3.89026396, 1.652e-5, 2.1530000000000002e-5],
        [1.1710000000000001e-5, 5.7642557199999995, 0.00149749],
        [5.0770000000000003e-5, 0.00204668, 7.94415004]
      ],
      "pbc": [true, true, true],
      "a": 3.890263960094653,
      "b": 5.764255914527576,
      "c": 7.944150303809,
      "alpha": 89.97035387080285,
      "beta": 89.99931667399339,
      "gamma": 89.99964021566771,
      "volume": 178.14339223541194
    },
    "properties": {},
    "sites": [
      {
        "species": [{ "element": "Gd", "occu": 1 }],
        "abc": [0.75, 0.61540494, 0.67924308],
        "properties": { "magmom": 7.182 },
        "label": "Gd",
        "xyz": [2.9177396615630187, 3.548754028738231, 5.396946651395324]
      },
      {
        "species": [{ "element": "Gd", "occu": 1 }],
        "abc": [0.25, 0.11606768, 0.82077221],
        "properties": { "magmom": 7.177 },
        "label": "Gd",
        "xyz": [0.9726090197576346, 0.6707277764138925, 6.520516777592512]
      },
      {
        "species": [{ "element": "Gd", "occu": 1 }],
        "abc": [0.250001, 0.38442457, 0.32082377],
        "properties": { "magmom": 7.182 },
        "label": "Gd",
        "xyz": [0.9725906700984774, 2.216582280141144, 2.54925321974931]
      },
      {
        "species": [{ "element": "Gd", "occu": 1 }],
        "abc": [0.750000999999999, 0.88430429, 0.17915327],
        "properties": { "magmom": 7.176 },
        "label": "Gd",
        "xyz": [2.9177213110787097, 5.097735121284202, 1.424560841389393]
      },
      {
        "species": [{ "element": "Si", "occu": 1 }],
        "abc": [0.750002, 0.12018905, 0.53354225],
        "properties": { "magmom": -0.063 },
        "label": "Si",
        "xyz": [2.9177342458817273, 0.693904799229136, 4.238735816122735]
      },
      {
        "species": [{ "element": "Si", "occu": 1 }],
        "abc": [0.75, 0.37884004, 0.03393748],
        "properties": { "magmom": -0.063 },
        "label": "Si",
        "xyz": [2.917704129222728, 2.183812716696595, 0.27018788977099883]
      },
      {
        "species": [{ "element": "Si", "occu": 1 }],
        "abc": [0.250001, 0.87920511, 0.46626045],
        "properties": { "magmom": -0.063 },
        "label": "Si",
        "xyz": [0.9726038477988445, 5.068921500325055, 3.705364955899622]
      },
      {
        "species": [{ "element": "Si", "occu": 1 }],
        "abc": [0.249999, 0.62156431, 0.96626649],
        "properties": { "magmom": -0.063 },
        "label": "Si",
        "xyz": [0.9726184356038075, 3.5848373975485863, 7.6771021440012115]
      }
    ]
  },
  "task_ids": null,
  "uncorrected_energy_per_atom": null,
  "energy_per_atom": -10.521192899999999,
  "formation_energy_per_atom": -0.7704727649999991,
  "energy_above_hull": 0.0,
  "is_stable": true,
  "equilibrium_reaction_energy_per_atom": null,
  "decomposes_to": null,
  "xas": null,
  "grain_boundaries": null,
  "band_gap": 0.0,
  "cbm": null,
  "vbm": null,
  "efermi": 5.25582809,
  "is_gap_direct": null,
  "is_metal": null,
  "es_source_calc_id": null,
  "bandstructure": null,
  "dos": null,
  "dos_energy_up": null,
  "dos_energy_down": null,
  "is_magnetic": null,
  "ordering": null,
  "total_magnetization": 30.4881095,
  "total_magnetization_normalized_vol": null,
  "total_magnetization_normalized_formula_units": null,
  "num_magnetic_sites": null,
  "num_unique_magnetic_sites": null,
  "types_of_magnetic_species": null,
  "bulk_modulus": null,
  "shear_modulus": null,
  "universal_anisotropy": null,
  "homogeneous_poisson": null,
  "e_total": null,
  "e_ionic": null,
  "e_electronic": null,
  "n": null,
  "e_ij_max": null,
  "weighted_surface_energy_EV_PER_ANG2": null,
  "weighted_surface_energy": null,
  "weighted_work_function": null,
  "surface_anisotropy": null,
  "shape_factor": null,
  "has_reconstructed": null,
  "possible_species": null,
  "has_props": null,
  "theoretical": null,
  "database_IDs": null,
  "fields_not_requested": [
    "builder_meta",
    "nsites",
    "elements",
    "nelements",
    "composition",
    "composition_reduced",
    "chemsys",
    "symmetry",
    "property_name",
    "deprecated",
    "deprecation_reasons",
    "last_updated",
    "origins",
    "warnings",
    "task_ids",
    "uncorrected_energy_per_atom",
    "equilibrium_reaction_energy_per_atom",
    "decomposes_to",
    "xas",
    "grain_boundaries",
    "cbm",
    "vbm",
    "is_gap_direct",
    "is_metal",
    "es_source_calc_id",
    "bandstructure",
    "dos",
    "dos_energy_up",
    "dos_energy_down",
    "is_magnetic",
    "ordering",
    "total_magnetization_normalized_vol",
    "total_magnetization_normalized_formula_units",
    "num_magnetic_sites",
    "num_unique_magnetic_sites",
    "types_of_magnetic_species",
    "bulk_modulus",
    "shear_modulus",
    "universal_anisotropy",
    "homogeneous_poisson",
    "e_total",
    "e_ionic",
    "e_electronic",
    "n",
    "e_ij_max",
    "weighted_surface_energy_EV_PER_ANG2",
    "weighted_surface_energy",
    "weighted_work_function",
    "surface_anisotropy",
    "shape_factor",
    "has_reconstructed",
    "possible_species",
    "has_props",
    "theoretical",
    "database_IDs"
  ]
}
