{
  "builder_meta": null,
  "nsites": null,
  "elements": null,
  "nelements": null,
  "composition": null,
  "composition_reduced": null,
  "formula_pretty": "GdSn2",
  "formula_anonymous": "AB2",
  "chemsys": null,
  "volume": 160.98663444826946,
  "density": 8.141855448572821,
  "density_atomic": 26.83110574137824,
  "symmetry": null,
  "property_name": null,
  "material_id": "mp-1071567",
  "deprecated": null,
  "deprecation_reasons": null,
  "last_updated": null,
  "origins": null,
  "warnings": null,
  "structure": {
    "@module": "pymatgen.core.structure",
    "@class": "Structure",
    "charge": 0,
    "lattice": {
      "matrix": [
        [-1.855e-5, 2.88e-6, -4.33701156],
        [-4.45020129, -0.0030174, -2.5440000000000004e-5],
        [2.23072457, 8.34254065, 2.5630000000000004e-5]
      ],
      "pbc": [true, true, true],
      "a": 4.337011560040626,
      "b": 4.450202313026636,
      "c": 8.6356306431413,
      "alpha": 105.00903225148818,
      "beta": 90.00019659768442,
      "gamma": 89.99942742714633,
      "volume": 160.98663444826946
    },
    "properties": {},
    "sites": [
      {
        "species": [{ "element": "Gd", "occu": 1 }],
        "abc": [0.749999, 0.10043057, 0.20054939],
        "properties": { "magmom": -7.009 },
        "label": "Gd",
        "xyz": [0.00042028712062702756, 1.6727905592029055, -3.252751747861274]
      },
      {
        "species": [{ "element": "Gd", "occu": 1 }],
        "abc": [0.250002, 0.8995656, 0.7994408],
        "properties": { "magmom": -7.009 },
        "label": "Gd",
        "xyz": [-2.219920396276268, 6.666653742032839, -1.0842639593042798]
      },
      {
        "species": [{ "element": "Sn", "occu": 1 }],
        "abc": [0.750000999999999, 0.74744943, 0.49423459000000003],
        "properties": { "magmom": 0.021 },
        "label": "Sn",
        "xyz": [-2.2238130868574384, 4.120918963803882, -3.2527693548925134]
      },
      {
        "species": [{ "element": "Sn", "occu": 1 }],
        "abc": [0.25, 0.25255918, 0.50578731],
        "properties": { "magmom": 0.021 },
        "label": "Sn",
        "xyz": [0.00432835347386451, 4.21878984185942, -1.0842463517767837]
      },
      {
        "species": [{ "element": "Sn", "occu": 1 }],
        "abc": [0.750000999999999, 0.439780599999999, 0.87901509],
        "properties": { "magmom": 0.047 },
        "label": "Sn",
        "xyz": [0.0037144527082417778, 7.331894286308848, -3.252751665873263]
      },
      {
        "species": [{ "element": "Sn", "occu": 1 }],
        "abc": [0.249999, 0.56021562, 0.12097383],
        "properties": { "magmom": 0.047 },
        "label": "Sn",
        "xyz": [-2.2232176173755964, 1.0075394197465215, -1.0842597043145497]
      }
    ]
  },
  "task_ids": null,
  "uncorrected_energy_per_atom": null,
  "energy_per_atom": -31.57700944833333,
  "formation_energy_per_atom": -0.6138851616666631,
  "energy_above_hull": 0.0,
  "is_stable": true,
  "equilibrium_reaction_energy_per_atom": null,
  "decomposes_to": null,
  "xas": null,
  "grain_boundaries": null,
  "band_gap": 0.0,
  "cbm": null,
  "vbm": null,
  "efermi": 6.41323478,
  "is_gap_direct": null,
  "is_metal": null,
  "es_source_calc_id": null,
  "bandstructure": null,
  "dos": null,
  "dos_energy_up": null,
  "dos_energy_down": null,
  "is_magnetic": null,
  "ordering": null,
  "total_magnetization": 14.3619133,
  "total_magnetization_normalized_vol": null,
  "total_magnetization_normalized_formula_units": null,
  "num_magnetic_sites": null,
  "num_unique_magnetic_sites": null,
  "types_of_magnetic_species": null,
  "bulk_modulus": null,
  "shear_modulus": null,
  "universal_anisotropy": null,
  "homogeneous_poisson": null,
  "e_total": null,
  "e_ionic": null,
  "e_electronic": null,
  "n": null,
  "e_ij_max": null,
  "weighted_surface_energy_EV_PER_ANG2": null,
  "weighted_surface_energy": null,
  "weighted_work_function": null,
  "surface_anisotropy": null,
  "shape_factor": null,
  "has_reconstructed": null,
  "possible_species": null,
  "has_props": null,
  "theoretical": null,
  "database_IDs": null,
  "fields_not_requested": [
    "builder_meta",
    "nsites",
    "elements",
    "nelements",
    "composition",
    "composition_reduced",
    "chemsys",
    "symmetry",
    "property_name",
    "deprecated",
    "deprecation_reasons",
    "last_updated",
    "origins",
    "warnings",
    "task_ids",
    "uncorrected_energy_per_atom",
    "equilibrium_reaction_energy_per_atom",
    "decomposes_to",
    "xas",
    "grain_boundaries",
    "cbm",
    "vbm",
    "is_gap_direct",
    "is_metal",
    "es_source_calc_id",
    "bandstructure",
    "dos",
    "dos_energy_up",
    "dos_energy_down",
    "is_magnetic",
    "ordering",
    "total_magnetization_normalized_vol",
    "total_magnetization_normalized_formula_units",
    "num_magnetic_sites",
    "num_unique_magnetic_sites",
    "types_of_magnetic_species",
    "bulk_modulus",
    "shear_modulus",
    "universal_anisotropy",
    "homogeneous_poisson",
    "e_total",
    "e_ionic",
    "e_electronic",
    "n",
    "e_ij_max",
    "weighted_surface_energy_EV_PER_ANG2",
    "weighted_surface_energy",
    "weighted_work_function",
    "surface_anisotropy",
    "shape_factor",
    "has_reconstructed",
    "possible_species",
    "has_props",
    "theoretical",
    "database_IDs"
  ]
}
