{
  "builder_meta": null,
  "nsites": null,
  "elements": null,
  "nelements": null,
  "composition": null,
  "composition_reduced": null,
  "formula_pretty": "GdTc3",
  "formula_anonymous": "AB3",
  "chemsys": null,
  "volume": 67.7207042012302,
  "density": 11.064832574343457,
  "density_atomic": 16.93017605030755,
  "symmetry": null,
  "property_name": null,
  "material_id": "mp-1184715",
  "deprecated": null,
  "deprecation_reasons": null,
  "last_updated": null,
  "origins": null,
  "warnings": null,
  "structure": {
    "@module": "pymatgen.core.structure",
    "@class": "Structure",
    "charge": 0,
    "lattice": {
      "matrix": [
        [-2.279561, 2.280003, 3.255807],
        [2.279162, -2.280375, 3.255789],
        [2.280716, 2.28153, -3.256062]
      ],
      "pbc": [true, true, true],
      "a": 4.582040075553573,
      "b": 4.582013921343976,
      "c": 4.583555864326298,
      "alpha": 120.33042184651187,
      "beta": 120.30675513329845,
      "gamma": 89.43925858872858,
      "volume": 67.72070420123022
    },
    "properties": {},
    "sites": [
      {
        "species": [{ "element": "Gd", "occu": 1 }],
        "abc": [0.999996999999999, 9e-6, 1.3000000000000001e-5],
        "properties": { "magmom": 6.983 },
        "label": "Gd",
        "xyz": [-2.279503999550998, 2.2800052965059976, 3.2557842058739968]
      },
      {
        "species": [{ "element": "Tc", "occu": 1 }],
        "abc": [0.749993999999999, 0.250021999999999, 0.499994],
        "properties": { "magmom": -0.054 },
        "label": "Tc",
        "xyz": [0.0005278846339997756, 2.280595962552, 1.6278431288879938]
      },
      {
        "species": [{ "element": "Tc", "occu": 1 }],
        "abc": [0.250008, 0.749970999999999, 0.499996999999999],
        "properties": { "magmom": -0.054 },
        "label": "Tc",
        "xyz": [2.279748075665996, 0.000562026308999819, 1.627703896761]
      },
      {
        "species": [{ "element": "Tc", "occu": 1 }],
        "abc": [0.499998999999999, 0.499994999999999, 0.999995],
        "properties": { "magmom": -0.012 },
        "label": "Tc",
        "xyz": [2.2804959801709996, 2.281341714222, -0.00026725444200614845]
      }
    ]
  },
  "task_ids": null,
  "uncorrected_energy_per_atom": null,
  "energy_per_atom": -30.10444571875,
  "formation_energy_per_atom": 0.218302143750001,
  "energy_above_hull": 0.218302143750001,
  "is_stable": false,
  "equilibrium_reaction_energy_per_atom": null,
  "decomposes_to": null,
  "xas": null,
  "grain_boundaries": null,
  "band_gap": 0.0,
  "cbm": null,
  "vbm": null,
  "efermi": 7.07635515,
  "is_gap_direct": null,
  "is_metal": null,
  "es_source_calc_id": null,
  "bandstructure": null,
  "dos": null,
  "dos_energy_up": null,
  "dos_energy_down": null,
  "is_magnetic": null,
  "ordering": null,
  "total_magnetization": 6.9514689,
  "total_magnetization_normalized_vol": null,
  "total_magnetization_normalized_formula_units": null,
  "num_magnetic_sites": null,
  "num_unique_magnetic_sites": null,
  "types_of_magnetic_species": null,
  "bulk_modulus": null,
  "shear_modulus": null,
  "universal_anisotropy": null,
  "homogeneous_poisson": null,
  "e_total": null,
  "e_ionic": null,
  "e_electronic": null,
  "n": null,
  "e_ij_max": null,
  "weighted_surface_energy_EV_PER_ANG2": null,
  "weighted_surface_energy": null,
  "weighted_work_function": null,
  "surface_anisotropy": null,
  "shape_factor": null,
  "has_reconstructed": null,
  "possible_species": null,
  "has_props": null,
  "theoretical": null,
  "database_IDs": null,
  "fields_not_requested": [
    "builder_meta",
    "nsites",
    "elements",
    "nelements",
    "composition",
    "composition_reduced",
    "chemsys",
    "symmetry",
    "property_name",
    "deprecated",
    "deprecation_reasons",
    "last_updated",
    "origins",
    "warnings",
    "task_ids",
    "uncorrected_energy_per_atom",
    "equilibrium_reaction_energy_per_atom",
    "decomposes_to",
    "xas",
    "grain_boundaries",
    "cbm",
    "vbm",
    "is_gap_direct",
    "is_metal",
    "es_source_calc_id",
    "bandstructure",
    "dos",
    "dos_energy_up",
    "dos_energy_down",
    "is_magnetic",
    "ordering",
    "total_magnetization_normalized_vol",
    "total_magnetization_normalized_formula_units",
    "num_magnetic_sites",
    "num_unique_magnetic_sites",
    "types_of_magnetic_species",
    "bulk_modulus",
    "shear_modulus",
    "universal_anisotropy",
    "homogeneous_poisson",
    "e_total",
    "e_ionic",
    "e_electronic",
    "n",
    "e_ij_max",
    "weighted_surface_energy_EV_PER_ANG2",
    "weighted_surface_energy",
    "weighted_work_function",
    "surface_anisotropy",
    "shape_factor",
    "has_reconstructed",
    "possible_species",
    "has_props",
    "theoretical",
    "database_IDs"
  ]
}
