{"builder_meta": null, "nsites": null, "elements": null, "nelements": null, "composition": null, "composition_reduced": null, "formula_pretty": "GdZn2", "formula_anonymous": "AB2", "chemsys": null, "volume": 120.83642963427323, "density": 7.9172840390122445, "density_atomic": 20.139404939045537, "symmetry": null, "property_name": null, "material_id": "mp-1076988", "deprecated": null, "deprecation_reasons": null, "last_updated": null, "origins": null, "warnings": null, "structure": {"@module": "pymatgen.core.structure", "@class": "Structure", "charge": 0, "lattice": {"matrix": [[-4.46545825, 0.0, 2e-08], [-2.23273015, -3.56464633, 3.79564345], [-2.23273015, 3.56464633, 3.79564345]], "pbc": [true, true, true], "a": 4.46545825, "b": 5.665571160988925, "c": 5.665571160988925, "alpha": 77.97883915144, "beta": 66.79093076865149, "gamma": 66.79093076865149, "volume": 120.83642963427323}, "properties": {}, "sites": [{"species": [{"element": "Gd", "occu": 1}], "abc": [0.53249398, 0.71750602, 0.21750602], "properties": {"magmom": -7.185}, "label": "Gd", "xyz": [-4.465459208387341, -1.782323165, 3.5489723359470173]}, {"species": [{"element": "Gd", "occu": 1}], "abc": [0.46750602, 0.28249398000000003, 0.78249398], "properties": {"magmom": -7.185}, "label": "Gd", "xyz": [-4.46545934161266, 1.782323165, 4.042314584052983]}, {"species": [{"element": "Zn", "occu": 1}], "abc": [0.16542887, 0.28883842, 0.38030185], "properties": {"magmom": -0.021}, "label": "Zn", "xyz": [-2.2327253677378183, 0.3260347800787118, 2.539817886265309]}, {"species": [{"element": "Zn", "occu": 1}], "abc": [0.83457113, 0.71116158, 0.6196981500000001], "properties": {"magmom": -0.021}, "label": "Zn", "xyz": [-6.698193182262183, -0.32603478007871134, 5.051469033734691]}, {"species": [{"element": "Zn", "occu": 1}], "abc": [0.83457113, 0.11969815, 0.21116158000000002], "properties": {"magmom": -0.021}, "label": "Zn", "xyz": [-4.465463032262182, 0.326034780078712, 1.2558255837346912]}, {"species": [{"element": "Zn", "occu": 1}], "abc": [0.16542887, 0.88030185, 0.78883842], "properties": {"magmom": -0.021}, "label": "Zn", "xyz": [-4.465455517737818, -0.3260347800787122, 6.335461336265309]}]}, "task_ids": null, "uncorrected_energy_per_atom": null, "energy_per_atom": -20.803257153333334, "formation_energy_per_atom": -0.397186983333331, "energy_above_hull": 0.0, "is_stable": true, "equilibrium_reaction_energy_per_atom": null, "decomposes_to": null, "xas": null, "grain_boundaries": null, "band_gap": 0.0, "cbm": null, "vbm": null, "efermi": 2.54387457, "is_gap_direct": null, "is_metal": null, "es_source_calc_id": null, "bandstructure": null, "dos": null, "dos_energy_up": null, "dos_energy_down": null, "is_magnetic": null, "ordering": null, "total_magnetization": 15.5685797, "total_magnetization_normalized_vol": null, "total_magnetization_normalized_formula_units": null, "num_magnetic_sites": null, "num_unique_magnetic_sites": null, "types_of_magnetic_species": null, "bulk_modulus": null, "shear_modulus": null, "universal_anisotropy": null, "homogeneous_poisson": null, "e_total": null, "e_ionic": null, "e_electronic": null, "n": null, "e_ij_max": null, "weighted_surface_energy_EV_PER_ANG2": null, "weighted_surface_energy": null, "weighted_work_function": null, "surface_anisotropy": null, "shape_factor": null, "has_reconstructed": null, "possible_species": null, "has_props": null, "theoretical": null, "database_IDs": null, "fields_not_requested": ["builder_meta", "nsites", "elements", "nelements", "composition", "composition_reduced", "chemsys", "symmetry", "property_name", "deprecated", "deprecation_reasons", "last_updated", "origins", "warnings", "task_ids", "uncorrected_energy_per_atom", "equilibrium_reaction_energy_per_atom", "decomposes_to", "xas", "grain_boundaries", "cbm", "vbm", "is_gap_direct", "is_metal", "es_source_calc_id", "bandstructure", "dos", "dos_energy_up", "dos_energy_down", "is_magnetic", "ordering", "total_magnetization_normalized_vol", "total_magnetization_normalized_formula_units", "num_magnetic_sites", "num_unique_magnetic_sites", "types_of_magnetic_species", "bulk_modulus", "shear_modulus", "universal_anisotropy", "homogeneous_poisson", "e_total", "e_ionic", "e_electronic", "n", "e_ij_max", "weighted_surface_energy_EV_PER_ANG2", "weighted_surface_energy", "weighted_work_function", "surface_anisotropy", "shape_factor", "has_reconstructed", "possible_species", "has_props", "theoretical", "database_IDs"]}