{"builder_meta": null, "nsites": null, "elements": null, "nelements": null, "composition": null, "composition_reduced": null, "formula_pretty": "Ge2Mo", "formula_anonymous": "AB2", "chemsys": null, "volume": 188.64806130087524, "density": 8.493174663616722, "density_atomic": 15.720671775072937, "symmetry": null, "property_name": null, "material_id": "mp-13688", "deprecated": null, "deprecation_reasons": null, "last_updated": null, "origins": null, "warnings": null, "structure": {"@module": "pymatgen.core.structure", "@class": "Structure", "charge": 0, "lattice": {"matrix": [[3.46229404, 0.0, 0.0], [-0.0, 6.35035722, 0.0], [0.0, 0.0, 8.58005837]], "pbc": [true, true, true], "a": 3.46229404, "b": 6.35035722, "c": 8.58005837, "alpha": 90.0, "beta": 90.0, "gamma": 90.0, "volume": 188.64806130087524}, "properties": {}, "sites": [{"species": [{"element": "Ge", "occu": 1}], "abc": [0.25, 0.43657617, 0.86856711], "properties": {"magmom": 0.0}, "label": "Ge", "xyz": [0.86557351, 2.7724146332394475, 7.4523565020622105]}, {"species": [{"element": "Ge", "occu": 1}], "abc": [0.75, 0.56342383, 0.13143289], "properties": {"magmom": 0.0}, "label": "Ge", "xyz": [2.5967205300000002, 3.5779425867605523, 1.1277018679377893]}, {"species": [{"element": "Ge", "occu": 1}], "abc": [0.25, 0.93657617, 0.63143289], "properties": {"magmom": 0.0}, "label": "Ge", "xyz": [0.86557351, 5.947593243239448, 5.417731052937789]}, {"species": [{"element": "Ge", "occu": 1}], "abc": [0.75, 0.06342383, 0.36856711000000003], "properties": {"magmom": 0.0}, "label": "Ge", "xyz": [2.5967205300000002, 0.40276397676055264, 3.162327317062211]}, {"species": [{"element": "Ge", "occu": 1}], "abc": [0.75, 0.13527585, 0.95963591], "properties": {"magmom": -0.0}, "label": "Ge", "xyz": [2.5967205300000002, 0.859049970739137, 8.233732121748067]}, {"species": [{"element": "Ge", "occu": 1}], "abc": [0.25, 0.86472415, 0.04036409], "properties": {"magmom": -0.0}, "label": "Ge", "xyz": [0.86557351, 5.491307249260863, 0.34632624825193326]}, {"species": [{"element": "Ge", "occu": 1}], "abc": [0.75, 0.63527585, 0.54036409], "properties": {"magmom": -0.0}, "label": "Ge", "xyz": [2.5967205300000002, 4.034228580739137, 4.636355433251933]}, {"species": [{"element": "Ge", "occu": 1}], "abc": [0.25, 0.36472415, 0.45963591000000004], "properties": {"magmom": -0.0}, "label": "Ge", "xyz": [0.86557351, 2.3161286392608633, 3.9437029367480667]}, {"species": [{"element": "Mo", "occu": 1}], "abc": [0.25, 0.75011286, 0.32907474000000003], "properties": {"magmom": 0.0}, "label": "Mo", "xyz": [0.86557351, 4.763484616315849, 2.823480477292574]}, {"species": [{"element": "Mo", "occu": 1}], "abc": [0.75, 0.24988714, 0.67092526], "properties": {"magmom": 0.0}, "label": "Mo", "xyz": [2.5967205300000002, 1.586872603684151, 5.756577892707425]}, {"species": [{"element": "Mo", "occu": 1}], "abc": [0.25, 0.25011286, 0.17092526], "properties": {"magmom": 0.0}, "label": "Mo", "xyz": [0.86557351, 1.5883060063158492, 1.4665487077074262]}, {"species": [{"element": "Mo", "occu": 1}], "abc": [0.75, 0.74988714, 0.82907474], "properties": {"magmom": 0.0}, "label": "Mo", "xyz": [2.5967205300000002, 4.762051213684151, 7.113509662292574]}]}, "task_ids": null, "uncorrected_energy_per_atom": null, "energy_per_atom": -18.089498701666667, "formation_energy_per_atom": -0.15085383499999902, "energy_above_hull": 0.0, "is_stable": true, "equilibrium_reaction_energy_per_atom": null, "decomposes_to": null, "xas": null, "grain_boundaries": null, "band_gap": 0.0, "cbm": null, "vbm": null, "efermi": 8.12871854, "is_gap_direct": null, "is_metal": null, "es_source_calc_id": null, "bandstructure": null, "dos": null, "dos_energy_up": null, "dos_energy_down": null, "is_magnetic": null, "ordering": null, "total_magnetization": 0.0, "total_magnetization_normalized_vol": null, "total_magnetization_normalized_formula_units": null, "num_magnetic_sites": null, "num_unique_magnetic_sites": null, "types_of_magnetic_species": null, "bulk_modulus": null, "shear_modulus": null, "universal_anisotropy": null, "homogeneous_poisson": null, "e_total": null, "e_ionic": null, "e_electronic": null, "n": null, "e_ij_max": null, "weighted_surface_energy_EV_PER_ANG2": null, "weighted_surface_energy": null, "weighted_work_function": null, "surface_anisotropy": null, "shape_factor": null, "has_reconstructed": null, "possible_species": null, "has_props": null, "theoretical": null, "database_IDs": null, "fields_not_requested": ["builder_meta", "nsites", "elements", "nelements", "composition", "composition_reduced", "chemsys", "symmetry", "property_name", "deprecated", "deprecation_reasons", "last_updated", "origins", "warnings", "task_ids", "uncorrected_energy_per_atom", "equilibrium_reaction_energy_per_atom", "decomposes_to", "xas", "grain_boundaries", "cbm", "vbm", "is_gap_direct", "is_metal", "es_source_calc_id", "bandstructure", "dos", "dos_energy_up", "dos_energy_down", "is_magnetic", "ordering", "total_magnetization_normalized_vol", "total_magnetization_normalized_formula_units", "num_magnetic_sites", "num_unique_magnetic_sites", "types_of_magnetic_species", "bulk_modulus", "shear_modulus", "universal_anisotropy", "homogeneous_poisson", "e_total", "e_ionic", "e_electronic", "n", "e_ij_max", "weighted_surface_energy_EV_PER_ANG2", "weighted_surface_energy", "weighted_work_function", "surface_anisotropy", "shape_factor", "has_reconstructed", "possible_species", "has_props", "theoretical", "database_IDs"]}