{"builder_meta": null, "nsites": null, "elements": null, "nelements": null, "composition": null, "composition_reduced": null, "formula_pretty": "Ge2Os", "formula_anonymous": "AB2", "chemsys": null, "volume": 94.3931109418152, "density": 11.804409382764906, "density_atomic": 15.7321851569692, "symmetry": null, "property_name": null, "material_id": "mp-10032", "deprecated": null, "deprecation_reasons": null, "last_updated": null, "origins": null, "warnings": null, "structure": {"@module": "pymatgen.core.structure", "@class": "Structure", "charge": 0, "lattice": {"matrix": [[3.03543957, -0.0, 0.69543595], [1.40702324, 4.47324209, 0.83088963], [0.0047368, -0.01121539, 6.9515948]], "pbc": [true, true, true], "a": 3.114084864558798, "b": 4.76235097098998, "c": 6.951605461016478, "alpha": 80.02862692692968, "beta": 77.05689614405509, "gamma": 70.91633827094962, "volume": 94.3931109418152}, "properties": {}, "sites": [{"species": [{"element": "Ge", "occu": 1}], "abc": [0.8560604700000001, 0.75584395, 0.5320361100000001], "properties": {"magmom": -0.0}, "label": "Ge", "xyz": [3.6645299770600444, 3.375105978144123, 4.921857581853363]}, {"species": [{"element": "Ge", "occu": 1}], "abc": [0.14393953, 0.24415605, 0.46796389], "properties": {"magmom": -0.0}, "label": "Ge", "xyz": [0.7826696329399562, 1.0869207218558776, 3.5560627981466366]}, {"species": [{"element": "Ge", "occu": 1}], "abc": [0.60126241, 0.68890679, 0.10856938000000001], "properties": {"magmom": 0.0}, "label": "Ge", "xyz": [2.7949178464305473, 3.0804292011760332, 1.745275340592451]}, {"species": [{"element": "Ge", "occu": 1}], "abc": [0.39873759000000003, 0.31109321, 0.8914306200000001], "properties": {"magmom": 0.0}, "label": "Ge", "xyz": [1.6522817635694529, 1.3815974988239672, 6.732645039407549]}, {"species": [{"element": "Os", "occu": 1}], "abc": [0.15472722, 0.8919617200000001, 0.79858283], "properties": {"magmom": 0.0}, "label": "Os", "xyz": [1.7284587225236123, 3.981004290687042, 6.400148863133806]}, {"species": [{"element": "Os", "occu": 1}], "abc": [0.8452727800000001, 0.10803828, 0.20141717], "properties": {"magmom": 0.0}, "label": "Os", "xyz": [2.718740887476388, 0.4810224093129589, 2.077771516866193]}]}, "task_ids": null, "uncorrected_energy_per_atom": null, "energy_per_atom": -26.99320664, "formation_energy_per_atom": -0.083478636666669, "energy_above_hull": 0.0, "is_stable": true, "equilibrium_reaction_energy_per_atom": null, "decomposes_to": null, "xas": null, "grain_boundaries": null, "band_gap": 0.0, "cbm": null, "vbm": null, "efermi": 8.1768512, "is_gap_direct": null, "is_metal": null, "es_source_calc_id": null, "bandstructure": null, "dos": null, "dos_energy_up": null, "dos_energy_down": null, "is_magnetic": null, "ordering": null, "total_magnetization": 0.0, "total_magnetization_normalized_vol": null, "total_magnetization_normalized_formula_units": null, "num_magnetic_sites": null, "num_unique_magnetic_sites": null, "types_of_magnetic_species": null, "bulk_modulus": null, "shear_modulus": null, "universal_anisotropy": null, "homogeneous_poisson": null, "e_total": null, "e_ionic": null, "e_electronic": null, "n": null, "e_ij_max": null, "weighted_surface_energy_EV_PER_ANG2": null, "weighted_surface_energy": null, "weighted_work_function": null, "surface_anisotropy": null, "shape_factor": null, "has_reconstructed": null, "possible_species": null, "has_props": null, "theoretical": null, "database_IDs": null, "fields_not_requested": ["builder_meta", "nsites", "elements", "nelements", "composition", "composition_reduced", "chemsys", "symmetry", "property_name", "deprecated", "deprecation_reasons", "last_updated", "origins", "warnings", "task_ids", "uncorrected_energy_per_atom", "equilibrium_reaction_energy_per_atom", "decomposes_to", "xas", "grain_boundaries", "cbm", "vbm", "is_gap_direct", "is_metal", "es_source_calc_id", "bandstructure", "dos", "dos_energy_up", "dos_energy_down", "is_magnetic", "ordering", "total_magnetization_normalized_vol", "total_magnetization_normalized_formula_units", "num_magnetic_sites", "num_unique_magnetic_sites", "types_of_magnetic_species", "bulk_modulus", "shear_modulus", "universal_anisotropy", "homogeneous_poisson", "e_total", "e_ionic", "e_electronic", "n", "e_ij_max", "weighted_surface_energy_EV_PER_ANG2", "weighted_surface_energy", "weighted_work_function", "surface_anisotropy", "shape_factor", "has_reconstructed", "possible_species", "has_props", "theoretical", "database_IDs"]}