{
  "builder_meta": null,
  "nsites": null,
  "elements": null,
  "nelements": null,
  "composition": null,
  "composition_reduced": null,
  "formula_pretty": "Ge2Pt",
  "formula_anonymous": "AB2",
  "chemsys": null,
  "volume": 106.75576252015794,
  "density": 10.588425496141662,
  "density_atomic": 17.792627086692992,
  "symmetry": null,
  "property_name": null,
  "material_id": "mp-1543",
  "deprecated": null,
  "deprecation_reasons": null,
  "last_updated": null,
  "origins": null,
  "warnings": null,
  "structure": {
    "@module": "pymatgen.core.structure",
    "@class": "Structure",
    "charge": 0,
    "lattice": {
      "matrix": [
        [2.98875548, 0.0, 0.0],
        [0.0, 5.74112109, -0.0],
        [0.0, -0.0, 6.22163078]
      ],
      "pbc": [true, true, true],
      "a": 2.98875548,
      "b": 5.74112109,
      "c": 6.22163078,
      "alpha": 90.0,
      "beta": 90.0,
      "gamma": 90.0,
      "volume": 106.75576252015794
    },
    "properties": {},
    "sites": [
      {
        "species": [{ "element": "Ge", "occu": 1 }],
        "abc": [0.0, 0.83038965, 0.37319563],
        "properties": { "magmom": -0.0 },
        "label": "Ge",
        "xyz": [0.0, 4.7673675325327185, 2.3218854185694915]
      },
      {
        "species": [{ "element": "Ge", "occu": 1 }],
        "abc": [0.0, 0.16961035, 0.62680437],
        "properties": { "magmom": -0.0 },
        "label": "Ge",
        "xyz": [0.0, 0.9737535574672814, 3.8997453614305084]
      },
      {
        "species": [{ "element": "Ge", "occu": 1 }],
        "abc": [0.5, 0.33038965, 0.12680437],
        "properties": { "magmom": -0.0 },
        "label": "Ge",
        "xyz": [1.49437774, 1.8968069875327185, 0.7889299714305086]
      },
      {
        "species": [{ "element": "Ge", "occu": 1 }],
        "abc": [0.5, 0.66961035, 0.87319563],
        "properties": { "magmom": -0.0 },
        "label": "Ge",
        "xyz": [1.49437774, 3.8443141024672816, 5.432700808569491]
      },
      {
        "species": [{ "element": "Pt", "occu": 1 }],
        "abc": [-0.0, 0.0, 0.0],
        "properties": { "magmom": 0.0 },
        "label": "Pt",
        "xyz": [0.0, 0.0, 0.0]
      },
      {
        "species": [{ "element": "Pt", "occu": 1 }],
        "abc": [0.5, 0.5, 0.5],
        "properties": { "magmom": 0.0 },
        "label": "Pt",
        "xyz": [1.49437774, 2.870560545, 3.11081539]
      }
    ]
  },
  "task_ids": null,
  "uncorrected_energy_per_atom": null,
  "energy_per_atom": -26.745952445,
  "formation_energy_per_atom": -0.33539509166666903,
  "energy_above_hull": 0.015904859166663,
  "is_stable": false,
  "equilibrium_reaction_energy_per_atom": null,
  "decomposes_to": null,
  "xas": null,
  "grain_boundaries": null,
  "band_gap": 0.0,
  "cbm": null,
  "vbm": null,
  "efermi": 6.28816702,
  "is_gap_direct": null,
  "is_metal": null,
  "es_source_calc_id": null,
  "bandstructure": null,
  "dos": null,
  "dos_energy_up": null,
  "dos_energy_down": null,
  "is_magnetic": null,
  "ordering": null,
  "total_magnetization": 0.0,
  "total_magnetization_normalized_vol": null,
  "total_magnetization_normalized_formula_units": null,
  "num_magnetic_sites": null,
  "num_unique_magnetic_sites": null,
  "types_of_magnetic_species": null,
  "bulk_modulus": null,
  "shear_modulus": null,
  "universal_anisotropy": null,
  "homogeneous_poisson": null,
  "e_total": null,
  "e_ionic": null,
  "e_electronic": null,
  "n": null,
  "e_ij_max": null,
  "weighted_surface_energy_EV_PER_ANG2": null,
  "weighted_surface_energy": null,
  "weighted_work_function": null,
  "surface_anisotropy": null,
  "shape_factor": null,
  "has_reconstructed": null,
  "possible_species": null,
  "has_props": null,
  "theoretical": null,
  "database_IDs": null,
  "fields_not_requested": [
    "builder_meta",
    "nsites",
    "elements",
    "nelements",
    "composition",
    "composition_reduced",
    "chemsys",
    "symmetry",
    "property_name",
    "deprecated",
    "deprecation_reasons",
    "last_updated",
    "origins",
    "warnings",
    "task_ids",
    "uncorrected_energy_per_atom",
    "equilibrium_reaction_energy_per_atom",
    "decomposes_to",
    "xas",
    "grain_boundaries",
    "cbm",
    "vbm",
    "is_gap_direct",
    "is_metal",
    "es_source_calc_id",
    "bandstructure",
    "dos",
    "dos_energy_up",
    "dos_energy_down",
    "is_magnetic",
    "ordering",
    "total_magnetization_normalized_vol",
    "total_magnetization_normalized_formula_units",
    "num_magnetic_sites",
    "num_unique_magnetic_sites",
    "types_of_magnetic_species",
    "bulk_modulus",
    "shear_modulus",
    "universal_anisotropy",
    "homogeneous_poisson",
    "e_total",
    "e_ionic",
    "e_electronic",
    "n",
    "e_ij_max",
    "weighted_surface_energy_EV_PER_ANG2",
    "weighted_surface_energy",
    "weighted_work_function",
    "surface_anisotropy",
    "shape_factor",
    "has_reconstructed",
    "possible_species",
    "has_props",
    "theoretical",
    "database_IDs"
  ]
}
