{
  "builder_meta": null,
  "nsites": null,
  "elements": null,
  "nelements": null,
  "composition": null,
  "composition_reduced": null,
  "formula_pretty": "Ge2Pt3",
  "formula_anonymous": "A2B3",
  "chemsys": null,
  "volume": 644.8822869822427,
  "density": 15.048661746664894,
  "density_atomic": 16.12205717455607,
  "symmetry": null,
  "property_name": null,
  "material_id": "mp-21673",
  "deprecated": null,
  "deprecation_reasons": null,
  "last_updated": null,
  "origins": null,
  "warnings": null,
  "structure": {
    "@module": "pymatgen.core.structure",
    "@class": "Structure",
    "charge": 0,
    "lattice": {
      "matrix": [
        [6.91237385, 0.0, 0.0],
        [-0.0, 7.58531432, 0.0],
        [0.0, 0.0, 12.29927885]
      ],
      "pbc": [true, true, true],
      "a": 6.91237385,
      "b": 7.58531432,
      "c": 12.29927885,
      "alpha": 90.0,
      "beta": 90.0,
      "gamma": 90.0,
      "volume": 644.8822869822427
    },
    "properties": {},
    "sites": [
      {
        "species": [{ "element": "Ge", "occu": 1 }],
        "abc": [0.872539299999999, 0.75, 0.99374998],
        "properties": { "magmom": 0.0 },
        "label": "Ge",
        "xyz": [6.031317840417298, 5.68898574, 12.222408111201924]
      },
      {
        "species": [{ "element": "Ge", "occu": 1 }],
        "abc": [0.372539299999999, 0.25, 0.50625002],
        "properties": { "magmom": 0.0 },
        "label": "Ge",
        "xyz": [2.575130915417298, 1.89632858, 6.226510163798077]
      },
      {
        "species": [{ "element": "Ge", "occu": 1 }],
        "abc": [0.127460699999999, 0.25, 0.00625002],
        "properties": { "magmom": 0.0 },
        "label": "Ge",
        "xyz": [0.8810560095826881, 1.89632858, 0.076870738798077]
      },
      {
        "species": [{ "element": "Ge", "occu": 1 }],
        "abc": [0.6274607, 0.75, 0.49374998000000003],
        "properties": { "magmom": 0.0 },
        "label": "Ge",
        "xyz": [4.337242934582695, 5.68898574, 6.072768686201924]
      },
      {
        "species": [{ "element": "Ge", "occu": 1 }],
        "abc": [0.37834181, 0.75, 0.99136037],
        "properties": { "magmom": -0.0 },
        "label": "Ge",
        "xyz": [2.6152400338056685, 5.68898574, 12.193017631469175]
      },
      {
        "species": [{ "element": "Ge", "occu": 1 }],
        "abc": [0.87834181, 0.25, 0.50863963],
        "properties": { "magmom": -0.0 },
        "label": "Ge",
        "xyz": [6.071426958805668, 1.89632858, 6.2559006435308255]
      },
      {
        "species": [{ "element": "Ge", "occu": 1 }],
        "abc": [0.62165819, 0.25, 0.00863963],
        "properties": { "magmom": -0.0 },
        "label": "Ge",
        "xyz": [4.297133816194331, 1.89632858, 0.10626121853082551]
      },
      {
        "species": [{ "element": "Ge", "occu": 1 }],
        "abc": [0.12165819, 0.75, 0.49136037],
        "properties": { "magmom": -0.0 },
        "label": "Ge",
        "xyz": [0.8409468911943315, 5.68898574, 6.043378206469175]
      },
      {
        "species": [{ "element": "Ge", "occu": 1 }],
        "abc": [0.62579585, 0.47530942, 0.74622904],
        "properties": { "magmom": 0.0 },
        "label": "Ge",
        "xyz": [4.325734868978523, 3.6053713499568945, 9.178079048927804]
      },
      {
        "species": [{ "element": "Ge", "occu": 1 }],
        "abc": [0.12579585000000001, 0.52469058, 0.75377096],
        "properties": { "magmom": 0.0 },
        "label": "Ge",
        "xyz": [0.8695479439785225, 3.9799429700431057, 9.270839226072196]
      },
      {
        "species": [{ "element": "Ge", "occu": 1 }],
        "abc": [0.37420415, 0.97530942, 0.25377096],
        "properties": { "magmom": 0.0 },
        "label": "Ge",
        "xyz": [2.5866389810214776, 7.3980285099568945, 3.121199801072196]
      },
      {
        "species": [{ "element": "Ge", "occu": 1 }],
        "abc": [0.8742041500000001, 0.02469058, 0.24622904],
        "properties": { "magmom": 0.0 },
        "label": "Ge",
        "xyz": [6.042825906021478, 0.1872858100431056, 3.028439623927804]
      },
      {
        "species": [{ "element": "Ge", "occu": 1 }],
        "abc": [0.37420415, 0.52469058, 0.25377096],
        "properties": { "magmom": 0.0 },
        "label": "Ge",
        "xyz": [2.5866389810214776, 3.9799429700431057, 3.121199801072196]
      },
      {
        "species": [{ "element": "Ge", "occu": 1 }],
        "abc": [0.8742041500000001, 0.47530942, 0.24622904],
        "properties": { "magmom": 0.0 },
        "label": "Ge",
        "xyz": [6.042825906021478, 3.6053713499568945, 3.028439623927804]
      },
      {
        "species": [{ "element": "Ge", "occu": 1 }],
        "abc": [0.62579585, 0.02469058, 0.74622904],
        "properties": { "magmom": 0.0 },
        "label": "Ge",
        "xyz": [4.325734868978523, 0.1872858100431056, 9.178079048927804]
      },
      {
        "species": [{ "element": "Ge", "occu": 1 }],
        "abc": [0.12579585000000001, 0.97530942, 0.75377096],
        "properties": { "magmom": 0.0 },
        "label": "Ge",
        "xyz": [0.8695479439785225, 7.3980285099568945, 9.270839226072196]
      },
      {
        "species": [{ "element": "Pt", "occu": 1 }],
        "abc": [0.8485778900000001, 0.75, 0.78527534],
        "properties": { "magmom": -0.0 },
        "label": "Pt",
        "xyz": [5.865687616524177, 5.68898574, 9.65832038068856]
      },
      {
        "species": [{ "element": "Pt", "occu": 1 }],
        "abc": [0.34857789, 0.25, 0.71472466],
        "properties": { "magmom": -0.0 },
        "label": "Pt",
        "xyz": [2.4095006915241766, 1.89632858, 8.790597894311441]
      },
      {
        "species": [{ "element": "Pt", "occu": 1 }],
        "abc": [0.15142211, 0.25, 0.21472466],
        "properties": { "magmom": -0.0 },
        "label": "Pt",
        "xyz": [1.0466862334758236, 1.89632858, 2.640958469311441]
      },
      {
        "species": [{ "element": "Pt", "occu": 1 }],
        "abc": [0.65142211, 0.75, 0.28527534],
        "properties": { "magmom": -0.0 },
        "label": "Pt",
        "xyz": [4.502873158475824, 5.68898574, 3.508680955688559]
      },
      {
        "species": [{ "element": "Pt", "occu": 1 }],
        "abc": [0.40692707, 0.75, 0.78353446],
        "properties": { "magmom": 0.0 },
        "label": "Pt",
        "xyz": [2.8128320375251192, 5.68898574, 9.636908812124172]
      },
      {
        "species": [{ "element": "Pt", "occu": 1 }],
        "abc": [0.9069270700000001, 0.25, 0.7164655400000001],
        "properties": { "magmom": 0.0 },
        "label": "Pt",
        "xyz": [6.26901896252512, 1.89632858, 8.81200946287583]
      },
      {
        "species": [{ "element": "Pt", "occu": 1 }],
        "abc": [0.59307293, 0.25, 0.21646554],
        "properties": { "magmom": 0.0 },
        "label": "Pt",
        "xyz": [4.099541812474881, 1.89632858, 2.6623700378758293]
      },
      {
        "species": [{ "element": "Pt", "occu": 1 }],
        "abc": [0.09307293, 0.75, 0.28353446],
        "properties": { "magmom": 0.0 },
        "label": "Pt",
        "xyz": [0.6433548874748805, 5.68898574, 3.487269387124171]
      },
      {
        "species": [{ "element": "Pt", "occu": 1 }],
        "abc": [0.8728525300000001, 0.059355450000000004, 0.91101913],
        "properties": { "magmom": 0.0 },
        "label": "Pt",
        "xyz": [6.033483003278341, 0.450229744855044, 11.204878317554401]
      },
      {
        "species": [{ "element": "Pt", "occu": 1 }],
        "abc": [0.37285253, 0.94064455, 0.58898087],
        "properties": { "magmom": 0.0 },
        "label": "Pt",
        "xyz": [2.5772960782783407, 7.1350845751449565, 7.244039957445599]
      },
      {
        "species": [{ "element": "Pt", "occu": 1 }],
        "abc": [0.12714747, 0.55935545, 0.08898087],
        "properties": { "magmom": 0.0 },
        "label": "Pt",
        "xyz": [0.8788908467216595, 4.242886904855044, 1.0944005324455996]
      },
      {
        "species": [{ "element": "Pt", "occu": 1 }],
        "abc": [0.62714747, 0.44064455, 0.41101913],
        "properties": { "magmom": 0.0 },
        "label": "Pt",
        "xyz": [4.33507777172166, 3.3424274151449564, 5.055238892554401]
      },
      {
        "species": [{ "element": "Pt", "occu": 1 }],
        "abc": [0.12714747, 0.94064455, 0.08898087],
        "properties": { "magmom": 0.0 },
        "label": "Pt",
        "xyz": [0.8788908467216595, 7.1350845751449565, 1.0944005324455996]
      },
      {
        "species": [{ "element": "Pt", "occu": 1 }],
        "abc": [0.62714747, 0.059355450000000004, 0.41101913],
        "properties": { "magmom": 0.0 },
        "label": "Pt",
        "xyz": [4.33507777172166, 0.450229744855044, 5.055238892554401]
      },
      {
        "species": [{ "element": "Pt", "occu": 1 }],
        "abc": [0.8728525300000001, 0.44064455, 0.91101913],
        "properties": { "magmom": 0.0 },
        "label": "Pt",
        "xyz": [6.033483003278341, 3.3424274151449564, 11.204878317554401]
      },
      {
        "species": [{ "element": "Pt", "occu": 1 }],
        "abc": [0.37285253, 0.55935545, 0.58898087],
        "properties": { "magmom": 0.0 },
        "label": "Pt",
        "xyz": [2.5772960782783407, 4.242886904855044, 7.244039957445599]
      },
      {
        "species": [{ "element": "Pt", "occu": 1 }],
        "abc": [0.37615988, 0.058206970000000004, 0.9088005],
        "properties": { "magmom": 0.0 },
        "label": "Pt",
        "xyz": [2.600157717931138, 0.44151816306481045, 11.177590768519426]
      },
      {
        "species": [{ "element": "Pt", "occu": 1 }],
        "abc": [0.87615988, 0.94179303, 0.5911995],
        "properties": { "magmom": 0.0 },
        "label": "Pt",
        "xyz": [6.056344642931138, 7.14379615693519, 7.271327506480575]
      },
      {
        "species": [{ "element": "Pt", "occu": 1 }],
        "abc": [0.62384012, 0.55820697, 0.0911995],
        "properties": { "magmom": 0.0 },
        "label": "Pt",
        "xyz": [4.312216132068862, 4.23417532306481, 1.121688081480575]
      },
      {
        "species": [{ "element": "Pt", "occu": 1 }],
        "abc": [0.12384012, 0.44179303000000003, 0.408800499999999],
        "properties": { "magmom": 0.0 },
        "label": "Pt",
        "xyz": [0.856029207068862, 3.35113899693519, 5.027951343519413]
      },
      {
        "species": [{ "element": "Pt", "occu": 1 }],
        "abc": [0.62384012, 0.94179303, 0.0911995],
        "properties": { "magmom": 0.0 },
        "label": "Pt",
        "xyz": [4.312216132068862, 7.14379615693519, 1.121688081480575]
      },
      {
        "species": [{ "element": "Pt", "occu": 1 }],
        "abc": [0.12384012, 0.058206970000000004, 0.408800499999999],
        "properties": { "magmom": 0.0 },
        "label": "Pt",
        "xyz": [0.856029207068862, 0.44151816306481045, 5.027951343519413]
      },
      {
        "species": [{ "element": "Pt", "occu": 1 }],
        "abc": [0.37615988, 0.44179303000000003, 0.9088005],
        "properties": { "magmom": 0.0 },
        "label": "Pt",
        "xyz": [2.600157717931138, 3.35113899693519, 11.177590768519426]
      },
      {
        "species": [{ "element": "Pt", "occu": 1 }],
        "abc": [0.87615988, 0.55820697, 0.5911995],
        "properties": { "magmom": 0.0 },
        "label": "Pt",
        "xyz": [6.056344642931138, 4.23417532306481, 7.271327506480575]
      }
    ]
  },
  "task_ids": null,
  "uncorrected_energy_per_atom": null,
  "energy_per_atom": -36.89770634675,
  "formation_energy_per_atom": -0.456285174749996,
  "energy_above_hull": 0.0,
  "is_stable": true,
  "equilibrium_reaction_energy_per_atom": null,
  "decomposes_to": null,
  "xas": null,
  "grain_boundaries": null,
  "band_gap": 0.0,
  "cbm": null,
  "vbm": null,
  "efermi": 6.24463825,
  "is_gap_direct": null,
  "is_metal": null,
  "es_source_calc_id": null,
  "bandstructure": null,
  "dos": null,
  "dos_energy_up": null,
  "dos_energy_down": null,
  "is_magnetic": null,
  "ordering": null,
  "total_magnetization": 0.0,
  "total_magnetization_normalized_vol": null,
  "total_magnetization_normalized_formula_units": null,
  "num_magnetic_sites": null,
  "num_unique_magnetic_sites": null,
  "types_of_magnetic_species": null,
  "bulk_modulus": null,
  "shear_modulus": null,
  "universal_anisotropy": null,
  "homogeneous_poisson": null,
  "e_total": null,
  "e_ionic": null,
  "e_electronic": null,
  "n": null,
  "e_ij_max": null,
  "weighted_surface_energy_EV_PER_ANG2": null,
  "weighted_surface_energy": null,
  "weighted_work_function": null,
  "surface_anisotropy": null,
  "shape_factor": null,
  "has_reconstructed": null,
  "possible_species": null,
  "has_props": null,
  "theoretical": null,
  "database_IDs": null,
  "fields_not_requested": [
    "builder_meta",
    "nsites",
    "elements",
    "nelements",
    "composition",
    "composition_reduced",
    "chemsys",
    "symmetry",
    "property_name",
    "deprecated",
    "deprecation_reasons",
    "last_updated",
    "origins",
    "warnings",
    "task_ids",
    "uncorrected_energy_per_atom",
    "equilibrium_reaction_energy_per_atom",
    "decomposes_to",
    "xas",
    "grain_boundaries",
    "cbm",
    "vbm",
    "is_gap_direct",
    "is_metal",
    "es_source_calc_id",
    "bandstructure",
    "dos",
    "dos_energy_up",
    "dos_energy_down",
    "is_magnetic",
    "ordering",
    "total_magnetization_normalized_vol",
    "total_magnetization_normalized_formula_units",
    "num_magnetic_sites",
    "num_unique_magnetic_sites",
    "types_of_magnetic_species",
    "bulk_modulus",
    "shear_modulus",
    "universal_anisotropy",
    "homogeneous_poisson",
    "e_total",
    "e_ionic",
    "e_electronic",
    "n",
    "e_ij_max",
    "weighted_surface_energy_EV_PER_ANG2",
    "weighted_surface_energy",
    "weighted_work_function",
    "surface_anisotropy",
    "shape_factor",
    "has_reconstructed",
    "possible_species",
    "has_props",
    "theoretical",
    "database_IDs"
  ]
}
