{"builder_meta": null, "nsites": null, "elements": null, "nelements": null, "composition": null, "composition_reduced": null, "formula_pretty": "Ge2S5", "formula_anonymous": "A2B5", "chemsys": null, "volume": 774.5652712878835, "density": 2.6206650892287753, "density_atomic": 27.6630454031387, "symmetry": null, "property_name": null, "material_id": "mp-1193697", "deprecated": null, "deprecation_reasons": null, "last_updated": null, "origins": null, "warnings": null, "structure": {"@module": "pymatgen.core.structure", "@class": "Structure", "charge": 0, "lattice": {"matrix": [[7.745299, 0.032875, 3.66916], [-0.225845, 9.849089, 0.768524], [-0.071523999999999, 0.062914, 10.124435]], "pbc": [true, true, true], "a": 8.57050012955055, "b": 9.881608635871084, "c": 10.124883106643603, "alpha": 85.17431626765864, "beta": 65.05576844294144, "gamma": 89.05660738516542, "volume": 774.5652712878834}, "properties": {}, "sites": [{"species": [{"element": "Ge", "occu": 1}], "abc": [0.887744, 0.777357, 0.981428], "properties": {"magmom": -0.01}, "label": "Ge", "xyz": [6.630084867519001, 7.747188422964999, 13.791096279287999]}, {"species": [{"element": "Ge", "occu": 1}], "abc": [0.112256, 0.222642999999999, 0.018571999999999003], "properties": {"magmom": -0.01}, "label": "Ge", "xyz": [0.8178451324810002, 2.19768957703499, 0.7710227207119891]}, {"species": [{"element": "Ge", "occu": 1}], "abc": [0.619333, 0.497741, 0.179591], "properties": {"magmom": -0.009000000000000001}, "label": "Ge", "xyz": [4.671661882738, 4.933954768497999, 4.473215180649]}, {"species": [{"element": "Ge", "occu": 1}], "abc": [0.380667, 0.502259, 0.8204089999999991], "properties": {"magmom": -0.009000000000000001}, "label": "Ge", "xyz": [2.7762681172620005, 5.010923231502, 10.08890381935099]}, {"species": [{"element": "Ge", "occu": 1}], "abc": [0.809705999999999, 0.694496, 0.352915], "properties": {"magmom": -0.008}, "label": "Ge", "xyz": [6.089324730513993, 6.888975293203999, 7.077742688888996]}, {"species": [{"element": "Ge", "occu": 1}], "abc": [0.190294, 0.305504, 0.647085], "properties": {"magmom": -0.008}, "label": "Ge", "xyz": [1.3586052694860007, 3.055902706796, 7.484376311111]}, {"species": [{"element": "Ge", "occu": 1}], "abc": [0.47876, 0.830672, 0.264198], "properties": {"magmom": -0.008}, "label": "Ge", "xyz": [3.501639733648, 8.21372344578, 5.069893887858001]}, {"species": [{"element": "Ge", "occu": 1}], "abc": [0.52124, 0.169327999999999, 0.735802], "properties": {"magmom": -0.008}, "label": "Ge", "xyz": [3.946290266352001, 1.73115455421999, 9.492225112141998]}, {"species": [{"element": "S", "occu": 1}], "abc": [0.01591, 0.779953999999999, 0.136162], "properties": {"magmom": 0.093}, "label": "S", "xyz": [-0.06265985492799962, 7.69092589922399, 2.0363530219659993]}, {"species": [{"element": "S", "occu": 1}], "abc": [0.9840900000000001, 0.220046, 0.863838], "properties": {"magmom": 0.093}, "label": "S", "xyz": [7.510589854928003, 2.253952100776, 12.525765978034]}, {"species": [{"element": "S", "occu": 1}], "abc": [0.733198999999999, 0.478697, 0.344684999999999], "properties": {"magmom": 0.083}, "label": "S", "xyz": [5.546080907595994, 4.760518786248, 6.5478554540429865]}, {"species": [{"element": "S", "occu": 1}], "abc": [0.266801, 0.521303, 0.655315], "properties": {"magmom": 0.083}, "label": "S", "xyz": [1.9018490924040008, 5.184359213751999, 8.014263545957]}, {"species": [{"element": "S", "occu": 1}], "abc": [0.66937, 0.924083, 0.043521], "properties": {"magmom": 0.068}, "label": "S", "xyz": [4.972658470491, 9.126119329330999, 3.6068311283270003]}, {"species": [{"element": "S", "occu": 1}], "abc": [0.33063000000000003, 0.075917, 0.956479], "properties": {"magmom": 0.068}, "label": "S", "xyz": [2.4752715295090013, 0.818758670669, 10.955287871673]}, {"species": [{"element": "S", "occu": 1}], "abc": [0.580495, 0.8300500000000001, 0.43713], "properties": {"magmom": 0.088}, "label": "S", "xyz": [4.277379414635, 8.221821694395, 7.19353665195]}, {"species": [{"element": "S", "occu": 1}], "abc": [0.419504999999999, 0.16995000000000002, 0.5628700000000001], "properties": {"magmom": 0.088}, "label": "S", "xyz": [3.170550585364993, 1.7230563056050001, 7.368582348049998]}, {"species": [{"element": "S", "occu": 1}], "abc": [0.381237999999999, 0.623966, 0.250728], "properties": {"magmom": 0.07}, "label": "S", "xyz": [2.7939496294199926, 6.173804167616, 4.416835404943997]}, {"species": [{"element": "S", "occu": 1}], "abc": [0.618761999999999, 0.376034, 0.749271999999999], "properties": {"magmom": 0.07}, "label": "S", "xyz": [4.653980370579993, 3.7710738323839994, 10.145283595055986]}, {"species": [{"element": "S", "occu": 1}], "abc": [0.811715, 0.568991, 0.952175999999999], "properties": {"magmom": 0.078}, "label": "S", "xyz": [6.090368169166001, 5.690633330688, 13.05583946924399]}, {"species": [{"element": "S", "occu": 1}], "abc": [0.188284999999999, 0.431009, 0.047824], "properties": {"magmom": 0.078}, "label": "S", "xyz": [1.3575618308339925, 4.2542446693119995, 1.5062795307559962]}, {"species": [{"element": "S", "occu": 1}], "abc": [0.920756999999999, 0.689936, 0.5129900000000001], "properties": {"magmom": 0.503}, "label": "S", "xyz": [6.9390285786629935, 6.857785207538999, 9.102371039233997]}, {"species": [{"element": "S", "occu": 1}], "abc": [0.079243, 0.310064, 0.48701000000000005], "properties": {"magmom": 0.503}, "label": "S", "xyz": [0.5089014213370003, 3.0870927924609997, 5.459747960766]}, {"species": [{"element": "S", "occu": 1}], "abc": [0.086483999999999, 0.847982, 0.764726999999999], "properties": {"magmom": 0.519}, "label": "S", "xyz": [0.42363560997799315, 8.402805384376, 8.711446956252987]}, {"species": [{"element": "S", "occu": 1}], "abc": [0.913516, 0.152018, 0.235272999999999], "properties": {"magmom": 0.519}, "label": "S", "xyz": [7.024294390022001, 1.5420726156239997, 5.85067204374699]}, {"species": [{"element": "S", "occu": 1}], "abc": [0.251675, 0.959488999999999, 0.338524], "properties": {"magmom": 0.484}, "label": "S", "xyz": [1.7083897420440006, 9.47966427008199, 5.088190401176]}, {"species": [{"element": "S", "occu": 1}], "abc": [0.748325, 0.040511, 0.661476], "properties": {"magmom": 0.484}, "label": "S", "xyz": [5.739540257956001, 0.465213729918, 9.473928598824]}, {"species": [{"element": "S", "occu": 1}], "abc": [0.541678, 0.289774, 0.170628], "properties": {"magmom": 0.525}, "label": "S", "xyz": [4.1178100656200005, 2.882552470127999, 3.937713619236]}, {"species": [{"element": "S", "occu": 1}], "abc": [0.458321999999999, 0.710225999999999, 0.829372], "properties": {"magmom": 0.525}, "label": "S", "xyz": [3.330119934379993, 7.06232552987199, 10.624405380763996]}]}, "task_ids": null, "uncorrected_energy_per_atom": null, "energy_per_atom": -4.557246717857143, "formation_energy_per_atom": -0.280410496785713, "energy_above_hull": 0.287636241607143, "is_stable": false, "equilibrium_reaction_energy_per_atom": null, "decomposes_to": null, "xas": null, "grain_boundaries": null, "band_gap": 0.0, "cbm": null, "vbm": null, "efermi": 0.62231314, "is_gap_direct": null, "is_metal": null, "es_source_calc_id": null, "bandstructure": null, "dos": null, "dos_energy_up": null, "dos_energy_down": null, "is_magnetic": null, "ordering": null, "total_magnetization": 7.9996708, "total_magnetization_normalized_vol": null, "total_magnetization_normalized_formula_units": null, "num_magnetic_sites": null, "num_unique_magnetic_sites": null, "types_of_magnetic_species": null, "bulk_modulus": null, "shear_modulus": null, "universal_anisotropy": null, "homogeneous_poisson": null, "e_total": null, "e_ionic": null, "e_electronic": null, "n": null, "e_ij_max": null, "weighted_surface_energy_EV_PER_ANG2": null, "weighted_surface_energy": null, "weighted_work_function": null, "surface_anisotropy": null, "shape_factor": null, "has_reconstructed": null, "possible_species": null, "has_props": null, "theoretical": null, "database_IDs": null, "fields_not_requested": ["builder_meta", "nsites", "elements", "nelements", "composition", "composition_reduced", "chemsys", "symmetry", "property_name", "deprecated", "deprecation_reasons", "last_updated", "origins", "warnings", "task_ids", "uncorrected_energy_per_atom", "equilibrium_reaction_energy_per_atom", "decomposes_to", "xas", "grain_boundaries", "cbm", "vbm", "is_gap_direct", "is_metal", "es_source_calc_id", "bandstructure", "dos", "dos_energy_up", "dos_energy_down", "is_magnetic", "ordering", "total_magnetization_normalized_vol", "total_magnetization_normalized_formula_units", "num_magnetic_sites", "num_unique_magnetic_sites", "types_of_magnetic_species", "bulk_modulus", "shear_modulus", "universal_anisotropy", "homogeneous_poisson", "e_total", "e_ionic", "e_electronic", "n", "e_ij_max", "weighted_surface_energy_EV_PER_ANG2", "weighted_surface_energy", "weighted_work_function", "surface_anisotropy", "shape_factor", "has_reconstructed", "possible_species", "has_props", "theoretical", "database_IDs"]}