{
  "builder_meta": null,
  "nsites": null,
  "elements": null,
  "nelements": null,
  "composition": null,
  "composition_reduced": null,
  "formula_pretty": "Ge2W",
  "formula_anonymous": "AB2",
  "chemsys": null,
  "volume": 188.9974214637077,
  "density": 11.566647065697392,
  "density_atomic": 15.749785121975641,
  "symmetry": null,
  "property_name": null,
  "material_id": "mp-1101810",
  "deprecated": null,
  "deprecation_reasons": null,
  "last_updated": null,
  "origins": null,
  "warnings": null,
  "structure": {
    "@module": "pymatgen.core.structure",
    "@class": "Structure",
    "charge": 0,
    "lattice": {
      "matrix": [
        [3.46857416, 0.0, 0.0],
        [0.0, 6.37804863, 0.0],
        [0.0, 0.0, 8.54313105]
      ],
      "pbc": [true, true, true],
      "a": 3.46857416,
      "b": 6.37804863,
      "c": 8.54313105,
      "alpha": 90.0,
      "beta": 90.0,
      "gamma": 90.0,
      "volume": 188.9974214637077
    },
    "properties": {},
    "sites": [
      {
        "species": [{ "element": "Ge", "occu": 1 }],
        "abc": [0.25, 0.86628974, 0.9597061800000001],
        "properties": { "magmom": 0.0 },
        "label": "Ge",
        "xyz": [0.86714354, 5.525238089390057, 8.19889566523489]
      },
      {
        "species": [{ "element": "Ge", "occu": 1 }],
        "abc": [0.25, 0.36628974000000003, 0.54029382],
        "properties": { "magmom": 0.0 },
        "label": "Ge",
        "xyz": [0.86714354, 2.3362137743900564, 4.615800909765111]
      },
      {
        "species": [{ "element": "Ge", "occu": 1 }],
        "abc": [0.75, 0.13371026, 0.04029382],
        "properties": { "magmom": 0.0 },
        "label": "Ge",
        "xyz": [2.6014306200000004, 0.8528105406099439, 0.344235384765111]
      },
      {
        "species": [{ "element": "Ge", "occu": 1 }],
        "abc": [0.75, 0.63371026, 0.45970618],
        "properties": { "magmom": 0.0 },
        "label": "Ge",
        "xyz": [2.6014306200000004, 4.0418348556099435, 3.927330140234889]
      },
      {
        "species": [{ "element": "Ge", "occu": 1 }],
        "abc": [0.25, 0.93531222, 0.36863433],
        "properties": { "magmom": -0.0 },
        "label": "Ge",
        "xyz": [0.86714354, 5.9654668233932595, 3.1492913907189464]
      },
      {
        "species": [{ "element": "Ge", "occu": 1 }],
        "abc": [0.25, 0.43531222, 0.13136567],
        "properties": { "magmom": -0.0 },
        "label": "Ge",
        "xyz": [0.86714354, 2.776442508393259, 1.1222741342810534]
      },
      {
        "species": [{ "element": "Ge", "occu": 1 }],
        "abc": [0.75, 0.06468778, 0.63136567],
        "properties": { "magmom": -0.0 },
        "label": "Ge",
        "xyz": [2.6014306200000004, 0.41258180660674143, 5.393839659281053]
      },
      {
        "species": [{ "element": "Ge", "occu": 1 }],
        "abc": [0.75, 0.56468778, 0.86863433],
        "properties": { "magmom": -0.0 },
        "label": "Ge",
        "xyz": [2.6014306200000004, 3.6016061216067414, 7.420856915718947]
      },
      {
        "species": [{ "element": "W", "occu": 1 }],
        "abc": [0.25, 0.25126285, 0.82944597],
        "properties": { "magmom": 0.0 },
        "label": "W",
        "xyz": [0.86714354, 1.6025666762123956, 7.0860656206043675]
      },
      {
        "species": [{ "element": "W", "occu": 1 }],
        "abc": [0.25, 0.75126285, 0.67055403],
        "properties": { "magmom": 0.0 },
        "label": "W",
        "xyz": [0.86714354, 4.791590991212396, 5.728630954395632]
      },
      {
        "species": [{ "element": "W", "occu": 1 }],
        "abc": [0.75, 0.74873715, 0.17055403],
        "properties": { "magmom": 0.0 },
        "label": "W",
        "xyz": [2.6014306200000004, 4.7754819537876045, 1.4570654293956313]
      },
      {
        "species": [{ "element": "W", "occu": 1 }],
        "abc": [0.75, 0.24873715000000002, 0.32944597000000003],
        "properties": { "magmom": 0.0 },
        "label": "W",
        "xyz": [2.6014306200000004, 1.5864576387876046, 2.8145000956043686]
      }
    ]
  },
  "task_ids": null,
  "uncorrected_energy_per_atom": null,
  "energy_per_atom": -26.302278248333334,
  "formation_energy_per_atom": 0.06830493166666901,
  "energy_above_hull": 0.068304931666666,
  "is_stable": false,
  "equilibrium_reaction_energy_per_atom": null,
  "decomposes_to": null,
  "xas": null,
  "grain_boundaries": null,
  "band_gap": 0.0,
  "cbm": null,
  "vbm": null,
  "efermi": 7.97400748,
  "is_gap_direct": null,
  "is_metal": null,
  "es_source_calc_id": null,
  "bandstructure": null,
  "dos": null,
  "dos_energy_up": null,
  "dos_energy_down": null,
  "is_magnetic": null,
  "ordering": null,
  "total_magnetization": 4e-7,
  "total_magnetization_normalized_vol": null,
  "total_magnetization_normalized_formula_units": null,
  "num_magnetic_sites": null,
  "num_unique_magnetic_sites": null,
  "types_of_magnetic_species": null,
  "bulk_modulus": null,
  "shear_modulus": null,
  "universal_anisotropy": null,
  "homogeneous_poisson": null,
  "e_total": null,
  "e_ionic": null,
  "e_electronic": null,
  "n": null,
  "e_ij_max": null,
  "weighted_surface_energy_EV_PER_ANG2": null,
  "weighted_surface_energy": null,
  "weighted_work_function": null,
  "surface_anisotropy": null,
  "shape_factor": null,
  "has_reconstructed": null,
  "possible_species": null,
  "has_props": null,
  "theoretical": null,
  "database_IDs": null,
  "fields_not_requested": [
    "builder_meta",
    "nsites",
    "elements",
    "nelements",
    "composition",
    "composition_reduced",
    "chemsys",
    "symmetry",
    "property_name",
    "deprecated",
    "deprecation_reasons",
    "last_updated",
    "origins",
    "warnings",
    "task_ids",
    "uncorrected_energy_per_atom",
    "equilibrium_reaction_energy_per_atom",
    "decomposes_to",
    "xas",
    "grain_boundaries",
    "cbm",
    "vbm",
    "is_gap_direct",
    "is_metal",
    "es_source_calc_id",
    "bandstructure",
    "dos",
    "dos_energy_up",
    "dos_energy_down",
    "is_magnetic",
    "ordering",
    "total_magnetization_normalized_vol",
    "total_magnetization_normalized_formula_units",
    "num_magnetic_sites",
    "num_unique_magnetic_sites",
    "types_of_magnetic_species",
    "bulk_modulus",
    "shear_modulus",
    "universal_anisotropy",
    "homogeneous_poisson",
    "e_total",
    "e_ionic",
    "e_electronic",
    "n",
    "e_ij_max",
    "weighted_surface_energy_EV_PER_ANG2",
    "weighted_surface_energy",
    "weighted_work_function",
    "surface_anisotropy",
    "shape_factor",
    "has_reconstructed",
    "possible_species",
    "has_props",
    "theoretical",
    "database_IDs"
  ]
}
