{
  "builder_meta": null,
  "nsites": null,
  "elements": null,
  "nelements": null,
  "composition": null,
  "composition_reduced": null,
  "formula_pretty": "Ge3As4",
  "formula_anonymous": "A3B4",
  "chemsys": null,
  "volume": 163.13427964344677,
  "density": 5.268700423974399,
  "density_atomic": 23.304897091920967,
  "symmetry": null,
  "property_name": null,
  "material_id": "mp-569600",
  "deprecated": null,
  "deprecation_reasons": null,
  "last_updated": null,
  "origins": null,
  "warnings": null,
  "structure": {
    "@module": "pymatgen.core.structure",
    "@class": "Structure",
    "charge": 0,
    "lattice": {
      "matrix": [
        [5.46432467, 0.0, 0.0],
        [0.0, 5.46432467, 0.0],
        [0.0, 0.0, 5.46351624]
      ],
      "pbc": [true, true, true],
      "a": 5.46432467,
      "b": 5.46432467,
      "c": 5.46351624,
      "alpha": 90.0,
      "beta": 90.0,
      "gamma": 90.0,
      "volume": 163.13427964344677
    },
    "properties": {},
    "sites": [
      {
        "species": [{ "element": "Ge", "occu": 1 }],
        "abc": [0.0, -0.0, -0.0],
        "properties": { "magmom": 0.0 },
        "label": "Ge",
        "xyz": [0.0, 0.0, 0.0]
      },
      {
        "species": [{ "element": "Ge", "occu": 1 }],
        "abc": [0.5, -0.0, 0.5],
        "properties": { "magmom": 0.0 },
        "label": "Ge",
        "xyz": [2.732162335, 0.0, 2.73175812]
      },
      {
        "species": [{ "element": "Ge", "occu": 1 }],
        "abc": [-0.0, 0.5, 0.5],
        "properties": { "magmom": 0.0 },
        "label": "Ge",
        "xyz": [0.0, 2.732162335, 2.73175812]
      },
      {
        "species": [{ "element": "As", "occu": 1 }],
        "abc": [0.72071014, 0.72071014, 0.22064175],
        "properties": { "magmom": 0.0 },
        "label": "As",
        "xyz": [3.938194197921154, 3.938194197921154, 1.20547978434702]
      },
      {
        "species": [{ "element": "As", "occu": 1 }],
        "abc": [0.27928986, 0.27928986, 0.22064175],
        "properties": { "magmom": 0.0 },
        "label": "As",
        "xyz": [1.5261304720788462, 1.5261304720788462, 1.20547978434702]
      },
      {
        "species": [{ "element": "As", "occu": 1 }],
        "abc": [0.27928986, 0.72071014, 0.77935825],
        "properties": { "magmom": 0.0 },
        "label": "As",
        "xyz": [1.5261304720788462, 3.938194197921154, 4.25803645565298]
      },
      {
        "species": [{ "element": "As", "occu": 1 }],
        "abc": [0.72071014, 0.27928986, 0.77935825],
        "properties": { "magmom": 0.0 },
        "label": "As",
        "xyz": [3.938194197921154, 1.5261304720788462, 4.25803645565298]
      }
    ]
  },
  "task_ids": null,
  "uncorrected_energy_per_atom": null,
  "energy_per_atom": -14.356160877142857,
  "formation_energy_per_atom": -0.006724207142856001,
  "energy_above_hull": 0.054482933690477006,
  "is_stable": false,
  "equilibrium_reaction_energy_per_atom": null,
  "decomposes_to": null,
  "xas": null,
  "grain_boundaries": null,
  "band_gap": 0.16209999999999902,
  "cbm": null,
  "vbm": null,
  "efermi": 3.97996228,
  "is_gap_direct": null,
  "is_metal": null,
  "es_source_calc_id": null,
  "bandstructure": null,
  "dos": null,
  "dos_energy_up": null,
  "dos_energy_down": null,
  "is_magnetic": null,
  "ordering": null,
  "total_magnetization": 0.0,
  "total_magnetization_normalized_vol": null,
  "total_magnetization_normalized_formula_units": null,
  "num_magnetic_sites": null,
  "num_unique_magnetic_sites": null,
  "types_of_magnetic_species": null,
  "bulk_modulus": null,
  "shear_modulus": null,
  "universal_anisotropy": null,
  "homogeneous_poisson": null,
  "e_total": null,
  "e_ionic": null,
  "e_electronic": null,
  "n": null,
  "e_ij_max": null,
  "weighted_surface_energy_EV_PER_ANG2": null,
  "weighted_surface_energy": null,
  "weighted_work_function": null,
  "surface_anisotropy": null,
  "shape_factor": null,
  "has_reconstructed": null,
  "possible_species": null,
  "has_props": null,
  "theoretical": null,
  "database_IDs": null,
  "fields_not_requested": [
    "builder_meta",
    "nsites",
    "elements",
    "nelements",
    "composition",
    "composition_reduced",
    "chemsys",
    "symmetry",
    "property_name",
    "deprecated",
    "deprecation_reasons",
    "last_updated",
    "origins",
    "warnings",
    "task_ids",
    "uncorrected_energy_per_atom",
    "equilibrium_reaction_energy_per_atom",
    "decomposes_to",
    "xas",
    "grain_boundaries",
    "cbm",
    "vbm",
    "is_gap_direct",
    "is_metal",
    "es_source_calc_id",
    "bandstructure",
    "dos",
    "dos_energy_up",
    "dos_energy_down",
    "is_magnetic",
    "ordering",
    "total_magnetization_normalized_vol",
    "total_magnetization_normalized_formula_units",
    "num_magnetic_sites",
    "num_unique_magnetic_sites",
    "types_of_magnetic_species",
    "bulk_modulus",
    "shear_modulus",
    "universal_anisotropy",
    "homogeneous_poisson",
    "e_total",
    "e_ionic",
    "e_electronic",
    "n",
    "e_ij_max",
    "weighted_surface_energy_EV_PER_ANG2",
    "weighted_surface_energy",
    "weighted_work_function",
    "surface_anisotropy",
    "shape_factor",
    "has_reconstructed",
    "possible_species",
    "has_props",
    "theoretical",
    "database_IDs"
  ]
}
