{
  "builder_meta": null,
  "nsites": null,
  "elements": null,
  "nelements": null,
  "composition": null,
  "composition_reduced": null,
  "formula_pretty": "Ge3C",
  "formula_anonymous": "AB3",
  "chemsys": null,
  "volume": 127.8160420011879,
  "density": 5.974350386427021,
  "density_atomic": 15.977005250148487,
  "symmetry": null,
  "property_name": null,
  "material_id": "mp-973155",
  "deprecated": null,
  "deprecation_reasons": null,
  "last_updated": null,
  "origins": null,
  "warnings": null,
  "structure": {
    "@module": "pymatgen.core.structure",
    "@class": "Structure",
    "charge": 0,
    "lattice": {
      "matrix": [
        [2.877145, -4.983362, 0.0],
        [2.877145, 4.983362, 0.0],
        [0.0, 0.0, 4.457293]
      ],
      "pbc": [true, true, true],
      "a": 5.754290588254038,
      "b": 5.754290588254038,
      "c": 4.457293,
      "alpha": 90.0,
      "beta": 90.0,
      "gamma": 120.00000676340073,
      "volume": 127.8160420011879
    },
    "properties": {},
    "sites": [
      {
        "species": [{ "element": "Ge", "occu": 1 }],
        "abc": [0.175813, 0.351626, 0.25],
        "properties": { "magmom": 0.0 },
        "label": "Ge",
        "xyz": [1.5175184816550003, 0.8761398233059999, 1.11432325]
      },
      {
        "species": [{ "element": "Ge", "occu": 1 }],
        "abc": [0.648374, 0.824187, 0.25],
        "properties": { "magmom": 0.0 },
        "label": "Ge",
        "xyz": [4.236771518345, 0.876139823306, 1.11432325]
      },
      {
        "species": [{ "element": "Ge", "occu": 1 }],
        "abc": [0.175813, 0.824187, 0.25],
        "properties": { "magmom": 0.0 },
        "label": "Ge",
        "xyz": [2.877145, 3.231082353388, 1.11432325]
      },
      {
        "species": [{ "element": "Ge", "occu": 1 }],
        "abc": [0.824187, 0.648374, 0.75],
        "properties": { "magmom": 0.0 },
        "label": "Ge",
        "xyz": [4.236771518345, -0.876139823306, 3.34296975]
      },
      {
        "species": [{ "element": "Ge", "occu": 1 }],
        "abc": [0.351626, 0.175813, 0.75],
        "properties": { "magmom": 0.0 },
        "label": "Ge",
        "xyz": [1.5175184816550003, -0.8761398233059999, 3.34296975]
      },
      {
        "species": [{ "element": "Ge", "occu": 1 }],
        "abc": [0.824187, 0.175813, 0.75],
        "properties": { "magmom": 0.0 },
        "label": "Ge",
        "xyz": [2.877145, -3.231082353388, 3.34296975]
      },
      {
        "species": [{ "element": "C", "occu": 1 }],
        "abc": [0.333333, 0.666667, 0.75],
        "properties": { "magmom": 0.0 },
        "label": "C",
        "xyz": [2.877145, 1.6611239889079998, 3.34296975]
      },
      {
        "species": [{ "element": "C", "occu": 1 }],
        "abc": [0.666667, 0.333333, 0.25],
        "properties": { "magmom": 0.0 },
        "label": "C",
        "xyz": [2.877145, -1.6611239889079998, 1.11432325]
      }
    ]
  },
  "task_ids": null,
  "uncorrected_energy_per_atom": null,
  "energy_per_atom": -4.38820151375,
  "formation_energy_per_atom": 1.3862357506249992,
  "energy_above_hull": 1.3862357506249992,
  "is_stable": false,
  "equilibrium_reaction_energy_per_atom": null,
  "decomposes_to": null,
  "xas": null,
  "grain_boundaries": null,
  "band_gap": 0.0,
  "cbm": null,
  "vbm": null,
  "efermi": 6.7414023,
  "is_gap_direct": null,
  "is_metal": null,
  "es_source_calc_id": null,
  "bandstructure": null,
  "dos": null,
  "dos_energy_up": null,
  "dos_energy_down": null,
  "is_magnetic": null,
  "ordering": null,
  "total_magnetization": 8.6e-5,
  "total_magnetization_normalized_vol": null,
  "total_magnetization_normalized_formula_units": null,
  "num_magnetic_sites": null,
  "num_unique_magnetic_sites": null,
  "types_of_magnetic_species": null,
  "bulk_modulus": null,
  "shear_modulus": null,
  "universal_anisotropy": null,
  "homogeneous_poisson": null,
  "e_total": null,
  "e_ionic": null,
  "e_electronic": null,
  "n": null,
  "e_ij_max": null,
  "weighted_surface_energy_EV_PER_ANG2": null,
  "weighted_surface_energy": null,
  "weighted_work_function": null,
  "surface_anisotropy": null,
  "shape_factor": null,
  "has_reconstructed": null,
  "possible_species": null,
  "has_props": null,
  "theoretical": null,
  "database_IDs": null,
  "fields_not_requested": [
    "builder_meta",
    "nsites",
    "elements",
    "nelements",
    "composition",
    "composition_reduced",
    "chemsys",
    "symmetry",
    "property_name",
    "deprecated",
    "deprecation_reasons",
    "last_updated",
    "origins",
    "warnings",
    "task_ids",
    "uncorrected_energy_per_atom",
    "equilibrium_reaction_energy_per_atom",
    "decomposes_to",
    "xas",
    "grain_boundaries",
    "cbm",
    "vbm",
    "is_gap_direct",
    "is_metal",
    "es_source_calc_id",
    "bandstructure",
    "dos",
    "dos_energy_up",
    "dos_energy_down",
    "is_magnetic",
    "ordering",
    "total_magnetization_normalized_vol",
    "total_magnetization_normalized_formula_units",
    "num_magnetic_sites",
    "num_unique_magnetic_sites",
    "types_of_magnetic_species",
    "bulk_modulus",
    "shear_modulus",
    "universal_anisotropy",
    "homogeneous_poisson",
    "e_total",
    "e_ionic",
    "e_electronic",
    "n",
    "e_ij_max",
    "weighted_surface_energy_EV_PER_ANG2",
    "weighted_surface_energy",
    "weighted_work_function",
    "surface_anisotropy",
    "shape_factor",
    "has_reconstructed",
    "possible_species",
    "has_props",
    "theoretical",
    "database_IDs"
  ]
}
