{"builder_meta": null, "nsites": null, "elements": null, "nelements": null, "composition": null, "composition_reduced": null, "formula_pretty": "Ge3Cl8", "formula_anonymous": "A3B8", "chemsys": null, "volume": 1367.6022446748373, "density": 2.43589364922941, "density_atomic": 31.08186919715539, "symmetry": null, "property_name": null, "material_id": "mp-29688", "deprecated": null, "deprecation_reasons": null, "last_updated": null, "origins": null, "warnings": null, "structure": {"@module": "pymatgen.core.structure", "@class": "Structure", "charge": 0, "lattice": {"matrix": [[10.79001964, 6.000000000000001e-08, 6.22961971], [3.59667264, 10.17292744, 6.22961971], [8e-08, 6.000000000000001e-08, 12.45924214]], "pbc": [true, true, true], "a": 12.459240970573056, "b": 12.45924028623134, "c": 12.45924214, "alpha": 60.00000191710538, "beta": 60.0000037489347, "gamma": 60.0000033040239, "volume": 1367.6022446748375}, "properties": {}, "sites": [{"species": [{"element": "Ge", "occu": 1}], "abc": [0.17042476, 0.48872572000000003, 0.17042476], "properties": {"magmom": -0.0}, "label": "Ge", "xyz": [3.5966729467645684, 4.971771308072728, 6.229620173555348]}, {"species": [{"element": "Ge", "occu": 1}], "abc": [0.6704247600000001, 0.6704247600000001, 0.6704247600000001], "properties": {"magmom": -0.0}, "label": "Ge", "xyz": [9.645194772646834, 6.820182517910386, 16.705967019427426]}, {"species": [{"element": "Ge", "occu": 1}], "abc": [0.98872572, 0.6704247600000001, 0.6704247600000001], "properties": {"magmom": -0.0}, "label": "Ge", "xyz": [13.079668382477688, 6.820182537008444, 18.68886095355535]}, {"species": [{"element": "Ge", "occu": 1}], "abc": [0.6704247600000001, 0.6704247600000001, 0.98872572], "properties": {"magmom": -0.0}, "label": "Ge", "xyz": [9.64519479811091, 6.820182537008444, 20.67175575346188]}, {"species": [{"element": "Ge", "occu": 1}], "abc": [0.17042476, 0.17042476, 0.17042476], "properties": {"magmom": -0.0}, "label": "Ge", "xyz": [2.451848592646834, 1.7337187379103858, 4.246726239427426]}, {"species": [{"element": "Ge", "occu": 1}], "abc": [0.17042476, 0.17042476, 0.48872572000000003], "properties": {"magmom": -0.0}, "label": "Ge", "xyz": [2.451848618110911, 1.7337187570084434, 8.21251497346188]}, {"species": [{"element": "Ge", "occu": 1}], "abc": [0.48872572000000003, 0.17042476, 0.17042476], "properties": {"magmom": -0.0}, "label": "Ge", "xyz": [5.88632220247769, 1.7337187570084434, 6.229620173555348]}, {"species": [{"element": "Ge", "occu": 1}], "abc": [0.6704247600000001, 0.98872572, 0.6704247600000001], "properties": {"magmom": -0.0}, "label": "Ge", "xyz": [10.79001912676457, 10.058235088072728, 18.68886095355535]}, {"species": [{"element": "Ge", "occu": 1}], "abc": [0.25, 0.25, 0.25], "properties": {"magmom": 0.0}, "label": "Ge", "xyz": [3.59667309, 2.54323189, 6.22962039]}, {"species": [{"element": "Ge", "occu": 1}], "abc": [0.75, 0.75, 0.75], "properties": {"magmom": 0.0}, "label": "Ge", "xyz": [10.79001927, 7.62969567, 18.68886117]}, {"species": [{"element": "Ge", "occu": 1}], "abc": [0.5, 0.5, 0.5], "properties": {"magmom": -0.0}, "label": "Ge", "xyz": [7.19334618, 5.08646378, 12.45924078]}, {"species": [{"element": "Ge", "occu": 1}], "abc": [-0.0, 0.0, 0.0], "properties": {"magmom": -0.0}, "label": "Ge", "xyz": [0.0, 0.0, 0.0]}, {"species": [{"element": "Cl", "occu": 1}], "abc": [0.29099768, 0.97363159, 0.5613522400000001], "properties": {"magmom": 0.0}, "label": "Cl", "xyz": [6.641704828495312, 9.904683569502826, 14.872182910226305]}, {"species": [{"element": "Cl", "occu": 1}], "abc": [0.97363159, 0.5613522400000001, 0.29099768], "properties": {"magmom": 0.0}, "label": "Cl", "xyz": [12.524504244514956, 5.710595681679223, 13.187976079197526]}, {"species": [{"element": "Cl", "occu": 1}], "abc": [0.5613522400000001, 0.29099768, 0.97363159], "properties": {"magmom": 0.0}, "label": "Cl", "xyz": [7.103625166407997, 2.9602983759473687, 17.440527596412124]}, {"species": [{"element": "Cl", "occu": 1}], "abc": [0.29099768, 0.5613522400000001, 0.17401649], "properties": {"magmom": 0.0}, "label": "Cl", "xyz": [5.1588709393264685, 5.710595633702317, 7.477929446711812]}, {"species": [{"element": "Cl", "occu": 1}], "abc": [0.29099768, 0.17401649, 0.97363159], "properties": {"magmom": 0.0}, "label": "Cl", "xyz": [3.7657511087767963, 1.770257202011242, 15.027573173824493]}, {"species": [{"element": "Cl", "occu": 1}], "abc": [0.17401649, 0.5613522400000001, 0.97363159], "properties": {"magmom": 0.0}, "label": "Cl", "xyz": [3.8966416656851046, 5.710595674660351, 16.711779269488872]}, {"species": [{"element": "Cl", "occu": 1}], "abc": [0.06135224, 0.79099768, 0.67401649], "properties": {"magmom": 0.0}, "label": "Cl", "xyz": [3.5069516424387883, 8.046762047970462, 13.707550516711812]}, {"species": [{"element": "Cl", "occu": 1}], "abc": [0.67401649, 0.47363159, 0.06135224], "properties": {"magmom": 0.0}, "label": "Cl", "xyz": [8.97614895088474, 4.818219842483954, 7.91381351330305]}, {"species": [{"element": "Cl", "occu": 1}], "abc": [0.47363159, 0.67401649, 0.79099768], "properties": {"magmom": 0.0}, "label": "Cl", "xyz": [7.534710889996075, 6.856720922011242, 17.004642726609895]}, {"species": [{"element": "Cl", "occu": 1}], "abc": [0.79099768, 0.67401649, 0.06135224], "properties": {"magmom": 0.0}, "label": "Cl", "xyz": [10.959097175794449, 6.856720897274481, 9.890883562852686]}, {"species": [{"element": "Cl", "occu": 1}], "abc": [0.79099768, 0.47363159, 0.67401649], "properties": {"magmom": 0.0}, "label": "Cl", "xyz": [10.238378337508452, 4.81821988626268, 16.2758940814978]}, {"species": [{"element": "Cl", "occu": 1}], "abc": [0.47363159, 0.06135224, 0.67401649], "properties": {"magmom": 0.0}, "label": "Cl", "xyz": [5.33115813515646, 0.6241319546603504, 11.730480467162177]}, {"species": [{"element": "Cl", "occu": 1}], "abc": [0.9307983400000001, 0.9307983400000001, 0.20760398], "properties": {"magmom": 0.0}, "label": "Cl", "xyz": [13.391109308923136, 9.46894404239659, 14.18362762584628]}, {"species": [{"element": "Cl", "occu": 1}], "abc": [0.43079834, 0.70760398, 0.43079834], "properties": {"magmom": 0.0}, "label": "Cl", "xyz": [7.193342458764373, 7.198403996491013, 12.459234362151776]}, {"species": [{"element": "Cl", "occu": 1}], "abc": [0.43079834, 0.43079834, 0.43079834], "properties": {"magmom": 0.0}, "label": "Cl", "xyz": [6.197763186778683, 4.382480305788251, 10.73484049136861]}, {"species": [{"element": "Cl", "occu": 1}], "abc": [0.70760398, 0.43079834, 0.43079834], "properties": {"magmom": 0.0}, "label": "Cl", "xyz": [9.184501478841451, 4.382480322396589, 12.459234362151776]}, {"species": [{"element": "Cl", "occu": 1}], "abc": [0.20760398, 0.9307983400000001, 0.9307983400000001], "properties": {"magmom": 0.0}, "label": "Cl", "xyz": [5.587828018841452, 9.46894404239659, 18.688855432151776]}, {"species": [{"element": "Cl", "occu": 1}], "abc": [0.9307983400000001, 0.20760398, 0.9307983400000001], "properties": {"magmom": 0.0}, "label": "Cl", "xyz": [10.790015998764375, 2.111940336491012, 18.688855432151776]}, {"species": [{"element": "Cl", "occu": 1}], "abc": [0.9307983400000001, 0.9307983400000001, 0.9307983400000001], "properties": {"magmom": 0.0}, "label": "Cl", "xyz": [13.391109366778686, 9.468944085788252, 23.19408127136861]}, {"species": [{"element": "Cl", "occu": 1}], "abc": [0.43079834, 0.43079834, 0.70760398], "properties": {"magmom": 0.0}, "label": "Cl", "xyz": [6.197763208923134, 4.382480322396589, 14.18362898584628]}, {"species": [{"element": "Cl", "occu": 1}], "abc": [0.79099768, 0.06135224, 0.47363159], "properties": {"magmom": 0.0}, "label": "Cl", "xyz": [8.755544463295678, 0.6241319616792218, 11.210906526412126]}, {"species": [{"element": "Cl", "occu": 1}], "abc": [0.5613522400000001, 0.97363159, 0.17401649], "properties": {"magmom": 0.0}, "label": "Cl", "xyz": [9.558835809672011, 9.904683562483953, 11.730479107162179]}, {"species": [{"element": "Cl", "occu": 1}], "abc": [0.17401649, 0.29099768, 0.5613522400000001], "properties": {"magmom": 0.0}, "label": "Cl", "xyz": [2.924264783651518, 2.9602983279704627, 9.890884922852685]}, {"species": [{"element": "Cl", "occu": 1}], "abc": [0.5613522400000001, 0.17401649, 0.29099768], "properties": {"magmom": 0.0}, "label": "Cl", "xyz": [6.682882066329642, 1.7702571772744808, 8.206678091823903]}, {"species": [{"element": "Cl", "occu": 1}], "abc": [0.97363159, 0.29099768, 0.17401649], "properties": {"magmom": 0.0}, "label": "Cl", "xyz": [11.552127386105223, 2.9602983527072237, 10.0462730114978]}, {"species": [{"element": "Cl", "occu": 1}], "abc": [0.97363159, 0.17401649, 0.5613522400000001], "properties": {"magmom": 0.0}, "label": "Cl", "xyz": [11.13138437162444, 1.7702572182325154, 14.143434583303051]}, {"species": [{"element": "Cl", "occu": 1}], "abc": [0.17401649, 0.97363159, 0.29099768], "properties": {"magmom": 0.0}, "label": "Cl", "xyz": [5.379475469256375, 9.90468354626268, 10.77502165660989]}, {"species": [{"element": "Cl", "occu": 1}], "abc": [0.47363159, 0.79099768, 0.06135224], "properties": {"magmom": 0.0}, "label": "Cl", "xyz": [7.955453877092082, 8.046762035947369, 8.642561840226305]}, {"species": [{"element": "Cl", "occu": 1}], "abc": [0.06135224, 0.47363159, 0.79099768], "properties": {"magmom": 0.0}, "label": "Cl", "xyz": [2.3654897190305055, 4.8182198495028254, 13.187977439197525]}, {"species": [{"element": "Cl", "occu": 1}], "abc": [0.67401649, 0.79099768, 0.47363159], "properties": {"magmom": 0.0}, "label": "Cl", "xyz": [10.117610916633867, 8.046762072707224, 15.027571813824494]}, {"species": [{"element": "Cl", "occu": 1}], "abc": [0.06135224, 0.67401649, 0.47363159], "properties": {"magmom": 0.0}, "label": "Cl", "xyz": [3.086208580940354, 6.856720878232515, 10.482158199488872]}, {"species": [{"element": "Cl", "occu": 1}], "abc": [0.67401649, 0.06135224, 0.79099768], "properties": {"magmom": 0.0}, "label": "Cl", "xyz": [7.493315151074391, 0.6241319737023159, 14.436299161823904]}]}, "task_ids": null, "uncorrected_energy_per_atom": null, "energy_per_atom": -9.169255935227273, "formation_energy_per_atom": -0.9114883061363651, "energy_above_hull": 0.001268496590908, "is_stable": false, "equilibrium_reaction_energy_per_atom": null, "decomposes_to": null, "xas": null, "grain_boundaries": null, "band_gap": 3.1917, "cbm": null, "vbm": null, "efermi": -1.88743815, "is_gap_direct": null, "is_metal": null, "es_source_calc_id": null, "bandstructure": null, "dos": null, "dos_energy_up": null, "dos_energy_down": null, "is_magnetic": null, "ordering": null, "total_magnetization": 2.0600000000000003e-05, "total_magnetization_normalized_vol": null, "total_magnetization_normalized_formula_units": null, "num_magnetic_sites": null, "num_unique_magnetic_sites": null, "types_of_magnetic_species": null, "bulk_modulus": null, "shear_modulus": null, "universal_anisotropy": null, "homogeneous_poisson": null, "e_total": null, "e_ionic": null, "e_electronic": null, "n": null, "e_ij_max": null, "weighted_surface_energy_EV_PER_ANG2": null, "weighted_surface_energy": null, "weighted_work_function": null, "surface_anisotropy": null, "shape_factor": null, "has_reconstructed": null, "possible_species": null, "has_props": null, "theoretical": null, "database_IDs": null, "fields_not_requested": ["builder_meta", "nsites", "elements", "nelements", "composition", "composition_reduced", "chemsys", "symmetry", "property_name", "deprecated", "deprecation_reasons", "last_updated", "origins", "warnings", "task_ids", "uncorrected_energy_per_atom", "equilibrium_reaction_energy_per_atom", "decomposes_to", "xas", "grain_boundaries", "cbm", "vbm", "is_gap_direct", "is_metal", "es_source_calc_id", "bandstructure", "dos", "dos_energy_up", "dos_energy_down", "is_magnetic", "ordering", "total_magnetization_normalized_vol", "total_magnetization_normalized_formula_units", "num_magnetic_sites", "num_unique_magnetic_sites", "types_of_magnetic_species", "bulk_modulus", "shear_modulus", "universal_anisotropy", "homogeneous_poisson", "e_total", "e_ionic", "e_electronic", "n", "e_ij_max", "weighted_surface_energy_EV_PER_ANG2", "weighted_surface_energy", "weighted_work_function", "surface_anisotropy", "shape_factor", "has_reconstructed", "possible_species", "has_props", "theoretical", "database_IDs"]}