{"builder_meta": null, "nsites": null, "elements": null, "nelements": null, "composition": null, "composition_reduced": null, "formula_pretty": "Ge3F8", "formula_anonymous": "A3B8", "chemsys": null, "volume": 294.118023744416, "density": 4.176863364621199, "density_atomic": 13.369001079291637, "symmetry": null, "property_name": null, "material_id": "mp-1190647", "deprecated": null, "deprecation_reasons": null, "last_updated": null, "origins": null, "warnings": null, "structure": {"@module": "pymatgen.core.structure", "@class": "Structure", "charge": 0, "lattice": {"matrix": [[4.95870886, 0.0, -0.08182334000000001], [0.0, 5.07969646, 0.0], [0.02031599, 0.0, 11.67623423]], "pbc": [true, true, true], "a": 4.959383894921954, "b": 5.07969646, "c": 11.676251904325865, "alpha": 90.0, "beta": 90.8456568962863, "gamma": 90.0, "volume": 294.11802374441606}, "properties": {}, "sites": [{"species": [{"element": "Ge", "occu": 1}], "abc": [0.45316528, 0.59384835, 0.8313868600000001], "properties": {"magmom": -0.0}, "label": "Ge", "xyz": [2.264005136114272, 3.0165693612718414, 9.670388216322584]}, {"species": [{"element": "Ge", "occu": 1}], "abc": [0.95316528, 0.90615165, 0.33138686], "properties": {"magmom": -0.0}, "label": "Ge", "xyz": [4.7332015711142725, 4.602975328728159, 3.791359431322583]}, {"species": [{"element": "Ge", "occu": 1}], "abc": [0.54683472, 0.40615165000000003, 0.16861314], "properties": {"magmom": -0.0}, "label": "Ge", "xyz": [2.7150197138857277, 2.063127098728159, 1.9240226736774173]}, {"species": [{"element": "Ge", "occu": 1}], "abc": [0.04683472, 0.09384835, 0.66861314], "properties": {"magmom": -0.0}, "label": "Ge", "xyz": [0.2458232788857278, 0.476721131271841, 7.803051458677418]}, {"species": [{"element": "Ge", "occu": 1}], "abc": [0.0, -0.0, -0.0], "properties": {"magmom": 0.0}, "label": "Ge", "xyz": [0.0, 0.0, 0.0]}, {"species": [{"element": "Ge", "occu": 1}], "abc": [0.5, 0.5, 0.5], "properties": {"magmom": 0.0}, "label": "Ge", "xyz": [2.489512425, 2.53984823, 5.797205445]}, {"species": [{"element": "F", "occu": 1}], "abc": [0.16333391, 0.69844068, 0.943115199999999], "properties": {"magmom": 0.0}, "label": "F", "xyz": [0.8290856256274906, 3.547866649715993, 10.998669455021826]}, {"species": [{"element": "F", "occu": 1}], "abc": [0.66333391, 0.80155932, 0.4431152], "properties": {"magmom": 0.0}, "label": "F", "xyz": [3.2982820606274905, 4.071678040284007, 5.119640670021837]}, {"species": [{"element": "F", "occu": 1}], "abc": [0.83666609, 0.30155932, 0.0568848], "properties": {"magmom": 0.0}, "label": "F", "xyz": [4.14993922437251, 1.5318298102840073, 0.5957414349781635]}, {"species": [{"element": "F", "occu": 1}], "abc": [0.33666609000000003, 0.19844068, 0.5568848], "properties": {"magmom": 0.0}, "label": "F", "xyz": [1.6807427893725095, 1.008018419715993, 6.474770219978163]}, {"species": [{"element": "F", "occu": 1}], "abc": [0.71047516, 0.81193968, 0.03565403], "properties": {"magmom": -0.0}, "label": "F", "xyz": [3.523763817618857, 4.124407118229533, 0.35817135494521257]}, {"species": [{"element": "F", "occu": 1}], "abc": [0.21047516, 0.6880603200000001, 0.53565403], "properties": {"magmom": -0.0}, "label": "F", "xyz": [1.0545673826188573, 3.4951375717704676, 6.237200139945213]}, {"species": [{"element": "F", "occu": 1}], "abc": [0.28952484, 0.18806032, 0.96434597], "properties": {"magmom": -0.0}, "label": "F", "xyz": [1.4552610323811426, 0.9552893417704672, 11.236239535054787]}, {"species": [{"element": "F", "occu": 1}], "abc": [0.78952484, 0.31193968, 0.46434597], "properties": {"magmom": -0.0}, "label": "F", "xyz": [3.9244574673811425, 1.5845588882295327, 5.357210750054787]}, {"species": [{"element": "F", "occu": 1}], "abc": [0.14600014, 0.94240413, 0.14005955], "properties": {"magmom": 0.0}, "label": "F", "xyz": [0.7268176361964448, 4.78712692305038, 1.6234218928531292]}, {"species": [{"element": "F", "occu": 1}], "abc": [0.6460001400000001, 0.55759587, 0.64005955], "properties": {"magmom": 0.0}, "label": "F", "xyz": [3.216330061196445, 2.83241776694962, 7.420627337853129]}, {"species": [{"element": "F", "occu": 1}], "abc": [0.85399986, 0.05759587, 0.85994045], "properties": {"magmom": 0.0}, "label": "F", "xyz": [4.252207213803556, 0.2925695369496202, 9.970988997146872]}, {"species": [{"element": "F", "occu": 1}], "abc": [0.35399986, 0.44240413, 0.35994045], "properties": {"magmom": 0.0}, "label": "F", "xyz": [1.762694788803555, 2.24727869305038, 4.173783552146872]}, {"species": [{"element": "F", "occu": 1}], "abc": [0.3394913, 0.92094834, 0.75224936], "properties": {"magmom": 0.0}, "label": "F", "xyz": [1.6987212076781841, 4.678138022540876, 8.75566141466065]}, {"species": [{"element": "F", "occu": 1}], "abc": [0.839491299999999, 0.57905166, 0.25224936], "properties": {"magmom": 0.0}, "label": "F", "xyz": [4.167917642678179, 2.9414066674591233, 2.8766326296606506]}, {"species": [{"element": "F", "occu": 1}], "abc": [0.6605087, 0.07905166, 0.24775064], "properties": {"magmom": 0.0}, "label": "F", "xyz": [3.2803036423218153, 0.40155843745912356, 2.838749475339349]}, {"species": [{"element": "F", "occu": 1}], "abc": [0.1605087, 0.42094834000000003, 0.74775064], "properties": {"magmom": 0.0}, "label": "F", "xyz": [0.8111072073218155, 2.138289792540877, 8.717778260339351]}]}, "task_ids": null, "uncorrected_energy_per_atom": null, "energy_per_atom": -8.413656749545455, "formation_energy_per_atom": -2.356915264090908, "energy_above_hull": 0.0, "is_stable": true, "equilibrium_reaction_energy_per_atom": null, "decomposes_to": null, "xas": null, "grain_boundaries": null, "band_gap": 4.2902000000000005, "cbm": null, "vbm": null, "efermi": -0.47239243000000003, "is_gap_direct": null, "is_metal": null, "es_source_calc_id": null, "bandstructure": null, "dos": null, "dos_energy_up": null, "dos_energy_down": null, "is_magnetic": null, "ordering": null, "total_magnetization": 0.0, "total_magnetization_normalized_vol": null, "total_magnetization_normalized_formula_units": null, "num_magnetic_sites": null, "num_unique_magnetic_sites": null, "types_of_magnetic_species": null, "bulk_modulus": null, "shear_modulus": null, "universal_anisotropy": null, "homogeneous_poisson": null, "e_total": null, "e_ionic": null, "e_electronic": null, "n": null, "e_ij_max": null, "weighted_surface_energy_EV_PER_ANG2": null, "weighted_surface_energy": null, "weighted_work_function": null, "surface_anisotropy": null, "shape_factor": null, "has_reconstructed": null, "possible_species": null, "has_props": null, "theoretical": null, "database_IDs": null, "fields_not_requested": ["builder_meta", "nsites", "elements", "nelements", "composition", "composition_reduced", "chemsys", "symmetry", "property_name", "deprecated", "deprecation_reasons", "last_updated", "origins", "warnings", "task_ids", "uncorrected_energy_per_atom", "equilibrium_reaction_energy_per_atom", "decomposes_to", "xas", "grain_boundaries", "cbm", "vbm", "is_gap_direct", "is_metal", "es_source_calc_id", "bandstructure", "dos", "dos_energy_up", "dos_energy_down", "is_magnetic", "ordering", "total_magnetization_normalized_vol", "total_magnetization_normalized_formula_units", "num_magnetic_sites", "num_unique_magnetic_sites", "types_of_magnetic_species", "bulk_modulus", "shear_modulus", "universal_anisotropy", "homogeneous_poisson", "e_total", "e_ionic", "e_electronic", "n", "e_ij_max", "weighted_surface_energy_EV_PER_ANG2", "weighted_surface_energy", "weighted_work_function", "surface_anisotropy", "shape_factor", "has_reconstructed", "possible_species", "has_props", "theoretical", "database_IDs"]}