{"builder_meta": null, "nsites": null, "elements": null, "nelements": null, "composition": null, "composition_reduced": null, "formula_pretty": "Ge3Mo5", "formula_anonymous": "A3B5", "chemsys": null, "volume": 240.71870799515202, "density": 9.624721512420399, "density_atomic": 15.044919249697001, "symmetry": null, "property_name": null, "material_id": "mp-17094", "deprecated": null, "deprecation_reasons": null, "last_updated": null, "origins": null, "warnings": null, "structure": {"@module": "pymatgen.core.structure", "@class": "Structure", "charge": 0, "lattice": {"matrix": [[4.67527624, -0.0, 1.66723045], [2.33763761, 6.96392585, 0.83361523], [-0.00145924, 0.0, 7.39295157]], "pbc": [true, true, true], "a": 4.963654429320774, "b": 7.3929511828276455, "c": 7.392951714014291, "alpha": 83.52926570599243, "beta": 70.38478187532662, "gamma": 70.38478264916331, "volume": 240.718707995152}, "properties": {}, "sites": [{"species": [{"element": "Ge", "occu": 1}], "abc": [0.75, -0.0, 0.0], "properties": {"magmom": 0.0}, "label": "Ge", "xyz": [3.50645718, 0.0, 1.2504228375]}, {"species": [{"element": "Ge", "occu": 1}], "abc": [0.25, -0.0, 0.0], "properties": {"magmom": 0.0}, "label": "Ge", "xyz": [1.16881906, 0.0, 0.4168076125]}, {"species": [{"element": "Ge", "occu": 1}], "abc": [0.83200837, 0.5, 0.83598226], "properties": {"magmom": 0.0}, "label": "Ge", "xyz": [5.057467869989046, 3.481962925, 7.984333665678014]}, {"species": [{"element": "Ge", "occu": 1}], "abc": [0.6679916300000001, 0.16401774, 0.5], "properties": {"magmom": 0.0}, "label": "Ge", "xyz": [3.5057298139890727, 1.1422073794445788, 4.946899456935314]}, {"species": [{"element": "Ge", "occu": 1}], "abc": [0.33200837, 0.83598226, 0.5], "properties": {"magmom": 0.0}, "label": "Ge", "xyz": [3.505724796010927, 5.821718470555421, 4.946897793064686]}, {"species": [{"element": "Ge", "occu": 1}], "abc": [0.16799163, 0.5, 0.16401774], "properties": {"magmom": 0.0}, "label": "Ge", "xyz": [1.9539867400109534, 3.481962925, 1.9094635843219854]}, {"species": [{"element": "Mo", "occu": 1}], "abc": [0.42272323, 0.30704136, 0.8475121800000001], "properties": {"magmom": 0.0}, "label": "Mo", "xyz": [2.692862580603061, 2.1382132639231557, 7.22634789663939]}, {"species": [{"element": "Mo", "occu": 1}], "abc": [0.57727677, 0.69295864, 0.15248782], "properties": {"magmom": 0.0}, "label": "Mo", "xyz": [4.318592029396938, 4.825712586076843, 2.667449353360611]}, {"species": [{"element": "Mo", "occu": 1}], "abc": [0.25, 0.5, 0.5], "properties": {"magmom": 0.0}, "label": "Mo", "xyz": [2.3369082449999996, 3.481962925, 4.5300910125]}, {"species": [{"element": "Mo", "occu": 1}], "abc": [0.75, 0.5, 0.5], "properties": {"magmom": 0.0}, "label": "Mo", "xyz": [4.674546364999999, 3.481962925, 5.3637062375]}, {"species": [{"element": "Mo", "occu": 1}], "abc": [0.72976359, 0.8475121800000001, 0.69295864], "properties": {"magmom": 0.0}, "label": "Mo", "xyz": [5.392011527079358, 5.902011978491854, 7.0461928049408815]}, {"species": [{"element": "Mo", "occu": 1}], "abc": [0.27023641, 0.15248782, 0.30704136], "properties": {"magmom": 0.0}, "label": "Mo", "xyz": [1.619443082920642, 1.0619138715081469, 2.8476044450591185]}, {"species": [{"element": "Mo", "occu": 1}], "abc": [0.92272323, 0.8475121800000001, 0.30704136], "properties": {"magmom": 0.0}, "label": "Mo", "xyz": [6.294714293181978, 5.902011978491854, 4.51483323130379]}, {"species": [{"element": "Mo", "occu": 1}], "abc": [0.22976359000000002, 0.69295864, 0.8475121800000001], "properties": {"magmom": 0.0}, "label": "Mo", "xyz": [2.6928577085090084, 4.825712586076843, 7.2263462313385265]}, {"species": [{"element": "Mo", "occu": 1}], "abc": [0.77023641, 0.30704136, 0.15248782], "properties": {"magmom": 0.0}, "label": "Mo", "xyz": [4.318596901490991, 2.1382132639231557, 2.667451018661475]}, {"species": [{"element": "Mo", "occu": 1}], "abc": [0.07727677000000001, 0.15248782, 0.69295864], "properties": {"magmom": 0.0}, "label": "Mo", "xyz": [0.7167403168180213, 1.0619138715081469, 5.37896401869621]}]}, "task_ids": null, "uncorrected_energy_per_atom": null, "energy_per_atom": -21.608186589375, "formation_energy_per_atom": -0.111207846874997, "energy_above_hull": 0.042509762499999, "is_stable": false, "equilibrium_reaction_energy_per_atom": null, "decomposes_to": null, "xas": null, "grain_boundaries": null, "band_gap": 0.0, "cbm": null, "vbm": null, "efermi": 9.06297523, "is_gap_direct": null, "is_metal": null, "es_source_calc_id": null, "bandstructure": null, "dos": null, "dos_energy_up": null, "dos_energy_down": null, "is_magnetic": null, "ordering": null, "total_magnetization": 4e-07, "total_magnetization_normalized_vol": null, "total_magnetization_normalized_formula_units": null, "num_magnetic_sites": null, "num_unique_magnetic_sites": null, "types_of_magnetic_species": null, "bulk_modulus": null, "shear_modulus": null, "universal_anisotropy": null, "homogeneous_poisson": null, "e_total": null, "e_ionic": null, "e_electronic": null, "n": null, "e_ij_max": null, "weighted_surface_energy_EV_PER_ANG2": null, "weighted_surface_energy": null, "weighted_work_function": null, "surface_anisotropy": null, "shape_factor": null, "has_reconstructed": null, "possible_species": null, "has_props": null, "theoretical": null, "database_IDs": null, "fields_not_requested": ["builder_meta", "nsites", "elements", "nelements", "composition", "composition_reduced", "chemsys", "symmetry", "property_name", "deprecated", "deprecation_reasons", "last_updated", "origins", "warnings", "task_ids", "uncorrected_energy_per_atom", "equilibrium_reaction_energy_per_atom", "decomposes_to", "xas", "grain_boundaries", "cbm", "vbm", "is_gap_direct", "is_metal", "es_source_calc_id", "bandstructure", "dos", "dos_energy_up", "dos_energy_down", "is_magnetic", "ordering", "total_magnetization_normalized_vol", "total_magnetization_normalized_formula_units", "num_magnetic_sites", "num_unique_magnetic_sites", "types_of_magnetic_species", "bulk_modulus", "shear_modulus", "universal_anisotropy", "homogeneous_poisson", "e_total", "e_ionic", "e_electronic", "n", "e_ij_max", "weighted_surface_energy_EV_PER_ANG2", "weighted_surface_energy", "weighted_work_function", "surface_anisotropy", "shape_factor", "has_reconstructed", "possible_species", "has_props", "theoretical", "database_IDs"]}