{
  "builder_meta": null,
  "nsites": null,
  "elements": null,
  "nelements": null,
  "composition": null,
  "composition_reduced": null,
  "formula_pretty": "Ge3N2",
  "formula_anonymous": "A2B3",
  "chemsys": null,
  "volume": 356.0364592497593,
  "density": 4.588092122276554,
  "density_atomic": 17.801822962487964,
  "symmetry": null,
  "property_name": null,
  "material_id": "mp-971694",
  "deprecated": null,
  "deprecation_reasons": null,
  "last_updated": null,
  "origins": null,
  "warnings": null,
  "structure": {
    "@module": "pymatgen.core.structure",
    "@class": "Structure",
    "charge": 0,
    "lattice": {
      "matrix": [
        [7.087583, 0.0, 0.0],
        [0.0, 7.087583, 0.0],
        [0.0, 0.0, 7.087583]
      ],
      "pbc": [true, true, true],
      "a": 7.087583,
      "b": 7.087583,
      "c": 7.087583,
      "alpha": 90.0,
      "beta": 90.0,
      "gamma": 90.0,
      "volume": 356.0364592497593
    },
    "properties": {},
    "sites": [
      {
        "species": [{ "element": "Ge", "occu": 1 }],
        "abc": [0.323272, 0.323272, 0.0],
        "properties": { "magmom": 0.0 },
        "label": "Ge",
        "xyz": [2.2912171315760004, 2.2912171315760004, 0.0]
      },
      {
        "species": [{ "element": "Ge", "occu": 1 }],
        "abc": [0.676728, 0.676728, 0.0],
        "properties": { "magmom": 0.0 },
        "label": "Ge",
        "xyz": [4.796365868424, 4.796365868424, 0.0]
      },
      {
        "species": [{ "element": "Ge", "occu": 1 }],
        "abc": [0.676728, 0.323272, 0.0],
        "properties": { "magmom": 0.0 },
        "label": "Ge",
        "xyz": [4.796365868424, 2.2912171315760004, 0.0]
      },
      {
        "species": [{ "element": "Ge", "occu": 1 }],
        "abc": [0.323272, 0.676728, 0.0],
        "properties": { "magmom": 0.0 },
        "label": "Ge",
        "xyz": [2.2912171315760004, 4.796365868424, 0.0]
      },
      {
        "species": [{ "element": "Ge", "occu": 1 }],
        "abc": [0.0, 0.323272, 0.676728],
        "properties": { "magmom": 0.0 },
        "label": "Ge",
        "xyz": [0.0, 2.2912171315760004, 4.796365868424]
      },
      {
        "species": [{ "element": "Ge", "occu": 1 }],
        "abc": [0.0, 0.676728, 0.323272],
        "properties": { "magmom": 0.0 },
        "label": "Ge",
        "xyz": [0.0, 4.796365868424, 2.2912171315760004]
      },
      {
        "species": [{ "element": "Ge", "occu": 1 }],
        "abc": [0.0, 0.676728, 0.676728],
        "properties": { "magmom": 0.0 },
        "label": "Ge",
        "xyz": [0.0, 4.796365868424, 4.796365868424]
      },
      {
        "species": [{ "element": "Ge", "occu": 1 }],
        "abc": [0.0, 0.323272, 0.323272],
        "properties": { "magmom": 0.0 },
        "label": "Ge",
        "xyz": [0.0, 2.2912171315760004, 2.2912171315760004]
      },
      {
        "species": [{ "element": "Ge", "occu": 1 }],
        "abc": [0.323272, 0.0, 0.676728],
        "properties": { "magmom": 0.0 },
        "label": "Ge",
        "xyz": [2.2912171315760004, 0.0, 4.796365868424]
      },
      {
        "species": [{ "element": "Ge", "occu": 1 }],
        "abc": [0.676728, 0.0, 0.323272],
        "properties": { "magmom": 0.0 },
        "label": "Ge",
        "xyz": [4.796365868424, 0.0, 2.2912171315760004]
      },
      {
        "species": [{ "element": "Ge", "occu": 1 }],
        "abc": [0.323272, 0.0, 0.323272],
        "properties": { "magmom": 0.0 },
        "label": "Ge",
        "xyz": [2.2912171315760004, 0.0, 2.2912171315760004]
      },
      {
        "species": [{ "element": "Ge", "occu": 1 }],
        "abc": [0.676728, 0.0, 0.676728],
        "properties": { "magmom": 0.0 },
        "label": "Ge",
        "xyz": [4.796365868424, 0.0, 4.796365868424]
      },
      {
        "species": [{ "element": "N", "occu": 1 }],
        "abc": [0.222349, 0.222349, 0.777651],
        "properties": { "magmom": 0.0 },
        "label": "N",
        "xyz": [1.575916992467, 1.575916992467, 5.511666007533]
      },
      {
        "species": [{ "element": "N", "occu": 1 }],
        "abc": [0.777651, 0.777651, 0.777651],
        "properties": { "magmom": 0.0 },
        "label": "N",
        "xyz": [5.511666007533, 5.511666007533, 5.511666007533]
      },
      {
        "species": [{ "element": "N", "occu": 1 }],
        "abc": [0.777651, 0.222349, 0.222349],
        "properties": { "magmom": 0.0 },
        "label": "N",
        "xyz": [5.511666007533, 1.575916992467, 1.575916992467]
      },
      {
        "species": [{ "element": "N", "occu": 1 }],
        "abc": [0.222349, 0.777651, 0.222349],
        "properties": { "magmom": 0.0 },
        "label": "N",
        "xyz": [1.575916992467, 5.511666007533, 1.575916992467]
      },
      {
        "species": [{ "element": "N", "occu": 1 }],
        "abc": [0.777651, 0.777651, 0.222349],
        "properties": { "magmom": 0.0 },
        "label": "N",
        "xyz": [5.511666007533, 5.511666007533, 1.575916992467]
      },
      {
        "species": [{ "element": "N", "occu": 1 }],
        "abc": [0.222349, 0.222349, 0.222349],
        "properties": { "magmom": 0.0 },
        "label": "N",
        "xyz": [1.575916992467, 1.575916992467, 1.575916992467]
      },
      {
        "species": [{ "element": "N", "occu": 1 }],
        "abc": [0.222349, 0.777651, 0.777651],
        "properties": { "magmom": 0.0 },
        "label": "N",
        "xyz": [1.575916992467, 5.511666007533, 5.511666007533]
      },
      {
        "species": [{ "element": "N", "occu": 1 }],
        "abc": [0.777651, 0.222349, 0.777651],
        "properties": { "magmom": 0.0 },
        "label": "N",
        "xyz": [5.511666007533, 1.575916992467, 5.511666007533]
      }
    ]
  },
  "task_ids": null,
  "uncorrected_energy_per_atom": null,
  "energy_per_atom": -11.927368522999998,
  "formation_energy_per_atom": 0.047318293500001,
  "energy_above_hull": 0.182132991500001,
  "is_stable": false,
  "equilibrium_reaction_energy_per_atom": null,
  "decomposes_to": null,
  "xas": null,
  "grain_boundaries": null,
  "band_gap": 1.2842,
  "cbm": null,
  "vbm": null,
  "efermi": 3.49203337,
  "is_gap_direct": null,
  "is_metal": null,
  "es_source_calc_id": null,
  "bandstructure": null,
  "dos": null,
  "dos_energy_up": null,
  "dos_energy_down": null,
  "is_magnetic": null,
  "ordering": null,
  "total_magnetization": 1.4100000000000002e-5,
  "total_magnetization_normalized_vol": null,
  "total_magnetization_normalized_formula_units": null,
  "num_magnetic_sites": null,
  "num_unique_magnetic_sites": null,
  "types_of_magnetic_species": null,
  "bulk_modulus": null,
  "shear_modulus": null,
  "universal_anisotropy": null,
  "homogeneous_poisson": null,
  "e_total": null,
  "e_ionic": null,
  "e_electronic": null,
  "n": null,
  "e_ij_max": null,
  "weighted_surface_energy_EV_PER_ANG2": null,
  "weighted_surface_energy": null,
  "weighted_work_function": null,
  "surface_anisotropy": null,
  "shape_factor": null,
  "has_reconstructed": null,
  "possible_species": null,
  "has_props": null,
  "theoretical": null,
  "database_IDs": null,
  "fields_not_requested": [
    "builder_meta",
    "nsites",
    "elements",
    "nelements",
    "composition",
    "composition_reduced",
    "chemsys",
    "symmetry",
    "property_name",
    "deprecated",
    "deprecation_reasons",
    "last_updated",
    "origins",
    "warnings",
    "task_ids",
    "uncorrected_energy_per_atom",
    "equilibrium_reaction_energy_per_atom",
    "decomposes_to",
    "xas",
    "grain_boundaries",
    "cbm",
    "vbm",
    "is_gap_direct",
    "is_metal",
    "es_source_calc_id",
    "bandstructure",
    "dos",
    "dos_energy_up",
    "dos_energy_down",
    "is_magnetic",
    "ordering",
    "total_magnetization_normalized_vol",
    "total_magnetization_normalized_formula_units",
    "num_magnetic_sites",
    "num_unique_magnetic_sites",
    "types_of_magnetic_species",
    "bulk_modulus",
    "shear_modulus",
    "universal_anisotropy",
    "homogeneous_poisson",
    "e_total",
    "e_ionic",
    "e_electronic",
    "n",
    "e_ij_max",
    "weighted_surface_energy_EV_PER_ANG2",
    "weighted_surface_energy",
    "weighted_work_function",
    "surface_anisotropy",
    "shape_factor",
    "has_reconstructed",
    "possible_species",
    "has_props",
    "theoretical",
    "database_IDs"
  ]
}
