{"builder_meta": null, "nsites": null, "elements": null, "nelements": null, "composition": null, "composition_reduced": null, "formula_pretty": "Ge3Os2", "formula_anonymous": "A2B3", "chemsys": null, "volume": 617.6215100547992, "density": 12.870450274103266, "density_atomic": 15.440537751369979, "symmetry": null, "property_name": null, "material_id": "mp-16610", "deprecated": null, "deprecation_reasons": null, "last_updated": null, "origins": null, "warnings": null, "structure": {"@module": "pymatgen.core.structure", "@class": "Structure", "charge": 0, "lattice": {"matrix": [[5.77654176, -0.0, 0.0], [-0.0, 9.26105943, 0.0], [0.0, 0.0, 11.544997]], "pbc": [true, true, true], "a": 5.77654176, "b": 9.26105943, "c": 11.544997, "alpha": 90.0, "beta": 90.0, "gamma": 90.0, "volume": 617.6215100547992}, "properties": {}, "sites": [{"species": [{"element": "Ge", "occu": 1}], "abc": [0.59887087, 0.10402393, 0.6322272], "properties": {"magmom": 0.0}, "label": "Ge", "xyz": [3.4594025894025315, 0.9633717978721599, 7.2990611273184]}, {"species": [{"element": "Ge", "occu": 1}], "abc": [0.09887087, 0.39597607, 0.8677728], "properties": {"magmom": 0.0}, "label": "Ge", "xyz": [0.5711317094025312, 3.66715791712784, 10.0184343726816]}, {"species": [{"element": "Ge", "occu": 1}], "abc": [0.9011291300000001, 0.10402393, 0.3677728], "properties": {"magmom": 0.0}, "label": "Ge", "xyz": [5.205410050597469, 0.9633717978721599, 4.2459358726816]}, {"species": [{"element": "Ge", "occu": 1}], "abc": [0.40112913, 0.39597607, 0.1322272], "properties": {"magmom": 0.0}, "label": "Ge", "xyz": [2.3171391705974687, 3.66715791712784, 1.5265626273183999]}, {"species": [{"element": "Ge", "occu": 1}], "abc": [0.40112913, 0.89597607, 0.3677728], "properties": {"magmom": 0.0}, "label": "Ge", "xyz": [2.3171391705974687, 8.29768763212784, 4.2459358726816]}, {"species": [{"element": "Ge", "occu": 1}], "abc": [0.9011291300000001, 0.60402393, 0.1322272], "properties": {"magmom": 0.0}, "label": "Ge", "xyz": [5.205410050597469, 5.59390151287216, 1.5265626273183999]}, {"species": [{"element": "Ge", "occu": 1}], "abc": [0.09887087, 0.89597607, 0.6322272], "properties": {"magmom": 0.0}, "label": "Ge", "xyz": [0.5711317094025312, 8.29768763212784, 7.2990611273184]}, {"species": [{"element": "Ge", "occu": 1}], "abc": [0.59887087, 0.60402393, 0.8677728], "properties": {"magmom": 0.0}, "label": "Ge", "xyz": [3.4594025894025315, 5.59390151287216, 10.0184343726816]}, {"species": [{"element": "Ge", "occu": 1}], "abc": [0.9093906900000001, 0.06584892, 0.82171888], "properties": {"magmom": -0.0}, "label": "Ge", "xyz": [5.253133296940215, 0.6098307615213157, 9.48674200444336]}, {"species": [{"element": "Ge", "occu": 1}], "abc": [0.40939069, 0.43415108, 0.67828112], "properties": {"magmom": -0.0}, "label": "Ge", "xyz": [2.3648624169402144, 4.020698953478685, 7.83075349555664]}, {"species": [{"element": "Ge", "occu": 1}], "abc": [0.59060931, 0.06584892, 0.17828112000000002], "properties": {"magmom": -0.0}, "label": "Ge", "xyz": [3.411679343059786, 0.6098307615213157, 2.05825499555664]}, {"species": [{"element": "Ge", "occu": 1}], "abc": [0.09060931, 0.43415108, 0.32171888], "properties": {"magmom": -0.0}, "label": "Ge", "xyz": [0.5234084630597856, 4.020698953478685, 3.71424350444336]}, {"species": [{"element": "Ge", "occu": 1}], "abc": [0.09060931, 0.93415108, 0.17828112000000002], "properties": {"magmom": -0.0}, "label": "Ge", "xyz": [0.5234084630597856, 8.651228668478684, 2.05825499555664]}, {"species": [{"element": "Ge", "occu": 1}], "abc": [0.59060931, 0.56584892, 0.32171888], "properties": {"magmom": -0.0}, "label": "Ge", "xyz": [3.411679343059786, 5.240360476521315, 3.71424350444336]}, {"species": [{"element": "Ge", "occu": 1}], "abc": [0.40939069, 0.93415108, 0.82171888], "properties": {"magmom": -0.0}, "label": "Ge", "xyz": [2.3648624169402144, 8.651228668478684, 9.48674200444336]}, {"species": [{"element": "Ge", "occu": 1}], "abc": [0.9093906900000001, 0.56584892, 0.67828112], "properties": {"magmom": -0.0}, "label": "Ge", "xyz": [5.253133296940215, 5.240360476521315, 7.83075349555664]}, {"species": [{"element": "Ge", "occu": 1}], "abc": [0.54341017, 0.71230485, 0.57371709], "properties": {"magmom": 0.0}, "label": "Ge", "xyz": [3.139031539813699, 6.596697548127235, 6.62356208289873]}, {"species": [{"element": "Ge", "occu": 1}], "abc": [0.04341017, 0.78769515, 0.9262829100000001], "properties": {"magmom": 0.0}, "label": "Ge", "xyz": [0.25076065981369916, 7.294891596872764, 10.69393341710127]}, {"species": [{"element": "Ge", "occu": 1}], "abc": [0.95658983, 0.71230485, 0.42628291], "properties": {"magmom": 0.0}, "label": "Ge", "xyz": [5.5257811001863, 6.596697548127235, 4.92143491710127]}, {"species": [{"element": "Ge", "occu": 1}], "abc": [0.45658983000000003, 0.78769515, 0.07371709], "properties": {"magmom": 0.0}, "label": "Ge", "xyz": [2.637510220186301, 7.294891596872764, 0.85106358289873]}, {"species": [{"element": "Ge", "occu": 1}], "abc": [0.45658983000000003, 0.28769515, 0.42628291], "properties": {"magmom": 0.0}, "label": "Ge", "xyz": [2.637510220186301, 2.6643618818727646, 4.92143491710127]}, {"species": [{"element": "Ge", "occu": 1}], "abc": [0.95658983, 0.21230485000000002, 0.07371709], "properties": {"magmom": 0.0}, "label": "Ge", "xyz": [5.5257811001863, 1.9661678331272356, 0.85106358289873]}, {"species": [{"element": "Ge", "occu": 1}], "abc": [0.04341017, 0.28769515, 0.57371709], "properties": {"magmom": 0.0}, "label": "Ge", "xyz": [0.25076065981369916, 2.6643618818727646, 6.62356208289873]}, {"species": [{"element": "Ge", "occu": 1}], "abc": [0.54341017, 0.21230485000000002, 0.9262829100000001], "properties": {"magmom": 0.0}, "label": "Ge", "xyz": [3.139031539813699, 1.9661678331272356, 10.69393341710127]}, {"species": [{"element": "Os", "occu": 1}], "abc": [0.75, 0.92445729, 0.5], "properties": {"magmom": -0.0}, "label": "Os", "xyz": [4.33240632, 8.561453903186743, 5.7724985]}, {"species": [{"element": "Os", "occu": 1}], "abc": [0.25, 0.57554271, -0.0], "properties": {"magmom": -0.0}, "label": "Os", "xyz": [1.44413544, 5.330135241813255, 0.0]}, {"species": [{"element": "Os", "occu": 1}], "abc": [0.25, 0.07554271, 0.5], "properties": {"magmom": -0.0}, "label": "Os", "xyz": [1.44413544, 0.6996055268132553, 5.7724985]}, {"species": [{"element": "Os", "occu": 1}], "abc": [0.75, 0.42445729, -0.0], "properties": {"magmom": -0.0}, "label": "Os", "xyz": [4.33240632, 3.9309241881867445, 0.0]}, {"species": [{"element": "Os", "occu": 1}], "abc": [0.75, 0.46094645, 0.5], "properties": {"magmom": 0.0}, "label": "Os", "xyz": [4.33240632, 4.268852467497523, 5.7724985]}, {"species": [{"element": "Os", "occu": 1}], "abc": [0.25, 0.03905355, -0.0], "properties": {"magmom": 0.0}, "label": "Os", "xyz": [1.44413544, 0.3616772475024765, 0.0]}, {"species": [{"element": "Os", "occu": 1}], "abc": [0.25, 0.53905355, 0.5], "properties": {"magmom": 0.0}, "label": "Os", "xyz": [1.44413544, 4.992206962502476, 5.7724985]}, {"species": [{"element": "Os", "occu": 1}], "abc": [0.75, 0.96094645, -0.0], "properties": {"magmom": 0.0}, "label": "Os", "xyz": [4.33240632, 8.899382182497524, 0.0]}, {"species": [{"element": "Os", "occu": 1}], "abc": [0.75907806, 0.31310918, 0.7451812], "properties": {"magmom": -0.0}, "label": "Os", "xyz": [4.384846112689785, 2.899722724058567, 8.6031147184564]}, {"species": [{"element": "Os", "occu": 1}], "abc": [0.25907806, 0.18689082, 0.7548188], "properties": {"magmom": -0.0}, "label": "Os", "xyz": [1.4965752326897854, 1.7308069909414325, 8.7143807815436]}, {"species": [{"element": "Os", "occu": 1}], "abc": [0.74092194, 0.31310918, 0.2548188], "properties": {"magmom": -0.0}, "label": "Os", "xyz": [4.279966527310214, 2.899722724058567, 2.9418822815436]}, {"species": [{"element": "Os", "occu": 1}], "abc": [0.24092194, 0.18689082, 0.2451812], "properties": {"magmom": -0.0}, "label": "Os", "xyz": [1.3916956473102144, 1.7308069909414325, 2.8306162184564]}, {"species": [{"element": "Os", "occu": 1}], "abc": [0.24092194, 0.68689082, 0.2548188], "properties": {"magmom": -0.0}, "label": "Os", "xyz": [1.3916956473102144, 6.361336705941432, 2.9418822815436]}, {"species": [{"element": "Os", "occu": 1}], "abc": [0.74092194, 0.81310918, 0.2451812], "properties": {"magmom": -0.0}, "label": "Os", "xyz": [4.279966527310214, 7.530252439058567, 2.8306162184564]}, {"species": [{"element": "Os", "occu": 1}], "abc": [0.25907806, 0.68689082, 0.7451812], "properties": {"magmom": -0.0}, "label": "Os", "xyz": [1.4965752326897854, 6.361336705941432, 8.6031147184564]}, {"species": [{"element": "Os", "occu": 1}], "abc": [0.75907806, 0.81310918, 0.7548188], "properties": {"magmom": -0.0}, "label": "Os", "xyz": [4.384846112689785, 7.530252439058567, 8.7143807815436]}]}, "task_ids": null, "uncorrected_energy_per_atom": null, "energy_per_atom": -29.60138010875, "formation_energy_per_atom": -0.08410202074999801, "energy_above_hull": 0.0, "is_stable": true, "equilibrium_reaction_energy_per_atom": null, "decomposes_to": null, "xas": null, "grain_boundaries": null, "band_gap": 1.084299999999999, "cbm": null, "vbm": null, "efermi": 5.99507194, "is_gap_direct": null, "is_metal": null, "es_source_calc_id": null, "bandstructure": null, "dos": null, "dos_energy_up": null, "dos_energy_down": null, "is_magnetic": null, "ordering": null, "total_magnetization": 0.0, "total_magnetization_normalized_vol": null, "total_magnetization_normalized_formula_units": null, "num_magnetic_sites": null, "num_unique_magnetic_sites": null, "types_of_magnetic_species": null, "bulk_modulus": null, "shear_modulus": null, "universal_anisotropy": null, "homogeneous_poisson": null, "e_total": null, "e_ionic": null, "e_electronic": null, "n": null, "e_ij_max": null, "weighted_surface_energy_EV_PER_ANG2": null, "weighted_surface_energy": null, "weighted_work_function": null, "surface_anisotropy": null, "shape_factor": null, "has_reconstructed": null, "possible_species": null, "has_props": null, "theoretical": null, "database_IDs": null, "fields_not_requested": ["builder_meta", "nsites", "elements", "nelements", "composition", "composition_reduced", "chemsys", "symmetry", "property_name", "deprecated", "deprecation_reasons", "last_updated", "origins", "warnings", "task_ids", "uncorrected_energy_per_atom", "equilibrium_reaction_energy_per_atom", "decomposes_to", "xas", "grain_boundaries", "cbm", "vbm", "is_gap_direct", "is_metal", "es_source_calc_id", "bandstructure", "dos", "dos_energy_up", "dos_energy_down", "is_magnetic", "ordering", "total_magnetization_normalized_vol", "total_magnetization_normalized_formula_units", "num_magnetic_sites", "num_unique_magnetic_sites", "types_of_magnetic_species", "bulk_modulus", "shear_modulus", "universal_anisotropy", "homogeneous_poisson", "e_total", "e_ionic", "e_electronic", "n", "e_ij_max", "weighted_surface_energy_EV_PER_ANG2", "weighted_surface_energy", "weighted_work_function", "surface_anisotropy", "shape_factor", "has_reconstructed", "possible_species", "has_props", "theoretical", "database_IDs"]}