{"builder_meta": null, "nsites": null, "elements": null, "nelements": null, "composition": null, "composition_reduced": null, "formula_pretty": "Ge3Pt2", "formula_anonymous": "A2B3", "chemsys": null, "volume": 352.6238627094581, "density": 11.454175246927518, "density_atomic": 17.631193135472905, "symmetry": null, "property_name": null, "material_id": "mp-542587", "deprecated": null, "deprecation_reasons": null, "last_updated": null, "origins": null, "warnings": null, "structure": {"@module": "pymatgen.core.structure", "@class": "Structure", "charge": 0, "lattice": {"matrix": [[3.46873993, 0.0, 0.0], [0.0, 6.20484438, 0.0], [0.0, 0.0, 16.38358977]], "pbc": [true, true, true], "a": 3.46873993, "b": 6.20484438, "c": 16.38358977, "alpha": 90.0, "beta": 90.0, "gamma": 90.0, "volume": 352.6238627094581}, "properties": {}, "sites": [{"species": [{"element": "Ge", "occu": 1}], "abc": [0.25, 0.9374875500000001, 0.42921336], "properties": {"magmom": 0.0}, "label": "Ge", "xyz": [0.8671849825, 5.816964355937469, 7.032055614043327]}, {"species": [{"element": "Ge", "occu": 1}], "abc": [0.25, 0.84020677, 0.73196021], "properties": {"magmom": 0.0}, "label": "Ge", "xyz": [0.8671849825, 5.2133522548724525, 11.992135808603052]}, {"species": [{"element": "Ge", "occu": 1}], "abc": [0.75, 0.06251245, 0.57078664], "properties": {"magmom": 0.0}, "label": "Ge", "xyz": [2.6015549475, 0.38788002406253097, 9.351534155956672]}, {"species": [{"element": "Ge", "occu": 1}], "abc": [0.25, 0.56251245, 0.92921336], "properties": {"magmom": 0.0}, "label": "Ge", "xyz": [0.8671849825, 3.4903022140625315, 15.223850499043328]}, {"species": [{"element": "Ge", "occu": 1}], "abc": [0.75, 0.41148181, 0.38849863], "properties": {"magmom": 0.0}, "label": "Ge", "xyz": [2.6015549475, 2.5531805962507277, 6.365002180127015]}, {"species": [{"element": "Ge", "occu": 1}], "abc": [0.25, 0.58851819, 0.61150137], "properties": {"magmom": 0.0}, "label": "Ge", "xyz": [0.8671849825, 3.6516637837492727, 10.018587589872986]}, {"species": [{"element": "Ge", "occu": 1}], "abc": [0.75, 0.43748755, 0.07078664], "properties": {"magmom": 0.0}, "label": "Ge", "xyz": [2.6015549475, 2.714542165937469, 1.1597392709566727]}, {"species": [{"element": "Ge", "occu": 1}], "abc": [0.75, 0.34020677, 0.76803979], "properties": {"magmom": 0.0}, "label": "Ge", "xyz": [2.6015549475, 2.1109300648724525, 12.583248846396948]}, {"species": [{"element": "Ge", "occu": 1}], "abc": [0.75, 0.15979323, 0.26803979], "properties": {"magmom": 0.0}, "label": "Ge", "xyz": [2.6015549475, 0.9914921251275475, 4.391453961396948]}, {"species": [{"element": "Ge", "occu": 1}], "abc": [0.25, 0.65979323, 0.23196021], "properties": {"magmom": 0.0}, "label": "Ge", "xyz": [0.8671849825, 4.093914315127547, 3.8003409236030516]}, {"species": [{"element": "Ge", "occu": 1}], "abc": [0.75, 0.08851819, 0.8884986300000001], "properties": {"magmom": 0.0}, "label": "Ge", "xyz": [2.6015549475, 0.5492415937492722, 14.556797065127016]}, {"species": [{"element": "Ge", "occu": 1}], "abc": [0.25, 0.9114818100000001, 0.11150137], "properties": {"magmom": 0.0}, "label": "Ge", "xyz": [0.8671849825, 5.6556027862507285, 1.826792704872985]}, {"species": [{"element": "Pt", "occu": 1}], "abc": [0.25, 0.20803928, 0.6707388400000001], "properties": {"magmom": 0.0}, "label": "Pt", "xyz": [0.8671849825, 1.2908513573272464, 10.989109997365668]}, {"species": [{"element": "Pt", "occu": 1}], "abc": [0.25, 0.19645512, 0.99319301], "properties": {"magmom": 0.0}, "label": "Pt", "xyz": [0.8671849825, 1.2189734472542257, 16.27206683827151]}, {"species": [{"element": "Pt", "occu": 1}], "abc": [0.25, 0.29196072, 0.17073884], "properties": {"magmom": 0.0}, "label": "Pt", "xyz": [0.8671849825, 1.8115708326727535, 2.7973151123656668]}, {"species": [{"element": "Pt", "occu": 1}], "abc": [0.75, 0.69645512, 0.50680699], "properties": {"magmom": 0.0}, "label": "Pt", "xyz": [2.6015549475, 4.321395637254225, 8.303317816728493]}, {"species": [{"element": "Pt", "occu": 1}], "abc": [0.25, 0.30354488, 0.49319301], "properties": {"magmom": 0.0}, "label": "Pt", "xyz": [0.8671849825, 1.8834487427457745, 8.080271953271508]}, {"species": [{"element": "Pt", "occu": 1}], "abc": [0.75, 0.70803928, 0.82926116], "properties": {"magmom": 0.0}, "label": "Pt", "xyz": [2.6015549475, 4.393273547327246, 13.586274657634334]}, {"species": [{"element": "Pt", "occu": 1}], "abc": [0.75, 0.7919607200000001, 0.32926116], "properties": {"magmom": 0.0}, "label": "Pt", "xyz": [2.6015549475, 4.913993022672754, 5.394479772634333]}, {"species": [{"element": "Pt", "occu": 1}], "abc": [0.75, 0.80354488, 0.00680699], "properties": {"magmom": 0.0}, "label": "Pt", "xyz": [2.6015549475, 4.985870932745774, 0.1115229317284923]}]}, "task_ids": null, "uncorrected_energy_per_atom": null, "energy_per_atom": -29.339833248999998, "formation_energy_per_atom": -0.42155994099999805, "energy_above_hull": 0.0, "is_stable": true, "equilibrium_reaction_energy_per_atom": null, "decomposes_to": null, "xas": null, "grain_boundaries": null, "band_gap": 0.0, "cbm": null, "vbm": null, "efermi": 6.49643771, "is_gap_direct": null, "is_metal": null, "es_source_calc_id": null, "bandstructure": null, "dos": null, "dos_energy_up": null, "dos_energy_down": null, "is_magnetic": null, "ordering": null, "total_magnetization": 1e-07, "total_magnetization_normalized_vol": null, "total_magnetization_normalized_formula_units": null, "num_magnetic_sites": null, "num_unique_magnetic_sites": null, "types_of_magnetic_species": null, "bulk_modulus": null, "shear_modulus": null, "universal_anisotropy": null, "homogeneous_poisson": null, "e_total": null, "e_ionic": null, "e_electronic": null, "n": null, "e_ij_max": null, "weighted_surface_energy_EV_PER_ANG2": null, "weighted_surface_energy": null, "weighted_work_function": null, "surface_anisotropy": null, "shape_factor": null, "has_reconstructed": null, "possible_species": null, "has_props": null, "theoretical": null, "database_IDs": null, "fields_not_requested": ["builder_meta", "nsites", "elements", "nelements", "composition", "composition_reduced", "chemsys", "symmetry", "property_name", "deprecated", "deprecation_reasons", "last_updated", "origins", "warnings", "task_ids", "uncorrected_energy_per_atom", "equilibrium_reaction_energy_per_atom", "decomposes_to", "xas", "grain_boundaries", "cbm", "vbm", "is_gap_direct", "is_metal", "es_source_calc_id", "bandstructure", "dos", "dos_energy_up", "dos_energy_down", "is_magnetic", "ordering", "total_magnetization_normalized_vol", "total_magnetization_normalized_formula_units", "num_magnetic_sites", "num_unique_magnetic_sites", "types_of_magnetic_species", "bulk_modulus", "shear_modulus", "universal_anisotropy", "homogeneous_poisson", "e_total", "e_ionic", "e_electronic", "n", "e_ij_max", "weighted_surface_energy_EV_PER_ANG2", "weighted_surface_energy", "weighted_work_function", "surface_anisotropy", "shape_factor", "has_reconstructed", "possible_species", "has_props", "theoretical", "database_IDs"]}