{"builder_meta": null, "nsites": null, "elements": null, "nelements": null, "composition": null, "composition_reduced": null, "formula_pretty": "Ge3Rh5", "formula_anonymous": "A3B5", "chemsys": null, "volume": 227.3331565795188, "density": 10.700222583308644, "density_atomic": 14.208322286219925, "symmetry": null, "property_name": null, "material_id": "mp-624221", "deprecated": null, "deprecation_reasons": null, "last_updated": null, "origins": null, "warnings": null, "structure": {"@module": "pymatgen.core.structure", "@class": "Structure", "charge": 0, "lattice": {"matrix": [[3.94900962, 2.05e-06, -0.0], [3e-06, 5.48650678, -5.539999999999999e-06], [-0.0, -4.5560000000000004e-05, 10.49249257]], "pbc": [true, true, true], "a": 3.949009620000532, "b": 5.486506780003618, "c": 10.492492570098912, "alpha": 90.00030664140776, "beta": 90.00000000012916, "gamma": 89.99993892765474, "volume": 227.3331565795188}, "properties": {}, "sites": [{"species": [{"element": "Ge", "occu": 1}], "abc": [0.500001, 0.90791782, 0.34423492], "properties": {"magmom": -0.0}, "label": "Ge", "xyz": [1.9745114827630803, 4.981282616771915, 3.611877310569821]}, {"species": [{"element": "Ge", "occu": 1}], "abc": [0.999999, 0.50012874, 0.49994795000000003], "properties": {"magmom": 0.0}, "label": "Ge", "xyz": [3.9490071713766, 2.743938995252205, 5.245697380048512]}, {"species": [{"element": "Ge", "occu": 1}], "abc": [0.500002, 0.40791782, 0.15576508], "properties": {"magmom": -0.0}, "label": "Ge", "xyz": [1.9745139317726996, 2.238037813459875, 1.6343616847007327]}, {"species": [{"element": "Ge", "occu": 1}], "abc": [0.5, 0.09216845, 0.65553452], "properties": {"magmom": -0.0}, "label": "Ge", "xyz": [1.97450508650535, 0.5056539846743598, 6.878190569865303]}, {"species": [{"element": "Ge", "occu": 1}], "abc": [0.500002, 0.59216845, 0.84446548], "properties": {"magmom": -0.0}, "label": "Ge", "xyz": [1.9745144845245897, 3.2488987669839218, 8.860544493908272]}, {"species": [{"element": "Ge", "occu": 1}], "abc": [0.999999, 0.00012974000000000001, 5.2050000000000005e-05], "properties": {"magmom": 0.0}, "label": "Ge", "xyz": [3.9490056713796, 0.0007138670161892001, 0.0005461335195089001]}, {"species": [{"element": "Rh", "occu": 1}], "abc": [0.999999, 0.34005666, 0.7144548], "properties": {"magmom": -0.0}, "label": "Rh", "xyz": [3.94900669116036, 1.865692670111417, 7.496409796686939]}, {"species": [{"element": "Rh", "occu": 1}], "abc": [0.0, 0.15992099, 0.21453624000000002], "properties": {"magmom": -0.0}, "label": "Rh", "xyz": [4.797629700000001e-07, 0.8773978216282179, 2.2510190182334524]}, {"species": [{"element": "Rh", "occu": 1}], "abc": [-0.0, 0.8400586600000001, 0.785545199999999], "properties": {"magmom": -0.0}, "label": "Rh", "xyz": [2.52017598e-06, 4.608951744248404, 8.242322520474177]}, {"species": [{"element": "Rh", "occu": 1}], "abc": [0.499998999999999, 0.83553474, 0.10819271], "properties": {"magmom": -0.0}, "label": "Rh", "xyz": [1.9745033675945962, 4.584163111673619, 1.1352065769407051]}, {"species": [{"element": "Rh", "occu": 1}], "abc": [0.499998999999999, 0.16433966, 0.89178535], "properties": {"magmom": -0.0}, "label": "Rh", "xyz": [1.9745013540093563, 0.9016110540702987, 9.357050248468132]}, {"species": [{"element": "Rh", "occu": 1}], "abc": [0.499998999999999, 0.66434167, 0.60821365], "properties": {"magmom": -0.0}, "label": "Rh", "xyz": [1.9745028540153862, 3.6448883914755785, 6.381673523144729]}, {"species": [{"element": "Rh", "occu": 1}], "abc": [2e-06, 0.99992994, 0.49997043], "properties": {"magmom": -0.0}, "label": "Rh", "xyz": [1.089780906e-05, 5.486099616686302, 5.245930482382837]}, {"species": [{"element": "Rh", "occu": 1}], "abc": [0.499998999999999, 0.33553274, 0.39180829], "properties": {"magmom": -0.0}, "label": "Rh", "xyz": [1.9745018675885964, 1.8408858271342348, 4.1110437128380255]}, {"species": [{"element": "Rh", "occu": 1}], "abc": [3e-06, 0.49993294, 2.7570000000000002e-05], "properties": {"magmom": -0.0}, "label": "Rh", "xyz": [1.3346827680000001e-05, 2.7428854636053943, 0.00028650839166730003]}, {"species": [{"element": "Rh", "occu": 1}], "abc": [0.999999, 0.65992299, 0.28546276], "properties": {"magmom": -0.0}, "label": "Rh", "xyz": [3.94900765075935, 3.6206610032274766, 2.9952122323383286]}]}, "task_ids": null, "uncorrected_energy_per_atom": null, "energy_per_atom": -20.763180145, "formation_energy_per_atom": -0.47604565874999905, "energy_above_hull": 0.017278780625002002, "is_stable": false, "equilibrium_reaction_energy_per_atom": null, "decomposes_to": null, "xas": null, "grain_boundaries": null, "band_gap": 0.0, "cbm": null, "vbm": null, "efermi": 7.62335977, "is_gap_direct": null, "is_metal": null, "es_source_calc_id": null, "bandstructure": null, "dos": null, "dos_energy_up": null, "dos_energy_down": null, "is_magnetic": null, "ordering": null, "total_magnetization": 5e-07, "total_magnetization_normalized_vol": null, "total_magnetization_normalized_formula_units": null, "num_magnetic_sites": null, "num_unique_magnetic_sites": null, "types_of_magnetic_species": null, "bulk_modulus": null, "shear_modulus": null, "universal_anisotropy": null, "homogeneous_poisson": null, "e_total": null, "e_ionic": null, "e_electronic": null, "n": null, "e_ij_max": null, "weighted_surface_energy_EV_PER_ANG2": null, "weighted_surface_energy": null, "weighted_work_function": null, "surface_anisotropy": null, "shape_factor": null, "has_reconstructed": null, "possible_species": null, "has_props": null, "theoretical": null, "database_IDs": null, "fields_not_requested": ["builder_meta", "nsites", "elements", "nelements", "composition", "composition_reduced", "chemsys", "symmetry", "property_name", "deprecated", "deprecation_reasons", "last_updated", "origins", "warnings", "task_ids", "uncorrected_energy_per_atom", "equilibrium_reaction_energy_per_atom", "decomposes_to", "xas", "grain_boundaries", "cbm", "vbm", "is_gap_direct", "is_metal", "es_source_calc_id", "bandstructure", "dos", "dos_energy_up", "dos_energy_down", "is_magnetic", "ordering", "total_magnetization_normalized_vol", "total_magnetization_normalized_formula_units", "num_magnetic_sites", "num_unique_magnetic_sites", "types_of_magnetic_species", "bulk_modulus", "shear_modulus", "universal_anisotropy", "homogeneous_poisson", "e_total", "e_ionic", "e_electronic", "n", "e_ij_max", "weighted_surface_energy_EV_PER_ANG2", "weighted_surface_energy", "weighted_work_function", "surface_anisotropy", "shape_factor", "has_reconstructed", "possible_species", "has_props", "theoretical", "database_IDs"]}