{
  "builder_meta": null,
  "nsites": null,
  "elements": null,
  "nelements": null,
  "composition": null,
  "composition_reduced": null,
  "formula_pretty": "Ge4Ir",
  "formula_anonymous": "AB4",
  "chemsys": null,
  "volume": 262.57792140311915,
  "density": 9.159224789412457,
  "density_atomic": 17.505194760207942,
  "symmetry": null,
  "property_name": null,
  "material_id": "mp-489",
  "deprecated": null,
  "deprecation_reasons": null,
  "last_updated": null,
  "origins": null,
  "warnings": null,
  "structure": {
    "@module": "pymatgen.core.structure",
    "@class": "Structure",
    "charge": 0,
    "lattice": {
      "matrix": [
        [6.23472776, -8.13e-6, -0.0],
        [-3.117356769999999, 5.39943737, 0.0],
        [-0.0, 0.0, 7.7999627799999995]
      ],
      "pbc": [true, true, true],
      "a": 6.234727760005301,
      "b": 6.234728313568871,
      "c": 7.7999627799999995,
      "alpha": 90.0,
      "beta": 90.0,
      "gamma": 119.99999632850039,
      "volume": 262.5779214031191
    },
    "properties": {},
    "sites": [
      {
        "species": [{ "element": "Ge", "occu": 1 }],
        "abc": [5.1120000000000005e-5, 0.61600383, 0.15786725000000001],
        "properties": { "magmom": -0.0 },
        "label": "Ge",
        "xyz": [-1.9199849905133375, 3.3260740993495217, 1.231358674180955]
      },
      {
        "species": [{ "element": "Ge", "occu": 1 }],
        "abc": [6.998e-5, 0.07455269, 0.15781732],
        "properties": { "magmom": 0.0 },
        "label": "Ge",
        "xyz": [-0.23197102664456642, 0.40254257985108793, 1.2309692220393496]
      },
      {
        "species": [{ "element": "Ge", "occu": 1 }],
        "abc": [0.78048375, 0.2615459, 0.37400569],
        "properties": { "magmom": -0.0 },
        "label": "Ge",
        "xyz": [4.050771820323158, 1.4121943610973955, 2.917230461508218]
      },
      {
        "species": [{ "element": "Ge", "occu": 1 }],
        "abc": [0.38399617, 0.38404828, 0.49120125000000003],
        "properties": { "magmom": -0.0 },
        "label": "Ge",
        "xyz": [1.1968960751678241, 2.0736415130273618, 3.831351467489475]
      },
      {
        "species": [{ "element": "Ge", "occu": 1 }],
        "abc": [0.21950925000000002, 0.48095275, 0.94175257],
        "properties": { "magmom": 0.0 },
        "label": "Ge",
        "xyz": [-0.13072089671083686, 2.596872466944065, 7.345634993969345]
      },
      {
        "species": [{ "element": "Ge", "occu": 1 }],
        "abc": [0.48106116, 0.21951625, 0.04067269],
        "properties": { "magmom": -0.0 },
        "label": "Ge",
        "xyz": [2.3149749004472895, 1.1852603325450317, 0.3172454681624782]
      },
      {
        "species": [{ "element": "Ge", "occu": 1 }],
        "abc": [0.51904725, 0.7385565, 0.27508557],
        "properties": { "magmom": 0.0 },
        "label": "Ge",
        "xyz": [0.9337741930241554, 3.9877853461022625, 2.1456572073150846]
      },
      {
        "species": [{ "element": "Ge", "occu": 1 }],
        "abc": [0.61595172, 0.99994888, 0.82453425],
        "properties": { "magmom": -0.0 },
        "label": "Ge",
        "xyz": [0.7230938767818307, 5.3991563430741625, 6.431336460835214]
      },
      {
        "species": [{ "element": "Ge", "occu": 1 }],
        "abc": [0.92544731, 0.92551729, 0.49115132],
        "properties": { "magmom": 0.0 },
        "label": "Ge",
        "xyz": [2.884744444340774, 4.997265118320498, 3.830962015347869]
      },
      {
        "species": [{ "element": "Ge", "occu": 1 }],
        "abc": [0.07448271000000001, 0.99993002, 0.82448432],
        "properties": { "magmom": 0.0 },
        "label": "Ge",
        "xyz": [-2.6527591976962044, 5.399058911828415, 6.43094700869361]
      },
      {
        "species": [{ "element": "Ge", "occu": 1 }],
        "abc": [0.2614435, 0.78049075, 0.60841957],
        "properties": { "magmom": 0.0 },
        "label": "Ge",
        "xyz": [-0.8030390763133166, 4.214208796953673, 4.745650000623605]
      },
      {
        "species": [{ "element": "Ge", "occu": 1 }],
        "abc": [0.7384541, 0.51893884, 0.70733969],
        "properties": { "magmom": -0.0 },
        "label": "Ge",
        "xyz": [2.98634277066587, 2.801971761808618, 5.517223254816738]
      },
      {
        "species": [{ "element": "Ir", "occu": 1 }],
        "abc": [0.68304683, 0.68302185, 0.99122416],
        "properties": { "magmom": 0.0 },
        "label": "Ir",
        "xyz": [2.129388244225577, 3.687928148245807, 7.731511554636764]
      },
      {
        "species": [{ "element": "Ir", "occu": 1 }],
        "abc": [0.99997402, 0.31695317, 0.65789016],
        "properties": { "magmom": 0.0 },
        "label": "Ir",
        "xyz": [5.246509671500335, 1.7113606608491805, 5.131518761328245]
      },
      {
        "species": [{ "element": "Ir", "occu": 1 }],
        "abc": [0.31697815, 2.5980000000000002e-5, 0.32455716],
        "properties": { "magmom": 0.0 },
        "label": "Ir",
        "xyz": [1.9761914821895594, 0.0001377003505131, 2.5315337679825047]
      }
    ]
  },
  "task_ids": null,
  "uncorrected_energy_per_atom": null,
  "energy_per_atom": -21.706057434,
  "formation_energy_per_atom": -0.136604680000001,
  "energy_above_hull": 0.033728514499998,
  "is_stable": false,
  "equilibrium_reaction_energy_per_atom": null,
  "decomposes_to": null,
  "xas": null,
  "grain_boundaries": null,
  "band_gap": 0.0,
  "cbm": null,
  "vbm": null,
  "efermi": 6.91712331,
  "is_gap_direct": null,
  "is_metal": null,
  "es_source_calc_id": null,
  "bandstructure": null,
  "dos": null,
  "dos_energy_up": null,
  "dos_energy_down": null,
  "is_magnetic": null,
  "ordering": null,
  "total_magnetization": 0.0,
  "total_magnetization_normalized_vol": null,
  "total_magnetization_normalized_formula_units": null,
  "num_magnetic_sites": null,
  "num_unique_magnetic_sites": null,
  "types_of_magnetic_species": null,
  "bulk_modulus": null,
  "shear_modulus": null,
  "universal_anisotropy": null,
  "homogeneous_poisson": null,
  "e_total": null,
  "e_ionic": null,
  "e_electronic": null,
  "n": null,
  "e_ij_max": null,
  "weighted_surface_energy_EV_PER_ANG2": null,
  "weighted_surface_energy": null,
  "weighted_work_function": null,
  "surface_anisotropy": null,
  "shape_factor": null,
  "has_reconstructed": null,
  "possible_species": null,
  "has_props": null,
  "theoretical": null,
  "database_IDs": null,
  "fields_not_requested": [
    "builder_meta",
    "nsites",
    "elements",
    "nelements",
    "composition",
    "composition_reduced",
    "chemsys",
    "symmetry",
    "property_name",
    "deprecated",
    "deprecation_reasons",
    "last_updated",
    "origins",
    "warnings",
    "task_ids",
    "uncorrected_energy_per_atom",
    "equilibrium_reaction_energy_per_atom",
    "decomposes_to",
    "xas",
    "grain_boundaries",
    "cbm",
    "vbm",
    "is_gap_direct",
    "is_metal",
    "es_source_calc_id",
    "bandstructure",
    "dos",
    "dos_energy_up",
    "dos_energy_down",
    "is_magnetic",
    "ordering",
    "total_magnetization_normalized_vol",
    "total_magnetization_normalized_formula_units",
    "num_magnetic_sites",
    "num_unique_magnetic_sites",
    "types_of_magnetic_species",
    "bulk_modulus",
    "shear_modulus",
    "universal_anisotropy",
    "homogeneous_poisson",
    "e_total",
    "e_ionic",
    "e_electronic",
    "n",
    "e_ij_max",
    "weighted_surface_energy_EV_PER_ANG2",
    "weighted_surface_energy",
    "weighted_work_function",
    "surface_anisotropy",
    "shape_factor",
    "has_reconstructed",
    "possible_species",
    "has_props",
    "theoretical",
    "database_IDs"
  ]
}
