{
  "builder_meta": null,
  "nsites": null,
  "elements": null,
  "nelements": null,
  "composition": null,
  "composition_reduced": null,
  "formula_pretty": "Ge4Rh",
  "formula_anonymous": "AB4",
  "chemsys": null,
  "volume": 261.81464462234715,
  "density": 7.486573202027077,
  "density_atomic": 17.45430964148981,
  "symmetry": null,
  "property_name": null,
  "material_id": "mp-1104286",
  "deprecated": null,
  "deprecation_reasons": null,
  "last_updated": null,
  "origins": null,
  "warnings": null,
  "structure": {
    "@module": "pymatgen.core.structure",
    "@class": "Structure",
    "charge": 0,
    "lattice": {
      "matrix": [
        [3.10759679, -5.38326017, -7.949e-5],
        [3.10767737, 5.38330675, 6.703000000000001e-5],
        [-1.5740000000000002e-5, 0.00010705, 7.82503694]
      ],
      "pbc": [true, true, true],
      "a": 6.215838469059937,
      "b": 6.215919095765218,
      "c": 7.825036940748077,
      "alpha": 89.99876092602875,
      "beta": 90.0014691763473,
      "gamma": 120.0064352705946,
      "volume": 261.81464462234715
    },
    "properties": {},
    "sites": [
      {
        "species": [{ "element": "Ge", "occu": 1 }],
        "abc": [0.07038194, 0.99997956, 0.33333017],
        "properties": { "magmom": 0.0 },
        "label": "Ge",
        "xyz": [3.3263272932756545, 5.004348103915398, 2.608382327435976]
      },
      {
        "species": [{ "element": "Ge", "occu": 1 }],
        "abc": [0.92958606, 0.9295874, -7.3e-7],
        "properties": { "magmom": 0.0 },
        "label": "Ge",
        "xyz": [5.777636382513376, 5.051367157348257e-5, -1.7294829453599986e-5]
      },
      {
        "species": [{ "element": "Ge", "occu": 1 }],
        "abc": [-2.244e-5, 0.07037783, 0.66666999],
        "properties": { "magmom": 0.0 },
        "label": "Ge",
        "xyz": [0.21863136178309692, 0.3790576146699968, 5.216722017749132]
      },
      {
        "species": [{ "element": "Ge", "occu": 1 }],
        "abc": [0.6132279900000001, 1.38e-6, 0.33342359],
        "properties": { "magmom": -0.0 },
        "label": "Ge",
        "xyz": [1.9056643737696164, -3.301122691737534, 2.609003163016991]
      },
      {
        "species": [{ "element": "Ge", "occu": 1 }],
        "abc": [0.38680463, 0.38680214, 0.9999958600000001],
        "properties": { "magmom": -0.0 },
        "label": "Ge",
        "xyz": [2.404073343755873, 0.00011166248267118285, 7.824999724594475]
      },
      {
        "species": [{ "element": "Ge", "occu": 1 }],
        "abc": [4.27e-6, 0.61323719, 0.6665804],
        "properties": { "magmom": -0.0 },
        "label": "Ge",
        "xyz": [1.9057461152681876, 3.3012922751889264, 5.2160573584294]
      },
      {
        "species": [{ "element": "Ge", "occu": 1 }],
        "abc": [0.26062671, 0.77787646, 0.11498658],
        "properties": { "magmom": 0.0 },
        "label": "Ge",
        "xyz": [3.2273099888932024, 2.784538519916354, 0.8998056599462012]
      },
      {
        "species": [{ "element": "Ge", "occu": 1 }],
        "abc": [0.51720394, 0.73941208, 0.7816142500000001],
        "properties": { "magmom": -0.0 },
        "label": "Ge",
        "xyz": [3.905103189231687, 1.196322343131933, 6.116168829330928]
      },
      {
        "species": [{ "element": "Ge", "occu": 1 }],
        "abc": [0.22215148, 0.48273549, 0.44830536],
        "properties": { "magmom": 0.0 },
        "label": "Ge",
        "xyz": [2.1905363277842445, 1.4028619988797941, 3.5080207013387477]
      },
      {
        "species": [{ "element": "Ge", "occu": 1 }],
        "abc": [0.7394143, 0.51720456, 0.218379799999999],
        "properties": { "magmom": 0.0 },
        "label": "Ge",
        "xyz": [3.9051029746348527, -1.1961653737820603, 1.7088058941287543]
      },
      {
        "species": [{ "element": "Ge", "occu": 1 }],
        "abc": [0.77788429, 0.26063018, 0.88501208],
        "properties": { "magmom": 0.0 },
        "label": "Ge",
        "xyz": [3.2272913048303167, -2.7844065674348504, 6.925207854364989]
      },
      {
        "species": [{ "element": "Ge", "occu": 1 }],
        "abc": [0.48274115, 0.22215952, 0.5517007700000001],
        "properties": { "magmom": 0.0 },
        "label": "Ge",
        "xyz": [2.190556277204851, -1.402709302054807, 4.317055423335057]
      },
      {
        "species": [{ "element": "Rh", "occu": 1 }],
        "abc": [0.31772622, 4.44e-6, 0.83332574],
        "properties": { "magmom": -0.0 },
        "label": "Rh",
        "xyz": [0.987365662911209, -1.7102897956882201, 6.520779442793222]
      },
      {
        "species": [{ "element": "Rh", "occu": 1 }],
        "abc": [0.6822655400000001, 0.68226525, 0.50000306],
        "properties": { "magmom": 0.0 },
        "label": "Rh",
        "xyz": [4.240458609745845, 8.374409746872904e-5, 3.9125339135649697]
      },
      {
        "species": [{ "element": "Rh", "occu": 1 }],
        "abc": [5.91e-6, 0.31772553000000003, 0.16667307],
        "properties": { "magmom": 0.0 },
        "label": "Rh",
        "xyz": [0.9874041819151633, 1.7104000175808667, 1.304244226325696]
      }
    ]
  },
  "task_ids": null,
  "uncorrected_energy_per_atom": null,
  "energy_per_atom": -16.058790844,
  "formation_energy_per_atom": -0.133963054000001,
  "energy_above_hull": 0.090737548999999,
  "is_stable": false,
  "equilibrium_reaction_energy_per_atom": null,
  "decomposes_to": null,
  "xas": null,
  "grain_boundaries": null,
  "band_gap": 0.0,
  "cbm": null,
  "vbm": null,
  "efermi": 6.37178056,
  "is_gap_direct": null,
  "is_metal": null,
  "es_source_calc_id": null,
  "bandstructure": null,
  "dos": null,
  "dos_energy_up": null,
  "dos_energy_down": null,
  "is_magnetic": null,
  "ordering": null,
  "total_magnetization": 0.0,
  "total_magnetization_normalized_vol": null,
  "total_magnetization_normalized_formula_units": null,
  "num_magnetic_sites": null,
  "num_unique_magnetic_sites": null,
  "types_of_magnetic_species": null,
  "bulk_modulus": null,
  "shear_modulus": null,
  "universal_anisotropy": null,
  "homogeneous_poisson": null,
  "e_total": null,
  "e_ionic": null,
  "e_electronic": null,
  "n": null,
  "e_ij_max": null,
  "weighted_surface_energy_EV_PER_ANG2": null,
  "weighted_surface_energy": null,
  "weighted_work_function": null,
  "surface_anisotropy": null,
  "shape_factor": null,
  "has_reconstructed": null,
  "possible_species": null,
  "has_props": null,
  "theoretical": null,
  "database_IDs": null,
  "fields_not_requested": [
    "builder_meta",
    "nsites",
    "elements",
    "nelements",
    "composition",
    "composition_reduced",
    "chemsys",
    "symmetry",
    "property_name",
    "deprecated",
    "deprecation_reasons",
    "last_updated",
    "origins",
    "warnings",
    "task_ids",
    "uncorrected_energy_per_atom",
    "equilibrium_reaction_energy_per_atom",
    "decomposes_to",
    "xas",
    "grain_boundaries",
    "cbm",
    "vbm",
    "is_gap_direct",
    "is_metal",
    "es_source_calc_id",
    "bandstructure",
    "dos",
    "dos_energy_up",
    "dos_energy_down",
    "is_magnetic",
    "ordering",
    "total_magnetization_normalized_vol",
    "total_magnetization_normalized_formula_units",
    "num_magnetic_sites",
    "num_unique_magnetic_sites",
    "types_of_magnetic_species",
    "bulk_modulus",
    "shear_modulus",
    "universal_anisotropy",
    "homogeneous_poisson",
    "e_total",
    "e_ionic",
    "e_electronic",
    "n",
    "e_ij_max",
    "weighted_surface_energy_EV_PER_ANG2",
    "weighted_surface_energy",
    "weighted_work_function",
    "surface_anisotropy",
    "shape_factor",
    "has_reconstructed",
    "possible_species",
    "has_props",
    "theoretical",
    "database_IDs"
  ]
}
