{"builder_meta": null, "nsites": null, "elements": null, "nelements": null, "composition": null, "composition_reduced": null, "formula_pretty": "Ge7Ir3", "formula_anonymous": "A3B7", "chemsys": null, "volume": 330.19864811212653, "density": 10.914050848971662, "density_atomic": 16.509932405606328, "symmetry": null, "property_name": null, "material_id": "mp-505780", "deprecated": null, "deprecation_reasons": null, "last_updated": null, "origins": null, "warnings": null, "structure": {"@module": "pymatgen.core.structure", "@class": "Structure", "charge": 0, "lattice": {"matrix": [[7.11032503, -0.0, -2.51387898], [-3.55516252, 6.15772231, -2.51387898], [0.0, 0.0, 7.54163895]], "pbc": [true, true, true], "a": 7.5416383868712735, "b": 7.541638556492238, "c": 7.54163895, "alpha": 109.47121629253344, "beta": 109.47121674814147, "gamma": 109.47122410321772, "volume": 330.19864811212653}, "properties": {}, "sites": [{"species": [{"element": "Ge", "occu": 1}], "abc": [0.5, 0.75, 0.25], "properties": {"magmom": -0.0}, "label": "Ge", "xyz": [0.888790625, 4.6182917324999995, -1.2569389874999997]}, {"species": [{"element": "Ge", "occu": 1}], "abc": [0.75, 0.5, 0.25], "properties": {"magmom": -0.0}, "label": "Ge", "xyz": [3.555162512500001, 3.078861155, -1.2569389874999997]}, {"species": [{"element": "Ge", "occu": 1}], "abc": [0.25, 0.5, 0.75], "properties": {"magmom": -0.0}, "label": "Ge", "xyz": [-2.4999999848063226e-09, 3.078861155, 3.7708199775000004]}, {"species": [{"element": "Ge", "occu": 1}], "abc": [0.75, 0.25, 0.5], "properties": {"magmom": -0.0}, "label": "Ge", "xyz": [4.443953142500001, 1.5394305775, 1.2569404950000003]}, {"species": [{"element": "Ge", "occu": 1}], "abc": [0.25, 0.75, 0.5], "properties": {"magmom": -0.0}, "label": "Ge", "xyz": [-0.8887906325000001, 4.6182917324999995, 1.2569404950000003]}, {"species": [{"element": "Ge", "occu": 1}], "abc": [0.5, 0.25, 0.75], "properties": {"magmom": -0.0}, "label": "Ge", "xyz": [2.666371885, 1.5394305775, 3.7708199775000004]}, {"species": [{"element": "Ge", "occu": 1}], "abc": [0.33461705, 0.33461705, 0.33461705], "properties": {"magmom": 0.0}, "label": "Ge", "xyz": [1.1896179913667957, 2.0604788740913857, 0.8411874409248798]}, {"species": [{"element": "Ge", "occu": 1}], "abc": [0.33461705, 0.0, -0.0], "properties": {"magmom": 0.0}, "label": "Ge", "xyz": [2.379235986079762, 0.0, -0.841186768344609]}, {"species": [{"element": "Ge", "occu": 1}], "abc": [0.0, 0.33461705, -0.0], "properties": {"magmom": 0.0}, "label": "Ge", "xyz": [-1.1896179947129661, 2.0604788740913857, -0.841186768344609]}, {"species": [{"element": "Ge", "occu": 1}], "abc": [-0.0, -0.0, 0.33461705], "properties": {"magmom": 0.0}, "label": "Ge", "xyz": [0.0, 0.0, 2.523560977614098]}, {"species": [{"element": "Ge", "occu": 1}], "abc": [-0.0, 0.66538295, 0.0], "properties": {"magmom": 0.0}, "label": "Ge", "xyz": [-2.365544525287034, 4.097243435908615, -1.672692211655391]}, {"species": [{"element": "Ge", "occu": 1}], "abc": [0.0, 0.0, 0.66538295], "properties": {"magmom": 0.0}, "label": "Ge", "xyz": [0.0, 0.0, 5.018077972385903]}, {"species": [{"element": "Ge", "occu": 1}], "abc": [0.66538295, -0.0, 0.0], "properties": {"magmom": 0.0}, "label": "Ge", "xyz": [4.731089043920239, 0.0, -1.672692211655391]}, {"species": [{"element": "Ge", "occu": 1}], "abc": [0.66538295, 0.66538295, 0.66538295], "properties": {"magmom": 0.0}, "label": "Ge", "xyz": [2.3655445186332047, 4.097243435908615, 1.6726935490751211]}, {"species": [{"element": "Ir", "occu": 1}], "abc": [-0.0, 0.3395468, 0.3395468], "properties": {"magmom": -0.0}, "label": "Ir", "xyz": [-1.207144057145936, 2.090834905649108, 1.707159808981596]}, {"species": [{"element": "Ir", "occu": 1}], "abc": [0.3395468, -0.0, 0.3395468], "properties": {"magmom": -0.0}, "label": "Ir", "xyz": [2.414288110896404, 0.0, 1.707159808981596]}, {"species": [{"element": "Ir", "occu": 1}], "abc": [0.6604532, 0.0, 0.6604532], "properties": {"magmom": -0.0}, "label": "Ir", "xyz": [4.696036919103596, 0.0, 3.3206001610184046]}, {"species": [{"element": "Ir", "occu": 1}], "abc": [0.6604532, 0.6604532, 0.0], "properties": {"magmom": -0.0}, "label": "Ir", "xyz": [2.348018456249532, 4.066887404350892, -3.3205988335074714]}, {"species": [{"element": "Ir", "occu": 1}], "abc": [0.3395468, 0.3395468, -0.0], "properties": {"magmom": -0.0}, "label": "Ir", "xyz": [1.207144053750468, 2.090834905649108, -1.7071591264925279]}, {"species": [{"element": "Ir", "occu": 1}], "abc": [0.0, 0.6604532, 0.6604532], "properties": {"magmom": -0.0}, "label": "Ir", "xyz": [-2.348018462854064, 4.066887404350892, 3.3206001610184046]}]}, "task_ids": null, "uncorrected_energy_per_atom": null, "energy_per_atom": -25.667848886500003, "formation_energy_per_atom": -0.24965854550000302, "energy_above_hull": 0.005841246249993001, "is_stable": false, "equilibrium_reaction_energy_per_atom": null, "decomposes_to": null, "xas": null, "grain_boundaries": null, "band_gap": 0.0, "cbm": null, "vbm": null, "efermi": 7.92803492, "is_gap_direct": null, "is_metal": null, "es_source_calc_id": null, "bandstructure": null, "dos": null, "dos_energy_up": null, "dos_energy_down": null, "is_magnetic": null, "ordering": null, "total_magnetization": 0.0, "total_magnetization_normalized_vol": null, "total_magnetization_normalized_formula_units": null, "num_magnetic_sites": null, "num_unique_magnetic_sites": null, "types_of_magnetic_species": null, "bulk_modulus": null, "shear_modulus": null, "universal_anisotropy": null, "homogeneous_poisson": null, "e_total": null, "e_ionic": null, "e_electronic": null, "n": null, "e_ij_max": null, "weighted_surface_energy_EV_PER_ANG2": null, "weighted_surface_energy": null, "weighted_work_function": null, "surface_anisotropy": null, "shape_factor": null, "has_reconstructed": null, "possible_species": null, "has_props": null, "theoretical": null, "database_IDs": null, "fields_not_requested": ["builder_meta", "nsites", "elements", "nelements", "composition", "composition_reduced", "chemsys", "symmetry", "property_name", "deprecated", "deprecation_reasons", "last_updated", "origins", "warnings", "task_ids", "uncorrected_energy_per_atom", "equilibrium_reaction_energy_per_atom", "decomposes_to", "xas", "grain_boundaries", "cbm", "vbm", "is_gap_direct", "is_metal", "es_source_calc_id", "bandstructure", "dos", "dos_energy_up", "dos_energy_down", "is_magnetic", "ordering", "total_magnetization_normalized_vol", "total_magnetization_normalized_formula_units", "num_magnetic_sites", "num_unique_magnetic_sites", "types_of_magnetic_species", "bulk_modulus", "shear_modulus", "universal_anisotropy", "homogeneous_poisson", "e_total", "e_ionic", "e_electronic", "n", "e_ij_max", "weighted_surface_energy_EV_PER_ANG2", "weighted_surface_energy", "weighted_work_function", "surface_anisotropy", "shape_factor", "has_reconstructed", "possible_species", "has_props", "theoretical", "database_IDs"]}