{"builder_meta": null, "nsites": null, "elements": null, "nelements": null, "composition": null, "composition_reduced": null, "formula_pretty": "GeAs2", "formula_anonymous": "AB2", "chemsys": null, "volume": 604.6222314840644, "density": 4.8882363369983794, "density_atomic": 25.192592978502685, "symmetry": null, "property_name": null, "material_id": "mp-17524", "deprecated": null, "deprecation_reasons": null, "last_updated": null, "origins": null, "warnings": null, "structure": {"@module": "pymatgen.core.structure", "@class": "Structure", "charge": 0, "lattice": {"matrix": [[3.73576641, 0.0, 0.0], [0.0, 10.59744722, 0.0], [0.0, 0.0, 15.27225394]], "pbc": [true, true, true], "a": 3.73576641, "b": 10.59744722, "c": 15.27225394, "alpha": 90.0, "beta": 90.0, "gamma": 90.0, "volume": 604.6222314840644}, "properties": {}, "sites": [{"species": [{"element": "Ge", "occu": 1}], "abc": [-0.0, 0.5771883600000001, 0.8513997400000001], "properties": {"magmom": 0.0}, "label": "Ge", "xyz": [0.0, 6.11672318109836, 13.002793033729978]}, {"species": [{"element": "Ge", "occu": 1}], "abc": [0.0, 0.42281164, 0.14860026], "properties": {"magmom": 0.0}, "label": "Ge", "xyz": [0.0, 4.4807240389016405, 2.269460906270025]}, {"species": [{"element": "Ge", "occu": 1}], "abc": [-0.0, 0.07718836, 0.64860026], "properties": {"magmom": 0.0}, "label": "Ge", "xyz": [0.0, 0.8179995710983591, 9.905587876270026]}, {"species": [{"element": "Ge", "occu": 1}], "abc": [-0.0, 0.92281164, 0.35139974], "properties": {"magmom": 0.0}, "label": "Ge", "xyz": [0.0, 9.779447648901641, 5.366666063729976]}, {"species": [{"element": "Ge", "occu": 1}], "abc": [0.5, 0.7930443500000001, 0.72959325], "properties": {"magmom": 0.0}, "label": "Ge", "xyz": [1.867883205, 8.404245642244208, 11.142533386909905]}, {"species": [{"element": "Ge", "occu": 1}], "abc": [0.5, 0.20695565, 0.27040675000000003], "properties": {"magmom": 0.0}, "label": "Ge", "xyz": [1.867883205, 2.1932015777557927, 4.129720553090095]}, {"species": [{"element": "Ge", "occu": 1}], "abc": [0.5, 0.29304435, 0.77040675], "properties": {"magmom": 0.0}, "label": "Ge", "xyz": [1.867883205, 3.105522032244207, 11.765847523090097]}, {"species": [{"element": "Ge", "occu": 1}], "abc": [0.5, 0.70695565, 0.22959325], "properties": {"magmom": 0.0}, "label": "Ge", "xyz": [1.867883205, 7.491925187755793, 3.506406416909905]}, {"species": [{"element": "As", "occu": 1}], "abc": [-0.0, 0.6494623700000001, 0.69981318], "properties": {"magmom": -0.0}, "label": "As", "xyz": [0.0, 6.882643187451111, 10.68772459551893]}, {"species": [{"element": "As", "occu": 1}], "abc": [-0.0, 0.35053763, 0.30018682], "properties": {"magmom": -0.0}, "label": "As", "xyz": [0.0, 3.7148040325488885, 4.584529344481071]}, {"species": [{"element": "As", "occu": 1}], "abc": [-0.0, 0.14946237, 0.80018682], "properties": {"magmom": -0.0}, "label": "As", "xyz": [0.0, 1.5839195774511114, 12.22065631448107]}, {"species": [{"element": "As", "occu": 1}], "abc": [-0.0, 0.85053763, 0.19981318], "properties": {"magmom": -0.0}, "label": "As", "xyz": [0.0, 9.013527642548889, 3.051597625518929]}, {"species": [{"element": "As", "occu": 1}], "abc": [0.0, 0.761176299999999, 0.95003863], "properties": {"magmom": 0.0}, "label": "As", "xyz": [0.0, 8.066525664364875, 14.509231210169702]}, {"species": [{"element": "As", "occu": 1}], "abc": [-0.0, 0.2388237, 0.04996137], "properties": {"magmom": 0.0}, "label": "As", "xyz": [0.0, 2.5309215556351137, 0.7630227298302978]}, {"species": [{"element": "As", "occu": 1}], "abc": [-0.0, 0.2611763, 0.54996137], "properties": {"magmom": 0.0}, "label": "As", "xyz": [0.0, 2.7678020543648856, 8.399149699830298]}, {"species": [{"element": "As", "occu": 1}], "abc": [-0.0, 0.7388237, 0.45003863], "properties": {"magmom": 0.0}, "label": "As", "xyz": [0.0, 7.829645165635113, 6.8731042401697025]}, {"species": [{"element": "As", "occu": 1}], "abc": [0.5, 0.8824486500000001, 0.88194717], "properties": {"magmom": 0.0}, "label": "As", "xyz": [1.867883205, 9.351702992735254, 13.46932114190435]}, {"species": [{"element": "As", "occu": 1}], "abc": [0.5, 0.11755135, 0.11805283], "properties": {"magmom": 0.0}, "label": "As", "xyz": [1.867883205, 1.245744227264747, 1.8029327980956502]}, {"species": [{"element": "As", "occu": 1}], "abc": [0.5, 0.38244865, 0.61805283], "properties": {"magmom": 0.0}, "label": "As", "xyz": [1.867883205, 4.052979382735253, 9.439059768095651]}, {"species": [{"element": "As", "occu": 1}], "abc": [0.5, 0.61755135, 0.38194717], "properties": {"magmom": 0.0}, "label": "As", "xyz": [1.867883205, 6.544467837264747, 5.83319417190435]}, {"species": [{"element": "As", "occu": 1}], "abc": [0.5, 0.94178233, 0.60615475], "properties": {"magmom": -0.0}, "label": "As", "xyz": [1.867883205, 9.980488534903621, 9.257349268937215]}, {"species": [{"element": "As", "occu": 1}], "abc": [0.5, 0.05821767, 0.39384525000000004], "properties": {"magmom": -0.0}, "label": "As", "xyz": [1.867883205, 0.6169586850963773, 6.014904671062785]}, {"species": [{"element": "As", "occu": 1}], "abc": [0.5, 0.44178333000000003, 0.89384525], "properties": {"magmom": -0.0}, "label": "As", "xyz": [1.867883205, 4.681775522350843, 13.651031641062787]}, {"species": [{"element": "As", "occu": 1}], "abc": [0.5, 0.55821767, 0.10615475], "properties": {"magmom": -0.0}, "label": "As", "xyz": [1.867883205, 5.915682295096377, 1.6212222989372151]}]}, "task_ids": null, "uncorrected_energy_per_atom": null, "energy_per_atom": -14.4914370675, "formation_energy_per_atom": -0.06242388249999901, "energy_above_hull": 0.0, "is_stable": true, "equilibrium_reaction_energy_per_atom": null, "decomposes_to": null, "xas": null, "grain_boundaries": null, "band_gap": 0.719599999999999, "cbm": null, "vbm": null, "efermi": 3.23992241, "is_gap_direct": null, "is_metal": null, "es_source_calc_id": null, "bandstructure": null, "dos": null, "dos_energy_up": null, "dos_energy_down": null, "is_magnetic": null, "ordering": null, "total_magnetization": 0.0, "total_magnetization_normalized_vol": null, "total_magnetization_normalized_formula_units": null, "num_magnetic_sites": null, "num_unique_magnetic_sites": null, "types_of_magnetic_species": null, "bulk_modulus": null, "shear_modulus": null, "universal_anisotropy": null, "homogeneous_poisson": null, "e_total": null, "e_ionic": null, "e_electronic": null, "n": null, "e_ij_max": null, "weighted_surface_energy_EV_PER_ANG2": null, "weighted_surface_energy": null, "weighted_work_function": null, "surface_anisotropy": null, "shape_factor": null, "has_reconstructed": null, "possible_species": null, "has_props": null, "theoretical": null, "database_IDs": null, "fields_not_requested": ["builder_meta", "nsites", "elements", "nelements", "composition", "composition_reduced", "chemsys", "symmetry", "property_name", "deprecated", "deprecation_reasons", "last_updated", "origins", "warnings", "task_ids", "uncorrected_energy_per_atom", "equilibrium_reaction_energy_per_atom", "decomposes_to", "xas", "grain_boundaries", "cbm", "vbm", "is_gap_direct", "is_metal", "es_source_calc_id", "bandstructure", "dos", "dos_energy_up", "dos_energy_down", "is_magnetic", "ordering", "total_magnetization_normalized_vol", "total_magnetization_normalized_formula_units", "num_magnetic_sites", "num_unique_magnetic_sites", "types_of_magnetic_species", "bulk_modulus", "shear_modulus", "universal_anisotropy", "homogeneous_poisson", "e_total", "e_ionic", "e_electronic", "n", "e_ij_max", "weighted_surface_energy_EV_PER_ANG2", "weighted_surface_energy", "weighted_work_function", "surface_anisotropy", "shape_factor", "has_reconstructed", "possible_species", "has_props", "theoretical", "database_IDs"]}