{"builder_meta": null, "nsites": null, "elements": null, "nelements": null, "composition": null, "composition_reduced": null, "formula_pretty": "GeAs", "formula_anonymous": "AB", "chemsys": null, "volume": 296.32059750212716, "density": 4.9614870568336435, "density_atomic": 24.693383125177263, "symmetry": null, "property_name": null, "material_id": "mp-9548", "deprecated": null, "deprecation_reasons": null, "last_updated": null, "origins": null, "warnings": null, "structure": {"@module": "pymatgen.core.structure", "@class": "Structure", "charge": 0, "lattice": {"matrix": [[3.78764505, -0.0016097400000000001, -0.00088367], [-1.89665574, 8.05037798, -1.8311901700000002], [-0.00228321, -0.41829295, 9.814140590000001]], "pbc": [true, true, true], "a": 3.7876454951493335, "b": 8.471077030440018, "c": 9.82305093773585, "alpha": 104.85593974896392, "beta": 90.02563573169722, "gamma": 102.95885338913118, "volume": 296.3205975021272}, "properties": {}, "sites": [{"species": [{"element": "Ge", "occu": 1}], "abc": [0.26019689, 0.5203174700000001, 0.20910105], "properties": {"magmom": -0.0}, "label": "Ge", "xyz": [-0.001807075272253768, 4.100867958703004, 1.0991169376875636]}, {"species": [{"element": "Ge", "occu": 1}], "abc": [0.7398309200000001, 0.47970123000000003, 0.790889], "properties": {"magmom": 0.0}, "label": "Ge", "xyz": [1.890583064936696, 3.5297619906132054, 6.882817893782525]}, {"species": [{"element": "Ge", "occu": 1}], "abc": [0.37021022000000003, 0.7384348900000001, 0.08083018], "properties": {"magmom": -0.0}, "label": "Ge", "xyz": [0.0014835822323645603, 5.910273341478949, -0.5592631049831327]}, {"species": [{"element": "Ge", "occu": 1}], "abc": [0.62973809, 0.26157102, 0.91915976], "properties": {"magmom": -0.0}, "label": "Ge", "xyz": [1.8870155481286703, 1.7202538174894508, 8.541220348071795]}, {"species": [{"element": "Ge", "occu": 1}], "abc": [0.9331708, 0.86498438, 0.40940991], "properties": {"magmom": -0.0}, "label": "Ge", "xyz": [1.8930074032865876, 6.790695764419226, 2.433230906778866]}, {"species": [{"element": "Ge", "occu": 1}], "abc": [0.06684764, 0.13498982, 0.5906022], "properties": {"magmom": -0.0}, "label": "Ge", "xyz": [-0.0041825530434468, 0.8395667306176601, 5.54900192087519]}, {"species": [{"element": "As", "occu": 1}], "abc": [0.66193705, 0.32425898000000003, 0.17751843], "properties": {"magmom": -0.0}, "label": "As", "xyz": [1.8917696233259973, 2.5350870980983253, 1.1478260387128736]}, {"species": [{"element": "As", "occu": 1}], "abc": [0.33808276, 0.67579157, 0.82248211], "properties": {"magmom": -0.0}, "label": "As", "xyz": [-0.0030843672581469537, 5.095794880741422, 6.834153426754449]}, {"species": [{"element": "As", "occu": 1}], "abc": [0.96430223, 0.92507012, 0.17437521], "properties": {"magmom": 0.0}, "label": "As", "xyz": [1.8974968799397487, 7.372671927134468, 0.01651139109446964]}, {"species": [{"element": "As", "occu": 1}], "abc": [0.0356569, 0.07493428, 0.82562142], "properties": {"magmom": 0.0}, "label": "As", "xyz": [-0.008953918583780425, 0.2578402599659595, 7.965514264130588]}, {"species": [{"element": "As", "occu": 1}], "abc": [0.34708736, 0.6934292, 0.45300434], "properties": {"magmom": 0.0}, "label": "As", "xyz": [-0.0015870554811712116, 5.392319920220727, 3.1757408353217853]}, {"species": [{"element": "As", "occu": 1}], "abc": [0.65293714, 0.30651704, 0.5470064], "properties": {"magmom": 0.0}, "label": "As", "xyz": [1.8904878924758035, 2.2377180495541564, 4.806529741681776]}]}, "task_ids": null, "uncorrected_energy_per_atom": null, "energy_per_atom": -14.350048868333333, "formation_energy_per_atom": -0.060294584583334004, "energy_above_hull": 0.0, "is_stable": true, "equilibrium_reaction_energy_per_atom": null, "decomposes_to": null, "xas": null, "grain_boundaries": null, "band_gap": 0.5112999999999991, "cbm": null, "vbm": null, "efermi": 3.74881154, "is_gap_direct": null, "is_metal": null, "es_source_calc_id": null, "bandstructure": null, "dos": null, "dos_energy_up": null, "dos_energy_down": null, "is_magnetic": null, "ordering": null, "total_magnetization": 0.0, "total_magnetization_normalized_vol": null, "total_magnetization_normalized_formula_units": null, "num_magnetic_sites": null, "num_unique_magnetic_sites": null, "types_of_magnetic_species": null, "bulk_modulus": null, "shear_modulus": null, "universal_anisotropy": null, "homogeneous_poisson": null, "e_total": null, "e_ionic": null, "e_electronic": null, "n": null, "e_ij_max": null, "weighted_surface_energy_EV_PER_ANG2": null, "weighted_surface_energy": null, "weighted_work_function": null, "surface_anisotropy": null, "shape_factor": null, "has_reconstructed": null, "possible_species": null, "has_props": null, "theoretical": null, "database_IDs": null, "fields_not_requested": ["builder_meta", "nsites", "elements", "nelements", "composition", "composition_reduced", "chemsys", "symmetry", "property_name", "deprecated", "deprecation_reasons", "last_updated", "origins", "warnings", "task_ids", "uncorrected_energy_per_atom", "equilibrium_reaction_energy_per_atom", "decomposes_to", "xas", "grain_boundaries", "cbm", "vbm", "is_gap_direct", "is_metal", "es_source_calc_id", "bandstructure", "dos", "dos_energy_up", "dos_energy_down", "is_magnetic", "ordering", "total_magnetization_normalized_vol", "total_magnetization_normalized_formula_units", "num_magnetic_sites", "num_unique_magnetic_sites", "types_of_magnetic_species", "bulk_modulus", "shear_modulus", "universal_anisotropy", "homogeneous_poisson", "e_total", "e_ionic", "e_electronic", "n", "e_ij_max", "weighted_surface_energy_EV_PER_ANG2", "weighted_surface_energy", "weighted_work_function", "surface_anisotropy", "shape_factor", "has_reconstructed", "possible_species", "has_props", "theoretical", "database_IDs"]}