{"builder_meta": null, "nsites": null, "elements": null, "nelements": null, "composition": null, "composition_reduced": null, "formula_pretty": "GeAs3", "formula_anonymous": "AB3", "chemsys": null, "volume": 90.08065603019823, "density": 5.482334507297581, "density_atomic": 22.520164007549557, "symmetry": null, "property_name": null, "material_id": "mp-1224319", "deprecated": null, "deprecation_reasons": null, "last_updated": null, "origins": null, "warnings": null, "structure": {"@module": "pymatgen.core.structure", "@class": "Structure", "charge": 0, "lattice": {"matrix": [[7.398228, -1.88509, 0.0], [7.398228, 1.88509, 0.0], [6.917901, 0.0, 3.229548]], "pbc": [true, true, true], "a": 7.634614715104096, "b": 7.634614715104096, "c": 7.634614235840931, "alpha": 28.589898761140013, "beta": 28.589898761140013, "gamma": 28.589896420192844, "volume": 90.08065603019823}, "properties": {}, "sites": [{"species": [{"element": "Ge", "occu": 1}], "abc": [0.611227, 0.611227, 0.611227], "properties": {"magmom": -0.0}, "label": "Ge", "xyz": [13.272401286038999, 0.0, 1.9739869353959998]}, {"species": [{"element": "As", "occu": 1}], "abc": [0.113269, 0.113269, 0.113269], "properties": {"magmom": -0.0}, "label": "As", "xyz": [2.4595635030329994, 0.0, 0.36580767241199996]}, {"species": [{"element": "As", "occu": 1}], "abc": [0.890193999999999, 0.890193999999999, 0.890193999999999], "properties": {"magmom": -0.0}, "label": "As", "xyz": [19.32999031525798, 0.0, 2.8749242523119967]}, {"species": [{"element": "As", "occu": 1}], "abc": [0.385310999999999, 0.385310999999999, 0.385310999999999], "properties": {"magmom": -0.0}, "label": "As", "xyz": [8.366780610026979, 0.0, 1.2443803694279967]}]}, "task_ids": null, "uncorrected_energy_per_atom": null, "energy_per_atom": -14.450871280312498, "formation_energy_per_atom": 0.047771355312502005, "energy_above_hull": 0.094589267187501, "is_stable": false, "equilibrium_reaction_energy_per_atom": null, "decomposes_to": null, "xas": null, "grain_boundaries": null, "band_gap": 0.0, "cbm": null, "vbm": null, "efermi": 4.84403448, "is_gap_direct": null, "is_metal": null, "es_source_calc_id": null, "bandstructure": null, "dos": null, "dos_energy_up": null, "dos_energy_down": null, "is_magnetic": null, "ordering": null, "total_magnetization": 0.010360999999999001, "total_magnetization_normalized_vol": null, "total_magnetization_normalized_formula_units": null, "num_magnetic_sites": null, "num_unique_magnetic_sites": null, "types_of_magnetic_species": null, "bulk_modulus": null, "shear_modulus": null, "universal_anisotropy": null, "homogeneous_poisson": null, "e_total": null, "e_ionic": null, "e_electronic": null, "n": null, "e_ij_max": null, "weighted_surface_energy_EV_PER_ANG2": null, "weighted_surface_energy": null, "weighted_work_function": null, "surface_anisotropy": null, "shape_factor": null, "has_reconstructed": null, "possible_species": null, "has_props": null, "theoretical": null, "database_IDs": null, "fields_not_requested": ["builder_meta", "nsites", "elements", "nelements", "composition", "composition_reduced", "chemsys", "symmetry", "property_name", "deprecated", "deprecation_reasons", "last_updated", "origins", "warnings", "task_ids", "uncorrected_energy_per_atom", "equilibrium_reaction_energy_per_atom", "decomposes_to", "xas", "grain_boundaries", "cbm", "vbm", "is_gap_direct", "is_metal", "es_source_calc_id", "bandstructure", "dos", "dos_energy_up", "dos_energy_down", "is_magnetic", "ordering", "total_magnetization_normalized_vol", "total_magnetization_normalized_formula_units", "num_magnetic_sites", "num_unique_magnetic_sites", "types_of_magnetic_species", "bulk_modulus", "shear_modulus", "universal_anisotropy", "homogeneous_poisson", "e_total", "e_ionic", "e_electronic", "n", "e_ij_max", "weighted_surface_energy_EV_PER_ANG2", "weighted_surface_energy", "weighted_work_function", "surface_anisotropy", "shape_factor", "has_reconstructed", "possible_species", "has_props", "theoretical", "database_IDs"]}