{"builder_meta": null, "nsites": null, "elements": null, "nelements": null, "composition": null, "composition_reduced": null, "formula_pretty": "GeAu3", "formula_anonymous": "AB3", "chemsys": null, "volume": 148.36298152551876, "density": 14.853214654820073, "density_atomic": 18.545372690689845, "symmetry": null, "property_name": null, "material_id": "mp-1184712", "deprecated": null, "deprecation_reasons": null, "last_updated": null, "origins": null, "warnings": null, "structure": {"@module": "pymatgen.core.structure", "@class": "Structure", "charge": 0, "lattice": {"matrix": [[2.880096, -4.988473, 0.0], [2.880096, 4.988473, 0.0], [0.0, 0.0, 5.163224]], "pbc": [true, true, true], "a": 5.760192344092773, "b": 5.760192344092773, "c": 5.163224, "alpha": 90.0, "beta": 90.0, "gamma": 120.00000395212402, "volume": 148.36298152551876}, "properties": {}, "sites": [{"species": [{"element": "Ge", "occu": 1}], "abc": [0.333333, 0.666667, 0.75], "properties": {"magmom": 0.0}, "label": "Ge", "xyz": [2.880096, 1.662827658982, 3.8724179999999997]}, {"species": [{"element": "Ge", "occu": 1}], "abc": [0.666667, 0.333333, 0.25], "properties": {"magmom": 0.0}, "label": "Ge", "xyz": [2.880096, -1.662827658982, 1.290806]}, {"species": [{"element": "Au", "occu": 1}], "abc": [0.166348, 0.332696999999999, 0.25], "properties": {"magmom": 0.0}, "label": "Au", "xyz": [1.4372975083199973, 0.8298274950769953, 1.290806]}, {"species": [{"element": "Au", "occu": 1}], "abc": [0.667303, 0.833652, 0.25], "properties": {"magmom": 0.0}, "label": "Au", "xyz": [4.32289449168, 0.8298274950769997, 1.290806]}, {"species": [{"element": "Au", "occu": 1}], "abc": [0.166348, 0.833652, 0.25], "properties": {"magmom": -0.0}, "label": "Au", "xyz": [2.8800959999999995, 3.3288279867919996, 1.290806]}, {"species": [{"element": "Au", "occu": 1}], "abc": [0.833652, 0.667303, 0.75], "properties": {"magmom": 0.0}, "label": "Au", "xyz": [4.32289449168, -0.8298274950769997, 3.8724179999999997]}, {"species": [{"element": "Au", "occu": 1}], "abc": [0.332696999999999, 0.166348, 0.75], "properties": {"magmom": 0.0}, "label": "Au", "xyz": [1.4372975083199973, -0.8298274950769953, 3.8724179999999997]}, {"species": [{"element": "Au", "occu": 1}], "abc": [0.833652, 0.166348, 0.75], "properties": {"magmom": -0.0}, "label": "Au", "xyz": [2.8800959999999995, -3.3288279867919996, 3.8724179999999997]}]}, "task_ids": null, "uncorrected_energy_per_atom": null, "energy_per_atom": -41.335101545, "formation_energy_per_atom": 0.071612962499997, "energy_above_hull": 0.071612962499997, "is_stable": false, "equilibrium_reaction_energy_per_atom": null, "decomposes_to": null, "xas": null, "grain_boundaries": null, "band_gap": 0.0, "cbm": null, "vbm": null, "efermi": 5.38385917, "is_gap_direct": null, "is_metal": null, "es_source_calc_id": null, "bandstructure": null, "dos": null, "dos_energy_up": null, "dos_energy_down": null, "is_magnetic": null, "ordering": null, "total_magnetization": 0.0016006999999990002, "total_magnetization_normalized_vol": null, "total_magnetization_normalized_formula_units": null, "num_magnetic_sites": null, "num_unique_magnetic_sites": null, "types_of_magnetic_species": null, "bulk_modulus": null, "shear_modulus": null, "universal_anisotropy": null, "homogeneous_poisson": null, "e_total": null, "e_ionic": null, "e_electronic": null, "n": null, "e_ij_max": null, "weighted_surface_energy_EV_PER_ANG2": null, "weighted_surface_energy": null, "weighted_work_function": null, "surface_anisotropy": null, "shape_factor": null, "has_reconstructed": null, "possible_species": null, "has_props": null, "theoretical": null, "database_IDs": null, "fields_not_requested": ["builder_meta", "nsites", "elements", "nelements", "composition", "composition_reduced", "chemsys", "symmetry", "property_name", "deprecated", "deprecation_reasons", "last_updated", "origins", "warnings", "task_ids", "uncorrected_energy_per_atom", "equilibrium_reaction_energy_per_atom", "decomposes_to", "xas", "grain_boundaries", "cbm", "vbm", "is_gap_direct", "is_metal", "es_source_calc_id", "bandstructure", "dos", "dos_energy_up", "dos_energy_down", "is_magnetic", "ordering", "total_magnetization_normalized_vol", "total_magnetization_normalized_formula_units", "num_magnetic_sites", "num_unique_magnetic_sites", "types_of_magnetic_species", "bulk_modulus", "shear_modulus", "universal_anisotropy", "homogeneous_poisson", "e_total", "e_ionic", "e_electronic", "n", "e_ij_max", "weighted_surface_energy_EV_PER_ANG2", "weighted_surface_energy", "weighted_work_function", "surface_anisotropy", "shape_factor", "has_reconstructed", "possible_species", "has_props", "theoretical", "database_IDs"]}