{"builder_meta": null, "nsites": null, "elements": null, "nelements": null, "composition": null, "composition_reduced": null, "formula_pretty": "GeBr2", "formula_anonymous": "AB2", "chemsys": null, "volume": 847.869747237202, "density": 3.641964924077439, "density_atomic": 35.32790613488341, "symmetry": null, "property_name": null, "material_id": "mp-541610", "deprecated": null, "deprecation_reasons": null, "last_updated": null, "origins": null, "warnings": null, "structure": {"@module": "pymatgen.core.structure", "@class": "Structure", "charge": 0, "lattice": {"matrix": [[9.207519, 0.0, 0.0], [0.0, 7.101202, 0.0], [0.0, 2.624637, 12.967452]], "pbc": [true, true, true], "a": 9.207519, "b": 7.101202, "c": 13.23040176087155, "alpha": 78.55780282282339, "beta": 90.0, "gamma": 90.0, "volume": 847.869747237202}, "properties": {}, "sites": [{"species": [{"element": "Ge", "occu": 1}], "abc": [0.872188, 0.278501, 0.995791], "properties": {"magmom": 0.0}, "label": "Ge", "xyz": [8.030687581572, 4.591281761069, 12.912871994531999]}, {"species": [{"element": "Ge", "occu": 1}], "abc": [0.372187999999999, 0.221499, 0.004209], "properties": {"magmom": 0.0}, "label": "Ge", "xyz": [3.4269280815719907, 1.5839562389309998, 0.054580005468]}, {"species": [{"element": "Ge", "occu": 1}], "abc": [0.127811999999999, 0.721499, 0.004209], "properties": {"magmom": 0.0}, "label": "Ge", "xyz": [1.1768314184279909, 5.1345572389309995, 0.054580005468]}, {"species": [{"element": "Ge", "occu": 1}], "abc": [0.627811999999999, 0.778501, 0.995791], "properties": {"magmom": 0.0}, "label": "Ge", "xyz": [5.780590918427991, 8.141882761068999, 12.912871994531999]}, {"species": [{"element": "Ge", "occu": 1}], "abc": [0.6598200000000001, 0.213293999999999, 0.544661], "properties": {"magmom": 0.0}, "label": "Ge", "xyz": [6.0753051865800005, 2.9441811924449928, 7.0628653737719995]}, {"species": [{"element": "Ge", "occu": 1}], "abc": [0.15982000000000002, 0.286705999999999, 0.455339], "properties": {"magmom": 0.0}, "label": "Ge", "xyz": [1.47154568658, 3.231056807554993, 5.904586626228]}, {"species": [{"element": "Ge", "occu": 1}], "abc": [0.34018000000000004, 0.786706, 0.455339], "properties": {"magmom": 0.0}, "label": "Ge", "xyz": [3.1322138134200004, 6.781657807555, 5.904586626228]}, {"species": [{"element": "Ge", "occu": 1}], "abc": [0.84018, 0.713294, 0.544661], "properties": {"magmom": 0.0}, "label": "Ge", "xyz": [7.73597331342, 6.494782192444999, 7.0628653737719995]}, {"species": [{"element": "Br", "occu": 1}], "abc": [0.869835999999999, 0.285998, 0.651866], "properties": {"magmom": 0.0}, "label": "Br", "xyz": [8.00903149688399, 3.7418411922379997, 8.453041065431998]}, {"species": [{"element": "Br", "occu": 1}], "abc": [0.369836, 0.214002, 0.348134], "properties": {"magmom": 0.0}, "label": "Br", "xyz": [3.4052719968839997, 2.433396807762, 4.514410934568]}, {"species": [{"element": "Br", "occu": 1}], "abc": [0.130164, 0.714001999999999, 0.348134], "properties": {"magmom": 0.0}, "label": "Br", "xyz": [1.198487503116, 5.983997807761993, 4.514410934568]}, {"species": [{"element": "Br", "occu": 1}], "abc": [0.630164, 0.785998, 0.651866], "properties": {"magmom": 0.0}, "label": "Br", "xyz": [5.802247003115999, 7.292442192237999, 8.453041065431998]}, {"species": [{"element": "Br", "occu": 1}], "abc": [0.664223999999999, 0.402977, 0.102514], "properties": {"magmom": 0.0}, "label": "Br", "xyz": [6.115855100255991, 3.130683115772, 1.329345374328]}, {"species": [{"element": "Br", "occu": 1}], "abc": [0.164223999999999, 0.097023, 0.897486], "properties": {"magmom": 0.0}, "label": "Br", "xyz": [1.5120956002559909, 3.044554884228, 11.638106625672]}, {"species": [{"element": "Br", "occu": 1}], "abc": [0.335775999999999, 0.597023, 0.897486], "properties": {"magmom": 0.0}, "label": "Br", "xyz": [3.091663899743991, 6.595155884227999, 11.638106625672]}, {"species": [{"element": "Br", "occu": 1}], "abc": [0.835776, 0.902976999999999, 0.102514], "properties": {"magmom": 0.0}, "label": "Br", "xyz": [7.695423399744, 6.681284115771993, 1.329345374328]}, {"species": [{"element": "Br", "occu": 1}], "abc": [0.562107, 0.165914999999999, 0.873868], "properties": {"magmom": 0.0}, "label": "Br", "xyz": [5.175610882533, 3.4717822157459928, 11.331841344335999]}, {"species": [{"element": "Br", "occu": 1}], "abc": [0.062106999999999, 0.334084999999999, 0.126132], "properties": {"magmom": 0.0}, "label": "Br", "xyz": [0.5718513825329908, 2.7034557842539932, 1.635610655664]}, {"species": [{"element": "Br", "occu": 1}], "abc": [0.437893, 0.834085, 0.126132], "properties": {"magmom": 0.0}, "label": "Br", "xyz": [4.031908117466999, 6.254056784254, 1.635610655664]}, {"species": [{"element": "Br", "occu": 1}], "abc": [0.937893, 0.665914999999999, 0.873868], "properties": {"magmom": 0.0}, "label": "Br", "xyz": [8.635667617467, 7.022383215745993, 11.331841344335999]}, {"species": [{"element": "Br", "occu": 1}], "abc": [0.806476, 0.060582, 0.41509], "properties": {"magmom": 0.0}, "label": "Br", "xyz": [7.425643093043999, 1.5196655918939999, 5.38265965068]}, {"species": [{"element": "Br", "occu": 1}], "abc": [0.306475999999999, 0.439418, 0.58491], "properties": {"magmom": 0.0}, "label": "Br", "xyz": [2.821883593043991, 4.655572408106, 7.584792349320001]}, {"species": [{"element": "Br", "occu": 1}], "abc": [0.193524, 0.939418, 0.58491], "properties": {"magmom": 0.0}, "label": "Br", "xyz": [1.781875906956, 8.206173408106, 7.584792349320001]}, {"species": [{"element": "Br", "occu": 1}], "abc": [0.693523999999999, 0.560582, 0.41509], "properties": {"magmom": 0.0}, "label": "Br", "xyz": [6.38563540695599, 5.070266591894, 5.38265965068]}]}, "task_ids": null, "uncorrected_energy_per_atom": null, "energy_per_atom": -3.56029183375, "formation_energy_per_atom": -0.927984858749999, "energy_above_hull": 0.0, "is_stable": true, "equilibrium_reaction_energy_per_atom": null, "decomposes_to": null, "xas": null, "grain_boundaries": null, "band_gap": 2.597, "cbm": null, "vbm": null, "efermi": -0.70840683, "is_gap_direct": null, "is_metal": null, "es_source_calc_id": null, "bandstructure": null, "dos": null, "dos_energy_up": null, "dos_energy_down": null, "is_magnetic": null, "ordering": null, "total_magnetization": 0.0019108999999990002, "total_magnetization_normalized_vol": null, "total_magnetization_normalized_formula_units": null, "num_magnetic_sites": null, "num_unique_magnetic_sites": null, "types_of_magnetic_species": null, "bulk_modulus": null, "shear_modulus": null, "universal_anisotropy": null, "homogeneous_poisson": null, "e_total": null, "e_ionic": null, "e_electronic": null, "n": null, "e_ij_max": null, "weighted_surface_energy_EV_PER_ANG2": null, "weighted_surface_energy": null, "weighted_work_function": null, "surface_anisotropy": null, "shape_factor": null, "has_reconstructed": null, "possible_species": null, "has_props": null, "theoretical": null, "database_IDs": null, "fields_not_requested": ["builder_meta", "nsites", "elements", "nelements", "composition", "composition_reduced", "chemsys", "symmetry", "property_name", "deprecated", "deprecation_reasons", "last_updated", "origins", "warnings", "task_ids", "uncorrected_energy_per_atom", "equilibrium_reaction_energy_per_atom", "decomposes_to", "xas", "grain_boundaries", "cbm", "vbm", "is_gap_direct", "is_metal", "es_source_calc_id", "bandstructure", "dos", "dos_energy_up", "dos_energy_down", "is_magnetic", "ordering", "total_magnetization_normalized_vol", "total_magnetization_normalized_formula_units", "num_magnetic_sites", "num_unique_magnetic_sites", "types_of_magnetic_species", "bulk_modulus", "shear_modulus", "universal_anisotropy", "homogeneous_poisson", "e_total", "e_ionic", "e_electronic", "n", "e_ij_max", "weighted_surface_energy_EV_PER_ANG2", "weighted_surface_energy", "weighted_work_function", "surface_anisotropy", "shape_factor", "has_reconstructed", "possible_species", "has_props", "theoretical", "database_IDs"]}