{"builder_meta": null, "nsites": null, "elements": null, "nelements": null, "composition": null, "composition_reduced": null, "formula_pretty": "GeCl4", "formula_anonymous": "AB4", "chemsys": null, "volume": 628.7072295561483, "density": 2.265639122119878, "density_atomic": 31.43536147780741, "symmetry": null, "property_name": null, "material_id": "mp-30086", "deprecated": null, "deprecation_reasons": null, "last_updated": null, "origins": null, "warnings": null, "structure": {"@module": "pymatgen.core.structure", "@class": "Structure", "charge": 0, "lattice": {"matrix": [[6.55750902, 0.0, 0.0], [0.0, 9.61082207, -2.2569388200000002], [0.0, -0.01699801, 9.97982126]], "pbc": [true, true, true], "a": 6.55750902, "b": 9.872267910587825, "c": 9.979835735817096, "alpha": 103.31307509066248, "beta": 90.0, "gamma": 90.0, "volume": 628.7072295561484}, "properties": {}, "sites": [{"species": [{"element": "Ge", "occu": 1}], "abc": [0.07485467, 0.74757359, 0.8579517600000001], "properties": {"magmom": 0.0}, "label": "Ge", "xyz": [0.49086017371412344, 7.170213285125133, 6.874977358424654]}, {"species": [{"element": "Ge", "occu": 1}], "abc": [0.57485467, 0.25242641, 0.64204824], "properties": {"magmom": 0.0}, "label": "Ge", "xyz": [3.769614683714124, 2.415111769874866, 5.837815711575347]}, {"species": [{"element": "Ge", "occu": 1}], "abc": [0.92514533, 0.25242641, 0.14204824], "properties": {"magmom": 0.0}, "label": "Ge", "xyz": [6.066648846285877, 2.423610774874866, 0.8479050815753462]}, {"species": [{"element": "Ge", "occu": 1}], "abc": [0.42514533, 0.74757359, 0.35795176], "properties": {"magmom": 0.0}, "label": "Ge", "xyz": [2.7878943362858766, 7.178712290125133, 1.8850667284246534]}, {"species": [{"element": "Cl", "occu": 1}], "abc": [0.37958796, 0.8054944900000001, 0.91307923], "properties": {"magmom": -0.0}, "label": "Cl", "xyz": [2.4891514715833996, 7.725943691873062, 7.2944157278413275]}, {"species": [{"element": "Cl", "occu": 1}], "abc": [0.8795879600000001, 0.19450551, 0.58692077], "properties": {"magmom": -0.0}, "label": "Cl", "xyz": [5.7679059815834, 1.8593813631269378, 5.418377342158672]}, {"species": [{"element": "Cl", "occu": 1}], "abc": [0.62041204, 0.19450551, 0.08692077000000001], "properties": {"magmom": -0.0}, "label": "Cl", "xyz": [4.068357548416602, 1.8678803681269378, 0.42846671215867205]}, {"species": [{"element": "Cl", "occu": 1}], "abc": [0.12041204, 0.8054944900000001, 0.41307923], "properties": {"magmom": -0.0}, "label": "Cl", "xyz": [0.7896030384166008, 7.734442696873062, 2.3045050978413273]}, {"species": [{"element": "Cl", "occu": 1}], "abc": [0.57561485, 0.69830717, 0.52803248], "properties": {"magmom": -0.0}, "label": "Cl", "xyz": [3.7745995709209472, 6.702330459699876, 3.693633209617185]}, {"species": [{"element": "Cl", "occu": 1}], "abc": [0.07561485, 0.30169283, 0.97196752], "properties": {"magmom": -0.0}, "label": "Cl", "xyz": [0.495845060920947, 2.882994595300123, 9.019159860382814]}, {"species": [{"element": "Cl", "occu": 1}], "abc": [0.42438515, 0.30169283, 0.47196852], "properties": {"magmom": -0.0}, "label": "Cl", "xyz": [2.782909449079053, 2.891493583302113, 4.029259210204074]}, {"species": [{"element": "Cl", "occu": 1}], "abc": [0.92438515, 0.69830717, 0.028032480000000002], "properties": {"magmom": -0.0}, "label": "Cl", "xyz": [6.061663959079053, 6.710829464699876, -1.2962774203828147]}, {"species": [{"element": "Cl", "occu": 1}], "abc": [0.42933222, 0.57237679, 0.18955877000000002], "properties": {"magmom": 0.0}, "label": "Cl", "xyz": [2.8153499052266246, 5.497789363819708, 0.5999432458474625]}, {"species": [{"element": "Cl", "occu": 1}], "abc": [0.92933222, 0.42762321000000003, 0.31044123], "properties": {"magmom": 0.0}, "label": "Cl", "xyz": [6.094104415226625, 4.104533701180292, 2.1330285641525375]}, {"species": [{"element": "Cl", "occu": 1}], "abc": [0.57066778, 0.42762321000000003, 0.81044123], "properties": {"magmom": 0.0}, "label": "Cl", "xyz": [3.7421591147733757, 4.096034696180292, 7.122939194152537]}, {"species": [{"element": "Cl", "occu": 1}], "abc": [0.07066778, 0.57237679, 0.68955877], "properties": {"magmom": 0.0}, "label": "Cl", "xyz": [0.46340460477337564, 5.489290358819708, 5.589853875847462]}, {"species": [{"element": "Cl", "occu": 1}], "abc": [0.577413899999999, 0.91497961, 0.30109386], "properties": {"magmom": -0.0}, "label": "Cl", "xyz": [3.7863968575233717, 8.788588232944775, 0.9398099039660028]}, {"species": [{"element": "Cl", "occu": 1}], "abc": [0.0774139, 0.08502039, 0.19890614], "properties": {"magmom": -0.0}, "label": "Cl", "xyz": [0.507642347523378, 0.8137348320552259, 1.7931619060339965]}, {"species": [{"element": "Cl", "occu": 1}], "abc": [0.422586099999999, 0.08502039, 0.6989061400000001], "properties": {"magmom": -0.0}, "label": "Cl", "xyz": [2.7711121624766157, 0.8052358270552259, 6.783072536033997]}, {"species": [{"element": "Cl", "occu": 1}], "abc": [0.9225861, 0.91497961, 0.80109386], "properties": {"magmom": -0.0}, "label": "Cl", "xyz": [6.049866672476622, 8.780089227944774, 5.9297205339660035]}]}, "task_ids": null, "uncorrected_energy_per_atom": null, "energy_per_atom": -8.700379117, "formation_energy_per_atom": -1.004032483, "energy_above_hull": 0.0, "is_stable": true, "equilibrium_reaction_energy_per_atom": null, "decomposes_to": null, "xas": null, "grain_boundaries": null, "band_gap": 4.1525, "cbm": null, "vbm": null, "efermi": -2.95566087, "is_gap_direct": null, "is_metal": null, "es_source_calc_id": null, "bandstructure": null, "dos": null, "dos_energy_up": null, "dos_energy_down": null, "is_magnetic": null, "ordering": null, "total_magnetization": 0.0, "total_magnetization_normalized_vol": null, "total_magnetization_normalized_formula_units": null, "num_magnetic_sites": null, "num_unique_magnetic_sites": null, "types_of_magnetic_species": null, "bulk_modulus": null, "shear_modulus": null, "universal_anisotropy": null, "homogeneous_poisson": null, "e_total": null, "e_ionic": null, "e_electronic": null, "n": null, "e_ij_max": null, "weighted_surface_energy_EV_PER_ANG2": null, "weighted_surface_energy": null, "weighted_work_function": null, "surface_anisotropy": null, "shape_factor": null, "has_reconstructed": null, "possible_species": null, "has_props": null, "theoretical": null, "database_IDs": null, "fields_not_requested": ["builder_meta", "nsites", "elements", "nelements", "composition", "composition_reduced", "chemsys", "symmetry", "property_name", "deprecated", "deprecation_reasons", "last_updated", "origins", "warnings", "task_ids", "uncorrected_energy_per_atom", "equilibrium_reaction_energy_per_atom", "decomposes_to", "xas", "grain_boundaries", "cbm", "vbm", "is_gap_direct", "is_metal", "es_source_calc_id", "bandstructure", "dos", "dos_energy_up", "dos_energy_down", "is_magnetic", "ordering", "total_magnetization_normalized_vol", "total_magnetization_normalized_formula_units", "num_magnetic_sites", "num_unique_magnetic_sites", "types_of_magnetic_species", "bulk_modulus", "shear_modulus", "universal_anisotropy", "homogeneous_poisson", "e_total", "e_ionic", "e_electronic", "n", "e_ij_max", "weighted_surface_energy_EV_PER_ANG2", "weighted_surface_energy", "weighted_work_function", "surface_anisotropy", "shape_factor", "has_reconstructed", "possible_species", "has_props", "theoretical", "database_IDs"]}