{
  "builder_meta": null,
  "nsites": null,
  "elements": null,
  "nelements": null,
  "composition": null,
  "composition_reduced": null,
  "formula_pretty": "GeF2",
  "formula_anonymous": "AB2",
  "chemsys": null,
  "volume": 189.38963804095667,
  "density": 3.880185656014212,
  "density_atomic": 15.782469836746388,
  "symmetry": null,
  "property_name": null,
  "material_id": "mp-7595",
  "deprecated": null,
  "deprecation_reasons": null,
  "last_updated": null,
  "origins": null,
  "warnings": null,
  "structure": {
    "@module": "pymatgen.core.structure",
    "@class": "Structure",
    "charge": 0,
    "lattice": {
      "matrix": [
        [4.69160056, 0.0, 0.0],
        [0.0, 5.00209386, 0.0],
        [0.0, 0.0, 8.07018235]
      ],
      "pbc": [true, true, true],
      "a": 4.69160056,
      "b": 5.00209386,
      "c": 8.07018235,
      "alpha": 90.0,
      "beta": 90.0,
      "gamma": 90.0,
      "volume": 189.38963804095667
    },
    "properties": {},
    "sites": [
      {
        "species": [{ "element": "Ge", "occu": 1 }],
        "abc": [0.25802107, 0.98793887, 0.6241483],
        "properties": { "magmom": -0.0 },
        "label": "Ge",
        "xyz": [1.2105317965037994, 4.9417629556823375, 5.036990594442504]
      },
      {
        "species": [{ "element": "Ge", "occu": 1 }],
        "abc": [0.75802107, 0.51206113, 0.375851699999999],
        "properties": { "magmom": -0.0 },
        "label": "Ge",
        "xyz": [3.556332076503799, 2.5613778343176614, 3.0331917555574868]
      },
      {
        "species": [{ "element": "Ge", "occu": 1 }],
        "abc": [0.74197893, 0.48793887, 0.8758517],
        "properties": { "magmom": -0.0 },
        "label": "Ge",
        "xyz": [3.4810687634962014, 2.440716025682338, 7.068282930557495]
      },
      {
        "species": [{ "element": "Ge", "occu": 1 }],
        "abc": [0.24197893, 0.01206113, 0.124148299999999],
        "properties": { "magmom": -0.0 },
        "label": "Ge",
        "xyz": [1.135268483496201, 0.06033090431766179, 1.0018994194424968]
      },
      {
        "species": [{ "element": "F", "occu": 1 }],
        "abc": [0.39974069, 0.74701536, 0.78188179],
        "properties": { "magmom": 0.0 },
        "label": "F",
        "xyz": [1.8754236450587867, 3.7366409455816894, 6.309928621444406]
      },
      {
        "species": [{ "element": "F", "occu": 1 }],
        "abc": [0.89974069, 0.75298464, 0.21811821],
        "properties": { "magmom": 0.0 },
        "label": "F",
        "xyz": [4.221223925058787, 3.76649984441831, 1.7602537285555935]
      },
      {
        "species": [{ "element": "F", "occu": 1 }],
        "abc": [0.60025931, 0.24701536000000002, 0.71811821],
        "properties": { "magmom": 0.0 },
        "label": "F",
        "xyz": [2.816176914941214, 1.2355940155816896, 5.795344903555593]
      },
      {
        "species": [{ "element": "F", "occu": 1 }],
        "abc": [0.10025931, 0.25298464, 0.28188179],
        "properties": { "magmom": 0.0 },
        "label": "F",
        "xyz": [0.4703766349412137, 1.2654529144183102, 2.2748374464444066]
      },
      {
        "species": [{ "element": "F", "occu": 1 }],
        "abc": [0.96480219, 0.11670517, 0.97172515],
        "properties": { "magmom": -0.0 },
        "label": "F",
        "xyz": [4.526466494893227, 0.5837702142872562, 7.841999154581102]
      },
      {
        "species": [{ "element": "F", "occu": 1 }],
        "abc": [0.46480219, 0.38329483000000003, 0.02827485],
        "properties": { "magmom": -0.0 },
        "label": "F",
        "xyz": [2.1806662148932268, 1.9172767157127437, 0.2281831954188975]
      },
      {
        "species": [{ "element": "F", "occu": 1 }],
        "abc": [0.03519781, 0.61670517, 0.52827485],
        "properties": { "magmom": -0.0 },
        "label": "F",
        "xyz": [0.16513406510677361, 3.084817144287256, 4.263274370418897]
      },
      {
        "species": [{ "element": "F", "occu": 1 }],
        "abc": [0.53519781, 0.88329483, 0.47172515000000004],
        "properties": { "magmom": -0.0 },
        "label": "F",
        "xyz": [2.5109343451067736, 4.418323645712744, 3.8069079795811027]
      }
    ]
  },
  "task_ids": null,
  "uncorrected_energy_per_atom": null,
  "energy_per_atom": -8.862160823333333,
  "formation_energy_per_atom": -2.154149663333333,
  "energy_above_hull": 0.006355995416665001,
  "is_stable": false,
  "equilibrium_reaction_energy_per_atom": null,
  "decomposes_to": null,
  "xas": null,
  "grain_boundaries": null,
  "band_gap": 4.0597,
  "cbm": null,
  "vbm": null,
  "efermi": -1.13647331,
  "is_gap_direct": null,
  "is_metal": null,
  "es_source_calc_id": null,
  "bandstructure": null,
  "dos": null,
  "dos_energy_up": null,
  "dos_energy_down": null,
  "is_magnetic": null,
  "ordering": null,
  "total_magnetization": 0.0,
  "total_magnetization_normalized_vol": null,
  "total_magnetization_normalized_formula_units": null,
  "num_magnetic_sites": null,
  "num_unique_magnetic_sites": null,
  "types_of_magnetic_species": null,
  "bulk_modulus": null,
  "shear_modulus": null,
  "universal_anisotropy": null,
  "homogeneous_poisson": null,
  "e_total": null,
  "e_ionic": null,
  "e_electronic": null,
  "n": null,
  "e_ij_max": null,
  "weighted_surface_energy_EV_PER_ANG2": null,
  "weighted_surface_energy": null,
  "weighted_work_function": null,
  "surface_anisotropy": null,
  "shape_factor": null,
  "has_reconstructed": null,
  "possible_species": null,
  "has_props": null,
  "theoretical": null,
  "database_IDs": null,
  "fields_not_requested": [
    "builder_meta",
    "nsites",
    "elements",
    "nelements",
    "composition",
    "composition_reduced",
    "chemsys",
    "symmetry",
    "property_name",
    "deprecated",
    "deprecation_reasons",
    "last_updated",
    "origins",
    "warnings",
    "task_ids",
    "uncorrected_energy_per_atom",
    "equilibrium_reaction_energy_per_atom",
    "decomposes_to",
    "xas",
    "grain_boundaries",
    "cbm",
    "vbm",
    "is_gap_direct",
    "is_metal",
    "es_source_calc_id",
    "bandstructure",
    "dos",
    "dos_energy_up",
    "dos_energy_down",
    "is_magnetic",
    "ordering",
    "total_magnetization_normalized_vol",
    "total_magnetization_normalized_formula_units",
    "num_magnetic_sites",
    "num_unique_magnetic_sites",
    "types_of_magnetic_species",
    "bulk_modulus",
    "shear_modulus",
    "universal_anisotropy",
    "homogeneous_poisson",
    "e_total",
    "e_ionic",
    "e_electronic",
    "n",
    "e_ij_max",
    "weighted_surface_energy_EV_PER_ANG2",
    "weighted_surface_energy",
    "weighted_work_function",
    "surface_anisotropy",
    "shape_factor",
    "has_reconstructed",
    "possible_species",
    "has_props",
    "theoretical",
    "database_IDs"
  ]
}
