{
  "builder_meta": null,
  "nsites": null,
  "elements": null,
  "nelements": null,
  "composition": null,
  "composition_reduced": null,
  "formula_pretty": "GeF4",
  "formula_anonymous": "AB4",
  "chemsys": null,
  "volume": 74.94525653170322,
  "density": 3.293229379499045,
  "density_atomic": 14.989051306340645,
  "symmetry": null,
  "property_name": null,
  "material_id": "mp-9816",
  "deprecated": null,
  "deprecation_reasons": null,
  "last_updated": null,
  "origins": null,
  "warnings": null,
  "structure": {
    "@module": "pymatgen.core.structure",
    "@class": "Structure",
    "charge": 0,
    "lattice": {
      "matrix": [
        [4.33722925, -0.0, -1.53344203],
        [-2.16861414, 3.7561504, -1.53344203],
        [-1e-8, -2e-8, 4.60032803]
      ],
      "pbc": [true, true, true],
      "a": 4.600326295647526,
      "b": 4.6003258118310075,
      "c": 4.60032803,
      "alpha": 109.47122201283106,
      "beta": 109.47121985348774,
      "gamma": 109.47121762994277,
      "volume": 74.94525653170321
    },
    "properties": {},
    "sites": [
      {
        "species": [{ "element": "Ge", "occu": 1 }],
        "abc": [0.0, 0.0, 0.0],
        "properties": { "magmom": 0.0 },
        "label": "Ge",
        "xyz": [0.0, 0.0, 0.0]
      },
      {
        "species": [{ "element": "F", "occu": 1 }],
        "abc": [-0.0, -0.0, 0.63058077],
        "properties": { "magmom": -0.0 },
        "label": "F",
        "xyz": [-6.3058077e-9, -1.26116154e-8, 2.900878391409983]
      },
      {
        "species": [{ "element": "F", "occu": 1 }],
        "abc": [0.36941923, 0.36941923, 0.36941923],
        "properties": { "magmom": -0.0 },
        "label": "F",
        "xyz": [0.8011281204083731, 1.3875941811438075, 0.566483690645543]
      },
      {
        "species": [{ "element": "F", "occu": 1 }],
        "abc": [0.63058077, -0.0, 0.0],
        "properties": { "magmom": -0.0 },
        "label": "F",
        "xyz": [2.7349733601315225, 0.0, -0.9669590560277631]
      },
      {
        "species": [{ "element": "F", "occu": 1 }],
        "abc": [0.0, 0.63058077, 0.0],
        "properties": { "magmom": -0.0 },
        "label": "F",
        "xyz": [-1.3674863742340877, 2.368556211467808, -0.9669590560277631]
      }
    ]
  },
  "task_ids": null,
  "uncorrected_energy_per_atom": null,
  "energy_per_atom": -7.7385790960000005,
  "formation_energy_per_atom": -2.463361219999999,
  "energy_above_hull": 0.0,
  "is_stable": true,
  "equilibrium_reaction_energy_per_atom": null,
  "decomposes_to": null,
  "xas": null,
  "grain_boundaries": null,
  "band_gap": 5.500500000000001,
  "cbm": null,
  "vbm": null,
  "efermi": -5.39514046,
  "is_gap_direct": null,
  "is_metal": null,
  "es_source_calc_id": null,
  "bandstructure": null,
  "dos": null,
  "dos_energy_up": null,
  "dos_energy_down": null,
  "is_magnetic": null,
  "ordering": null,
  "total_magnetization": 0.0,
  "total_magnetization_normalized_vol": null,
  "total_magnetization_normalized_formula_units": null,
  "num_magnetic_sites": null,
  "num_unique_magnetic_sites": null,
  "types_of_magnetic_species": null,
  "bulk_modulus": null,
  "shear_modulus": null,
  "universal_anisotropy": null,
  "homogeneous_poisson": null,
  "e_total": null,
  "e_ionic": null,
  "e_electronic": null,
  "n": null,
  "e_ij_max": null,
  "weighted_surface_energy_EV_PER_ANG2": null,
  "weighted_surface_energy": null,
  "weighted_work_function": null,
  "surface_anisotropy": null,
  "shape_factor": null,
  "has_reconstructed": null,
  "possible_species": null,
  "has_props": null,
  "theoretical": null,
  "database_IDs": null,
  "fields_not_requested": [
    "builder_meta",
    "nsites",
    "elements",
    "nelements",
    "composition",
    "composition_reduced",
    "chemsys",
    "symmetry",
    "property_name",
    "deprecated",
    "deprecation_reasons",
    "last_updated",
    "origins",
    "warnings",
    "task_ids",
    "uncorrected_energy_per_atom",
    "equilibrium_reaction_energy_per_atom",
    "decomposes_to",
    "xas",
    "grain_boundaries",
    "cbm",
    "vbm",
    "is_gap_direct",
    "is_metal",
    "es_source_calc_id",
    "bandstructure",
    "dos",
    "dos_energy_up",
    "dos_energy_down",
    "is_magnetic",
    "ordering",
    "total_magnetization_normalized_vol",
    "total_magnetization_normalized_formula_units",
    "num_magnetic_sites",
    "num_unique_magnetic_sites",
    "types_of_magnetic_species",
    "bulk_modulus",
    "shear_modulus",
    "universal_anisotropy",
    "homogeneous_poisson",
    "e_total",
    "e_ionic",
    "e_electronic",
    "n",
    "e_ij_max",
    "weighted_surface_energy_EV_PER_ANG2",
    "weighted_surface_energy",
    "weighted_work_function",
    "surface_anisotropy",
    "shape_factor",
    "has_reconstructed",
    "possible_species",
    "has_props",
    "theoretical",
    "database_IDs"
  ]
}
