{
  "builder_meta": null,
  "nsites": null,
  "elements": null,
  "nelements": null,
  "composition": null,
  "composition_reduced": null,
  "formula_pretty": "GeH4",
  "formula_anonymous": "AB4",
  "chemsys": null,
  "volume": 334.5716582323088,
  "density": 1.522142711760449,
  "density_atomic": 16.72858291161544,
  "symmetry": null,
  "property_name": null,
  "material_id": "mp-1181222",
  "deprecated": null,
  "deprecation_reasons": null,
  "last_updated": null,
  "origins": null,
  "warnings": null,
  "structure": {
    "@module": "pymatgen.core.structure",
    "@class": "Structure",
    "charge": 0,
    "lattice": {
      "matrix": [
        [7.908876, 0.0, 0.0],
        [0.0, 8.732821, 0.0],
        [0.0, 0.0, 4.844175]
      ],
      "pbc": [true, true, true],
      "a": 7.908876,
      "b": 8.732821,
      "c": 4.844175,
      "alpha": 90.0,
      "beta": 90.0,
      "gamma": 90.0,
      "volume": 334.5716582323088
    },
    "properties": {},
    "sites": [
      {
        "species": [{ "element": "Ge", "occu": 1 }],
        "abc": [0.508438, 0.856142, 0.148609],
        "properties": { "magmom": 0.0 },
        "label": "Ge",
        "xyz": [4.021173095688, 7.476534836581999, 0.719888002575]
      },
      {
        "species": [{ "element": "Ge", "occu": 1 }],
        "abc": [0.991561999999999, 0.14385799999999901, 0.648609],
        "properties": { "magmom": 0.0 },
        "label": "Ge",
        "xyz": [7.842140904311993, 1.2562861634179914, 3.141975502575]
      },
      {
        "species": [{ "element": "Ge", "occu": 1 }],
        "abc": [0.008438, 0.643857999999999, 0.851391],
        "properties": { "magmom": 0.0 },
        "label": "Ge",
        "xyz": [0.066735095688, 5.622696663417991, 4.124286997425]
      },
      {
        "species": [{ "element": "Ge", "occu": 1 }],
        "abc": [0.491562, 0.356141999999999, 0.351391],
        "properties": { "magmom": 0.0 },
        "label": "Ge",
        "xyz": [3.887702904312, 3.110124336581991, 1.702199497425]
      },
      {
        "species": [{ "element": "H", "occu": 1 }],
        "abc": [0.374837, 0.823264999999999, 0.36954000000000004],
        "properties": { "magmom": -0.0 },
        "label": "H",
        "xyz": [2.964539353212, 7.189425880564991, 1.7901164295]
      },
      {
        "species": [{ "element": "H", "occu": 1 }],
        "abc": [0.125163, 0.176735, 0.8695400000000001],
        "properties": { "magmom": -0.0 },
        "label": "H",
        "xyz": [0.989898646788, 1.543395119435, 4.2122039295]
      },
      {
        "species": [{ "element": "H", "occu": 1 }],
        "abc": [0.874837, 0.676735, 0.63046],
        "properties": { "magmom": -0.0 },
        "label": "H",
        "xyz": [6.918977353212, 5.909805619435, 3.0540585705]
      },
      {
        "species": [{ "element": "H", "occu": 1 }],
        "abc": [0.625163, 0.323264999999999, 0.13046000000000002],
        "properties": { "magmom": -0.0 },
        "label": "H",
        "xyz": [4.944336646788001, 2.8230153805649914, 0.6319710705000001]
      },
      {
        "species": [{ "element": "H", "occu": 1 }],
        "abc": [0.673106, 0.902814999999999, 0.291504],
        "properties": { "magmom": -0.0 },
        "label": "H",
        "xyz": [5.323511888856, 7.884121791114991, 1.4120963891999998]
      },
      {
        "species": [{ "element": "H", "occu": 1 }],
        "abc": [0.826894, 0.097185, 0.791504],
        "properties": { "magmom": -0.0 },
        "label": "H",
        "xyz": [6.539802111144001, 0.848699208885, 3.8341838891999998]
      },
      {
        "species": [{ "element": "H", "occu": 1 }],
        "abc": [0.173105999999999, 0.597185, 0.708496],
        "properties": { "magmom": -0.0 },
        "label": "H",
        "xyz": [1.3690738888559921, 5.215109708885, 3.4320786108]
      },
      {
        "species": [{ "element": "H", "occu": 1 }],
        "abc": [0.326893999999999, 0.402815, 0.208496],
        "properties": { "magmom": -0.0 },
        "label": "H",
        "xyz": [2.5853641111439924, 3.5177112911149995, 1.0099911108]
      },
      {
        "species": [{ "element": "H", "occu": 1 }],
        "abc": [0.537963, 0.71094, 0.977251],
        "properties": { "magmom": -0.0 },
        "label": "H",
        "xyz": [4.254682659588, 6.20851176174, 4.733974862925]
      },
      {
        "species": [{ "element": "H", "occu": 1 }],
        "abc": [0.962036999999999, 0.28906000000000004, 0.477251],
        "properties": { "magmom": -0.0 },
        "label": "H",
        "xyz": [7.608631340411993, 2.5243092382600003, 2.311887362925]
      },
      {
        "species": [{ "element": "H", "occu": 1 }],
        "abc": [0.037963, 0.7890600000000001, 0.022749],
        "properties": { "magmom": -0.0 },
        "label": "H",
        "xyz": [0.300244659588, 6.8907197382600005, 0.110200137075]
      },
      {
        "species": [{ "element": "H", "occu": 1 }],
        "abc": [0.462037, 0.21094000000000002, 0.522749],
        "properties": { "magmom": -0.0 },
        "label": "H",
        "xyz": [3.6541933404119997, 1.84210126174, 2.532287637075]
      },
      {
        "species": [{ "element": "H", "occu": 1 }],
        "abc": [0.451445999999999, 0.9864100000000001, 0.958181],
        "properties": { "magmom": -0.0 },
        "label": "H",
        "xyz": [3.5704304346959925, 8.61414196261, 4.641596445675]
      },
      {
        "species": [{ "element": "H", "occu": 1 }],
        "abc": [0.048554, 0.013590000000000001, 0.458181],
        "properties": { "magmom": -0.0 },
        "label": "H",
        "xyz": [0.384007565304, 0.11867903739, 2.219508945675]
      },
      {
        "species": [{ "element": "H", "occu": 1 }],
        "abc": [0.9514459999999991, 0.51359, 0.041818999999999],
        "properties": { "magmom": -0.0 },
        "label": "H",
        "xyz": [7.5248684346959935, 4.4850895373899995, 0.20257855432499516]
      },
      {
        "species": [{ "element": "H", "occu": 1 }],
        "abc": [0.548554, 0.48641000000000006, 0.541818999999999],
        "properties": { "magmom": -0.0 },
        "label": "H",
        "xyz": [4.338445565304, 4.24773146261, 2.6246660543249956]
      }
    ]
  },
  "task_ids": null,
  "uncorrected_energy_per_atom": null,
  "energy_per_atom": -3.6763430425,
  "formation_energy_per_atom": -0.035604320499999,
  "energy_above_hull": 0.0,
  "is_stable": true,
  "equilibrium_reaction_energy_per_atom": null,
  "decomposes_to": null,
  "xas": null,
  "grain_boundaries": null,
  "band_gap": 5.9261,
  "cbm": null,
  "vbm": null,
  "efermi": 0.68429841,
  "is_gap_direct": null,
  "is_metal": null,
  "es_source_calc_id": null,
  "bandstructure": null,
  "dos": null,
  "dos_energy_up": null,
  "dos_energy_down": null,
  "is_magnetic": null,
  "ordering": null,
  "total_magnetization": 0.0018558,
  "total_magnetization_normalized_vol": null,
  "total_magnetization_normalized_formula_units": null,
  "num_magnetic_sites": null,
  "num_unique_magnetic_sites": null,
  "types_of_magnetic_species": null,
  "bulk_modulus": null,
  "shear_modulus": null,
  "universal_anisotropy": null,
  "homogeneous_poisson": null,
  "e_total": null,
  "e_ionic": null,
  "e_electronic": null,
  "n": null,
  "e_ij_max": null,
  "weighted_surface_energy_EV_PER_ANG2": null,
  "weighted_surface_energy": null,
  "weighted_work_function": null,
  "surface_anisotropy": null,
  "shape_factor": null,
  "has_reconstructed": null,
  "possible_species": null,
  "has_props": null,
  "theoretical": null,
  "database_IDs": null,
  "fields_not_requested": [
    "builder_meta",
    "nsites",
    "elements",
    "nelements",
    "composition",
    "composition_reduced",
    "chemsys",
    "symmetry",
    "property_name",
    "deprecated",
    "deprecation_reasons",
    "last_updated",
    "origins",
    "warnings",
    "task_ids",
    "uncorrected_energy_per_atom",
    "equilibrium_reaction_energy_per_atom",
    "decomposes_to",
    "xas",
    "grain_boundaries",
    "cbm",
    "vbm",
    "is_gap_direct",
    "is_metal",
    "es_source_calc_id",
    "bandstructure",
    "dos",
    "dos_energy_up",
    "dos_energy_down",
    "is_magnetic",
    "ordering",
    "total_magnetization_normalized_vol",
    "total_magnetization_normalized_formula_units",
    "num_magnetic_sites",
    "num_unique_magnetic_sites",
    "types_of_magnetic_species",
    "bulk_modulus",
    "shear_modulus",
    "universal_anisotropy",
    "homogeneous_poisson",
    "e_total",
    "e_ionic",
    "e_electronic",
    "n",
    "e_ij_max",
    "weighted_surface_energy_EV_PER_ANG2",
    "weighted_surface_energy",
    "weighted_work_function",
    "surface_anisotropy",
    "shape_factor",
    "has_reconstructed",
    "possible_species",
    "has_props",
    "theoretical",
    "database_IDs"
  ]
}
