{"builder_meta": null, "nsites": null, "elements": null, "nelements": null, "composition": null, "composition_reduced": null, "formula_pretty": "GeI2", "formula_anonymous": "AB2", "chemsys": null, "volume": 343.1439610400316, "density": 4.739246027910595, "density_atomic": 38.12710678222574, "symmetry": null, "property_name": null, "material_id": "mp-27922", "deprecated": null, "deprecation_reasons": null, "last_updated": null, "origins": null, "warnings": null, "structure": {"@module": "pymatgen.core.structure", "@class": "Structure", "charge": 0, "lattice": {"matrix": [[4.26312893, -1e-08, 0.0], [-2.13156498, 3.69197847, 0.0], [-0.0, -0.0, 21.8016184]], "pbc": [true, true, true], "a": 4.26312893, "b": 4.263129635245208, "c": 21.8016184, "alpha": 90.0, "beta": 90.0, "gamma": 120.0000026543317, "volume": 343.1439610400316}, "properties": {}, "sites": [{"species": [{"element": "Ge", "occu": 1}], "abc": [0.0, -0.0, 0.0], "properties": {"magmom": -0.0}, "label": "Ge", "xyz": [0.0, 0.0, 0.0]}, {"species": [{"element": "Ge", "occu": 1}], "abc": [0.333333, 0.666667, 0.33156131], "properties": {"magmom": -0.0}, "label": "Ge", "xyz": [-2.4748979698951956e-06, 2.46132020732616, 7.228573156824104]}, {"species": [{"element": "Ge", "occu": 1}], "abc": [0.666667, 0.333333, 0.66843869], "properties": {"magmom": -0.0}, "label": "Ge", "xyz": [2.13156642489797, 1.2306582526738399, 14.573045243175896]}, {"species": [{"element": "I", "occu": 1}], "abc": [0.0, -0.0, 0.25156309], "properties": {"magmom": 0.0}, "label": "I", "xyz": [0.0, 0.0, 5.484482491704855]}, {"species": [{"element": "I", "occu": 1}], "abc": [0.0, -0.0, 0.74843691], "properties": {"magmom": 0.0}, "label": "I", "xyz": [0.0, 0.0, 16.317135908295143]}, {"species": [{"element": "I", "occu": 1}], "abc": [0.333333, 0.666667, 0.07984414000000001], "properties": {"magmom": -0.0}, "label": "I", "xyz": [-2.4748979698951956e-06, 2.46132020732616, 1.7407314717561762]}, {"species": [{"element": "I", "occu": 1}], "abc": [0.666667, 0.333333, 0.92015586], "properties": {"magmom": -0.0}, "label": "I", "xyz": [2.13156642489797, 1.2306582526738399, 20.060886928243825]}, {"species": [{"element": "I", "occu": 1}], "abc": [0.333333, 0.666667, 0.58851741], "properties": {"magmom": 0.0}, "label": "I", "xyz": [-2.4748979698951956e-06, 2.46132020732616, 12.830631994576343]}, {"species": [{"element": "I", "occu": 1}], "abc": [0.666667, 0.333333, 0.41148259], "properties": {"magmom": 0.0}, "label": "I", "xyz": [2.13156642489797, 1.2306582526738399, 8.970986405423655]}]}, "task_ids": null, "uncorrected_energy_per_atom": null, "energy_per_atom": -3.152010565555555, "formation_energy_per_atom": -0.594992870555555, "energy_above_hull": 0.0, "is_stable": true, "equilibrium_reaction_energy_per_atom": null, "decomposes_to": null, "xas": null, "grain_boundaries": null, "band_gap": 2.0217, "cbm": null, "vbm": null, "efermi": 1.39407321, "is_gap_direct": null, "is_metal": null, "es_source_calc_id": null, "bandstructure": null, "dos": null, "dos_energy_up": null, "dos_energy_down": null, "is_magnetic": null, "ordering": null, "total_magnetization": 0.0, "total_magnetization_normalized_vol": null, "total_magnetization_normalized_formula_units": null, "num_magnetic_sites": null, "num_unique_magnetic_sites": null, "types_of_magnetic_species": null, "bulk_modulus": null, "shear_modulus": null, "universal_anisotropy": null, "homogeneous_poisson": null, "e_total": null, "e_ionic": null, "e_electronic": null, "n": null, "e_ij_max": null, "weighted_surface_energy_EV_PER_ANG2": null, "weighted_surface_energy": null, "weighted_work_function": null, "surface_anisotropy": null, "shape_factor": null, "has_reconstructed": null, "possible_species": null, "has_props": null, "theoretical": null, "database_IDs": null, "fields_not_requested": ["builder_meta", "nsites", "elements", "nelements", "composition", "composition_reduced", "chemsys", "symmetry", "property_name", "deprecated", "deprecation_reasons", "last_updated", "origins", "warnings", "task_ids", "uncorrected_energy_per_atom", "equilibrium_reaction_energy_per_atom", "decomposes_to", "xas", "grain_boundaries", "cbm", "vbm", "is_gap_direct", "is_metal", "es_source_calc_id", "bandstructure", "dos", "dos_energy_up", "dos_energy_down", "is_magnetic", "ordering", "total_magnetization_normalized_vol", "total_magnetization_normalized_formula_units", "num_magnetic_sites", "num_unique_magnetic_sites", "types_of_magnetic_species", "bulk_modulus", "shear_modulus", "universal_anisotropy", "homogeneous_poisson", "e_total", "e_ionic", "e_electronic", "n", "e_ij_max", "weighted_surface_energy_EV_PER_ANG2", "weighted_surface_energy", "weighted_work_function", "surface_anisotropy", "shape_factor", "has_reconstructed", "possible_species", "has_props", "theoretical", "database_IDs"]}