{"builder_meta": null, "nsites": null, "elements": null, "nelements": null, "composition": null, "composition_reduced": null, "formula_pretty": "GeI4", "formula_anonymous": "AB4", "chemsys": null, "volume": 1860.8356559137858, "density": 4.142400755833911, "density_atomic": 46.52089139784464, "symmetry": null, "property_name": null, "material_id": "mp-23266", "deprecated": null, "deprecation_reasons": null, "last_updated": null, "origins": null, "warnings": null, "structure": {"@module": "pymatgen.core.structure", "@class": "Structure", "charge": 0, "lattice": {"matrix": [[12.29993094, 0.0, -0.0], [0.0, 12.29993094, -0.0], [0.0, 0.0, 12.29993094]], "pbc": [true, true, true], "a": 12.29993094, "b": 12.29993094, "c": 12.29993094, "alpha": 90.0, "beta": 90.0, "gamma": 90.0, "volume": 1860.8356559137858}, "properties": {}, "sites": [{"species": [{"element": "Ge", "occu": 1}], "abc": [0.13081712, 0.13081712, 0.13081712], "properties": {"magmom": -0.0}, "label": "Ge", "xyz": [1.6090415417696928, 1.6090415417696928, 1.6090415417696928]}, {"species": [{"element": "Ge", "occu": 1}], "abc": [0.36918288, 0.86918288, 0.63081712], "properties": {"magmom": -0.0}, "label": "Ge", "xyz": [4.540923928230307, 10.690889398230306, 7.759007011769692]}, {"species": [{"element": "Ge", "occu": 1}], "abc": [0.63081712, 0.36918288, 0.86918288], "properties": {"magmom": -0.0}, "label": "Ge", "xyz": [7.759007011769692, 4.540923928230307, 10.690889398230306]}, {"species": [{"element": "Ge", "occu": 1}], "abc": [0.86918288, 0.63081712, 0.36918288], "properties": {"magmom": -0.0}, "label": "Ge", "xyz": [10.690889398230306, 7.759007011769692, 4.540923928230307]}, {"species": [{"element": "Ge", "occu": 1}], "abc": [0.86918288, 0.86918288, 0.86918288], "properties": {"magmom": -0.0}, "label": "Ge", "xyz": [10.690889398230306, 10.690889398230306, 10.690889398230306]}, {"species": [{"element": "Ge", "occu": 1}], "abc": [0.63081712, 0.13081712, 0.36918288], "properties": {"magmom": -0.0}, "label": "Ge", "xyz": [7.759007011769692, 1.6090415417696928, 4.540923928230307]}, {"species": [{"element": "Ge", "occu": 1}], "abc": [0.36918288, 0.63081712, 0.13081712], "properties": {"magmom": -0.0}, "label": "Ge", "xyz": [4.540923928230307, 7.759007011769692, 1.6090415417696928]}, {"species": [{"element": "Ge", "occu": 1}], "abc": [0.13081712, 0.36918288, 0.63081712], "properties": {"magmom": -0.0}, "label": "Ge", "xyz": [1.6090415417696928, 4.540923928230307, 7.759007011769692]}, {"species": [{"element": "I", "occu": 1}], "abc": [0.24873267000000002, 0.24873267000000002, 0.24873267000000002], "properties": {"magmom": 0.0}, "label": "I", "xyz": [3.0593946635218097, 3.0593946635218097, 3.0593946635218097]}, {"species": [{"element": "I", "occu": 1}], "abc": [0.25126733, 0.75126733, 0.74873267], "properties": {"magmom": 0.0}, "label": "I", "xyz": [3.09057080647819, 9.24053627647819, 9.209360133521809]}, {"species": [{"element": "I", "occu": 1}], "abc": [0.74873267, 0.25126733, 0.75126733], "properties": {"magmom": 0.0}, "label": "I", "xyz": [9.209360133521809, 3.09057080647819, 9.24053627647819]}, {"species": [{"element": "I", "occu": 1}], "abc": [0.75126733, 0.74873267, 0.25126733], "properties": {"magmom": 0.0}, "label": "I", "xyz": [9.24053627647819, 9.209360133521809, 3.09057080647819]}, {"species": [{"element": "I", "occu": 1}], "abc": [0.75126733, 0.75126733, 0.75126733], "properties": {"magmom": 0.0}, "label": "I", "xyz": [9.24053627647819, 9.24053627647819, 9.24053627647819]}, {"species": [{"element": "I", "occu": 1}], "abc": [0.74873267, 0.24873267000000002, 0.25126733], "properties": {"magmom": 0.0}, "label": "I", "xyz": [9.209360133521809, 3.0593946635218097, 3.09057080647819]}, {"species": [{"element": "I", "occu": 1}], "abc": [0.25126733, 0.74873267, 0.24873267000000002], "properties": {"magmom": 0.0}, "label": "I", "xyz": [3.09057080647819, 9.209360133521809, 3.0593946635218097]}, {"species": [{"element": "I", "occu": 1}], "abc": [0.24873267000000002, 0.25126733, 0.74873267], "properties": {"magmom": 0.0}, "label": "I", "xyz": [3.0593946635218097, 3.09057080647819, 9.209360133521809]}, {"species": [{"element": "I", "occu": 1}], "abc": [0.02064944, 0.0051196900000000005, 0.25011349], "properties": {"magmom": -0.0}, "label": "I", "xyz": [0.2539866859496736, 0.0629718334342086, 3.0763786541623803]}, {"species": [{"element": "I", "occu": 1}], "abc": [0.25011349, 0.02064944, 0.0051196900000000005], "properties": {"magmom": -0.0}, "label": "I", "xyz": [3.0763786541623803, 0.2539866859496736, 0.0629718334342086]}, {"species": [{"element": "I", "occu": 1}], "abc": [0.0051196900000000005, 0.25011349, 0.02064944], "properties": {"magmom": -0.0}, "label": "I", "xyz": [0.0629718334342086, 3.0763786541623803, 0.2539866859496736]}, {"species": [{"element": "I", "occu": 1}], "abc": [0.49488031, 0.7498865100000001, 0.52064944], "properties": {"magmom": -0.0}, "label": "I", "xyz": [6.086993636565791, 9.22355228583762, 6.403952155949674]}, {"species": [{"element": "I", "occu": 1}], "abc": [0.75011349, 0.47935056000000004, 0.99488031], "properties": {"magmom": -0.0}, "label": "I", "xyz": [9.226344124162381, 5.895978784050326, 12.236959106565791]}, {"species": [{"element": "I", "occu": 1}], "abc": [0.99488031, 0.75011349, 0.47935056000000004], "properties": {"magmom": -0.0}, "label": "I", "xyz": [12.236959106565791, 9.226344124162381, 5.895978784050326]}, {"species": [{"element": "I", "occu": 1}], "abc": [0.24988651, 0.97935056, 0.50511969], "properties": {"magmom": -0.0}, "label": "I", "xyz": [3.0735868158376194, 12.045944254050326, 6.212937303434209]}, {"species": [{"element": "I", "occu": 1}], "abc": [0.7498865100000001, 0.52064944, 0.49488031], "properties": {"magmom": -0.0}, "label": "I", "xyz": [9.22355228583762, 6.403952155949674, 6.086993636565791]}, {"species": [{"element": "I", "occu": 1}], "abc": [0.50511969, 0.24988651, 0.97935056], "properties": {"magmom": -0.0}, "label": "I", "xyz": [6.212937303434209, 3.0735868158376194, 12.045944254050326]}, {"species": [{"element": "I", "occu": 1}], "abc": [0.52064944, 0.49488031, 0.7498865100000001], "properties": {"magmom": -0.0}, "label": "I", "xyz": [6.403952155949674, 6.086993636565791, 9.22355228583762]}, {"species": [{"element": "I", "occu": 1}], "abc": [0.97935056, 0.50511969, 0.24988651], "properties": {"magmom": -0.0}, "label": "I", "xyz": [12.045944254050326, 6.212937303434209, 3.0735868158376194]}, {"species": [{"element": "I", "occu": 1}], "abc": [0.47935056000000004, 0.99488031, 0.75011349], "properties": {"magmom": -0.0}, "label": "I", "xyz": [5.895978784050326, 12.236959106565791, 9.226344124162381]}, {"species": [{"element": "I", "occu": 1}], "abc": [0.97935056, 0.99488031, 0.7498865100000001], "properties": {"magmom": -0.0}, "label": "I", "xyz": [12.045944254050326, 12.236959106565791, 9.22355228583762]}, {"species": [{"element": "I", "occu": 1}], "abc": [0.7498865100000001, 0.97935056, 0.99488031], "properties": {"magmom": -0.0}, "label": "I", "xyz": [9.22355228583762, 12.045944254050326, 12.236959106565791]}, {"species": [{"element": "I", "occu": 1}], "abc": [0.99488031, 0.7498865100000001, 0.97935056], "properties": {"magmom": -0.0}, "label": "I", "xyz": [12.236959106565791, 9.22355228583762, 12.045944254050326]}, {"species": [{"element": "I", "occu": 1}], "abc": [0.50511969, 0.25011349, 0.47935056000000004], "properties": {"magmom": -0.0}, "label": "I", "xyz": [6.212937303434209, 3.0763786541623803, 5.895978784050326]}, {"species": [{"element": "I", "occu": 1}], "abc": [0.24988651, 0.52064944, 0.0051196900000000005], "properties": {"magmom": -0.0}, "label": "I", "xyz": [3.0735868158376194, 6.403952155949674, 0.0629718334342086]}, {"species": [{"element": "I", "occu": 1}], "abc": [0.0051196900000000005, 0.24988651, 0.52064944], "properties": {"magmom": -0.0}, "label": "I", "xyz": [0.0629718334342086, 3.0735868158376194, 6.403952155949674]}, {"species": [{"element": "I", "occu": 1}], "abc": [0.75011349, 0.02064944, 0.49488031], "properties": {"magmom": -0.0}, "label": "I", "xyz": [9.226344124162381, 0.2539866859496736, 6.086993636565791]}, {"species": [{"element": "I", "occu": 1}], "abc": [0.25011349, 0.47935056000000004, 0.50511969], "properties": {"magmom": -0.0}, "label": "I", "xyz": [3.0763786541623803, 5.895978784050326, 6.212937303434209]}, {"species": [{"element": "I", "occu": 1}], "abc": [0.49488031, 0.75011349, 0.02064944], "properties": {"magmom": -0.0}, "label": "I", "xyz": [6.086993636565791, 9.226344124162381, 0.2539866859496736]}, {"species": [{"element": "I", "occu": 1}], "abc": [0.47935056000000004, 0.50511969, 0.25011349], "properties": {"magmom": -0.0}, "label": "I", "xyz": [5.895978784050326, 6.212937303434209, 3.0763786541623803]}, {"species": [{"element": "I", "occu": 1}], "abc": [0.02064944, 0.49488031, 0.75011349], "properties": {"magmom": -0.0}, "label": "I", "xyz": [0.2539866859496736, 6.086993636565791, 9.226344124162381]}, {"species": [{"element": "I", "occu": 1}], "abc": [0.52064944, 0.0051196900000000005, 0.24988651], "properties": {"magmom": -0.0}, "label": "I", "xyz": [6.403952155949674, 0.0629718334342086, 3.0735868158376194]}]}, "task_ids": null, "uncorrected_energy_per_atom": null, "energy_per_atom": -2.730115815499999, "formation_energy_per_atom": -0.586300152499999, "energy_above_hull": 0.0, "is_stable": true, "equilibrium_reaction_energy_per_atom": null, "decomposes_to": null, "xas": null, "grain_boundaries": null, "band_gap": 1.9977, "cbm": null, "vbm": null, "efermi": -0.4076651, "is_gap_direct": null, "is_metal": null, "es_source_calc_id": null, "bandstructure": null, "dos": null, "dos_energy_up": null, "dos_energy_down": null, "is_magnetic": null, "ordering": null, "total_magnetization": 0.0, "total_magnetization_normalized_vol": null, "total_magnetization_normalized_formula_units": null, "num_magnetic_sites": null, "num_unique_magnetic_sites": null, "types_of_magnetic_species": null, "bulk_modulus": null, "shear_modulus": null, "universal_anisotropy": null, "homogeneous_poisson": null, "e_total": null, "e_ionic": null, "e_electronic": null, "n": null, "e_ij_max": null, "weighted_surface_energy_EV_PER_ANG2": null, "weighted_surface_energy": null, "weighted_work_function": null, "surface_anisotropy": null, "shape_factor": null, "has_reconstructed": null, "possible_species": null, "has_props": null, "theoretical": null, "database_IDs": null, "fields_not_requested": ["builder_meta", "nsites", "elements", "nelements", "composition", "composition_reduced", "chemsys", "symmetry", "property_name", "deprecated", "deprecation_reasons", "last_updated", "origins", "warnings", "task_ids", "uncorrected_energy_per_atom", "equilibrium_reaction_energy_per_atom", "decomposes_to", "xas", "grain_boundaries", "cbm", "vbm", "is_gap_direct", "is_metal", "es_source_calc_id", "bandstructure", "dos", "dos_energy_up", "dos_energy_down", "is_magnetic", "ordering", "total_magnetization_normalized_vol", "total_magnetization_normalized_formula_units", "num_magnetic_sites", "num_unique_magnetic_sites", "types_of_magnetic_species", "bulk_modulus", "shear_modulus", "universal_anisotropy", "homogeneous_poisson", "e_total", "e_ionic", "e_electronic", "n", "e_ij_max", "weighted_surface_energy_EV_PER_ANG2", "weighted_surface_energy", "weighted_work_function", "surface_anisotropy", "shape_factor", "has_reconstructed", "possible_species", "has_props", "theoretical", "database_IDs"]}