{"builder_meta": null, "nsites": null, "elements": null, "nelements": null, "composition": null, "composition_reduced": null, "formula_pretty": "GeIr", "formula_anonymous": "AB", "chemsys": null, "volume": 125.36730444152096, "density": 14.03253894695099, "density_atomic": 15.67091305519012, "symmetry": null, "property_name": null, "material_id": "mp-208", "deprecated": null, "deprecation_reasons": null, "last_updated": null, "origins": null, "warnings": null, "structure": {"@module": "pymatgen.core.structure", "@class": "Structure", "charge": 0, "lattice": {"matrix": [[3.58522762, -0.0, 0.0], [-0.0, 5.571492969999999, 0.0], [0.0, 0.0, 6.27618834]], "pbc": [true, true, true], "a": 3.58522762, "b": 5.571492969999999, "c": 6.27618834, "alpha": 90.0, "beta": 90.0, "gamma": 90.0, "volume": 125.36730444152091}, "properties": {}, "sites": [{"species": [{"element": "Ge", "occu": 1}], "abc": [0.75, 0.80634927, 0.42120272000000003], "properties": {"magmom": -0.0}, "label": "Ge", "xyz": [2.688920715, 4.492569289169631, 2.643547600040285]}, {"species": [{"element": "Ge", "occu": 1}], "abc": [0.25, 0.19365073, 0.57879728], "properties": {"magmom": -0.0}, "label": "Ge", "xyz": [0.896306905, 1.0789236808303677, 3.632640739959715]}, {"species": [{"element": "Ge", "occu": 1}], "abc": [0.75, 0.30634927, 0.07879728], "properties": {"magmom": -0.0}, "label": "Ge", "xyz": [2.688920715, 1.7068228041696316, 0.4945465699597152]}, {"species": [{"element": "Ge", "occu": 1}], "abc": [0.25, 0.69365073, 0.92120272], "properties": {"magmom": -0.0}, "label": "Ge", "xyz": [0.896306905, 3.864670165830367, 5.781641770040285]}, {"species": [{"element": "Ir", "occu": 1}], "abc": [0.75, 0.99776794, 0.7905381300000001], "properties": {"magmom": 0.0}, "label": "Ir", "xyz": [2.688920715, 5.55905706340138, 4.961566193831405]}, {"species": [{"element": "Ir", "occu": 1}], "abc": [0.25, 0.00223206, 0.20946187], "properties": {"magmom": 0.0}, "label": "Ir", "xyz": [0.896306905, 0.012435906598618198, 1.3146221461685959]}, {"species": [{"element": "Ir", "occu": 1}], "abc": [0.75, 0.49776794, 0.70946187], "properties": {"magmom": 0.0}, "label": "Ir", "xyz": [2.688920715, 2.7733105784013814, 4.452716316168596]}, {"species": [{"element": "Ir", "occu": 1}], "abc": [0.25, 0.50223206, 0.29053813], "properties": {"magmom": 0.0}, "label": "Ir", "xyz": [0.896306905, 2.7981823915986173, 1.8234720238314042]}]}, "task_ids": null, "uncorrected_energy_per_atom": null, "energy_per_atom": -33.47785856375, "formation_energy_per_atom": -0.36219304874999303, "energy_above_hull": 0.0, "is_stable": true, "equilibrium_reaction_energy_per_atom": null, "decomposes_to": null, "xas": null, "grain_boundaries": null, "band_gap": 0.0, "cbm": null, "vbm": null, "efermi": 7.72036097, "is_gap_direct": null, "is_metal": null, "es_source_calc_id": null, "bandstructure": null, "dos": null, "dos_energy_up": null, "dos_energy_down": null, "is_magnetic": null, "ordering": null, "total_magnetization": 0.0, "total_magnetization_normalized_vol": null, "total_magnetization_normalized_formula_units": null, "num_magnetic_sites": null, "num_unique_magnetic_sites": null, "types_of_magnetic_species": null, "bulk_modulus": null, "shear_modulus": null, "universal_anisotropy": null, "homogeneous_poisson": null, "e_total": null, "e_ionic": null, "e_electronic": null, "n": null, "e_ij_max": null, "weighted_surface_energy_EV_PER_ANG2": null, "weighted_surface_energy": null, "weighted_work_function": null, "surface_anisotropy": null, "shape_factor": null, "has_reconstructed": null, "possible_species": null, "has_props": null, "theoretical": null, "database_IDs": null, "fields_not_requested": ["builder_meta", "nsites", "elements", "nelements", "composition", "composition_reduced", "chemsys", "symmetry", "property_name", "deprecated", "deprecation_reasons", "last_updated", "origins", "warnings", "task_ids", "uncorrected_energy_per_atom", "equilibrium_reaction_energy_per_atom", "decomposes_to", "xas", "grain_boundaries", "cbm", "vbm", "is_gap_direct", "is_metal", "es_source_calc_id", "bandstructure", "dos", "dos_energy_up", "dos_energy_down", "is_magnetic", "ordering", "total_magnetization_normalized_vol", "total_magnetization_normalized_formula_units", "num_magnetic_sites", "num_unique_magnetic_sites", "types_of_magnetic_species", "bulk_modulus", "shear_modulus", "universal_anisotropy", "homogeneous_poisson", "e_total", "e_ionic", "e_electronic", "n", "e_ij_max", "weighted_surface_energy_EV_PER_ANG2", "weighted_surface_energy", "weighted_work_function", "surface_anisotropy", "shape_factor", "has_reconstructed", "possible_species", "has_props", "theoretical", "database_IDs"]}