{"builder_meta": null, "nsites": null, "elements": null, "nelements": null, "composition": null, "composition_reduced": null, "formula_pretty": "GeO2", "formula_anonymous": "AB2", "chemsys": null, "volume": 56.00426327829353, "density": 6.20512814957392, "density_atomic": 9.334043879715589, "symmetry": null, "property_name": null, "material_id": "mp-470", "deprecated": null, "deprecation_reasons": null, "last_updated": null, "origins": null, "warnings": null, "structure": {"@module": "pymatgen.core.structure", "@class": "Structure", "charge": 0, "lattice": {"matrix": [[2.87651434, 0.0, 0.0], [0.0, 4.41242435, 0.0], [0.0, -0.0, 4.41242435]], "pbc": [true, true, true], "a": 2.87651434, "b": 4.41242435, "c": 4.41242435, "alpha": 90.0, "beta": 90.0, "gamma": 90.0, "volume": 56.00426327829353}, "properties": {}, "sites": [{"species": [{"element": "Ge", "occu": 1}], "abc": [0.5, 0.5, 0.5], "properties": {"magmom": 0.0}, "label": "Ge", "xyz": [1.43825717, 2.206212175, 2.206212175]}, {"species": [{"element": "Ge", "occu": 1}], "abc": [0.0, 0.0, 0.0], "properties": {"magmom": 0.0}, "label": "Ge", "xyz": [0.0, 0.0, 0.0]}, {"species": [{"element": "O", "occu": 1}], "abc": [-0.0, 0.69422923, 0.69422923], "properties": {"magmom": -0.0}, "label": "O", "xyz": [0.0, 3.063233958933751, 3.063233958933751]}, {"species": [{"element": "O", "occu": 1}], "abc": [0.5, 0.80577077, 0.19422923], "properties": {"magmom": -0.0}, "label": "O", "xyz": [1.43825717, 3.5554025660662494, 0.8570217839337505]}, {"species": [{"element": "O", "occu": 1}], "abc": [0.0, 0.30577077, 0.30577077], "properties": {"magmom": -0.0}, "label": "O", "xyz": [0.0, 1.3491903910662497, 1.3491903910662497]}, {"species": [{"element": "O", "occu": 1}], "abc": [0.5, 0.19422923, 0.80577077], "properties": {"magmom": -0.0}, "label": "O", "xyz": [1.43825717, 0.8570217839337505, 3.5554025660662494]}]}, "task_ids": null, "uncorrected_energy_per_atom": null, "energy_per_atom": -6.996305618333334, "formation_energy_per_atom": -2.156655663333334, "energy_above_hull": 0.0, "is_stable": true, "equilibrium_reaction_energy_per_atom": null, "decomposes_to": null, "xas": null, "grain_boundaries": null, "band_gap": 1.2157, "cbm": null, "vbm": null, "efermi": 5.3453888, "is_gap_direct": null, "is_metal": null, "es_source_calc_id": null, "bandstructure": null, "dos": null, "dos_energy_up": null, "dos_energy_down": null, "is_magnetic": null, "ordering": null, "total_magnetization": 0.0, "total_magnetization_normalized_vol": null, "total_magnetization_normalized_formula_units": null, "num_magnetic_sites": null, "num_unique_magnetic_sites": null, "types_of_magnetic_species": null, "bulk_modulus": null, "shear_modulus": null, "universal_anisotropy": null, "homogeneous_poisson": null, "e_total": null, "e_ionic": null, "e_electronic": null, "n": null, "e_ij_max": null, "weighted_surface_energy_EV_PER_ANG2": null, "weighted_surface_energy": null, "weighted_work_function": null, "surface_anisotropy": null, "shape_factor": null, "has_reconstructed": null, "possible_species": null, "has_props": null, "theoretical": null, "database_IDs": null, "fields_not_requested": ["builder_meta", "nsites", "elements", "nelements", "composition", "composition_reduced", "chemsys", "symmetry", "property_name", "deprecated", "deprecation_reasons", "last_updated", "origins", "warnings", "task_ids", "uncorrected_energy_per_atom", "equilibrium_reaction_energy_per_atom", "decomposes_to", "xas", "grain_boundaries", "cbm", "vbm", "is_gap_direct", "is_metal", "es_source_calc_id", "bandstructure", "dos", "dos_energy_up", "dos_energy_down", "is_magnetic", "ordering", "total_magnetization_normalized_vol", "total_magnetization_normalized_formula_units", "num_magnetic_sites", "num_unique_magnetic_sites", "types_of_magnetic_species", "bulk_modulus", "shear_modulus", "universal_anisotropy", "homogeneous_poisson", "e_total", "e_ionic", "e_electronic", "n", "e_ij_max", "weighted_surface_energy_EV_PER_ANG2", "weighted_surface_energy", "weighted_work_function", "surface_anisotropy", "shape_factor", "has_reconstructed", "possible_species", "has_props", "theoretical", "database_IDs"]}