{"builder_meta": null, "nsites": null, "elements": null, "nelements": null, "composition": null, "composition_reduced": null, "formula_pretty": "GeP", "formula_anonymous": "AB", "chemsys": null, "volume": 270.6650406842001, "density": 3.814043347529472, "density_atomic": 22.555420057016676, "symmetry": null, "property_name": null, "material_id": "mp-1095275", "deprecated": null, "deprecation_reasons": null, "last_updated": null, "origins": null, "warnings": null, "structure": {"@module": "pymatgen.core.structure", "@class": "Structure", "charge": 0, "lattice": {"matrix": [[1.8165859800000002, 8.10666298, 0.23468637], [-1.8165859800000002, 8.10666298, 0.23468637], [-0.0, 2.3988335, 9.25920417]], "pbc": [true, true, true], "a": 8.311019611714245, "b": 8.311019611714245, "c": 9.564897491477243, "alpha": 74.21881242745144, "beta": 74.21881242745144, "gamma": 25.25076813199386, "volume": 270.6650406842001}, "properties": {}, "sites": [{"species": [{"element": "Ge", "occu": 1}], "abc": [0.36901599, 0.36901599, 0.92201938], "properties": {"magmom": -0.0}, "label": "Ge", "xyz": [0.0, 8.19474750671533, 8.710371734446927]}, {"species": [{"element": "Ge", "occu": 1}], "abc": [0.63098401, 0.63098401, 0.07798062], "properties": {"magmom": -0.0}, "label": "Ge", "xyz": [0.0, 10.417411953284669, 1.0182051755530728]}, {"species": [{"element": "Ge", "occu": 1}], "abc": [0.25805199, 0.25805199, 0.7915477], "properties": {"magmom": 0.0}, "label": "Ge", "xyz": [0.0, 6.08267216810461, 7.4502243342026615]}, {"species": [{"element": "Ge", "occu": 1}], "abc": [0.74194801, 0.74194801, 0.208452299999999], "properties": {"magmom": 0.0}, "label": "Ge", "xyz": [0.0, 12.529487291895386, 2.2783525757973293]}, {"species": [{"element": "Ge", "occu": 1}], "abc": [0.93091303, 0.93091303, 0.5945482400000001], "properties": {"magmom": 0.0}, "label": "Ge", "xyz": [0.0, 16.519418631279297, 5.941988742666964]}, {"species": [{"element": "Ge", "occu": 1}], "abc": [0.06908697, 0.06908697, 0.40545176], "properties": {"magmom": 0.0}, "label": "Ge", "xyz": [0.0, 2.092740828720701, 3.7865881673330373]}, {"species": [{"element": "P", "occu": 1}], "abc": [0.95862451, 0.95862451, 0.82605926], "properties": {"magmom": -0.0}, "label": "P", "xyz": [0.0, 17.52407027974849, 8.098603557748971]}, {"species": [{"element": "P", "occu": 1}], "abc": [0.04137549, 0.04137549, 0.17394074], "properties": {"magmom": -0.0}, "label": "P", "xyz": [0.0, 1.0880891802515105, 1.6299733522510287]}, {"species": [{"element": "P", "occu": 1}], "abc": [0.6632327100000001, 0.6632327100000001, 0.82391284], "properties": {"magmom": -0.0}, "label": "P", "xyz": [0.0, 12.729637836236291, 7.940080558194868]}, {"species": [{"element": "P", "occu": 1}], "abc": [0.33676729, 0.33676729, 0.17608716], "properties": {"magmom": -0.0}, "label": "P", "xyz": [0.0, 5.882521623763708, 1.7884963518051318]}, {"species": [{"element": "P", "occu": 1}], "abc": [0.34815162, 0.34815162, 0.5538443200000001], "properties": {"magmom": 0.0}, "label": "P", "xyz": [0.0, 6.973276007162775, 5.291570517089654]}, {"species": [{"element": "P", "occu": 1}], "abc": [0.65184838, 0.65184838, 0.44615568], "properties": {"magmom": 0.0}, "label": "P", "xyz": [0.0, 11.638883452837224, 4.437006392910346]}]}, "task_ids": null, "uncorrected_energy_per_atom": null, "energy_per_atom": -11.446736846666667, "formation_energy_per_atom": -0.009709900654762, "energy_above_hull": 0.0, "is_stable": true, "equilibrium_reaction_energy_per_atom": null, "decomposes_to": null, "xas": null, "grain_boundaries": null, "band_gap": 0.48890000000000006, "cbm": null, "vbm": null, "efermi": 5.32927735, "is_gap_direct": null, "is_metal": null, "es_source_calc_id": null, "bandstructure": null, "dos": null, "dos_energy_up": null, "dos_energy_down": null, "is_magnetic": null, "ordering": null, "total_magnetization": 0.0, "total_magnetization_normalized_vol": null, "total_magnetization_normalized_formula_units": null, "num_magnetic_sites": null, "num_unique_magnetic_sites": null, "types_of_magnetic_species": null, "bulk_modulus": null, "shear_modulus": null, "universal_anisotropy": null, "homogeneous_poisson": null, "e_total": null, "e_ionic": null, "e_electronic": null, "n": null, "e_ij_max": null, "weighted_surface_energy_EV_PER_ANG2": null, "weighted_surface_energy": null, "weighted_work_function": null, "surface_anisotropy": null, "shape_factor": null, "has_reconstructed": null, "possible_species": null, "has_props": null, "theoretical": null, "database_IDs": null, "fields_not_requested": ["builder_meta", "nsites", "elements", "nelements", "composition", "composition_reduced", "chemsys", "symmetry", "property_name", "deprecated", "deprecation_reasons", "last_updated", "origins", "warnings", "task_ids", "uncorrected_energy_per_atom", "equilibrium_reaction_energy_per_atom", "decomposes_to", "xas", "grain_boundaries", "cbm", "vbm", "is_gap_direct", "is_metal", "es_source_calc_id", "bandstructure", "dos", "dos_energy_up", "dos_energy_down", "is_magnetic", "ordering", "total_magnetization_normalized_vol", "total_magnetization_normalized_formula_units", "num_magnetic_sites", "num_unique_magnetic_sites", "types_of_magnetic_species", "bulk_modulus", "shear_modulus", "universal_anisotropy", "homogeneous_poisson", "e_total", "e_ionic", "e_electronic", "n", "e_ij_max", "weighted_surface_energy_EV_PER_ANG2", "weighted_surface_energy", "weighted_work_function", "surface_anisotropy", "shape_factor", "has_reconstructed", "possible_species", "has_props", "theoretical", "database_IDs"]}