{"builder_meta": null, "nsites": null, "elements": null, "nelements": null, "composition": null, "composition_reduced": null, "formula_pretty": "GeP3", "formula_anonymous": "AB3", "chemsys": null, "volume": 146.50324873131177, "density": 3.7531042581006933, "density_atomic": 18.31290609141397, "symmetry": null, "property_name": null, "material_id": "mp-7542", "deprecated": null, "deprecation_reasons": null, "last_updated": null, "origins": null, "warnings": null, "structure": {"@module": "pymatgen.core.structure", "@class": "Structure", "charge": 0, "lattice": {"matrix": [[5.27724461, 0.06848987000000001, 0.59080174], [0.53589279, 5.2504113, 0.59080174], [0.07485365000000001, 0.06848983, 5.30968371]], "pbc": [true, true, true], "a": 5.310654218837233, "b": 5.310654064946116, "c": 5.310652975479674, "alpha": 82.79609834584716, "beta": 82.79610148015102, "gamma": 82.79609935028103, "volume": 146.50324873131177}, "properties": {}, "sites": [{"species": [{"element": "Ge", "occu": 1}], "abc": [0.73653257, 0.73653257, 0.73653257], "properties": {"magmom": -0.0}, "label": "Ge", "xyz": [4.336697180193499, 3.96798893882487, 4.781044436658778]}, {"species": [{"element": "Ge", "occu": 1}], "abc": [0.26346743, 0.26346743, 0.26346743], "properties": {"magmom": -0.0}, "label": "Ge", "xyz": [1.5512938698065015, 1.41940206117513, 1.7102427533412217]}, {"species": [{"element": "P", "occu": 1}], "abc": [0.21068841, 0.21068841, 0.7317635], "properties": {"magmom": 0.0}, "label": "P", "xyz": [1.279535844829309, 1.1707491881696444, 4.1343828939742515]}, {"species": [{"element": "P", "occu": 1}], "abc": [0.21068841, 0.7317635, 0.21068841], "properties": {"magmom": 0.0}, "label": "P", "xyz": [1.5197718561983315, 3.870919384522827, 1.6754910467571245]}, {"species": [{"element": "P", "occu": 1}], "abc": [0.7893115900000001, 0.2682365, 0.7893115900000001], "properties": {"magmom": 0.0}, "label": "P", "xyz": [4.368219193801669, 1.5164716154771727, 4.815796143242876]}, {"species": [{"element": "P", "occu": 1}], "abc": [0.7893115900000001, 0.7893115900000001, 0.2682365], "properties": {"magmom": 0.0}, "label": "P", "xyz": [4.608455205170691, 4.216641811830356, 2.356904296025748]}, {"species": [{"element": "P", "occu": 1}], "abc": [0.2682365, 0.7893115900000001, 0.7893115900000001], "properties": {"magmom": 0.0}, "label": "P", "xyz": [1.8976188674735046, 4.216641790987352, 4.815796143242876]}, {"species": [{"element": "P", "occu": 1}], "abc": [0.7317635, 0.21068841, 0.21068841], "properties": {"magmom": 0.0}, "label": "P", "xyz": [3.9903721825264955, 1.1707492090126483, 1.6754910467571245]}]}, "task_ids": null, "uncorrected_energy_per_atom": null, "energy_per_atom": -10.17710864625, "formation_energy_per_atom": 0.042442982767857004, "energy_above_hull": 0.047297933095238005, "is_stable": false, "equilibrium_reaction_energy_per_atom": null, "decomposes_to": null, "xas": null, "grain_boundaries": null, "band_gap": 0.0, "cbm": null, "vbm": null, "efermi": 6.98981376, "is_gap_direct": null, "is_metal": null, "es_source_calc_id": null, "bandstructure": null, "dos": null, "dos_energy_up": null, "dos_energy_down": null, "is_magnetic": null, "ordering": null, "total_magnetization": 0.0, "total_magnetization_normalized_vol": null, "total_magnetization_normalized_formula_units": null, "num_magnetic_sites": null, "num_unique_magnetic_sites": null, "types_of_magnetic_species": null, "bulk_modulus": null, "shear_modulus": null, "universal_anisotropy": null, "homogeneous_poisson": null, "e_total": null, "e_ionic": null, "e_electronic": null, "n": null, "e_ij_max": null, "weighted_surface_energy_EV_PER_ANG2": null, "weighted_surface_energy": null, "weighted_work_function": null, "surface_anisotropy": null, "shape_factor": null, "has_reconstructed": null, "possible_species": null, "has_props": null, "theoretical": null, "database_IDs": null, "fields_not_requested": ["builder_meta", "nsites", "elements", "nelements", "composition", "composition_reduced", "chemsys", "symmetry", "property_name", "deprecated", "deprecation_reasons", "last_updated", "origins", "warnings", "task_ids", "uncorrected_energy_per_atom", "equilibrium_reaction_energy_per_atom", "decomposes_to", "xas", "grain_boundaries", "cbm", "vbm", "is_gap_direct", "is_metal", "es_source_calc_id", "bandstructure", "dos", "dos_energy_up", "dos_energy_down", "is_magnetic", "ordering", "total_magnetization_normalized_vol", "total_magnetization_normalized_formula_units", "num_magnetic_sites", "num_unique_magnetic_sites", "types_of_magnetic_species", "bulk_modulus", "shear_modulus", "universal_anisotropy", "homogeneous_poisson", "e_total", "e_ionic", "e_electronic", "n", "e_ij_max", "weighted_surface_energy_EV_PER_ANG2", "weighted_surface_energy", "weighted_work_function", "surface_anisotropy", "shape_factor", "has_reconstructed", "possible_species", "has_props", "theoretical", "database_IDs"]}