{"builder_meta": null, "nsites": null, "elements": null, "nelements": null, "composition": null, "composition_reduced": null, "formula_pretty": "GePd5", "formula_anonymous": "AB5", "chemsys": null, "volume": 179.936368470865, "density": 11.161661243577688, "density_atomic": 14.994697372572084, "symmetry": null, "property_name": null, "material_id": "mp-1103057", "deprecated": null, "deprecation_reasons": null, "last_updated": null, "origins": null, "warnings": null, "structure": {"@module": "pymatgen.core.structure", "@class": "Structure", "charge": 0.0, "lattice": {"matrix": [[-2.74322874, -3.86060613, 0.38915809], [-2.74322874, 3.86060613, 0.38915809], [-0.01287875, -0.0, -8.49333055]], "pbc": [true, true, true], "a": 4.7519498766262265, "b": 4.7519498766262265, "c": 8.49334031425592, "alpha": 94.64713739529618, "beta": 94.64713739529618, "gamma": 108.66721779963811, "volume": 179.93636847086498}, "properties": {}, "sites": [{"species": [{"element": "Ge", "occu": 1}], "abc": [0.79568161, 0.75010285, 0.29275253], "properties": {"magmom": 0.0}, "label": "Ge", "xyz": [-4.244210643163118, -0.1759616402537989, -1.88488947863351]}, {"species": [{"element": "Ge", "occu": 1}], "abc": [0.24989715, 0.20431839000000002, 0.70724747], "properties": {"magmom": 0.0}, "label": "Ge", "xyz": [-1.2551255868368822, -0.1759616402537988, -5.83012489136649]}, {"species": [{"element": "Pd", "occu": 1}], "abc": [0.83544331, 0.16455669, 0.5], "properties": {"magmom": -0.0}, "label": "Pd", "xyz": [-2.749668115, -2.590028997706981, -3.857507185]}, {"species": [{"element": "Pd", "occu": 1}], "abc": [0.20999305000000001, 0.79000695, 0.5], "properties": {"magmom": 0.0}, "label": "Pd", "xyz": [-2.749668115, 2.239205217825207, -3.857507185]}, {"species": [{"element": "Pd", "occu": 1}], "abc": [0.29780876, 0.76954607, 0.17346478], "properties": {"magmom": 0.0}, "label": "Pd", "xyz": [-2.9302324549692393, 1.8211919507357104, -1.0579239483279543]}, {"species": [{"element": "Pd", "occu": 1}], "abc": [0.23045393, 0.70219124, 0.82653522], "properties": {"magmom": 0.0}, "label": "Pd", "xyz": [-2.569103775030761, 1.8211919507357104, -6.657090421672045]}, {"species": [{"element": "Pd", "occu": 1}], "abc": [0.8154956, 0.25226374, 0.17349519], "properties": {"magmom": -0.0}, "label": "Pd", "xyz": [-2.931342510069644, -2.1744163713273017, -1.0580248121709936]}, {"species": [{"element": "Pd", "occu": 1}], "abc": [0.74773626, 0.184504399999999, 0.82650481], "properties": {"magmom": -0.0}, "label": "Pd", "xyz": [-2.5679937199303535, -2.1744163713273057, -6.656989557829006]}, {"species": [{"element": "Pd", "occu": 1}], "abc": [0.36739873, 0.32154251, 0.35294712], "properties": {"magmom": -0.0}, "label": "Pd", "xyz": [-1.8944689274609376, -0.1770328040306286, -2.729589499749884]}, {"species": [{"element": "Pd", "occu": 1}], "abc": [0.67845749, 0.63260127, 0.64705288], "properties": {"magmom": -0.0}, "label": "Pd", "xyz": [-3.6048673025390627, -0.17703280403062838, -4.985424870250116]}, {"species": [{"element": "Pd", "occu": 1}], "abc": [0.27809236, 0.23245827, 0.00600061], "properties": {"magmom": 0.0}, "label": "Pd", "xyz": [-1.400634441797144, -0.17617524759097158, 0.1477197437874612]}, {"species": [{"element": "Pd", "occu": 1}], "abc": [0.76754173, 0.72190764, 0.99399939], "properties": {"magmom": 0.0}, "label": "Pd", "xyz": [-4.098701788202857, -0.17617524759097192, -7.86273411378746]}]}, "task_ids": null, "uncorrected_energy_per_atom": null, "energy_per_atom": -5.405967739166665, "formation_energy_per_atom": -0.318894921666663, "energy_above_hull": 0.0, "is_stable": true, "equilibrium_reaction_energy_per_atom": null, "decomposes_to": null, "xas": null, "grain_boundaries": null, "band_gap": 0.0, "cbm": null, "vbm": null, "efermi": 4.72518549, "is_gap_direct": null, "is_metal": null, "es_source_calc_id": null, "bandstructure": null, "dos": null, "dos_energy_up": null, "dos_energy_down": null, "is_magnetic": null, "ordering": null, "total_magnetization": 0.0, "total_magnetization_normalized_vol": null, "total_magnetization_normalized_formula_units": null, "num_magnetic_sites": null, "num_unique_magnetic_sites": null, "types_of_magnetic_species": null, "bulk_modulus": null, "shear_modulus": null, "universal_anisotropy": null, "homogeneous_poisson": null, "e_total": null, "e_ionic": null, "e_electronic": null, "n": null, "e_ij_max": null, "weighted_surface_energy_EV_PER_ANG2": null, "weighted_surface_energy": null, "weighted_work_function": null, "surface_anisotropy": null, "shape_factor": null, "has_reconstructed": null, "possible_species": null, "has_props": null, "theoretical": null, "database_IDs": null, "fields_not_requested": ["builder_meta", "nsites", "elements", "nelements", "composition", "composition_reduced", "chemsys", "symmetry", "property_name", "deprecated", "deprecation_reasons", "last_updated", "origins", "warnings", "task_ids", "uncorrected_energy_per_atom", "equilibrium_reaction_energy_per_atom", "decomposes_to", "xas", "grain_boundaries", "cbm", "vbm", "is_gap_direct", "is_metal", "es_source_calc_id", "bandstructure", "dos", "dos_energy_up", "dos_energy_down", "is_magnetic", "ordering", "total_magnetization_normalized_vol", "total_magnetization_normalized_formula_units", "num_magnetic_sites", "num_unique_magnetic_sites", "types_of_magnetic_species", "bulk_modulus", "shear_modulus", "universal_anisotropy", "homogeneous_poisson", "e_total", "e_ionic", "e_electronic", "n", "e_ij_max", "weighted_surface_energy_EV_PER_ANG2", "weighted_surface_energy", "weighted_work_function", "surface_anisotropy", "shape_factor", "has_reconstructed", "possible_species", "has_props", "theoretical", "database_IDs"]}