{"builder_meta": null, "nsites": null, "elements": null, "nelements": null, "composition": null, "composition_reduced": null, "formula_pretty": "GePd", "formula_anonymous": "AB", "chemsys": null, "volume": 129.24359931052948, "density": 9.202347407580191, "density_atomic": 16.155449913816184, "symmetry": null, "property_name": null, "material_id": "mp-1424", "deprecated": null, "deprecation_reasons": null, "last_updated": null, "origins": null, "warnings": null, "structure": {"@module": "pymatgen.core.structure", "@class": "Structure", "charge": 0, "lattice": {"matrix": [[3.54925952, 0.0, 0.0], [0.0, 5.7835714, 0.0], [0.0, 0.0, 6.29615175]], "pbc": [true, true, true], "a": 3.54925952, "b": 5.7835714, "c": 6.29615175, "alpha": 90.0, "beta": 90.0, "gamma": 90.0, "volume": 129.24359931052948}, "properties": {}, "sites": [{"species": [{"element": "Ge", "occu": 1}], "abc": [0.75, 0.81459753, 0.42219098], "properties": {"magmom": -0.0}, "label": "Ge", "xyz": [2.66194464, 4.711282977018642, 2.658178477561215]}, {"species": [{"element": "Ge", "occu": 1}], "abc": [0.25, 0.18540247, 0.57780802], "properties": {"magmom": -0.0}, "label": "Ge", "xyz": [0.88731488, 1.072288422981358, 3.637966976287035]}, {"species": [{"element": "Ge", "occu": 1}], "abc": [0.75, 0.31459753, 0.07780802], "properties": {"magmom": -0.0}, "label": "Ge", "xyz": [2.66194464, 1.819497277018642, 0.489891101287035]}, {"species": [{"element": "Ge", "occu": 1}], "abc": [0.25, 0.68540247, 0.92219198], "properties": {"magmom": -0.0}, "label": "Ge", "xyz": [0.88731488, 3.9640741229813576, 5.806260648712965]}, {"species": [{"element": "Pd", "occu": 1}], "abc": [0.75, 0.99621999, 0.80900974], "properties": {"magmom": -0.0}, "label": "Pd", "xyz": [2.66194464, 5.761709442272286, 5.093648090268045]}, {"species": [{"element": "Pd", "occu": 1}], "abc": [0.25, 0.00378001, 0.19099026], "properties": {"magmom": -0.0}, "label": "Pd", "xyz": [0.88731488, 0.021861957727713998, 1.202503659731955]}, {"species": [{"element": "Pd", "occu": 1}], "abc": [0.75, 0.49621999, 0.69099026], "properties": {"magmom": -0.0}, "label": "Pd", "xyz": [2.66194464, 2.869923742272286, 4.3505795347319545]}, {"species": [{"element": "Pd", "occu": 1}], "abc": [0.25, 0.5037800100000001, 0.30900974000000003], "properties": {"magmom": -0.0}, "label": "Pd", "xyz": [0.88731488, 2.913647657727714, 1.9455722152680452]}]}, "task_ids": null, "uncorrected_energy_per_atom": null, "energy_per_atom": -5.362620509999999, "formation_energy_per_atom": -0.46116567749999804, "energy_above_hull": 0.0, "is_stable": true, "equilibrium_reaction_energy_per_atom": null, "decomposes_to": null, "xas": null, "grain_boundaries": null, "band_gap": 0.0, "cbm": null, "vbm": null, "efermi": 6.53542781, "is_gap_direct": null, "is_metal": null, "es_source_calc_id": null, "bandstructure": null, "dos": null, "dos_energy_up": null, "dos_energy_down": null, "is_magnetic": null, "ordering": null, "total_magnetization": 0.0, "total_magnetization_normalized_vol": null, "total_magnetization_normalized_formula_units": null, "num_magnetic_sites": null, "num_unique_magnetic_sites": null, "types_of_magnetic_species": null, "bulk_modulus": null, "shear_modulus": null, "universal_anisotropy": null, "homogeneous_poisson": null, "e_total": null, "e_ionic": null, "e_electronic": null, "n": null, "e_ij_max": null, "weighted_surface_energy_EV_PER_ANG2": null, "weighted_surface_energy": null, "weighted_work_function": null, "surface_anisotropy": null, "shape_factor": null, "has_reconstructed": null, "possible_species": null, "has_props": null, "theoretical": null, "database_IDs": null, "fields_not_requested": ["builder_meta", "nsites", "elements", "nelements", "composition", "composition_reduced", "chemsys", "symmetry", "property_name", "deprecated", "deprecation_reasons", "last_updated", "origins", "warnings", "task_ids", "uncorrected_energy_per_atom", "equilibrium_reaction_energy_per_atom", "decomposes_to", "xas", "grain_boundaries", "cbm", "vbm", "is_gap_direct", "is_metal", "es_source_calc_id", "bandstructure", "dos", "dos_energy_up", "dos_energy_down", "is_magnetic", "ordering", "total_magnetization_normalized_vol", "total_magnetization_normalized_formula_units", "num_magnetic_sites", "num_unique_magnetic_sites", "types_of_magnetic_species", "bulk_modulus", "shear_modulus", "universal_anisotropy", "homogeneous_poisson", "e_total", "e_ionic", "e_electronic", "n", "e_ij_max", "weighted_surface_energy_EV_PER_ANG2", "weighted_surface_energy", "weighted_work_function", "surface_anisotropy", "shape_factor", "has_reconstructed", "possible_species", "has_props", "theoretical", "database_IDs"]}