{"builder_meta": null, "nsites": null, "elements": null, "nelements": null, "composition": null, "composition_reduced": null, "formula_pretty": "GePt2", "formula_anonymous": "AB2", "chemsys": null, "volume": 139.47148691585394, "density": 16.530491959234748, "density_atomic": 15.496831879539327, "symmetry": null, "property_name": null, "material_id": "mp-20061", "deprecated": null, "deprecation_reasons": null, "last_updated": null, "origins": null, "warnings": null, "structure": {"@module": "pymatgen.core.structure", "@class": "Structure", "charge": 0, "lattice": {"matrix": [[6.74398688, -0.0, 0.0], [-3.37199295, 5.84046418, -0.0], [0.0, -0.0, 3.54096268]], "pbc": [true, true, true], "a": 6.74398688, "b": 6.743986824773071, "c": 3.54096268, "alpha": 90.0, "beta": 90.0, "gamma": 119.99999546392259, "volume": 139.47148691585394}, "properties": {}, "sites": [{"species": [{"element": "Ge", "occu": 1}], "abc": [0.666667, 0.333333, -0.0], "properties": {"magmom": -0.0}, "label": "Ge", "xyz": [3.37199697532661, 1.94681944651194, 0.0]}, {"species": [{"element": "Ge", "occu": 1}], "abc": [0.333333, 0.666667, -0.0], "properties": {"magmom": -0.0}, "label": "Ge", "xyz": [-3.045326609996124e-06, 3.8936447334880597, 0.0]}, {"species": [{"element": "Ge", "occu": 1}], "abc": [0.0, -0.0, 0.5], "properties": {"magmom": 0.0}, "label": "Ge", "xyz": [0.0, 0.0, 1.77048134]}, {"species": [{"element": "Pt", "occu": 1}], "abc": [0.6218129, -0.0, 0.5], "properties": {"magmom": -0.0}, "label": "Pt", "xyz": [4.193498039414751, 0.0, 1.77048134]}, {"species": [{"element": "Pt", "occu": 1}], "abc": [0.3781871, 0.3781871, 0.5], "properties": {"magmom": -0.0}, "label": "Pt", "xyz": [1.2752446056043028, 2.208788210888078, 1.77048134]}, {"species": [{"element": "Pt", "occu": 1}], "abc": [-0.0, 0.6218129, 0.5], "properties": {"magmom": -0.0}, "label": "Pt", "xyz": [-2.096748715019055, 3.631675969111922, 1.77048134]}, {"species": [{"element": "Pt", "occu": 1}], "abc": [0.0, 0.28307199, 0.0], "properties": {"magmom": 0.0}, "label": "Pt", "xyz": [-0.9545167546224705, 1.6532718179563182, 0.0]}, {"species": [{"element": "Pt", "occu": 1}], "abc": [0.7169280100000001, 0.7169280100000001, -0.0], "properties": {"magmom": 0.0}, "label": "Pt", "xyz": [2.4174768979669787, 4.187192362043682, 0.0]}, {"species": [{"element": "Pt", "occu": 1}], "abc": [0.28307199, 0.0, 0.0], "properties": {"magmom": 0.0}, "label": "Pt", "xyz": [1.909033786655491, 0.0, 0.0]}]}, "task_ids": null, "uncorrected_energy_per_atom": null, "energy_per_atom": -39.320218285555555, "formation_energy_per_atom": -0.37108115888888604, "energy_above_hull": 0.025750439861113, "is_stable": false, "equilibrium_reaction_energy_per_atom": null, "decomposes_to": null, "xas": null, "grain_boundaries": null, "band_gap": 0.0, "cbm": null, "vbm": null, "efermi": 7.59090238, "is_gap_direct": null, "is_metal": null, "es_source_calc_id": null, "bandstructure": null, "dos": null, "dos_energy_up": null, "dos_energy_down": null, "is_magnetic": null, "ordering": null, "total_magnetization": 0.0, "total_magnetization_normalized_vol": null, "total_magnetization_normalized_formula_units": null, "num_magnetic_sites": null, "num_unique_magnetic_sites": null, "types_of_magnetic_species": null, "bulk_modulus": null, "shear_modulus": null, "universal_anisotropy": null, "homogeneous_poisson": null, "e_total": null, "e_ionic": null, "e_electronic": null, "n": null, "e_ij_max": null, "weighted_surface_energy_EV_PER_ANG2": null, "weighted_surface_energy": null, "weighted_work_function": null, "surface_anisotropy": null, "shape_factor": null, "has_reconstructed": null, "possible_species": null, "has_props": null, "theoretical": null, "database_IDs": null, "fields_not_requested": ["builder_meta", "nsites", "elements", "nelements", "composition", "composition_reduced", "chemsys", "symmetry", "property_name", "deprecated", "deprecation_reasons", "last_updated", "origins", "warnings", "task_ids", "uncorrected_energy_per_atom", "equilibrium_reaction_energy_per_atom", "decomposes_to", "xas", "grain_boundaries", "cbm", "vbm", "is_gap_direct", "is_metal", "es_source_calc_id", "bandstructure", "dos", "dos_energy_up", "dos_energy_down", "is_magnetic", "ordering", "total_magnetization_normalized_vol", "total_magnetization_normalized_formula_units", "num_magnetic_sites", "num_unique_magnetic_sites", "types_of_magnetic_species", "bulk_modulus", "shear_modulus", "universal_anisotropy", "homogeneous_poisson", "e_total", "e_ionic", "e_electronic", "n", "e_ij_max", "weighted_surface_energy_EV_PER_ANG2", "weighted_surface_energy", "weighted_work_function", "surface_anisotropy", "shape_factor", "has_reconstructed", "possible_species", "has_props", "theoretical", "database_IDs"]}