{"builder_meta": null, "nsites": null, "elements": null, "nelements": null, "composition": null, "composition_reduced": null, "formula_pretty": "GePt", "formula_anonymous": "AB", "chemsys": null, "volume": 131.2159496082121, "density": 13.552198871976012, "density_atomic": 16.401993701026512, "symmetry": null, "property_name": null, "material_id": "mp-542640", "deprecated": null, "deprecation_reasons": null, "last_updated": null, "origins": null, "warnings": null, "structure": {"@module": "pymatgen.core.structure", "@class": "Structure", "charge": 0, "lattice": {"matrix": [[3.73003181, 0.0, 0.0], [-0.0, 5.75601262, 0.0], [0.0, 0.0, 6.11156387]], "pbc": [true, true, true], "a": 3.73003181, "b": 5.75601262, "c": 6.11156387, "alpha": 90.0, "beta": 90.0, "gamma": 90.0, "volume": 131.2159496082121}, "properties": {}, "sites": [{"species": [{"element": "Ge", "occu": 1}], "abc": [0.75, 0.81393216, 0.41198714000000003], "properties": {"magmom": 0.0}, "label": "Ge", "xyz": [2.7975238575, 4.685003784783859, 2.517885719728632]}, {"species": [{"element": "Ge", "occu": 1}], "abc": [0.25, 0.18606784, 0.58801286], "properties": {"magmom": 0.0}, "label": "Ge", "xyz": [0.9325079525, 1.0710088352161409, 3.5936781502713684]}, {"species": [{"element": "Ge", "occu": 1}], "abc": [0.75, 0.31393216, 0.08801286], "properties": {"magmom": 0.0}, "label": "Ge", "xyz": [2.7975238575, 1.8069974747838593, 0.5378962152713682]}, {"species": [{"element": "Ge", "occu": 1}], "abc": [0.25, 0.68606784, 0.91198714], "properties": {"magmom": 0.0}, "label": "Ge", "xyz": [0.9325079525, 3.9490151452161406, 5.573667654728633]}, {"species": [{"element": "Pt", "occu": 1}], "abc": [0.75, 0.00185184, 0.80729114], "properties": {"magmom": 0.0}, "label": "Pt", "xyz": [2.7975238575, 0.0106592144102208, 4.933811363795112]}, {"species": [{"element": "Pt", "occu": 1}], "abc": [0.25, 0.9981481600000001, 0.19270886], "properties": {"magmom": 0.0}, "label": "Pt", "xyz": [0.9325079525, 5.745353405589779, 1.1777525062048884]}, {"species": [{"element": "Pt", "occu": 1}], "abc": [0.75, 0.50185184, 0.69270886], "properties": {"magmom": 0.0}, "label": "Pt", "xyz": [2.7975238575, 2.888665524410221, 4.233534441204888]}, {"species": [{"element": "Pt", "occu": 1}], "abc": [0.25, 0.49814816, 0.30729114], "properties": {"magmom": 0.0}, "label": "Pt", "xyz": [0.9325079525, 2.8673470955897793, 1.878029428795112]}]}, "task_ids": null, "uncorrected_energy_per_atom": null, "energy_per_atom": -33.16580120375, "formation_energy_per_atom": -0.48595396374999905, "energy_above_hull": 0.0, "is_stable": true, "equilibrium_reaction_energy_per_atom": null, "decomposes_to": null, "xas": null, "grain_boundaries": null, "band_gap": 0.0, "cbm": null, "vbm": null, "efermi": 7.73775557, "is_gap_direct": null, "is_metal": null, "es_source_calc_id": null, "bandstructure": null, "dos": null, "dos_energy_up": null, "dos_energy_down": null, "is_magnetic": null, "ordering": null, "total_magnetization": 2e-07, "total_magnetization_normalized_vol": null, "total_magnetization_normalized_formula_units": null, "num_magnetic_sites": null, "num_unique_magnetic_sites": null, "types_of_magnetic_species": null, "bulk_modulus": null, "shear_modulus": null, "universal_anisotropy": null, "homogeneous_poisson": null, "e_total": null, "e_ionic": null, "e_electronic": null, "n": null, "e_ij_max": null, "weighted_surface_energy_EV_PER_ANG2": null, "weighted_surface_energy": null, "weighted_work_function": null, "surface_anisotropy": null, "shape_factor": null, "has_reconstructed": null, "possible_species": null, "has_props": null, "theoretical": null, "database_IDs": null, "fields_not_requested": ["builder_meta", "nsites", "elements", "nelements", "composition", "composition_reduced", "chemsys", "symmetry", "property_name", "deprecated", "deprecation_reasons", "last_updated", "origins", "warnings", "task_ids", "uncorrected_energy_per_atom", "equilibrium_reaction_energy_per_atom", "decomposes_to", "xas", "grain_boundaries", "cbm", "vbm", "is_gap_direct", "is_metal", "es_source_calc_id", "bandstructure", "dos", "dos_energy_up", "dos_energy_down", "is_magnetic", "ordering", "total_magnetization_normalized_vol", "total_magnetization_normalized_formula_units", "num_magnetic_sites", "num_unique_magnetic_sites", "types_of_magnetic_species", "bulk_modulus", "shear_modulus", "universal_anisotropy", "homogeneous_poisson", "e_total", "e_ionic", "e_electronic", "n", "e_ij_max", "weighted_surface_energy_EV_PER_ANG2", "weighted_surface_energy", "weighted_work_function", "surface_anisotropy", "shape_factor", "has_reconstructed", "possible_species", "has_props", "theoretical", "database_IDs"]}