{
  "builder_meta": null,
  "nsites": null,
  "elements": null,
  "nelements": null,
  "composition": null,
  "composition_reduced": null,
  "formula_pretty": "GePt3",
  "formula_anonymous": "AB3",
  "chemsys": null,
  "volume": 122.39843175831777,
  "density": 17.850806614266407,
  "density_atomic": 15.299803969789721,
  "symmetry": null,
  "property_name": null,
  "material_id": "mp-16315",
  "deprecated": null,
  "deprecation_reasons": null,
  "last_updated": null,
  "origins": null,
  "warnings": null,
  "structure": {
    "@module": "pymatgen.core.structure",
    "@class": "Structure",
    "charge": 0,
    "lattice": {
      "matrix": [
        [4.81093921, -0.00890491, 2.7367043300000002],
        [-1.54391535, 4.55648343, 2.7367043300000002],
        [0.00067723, 0.00094251, 5.58826291]
      ],
      "pbc": [true, true, true],
      "a": 5.534868198031303,
      "b": 5.534868241039794,
      "c": 5.588263030517376,
      "alpha": 60.359721443883544,
      "beta": 60.35971954094702,
      "gamma": 89.96017670272475,
      "volume": 122.39843175831777
    },
    "properties": {},
    "sites": [
      {
        "species": [{ "element": "Ge", "occu": 1 }],
        "abc": [0.7487104800000001, 0.7487104800000001, 0.50011858],
        "properties": { "magmom": 0.0 },
        "label": "Ge",
        "xyz": [2.4463936976979865, 3.405291063309726, 6.892792536280625]
      },
      {
        "species": [{ "element": "Ge", "occu": 1 }],
        "abc": [0.25128952, 0.25128952, 0.49988142],
        "properties": { "magmom": 0.0 },
        "label": "Ge",
        "xyz": [0.8213073923020139, 1.1432299666902745, 4.168879033719376]
      },
      {
        "species": [{ "element": "Pt", "occu": 1 }],
        "abc": [0.74920034, 0.25079966, 0.5],
        "properties": { "magmom": 0.0 },
        "label": "Pt",
        "xyz": [3.2174824620025504, 1.1365641884399644, 5.530835785000001]
      },
      {
        "species": [{ "element": "Pt", "occu": 1 }],
        "abc": [0.25079966, 0.74920034, 0.5],
        "properties": { "magmom": 0.0 },
        "label": "Pt",
        "xyz": [0.050218627997449486, 3.4119568415600354, 5.530835785000001]
      },
      {
        "species": [{ "element": "Pt", "occu": 1 }],
        "abc": [0.30719865, 0.30719865, 0.0022675],
        "properties": { "magmom": -0.0 },
        "label": "Pt",
        "xyz": [1.003626854928814, 1.397012119254423, 1.694095137398734]
      },
      {
        "species": [{ "element": "Pt", "occu": 1 }],
        "abc": [0.69280135, 0.69280135, 0.997732499999999],
        "properties": { "magmom": -0.0 },
        "label": "Pt",
        "xyz": [2.264074235071186, 3.151508910745577, 9.367576432601261]
      },
      {
        "species": [{ "element": "Pt", "occu": 1 }],
        "abc": [0.1915753, 0.8084247, -0.0],
        "properties": { "magmom": -0.0 },
        "label": "Pt",
        "xyz": [-0.3264821812116321, 3.681867789147998, 2.7367043300000002]
      },
      {
        "species": [{ "element": "Pt", "occu": 1 }],
        "abc": [0.8084247, 0.1915753, 0.0],
        "properties": { "magmom": -0.0 },
        "label": "Pt",
        "xyz": [3.5935060412116315, 0.8657107308520021, 2.7367043300000002]
      }
    ]
  },
  "task_ids": null,
  "uncorrected_energy_per_atom": null,
  "energy_per_atom": -42.40629669875,
  "formation_energy_per_atom": -0.32251462874999903,
  "energy_above_hull": 0.0,
  "is_stable": true,
  "equilibrium_reaction_energy_per_atom": null,
  "decomposes_to": null,
  "xas": null,
  "grain_boundaries": null,
  "band_gap": 0.0,
  "cbm": null,
  "vbm": null,
  "efermi": 7.87966107,
  "is_gap_direct": null,
  "is_metal": null,
  "es_source_calc_id": null,
  "bandstructure": null,
  "dos": null,
  "dos_energy_up": null,
  "dos_energy_down": null,
  "is_magnetic": null,
  "ordering": null,
  "total_magnetization": 0.0,
  "total_magnetization_normalized_vol": null,
  "total_magnetization_normalized_formula_units": null,
  "num_magnetic_sites": null,
  "num_unique_magnetic_sites": null,
  "types_of_magnetic_species": null,
  "bulk_modulus": null,
  "shear_modulus": null,
  "universal_anisotropy": null,
  "homogeneous_poisson": null,
  "e_total": null,
  "e_ionic": null,
  "e_electronic": null,
  "n": null,
  "e_ij_max": null,
  "weighted_surface_energy_EV_PER_ANG2": null,
  "weighted_surface_energy": null,
  "weighted_work_function": null,
  "surface_anisotropy": null,
  "shape_factor": null,
  "has_reconstructed": null,
  "possible_species": null,
  "has_props": null,
  "theoretical": null,
  "database_IDs": null,
  "fields_not_requested": [
    "builder_meta",
    "nsites",
    "elements",
    "nelements",
    "composition",
    "composition_reduced",
    "chemsys",
    "symmetry",
    "property_name",
    "deprecated",
    "deprecation_reasons",
    "last_updated",
    "origins",
    "warnings",
    "task_ids",
    "uncorrected_energy_per_atom",
    "equilibrium_reaction_energy_per_atom",
    "decomposes_to",
    "xas",
    "grain_boundaries",
    "cbm",
    "vbm",
    "is_gap_direct",
    "is_metal",
    "es_source_calc_id",
    "bandstructure",
    "dos",
    "dos_energy_up",
    "dos_energy_down",
    "is_magnetic",
    "ordering",
    "total_magnetization_normalized_vol",
    "total_magnetization_normalized_formula_units",
    "num_magnetic_sites",
    "num_unique_magnetic_sites",
    "types_of_magnetic_species",
    "bulk_modulus",
    "shear_modulus",
    "universal_anisotropy",
    "homogeneous_poisson",
    "e_total",
    "e_ionic",
    "e_electronic",
    "n",
    "e_ij_max",
    "weighted_surface_energy_EV_PER_ANG2",
    "weighted_surface_energy",
    "weighted_work_function",
    "surface_anisotropy",
    "shape_factor",
    "has_reconstructed",
    "possible_species",
    "has_props",
    "theoretical",
    "database_IDs"
  ]
}
