{"builder_meta": null, "nsites": null, "elements": null, "nelements": null, "composition": null, "composition_reduced": null, "formula_pretty": "GeRh2", "formula_anonymous": "AB2", "chemsys": null, "volume": 167.34790803370558, "density": 11.051916192240869, "density_atomic": 13.945659002808798, "symmetry": null, "property_name": null, "material_id": "mp-22585", "deprecated": null, "deprecation_reasons": null, "last_updated": null, "origins": null, "warnings": null, "structure": {"@module": "pymatgen.core.structure", "@class": "Structure", "charge": 0, "lattice": {"matrix": [[4.01262865, 0.0, 0.0], [-0.0, 5.49899679, 0.0], [0.0, 0.0, 7.58416638]], "pbc": [true, true, true], "a": 4.01262865, "b": 5.49899679, "c": 7.58416638, "alpha": 90.0, "beta": 90.0, "gamma": 90.0, "volume": 167.34790803370558}, "properties": {}, "sites": [{"species": [{"element": "Ge", "occu": 1}], "abc": [0.75, 0.28517685, 0.60481608], "properties": {"magmom": 0.0}, "label": "Ge", "xyz": [3.0094714875, 1.5681865827323114, 4.58702578001939]}, {"species": [{"element": "Ge", "occu": 1}], "abc": [0.25, 0.71482315, 0.39518392], "properties": {"magmom": 0.0}, "label": "Ge", "xyz": [1.0031571625, 3.930810207267688, 2.99714059998061]}, {"species": [{"element": "Ge", "occu": 1}], "abc": [0.75, 0.78517685, 0.89518392], "properties": {"magmom": 0.0}, "label": "Ge", "xyz": [3.0094714875, 4.317684977732312, 6.78922378998061]}, {"species": [{"element": "Ge", "occu": 1}], "abc": [0.25, 0.21482315000000002, 0.10481608], "properties": {"magmom": 0.0}, "label": "Ge", "xyz": [1.0031571625, 1.1813118122676884, 0.7949425900193905]}, {"species": [{"element": "Rh", "occu": 1}], "abc": [0.75, 0.9700789200000001, 0.20339506000000002], "properties": {"magmom": -0.0}, "label": "Rh", "xyz": [3.0094714875, 5.3344608671266665, 1.542581975910083]}, {"species": [{"element": "Rh", "occu": 1}], "abc": [0.25, 0.02992108, 0.79660494], "properties": {"magmom": -0.0}, "label": "Rh", "xyz": [1.0031571625, 0.16453592287333318, 6.041584404089917]}, {"species": [{"element": "Rh", "occu": 1}], "abc": [0.75, 0.47007892, 0.29660494], "properties": {"magmom": -0.0}, "label": "Rh", "xyz": [3.0094714875, 2.5849624721266666, 2.2495012140899173]}, {"species": [{"element": "Rh", "occu": 1}], "abc": [0.25, 0.52992108, 0.70339506], "properties": {"magmom": -0.0}, "label": "Rh", "xyz": [1.0031571625, 2.9140343178733334, 5.334665165910082]}, {"species": [{"element": "Rh", "occu": 1}], "abc": [0.75, 0.83834029, 0.56969689], "properties": {"magmom": -0.0}, "label": "Rh", "xyz": [3.0094714875, 4.610030563637669, 4.320675999928558]}, {"species": [{"element": "Rh", "occu": 1}], "abc": [0.25, 0.16165971, 0.43030311], "properties": {"magmom": -0.0}, "label": "Rh", "xyz": [1.0031571625, 0.8889662263623309, 3.263490380071442]}, {"species": [{"element": "Rh", "occu": 1}], "abc": [0.75, 0.33834029, 0.93030311], "properties": {"magmom": -0.0}, "label": "Rh", "xyz": [3.0094714875, 1.860532168637669, 7.0555735700714415]}, {"species": [{"element": "Rh", "occu": 1}], "abc": [0.25, 0.66165971, 0.06969689], "properties": {"magmom": -0.0}, "label": "Rh", "xyz": [1.0031571625, 3.638464621362331, 0.5285928099285582]}]}, "task_ids": null, "uncorrected_energy_per_atom": null, "energy_per_atom": -21.18532703, "formation_energy_per_atom": -0.470515416666666, "energy_above_hull": 0.0, "is_stable": true, "equilibrium_reaction_energy_per_atom": null, "decomposes_to": null, "xas": null, "grain_boundaries": null, "band_gap": 0.0, "cbm": null, "vbm": null, "efermi": 7.57780992, "is_gap_direct": null, "is_metal": null, "es_source_calc_id": null, "bandstructure": null, "dos": null, "dos_energy_up": null, "dos_energy_down": null, "is_magnetic": null, "ordering": null, "total_magnetization": 8e-07, "total_magnetization_normalized_vol": null, "total_magnetization_normalized_formula_units": null, "num_magnetic_sites": null, "num_unique_magnetic_sites": null, "types_of_magnetic_species": null, "bulk_modulus": null, "shear_modulus": null, "universal_anisotropy": null, "homogeneous_poisson": null, "e_total": null, "e_ionic": null, "e_electronic": null, "n": null, "e_ij_max": null, "weighted_surface_energy_EV_PER_ANG2": null, "weighted_surface_energy": null, "weighted_work_function": null, "surface_anisotropy": null, "shape_factor": null, "has_reconstructed": null, "possible_species": null, "has_props": null, "theoretical": null, "database_IDs": null, "fields_not_requested": ["builder_meta", "nsites", "elements", "nelements", "composition", "composition_reduced", "chemsys", "symmetry", "property_name", "deprecated", "deprecation_reasons", "last_updated", "origins", "warnings", "task_ids", "uncorrected_energy_per_atom", "equilibrium_reaction_energy_per_atom", "decomposes_to", "xas", "grain_boundaries", "cbm", "vbm", "is_gap_direct", "is_metal", "es_source_calc_id", "bandstructure", "dos", "dos_energy_up", "dos_energy_down", "is_magnetic", "ordering", "total_magnetization_normalized_vol", "total_magnetization_normalized_formula_units", "num_magnetic_sites", "num_unique_magnetic_sites", "types_of_magnetic_species", "bulk_modulus", "shear_modulus", "universal_anisotropy", "homogeneous_poisson", "e_total", "e_ionic", "e_electronic", "n", "e_ij_max", "weighted_surface_energy_EV_PER_ANG2", "weighted_surface_energy", "weighted_work_function", "surface_anisotropy", "shape_factor", "has_reconstructed", "possible_species", "has_props", "theoretical", "database_IDs"]}