{"builder_meta": null, "nsites": null, "elements": null, "nelements": null, "composition": null, "composition_reduced": null, "formula_pretty": "GeS", "formula_anonymous": "AB", "chemsys": null, "volume": 175.6988115830953, "density": 3.958290699903206, "density_atomic": 21.962351447886913, "symmetry": null, "property_name": null, "material_id": "mp-2242", "deprecated": null, "deprecation_reasons": null, "last_updated": null, "origins": null, "warnings": null, "structure": {"@module": "pymatgen.core.structure", "@class": "Structure", "charge": 0, "lattice": {"matrix": [[3.60314037, 0.0, 0.0], [-0.0, 4.52312513, 0.0], [0.0, 0.0, 10.78075161]], "pbc": [true, true, true], "a": 3.60314037, "b": 4.52312513, "c": 10.78075161, "alpha": 90.0, "beta": 90.0, "gamma": 90.0, "volume": 175.6988115830953}, "properties": {}, "sites": [{"species": [{"element": "Ge", "occu": 1}], "abc": [0.25, 0.36689105, 0.87224634], "properties": {"magmom": -0.0}, "label": "Ge", "xyz": [0.9007850925, 1.6594941282270865, 9.403471134271607]}, {"species": [{"element": "Ge", "occu": 1}], "abc": [0.75, 0.63310895, 0.12775366], "properties": {"magmom": -0.0}, "label": "Ge", "xyz": [2.7023552775, 2.8636310017729136, 1.3772804757283925]}, {"species": [{"element": "Ge", "occu": 1}], "abc": [0.75, 0.86689105, 0.62775366], "properties": {"magmom": -0.0}, "label": "Ge", "xyz": [2.7023552775, 3.921056693227087, 6.767656280728392]}, {"species": [{"element": "Ge", "occu": 1}], "abc": [0.25, 0.13310895, 0.37224634], "properties": {"magmom": -0.0}, "label": "Ge", "xyz": [0.9007850925, 0.6020684367729136, 4.013095329271607]}, {"species": [{"element": "S", "occu": 1}], "abc": [0.25, 0.51478817, 0.65483072], "properties": {"magmom": 0.0}, "label": "S", "xyz": [0.9007850925, 2.328451308353712, 7.059567338917459]}, {"species": [{"element": "S", "occu": 1}], "abc": [0.75, 0.48521183, 0.34516928], "properties": {"magmom": 0.0}, "label": "S", "xyz": [2.7023552775, 2.194673821646288, 3.721184271082541]}, {"species": [{"element": "S", "occu": 1}], "abc": [0.75, 0.01478817, 0.84516928], "properties": {"magmom": 0.0}, "label": "S", "xyz": [2.7023552775, 0.0668887433537121, 9.11156007608254]}, {"species": [{"element": "S", "occu": 1}], "abc": [0.25, -0.01478817, 0.15483072], "properties": {"magmom": 0.0}, "label": "S", "xyz": [0.9007850925, -0.0668887433537121, 1.6691915339174592]}]}, "task_ids": null, "uncorrected_energy_per_atom": null, "energy_per_atom": -4.8813997425, "formation_energy_per_atom": -0.50070603125, "energy_above_hull": 0.0, "is_stable": true, "equilibrium_reaction_energy_per_atom": null, "decomposes_to": null, "xas": null, "grain_boundaries": null, "band_gap": 1.237599999999999, "cbm": null, "vbm": null, "efermi": 3.29336013, "is_gap_direct": null, "is_metal": null, "es_source_calc_id": null, "bandstructure": null, "dos": null, "dos_energy_up": null, "dos_energy_down": null, "is_magnetic": null, "ordering": null, "total_magnetization": 0.0, "total_magnetization_normalized_vol": null, "total_magnetization_normalized_formula_units": null, "num_magnetic_sites": null, "num_unique_magnetic_sites": null, "types_of_magnetic_species": null, "bulk_modulus": null, "shear_modulus": null, "universal_anisotropy": null, "homogeneous_poisson": null, "e_total": null, "e_ionic": null, "e_electronic": null, "n": null, "e_ij_max": null, "weighted_surface_energy_EV_PER_ANG2": null, "weighted_surface_energy": null, "weighted_work_function": null, "surface_anisotropy": null, "shape_factor": null, "has_reconstructed": null, "possible_species": null, "has_props": null, "theoretical": null, "database_IDs": null, "fields_not_requested": ["builder_meta", "nsites", "elements", "nelements", "composition", "composition_reduced", "chemsys", "symmetry", "property_name", "deprecated", "deprecation_reasons", "last_updated", "origins", "warnings", "task_ids", "uncorrected_energy_per_atom", "equilibrium_reaction_energy_per_atom", "decomposes_to", "xas", "grain_boundaries", "cbm", "vbm", "is_gap_direct", "is_metal", "es_source_calc_id", "bandstructure", "dos", "dos_energy_up", "dos_energy_down", "is_magnetic", "ordering", "total_magnetization_normalized_vol", "total_magnetization_normalized_formula_units", "num_magnetic_sites", "num_unique_magnetic_sites", "types_of_magnetic_species", "bulk_modulus", "shear_modulus", "universal_anisotropy", "homogeneous_poisson", "e_total", "e_ionic", "e_electronic", "n", "e_ij_max", "weighted_surface_energy_EV_PER_ANG2", "weighted_surface_energy", "weighted_work_function", "surface_anisotropy", "shape_factor", "has_reconstructed", "possible_species", "has_props", "theoretical", "database_IDs"]}