{"builder_meta": null, "nsites": null, "elements": null, "nelements": null, "composition": null, "composition_reduced": null, "formula_pretty": "GeSb3", "formula_anonymous": "AB3", "chemsys": null, "volume": 205.53433010264084, "density": 7.07602732528748, "density_atomic": 25.691791262830105, "symmetry": null, "property_name": null, "material_id": "mp-1184683", "deprecated": null, "deprecation_reasons": null, "last_updated": null, "origins": null, "warnings": null, "structure": {"@module": "pymatgen.core.structure", "@class": "Structure", "charge": 0, "lattice": {"matrix": [[3.349965, -5.802309, 0.0], [3.349965, 5.802309, 0.0], [0.0, 0.0, 5.287048]], "pbc": [true, true, true], "a": 6.6999294946070895, "b": 6.6999294946070895, "c": 5.287048, "alpha": 90.0, "beta": 90.0, "gamma": 119.99999500942116, "volume": 205.53433010264084}, "properties": {}, "sites": [{"species": [{"element": "Ge", "occu": 1}], "abc": [0.333333, 0.666667, 0.75], "properties": {"magmom": -0.0}, "label": "Ge", "xyz": [3.349965, 1.9341068682060003, 3.9652860000000003]}, {"species": [{"element": "Ge", "occu": 1}], "abc": [0.666667, 0.333333, 0.25], "properties": {"magmom": -0.0}, "label": "Ge", "xyz": [3.349965, -1.9341068682060003, 1.321762]}, {"species": [{"element": "Sb", "occu": 1}], "abc": [0.173972, 0.347944, 0.25], "properties": {"magmom": 0.0}, "label": "Sb", "xyz": [1.7484003329399997, 1.0094393013479999, 1.321762]}, {"species": [{"element": "Sb", "occu": 1}], "abc": [0.652056, 0.826028, 0.25], "properties": {"magmom": 0.0}, "label": "Sb", "xyz": [4.95152966706, 1.0094393013479999, 1.321762]}, {"species": [{"element": "Sb", "occu": 1}], "abc": [0.173972, 0.826028, 0.25], "properties": {"magmom": 0.0}, "label": "Sb", "xyz": [3.349965, 3.783430397304, 1.321762]}, {"species": [{"element": "Sb", "occu": 1}], "abc": [0.826028, 0.652056, 0.75], "properties": {"magmom": 0.0}, "label": "Sb", "xyz": [4.95152966706, -1.0094393013479999, 3.9652860000000003]}, {"species": [{"element": "Sb", "occu": 1}], "abc": [0.347944, 0.173972, 0.75], "properties": {"magmom": 0.0}, "label": "Sb", "xyz": [1.7484003329399997, -1.0094393013479999, 3.9652860000000003]}, {"species": [{"element": "Sb", "occu": 1}], "abc": [0.826028, 0.173972, 0.75], "properties": {"magmom": 0.0}, "label": "Sb", "xyz": [3.349965, -3.783430397304, 3.9652860000000003]}]}, "task_ids": null, "uncorrected_energy_per_atom": null, "energy_per_atom": -22.595441672499998, "formation_energy_per_atom": 0.15228952, "energy_above_hull": 0.15228952, "is_stable": false, "equilibrium_reaction_energy_per_atom": null, "decomposes_to": null, "xas": null, "grain_boundaries": null, "band_gap": 0.0, "cbm": null, "vbm": null, "efermi": 7.91886003, "is_gap_direct": null, "is_metal": null, "es_source_calc_id": null, "bandstructure": null, "dos": null, "dos_energy_up": null, "dos_energy_down": null, "is_magnetic": null, "ordering": null, "total_magnetization": 0.0002514, "total_magnetization_normalized_vol": null, "total_magnetization_normalized_formula_units": null, "num_magnetic_sites": null, "num_unique_magnetic_sites": null, "types_of_magnetic_species": null, "bulk_modulus": null, "shear_modulus": null, "universal_anisotropy": null, "homogeneous_poisson": null, "e_total": null, "e_ionic": null, "e_electronic": null, "n": null, "e_ij_max": null, "weighted_surface_energy_EV_PER_ANG2": null, "weighted_surface_energy": null, "weighted_work_function": null, "surface_anisotropy": null, "shape_factor": null, "has_reconstructed": null, "possible_species": null, "has_props": null, "theoretical": null, "database_IDs": null, "fields_not_requested": ["builder_meta", "nsites", "elements", "nelements", "composition", "composition_reduced", "chemsys", "symmetry", "property_name", "deprecated", "deprecation_reasons", "last_updated", "origins", "warnings", "task_ids", "uncorrected_energy_per_atom", "equilibrium_reaction_energy_per_atom", "decomposes_to", "xas", "grain_boundaries", "cbm", "vbm", "is_gap_direct", "is_metal", "es_source_calc_id", "bandstructure", "dos", "dos_energy_up", "dos_energy_down", "is_magnetic", "ordering", "total_magnetization_normalized_vol", "total_magnetization_normalized_formula_units", "num_magnetic_sites", "num_unique_magnetic_sites", "types_of_magnetic_species", "bulk_modulus", "shear_modulus", "universal_anisotropy", "homogeneous_poisson", "e_total", "e_ionic", "e_electronic", "n", "e_ij_max", "weighted_surface_energy_EV_PER_ANG2", "weighted_surface_energy", "weighted_work_function", "surface_anisotropy", "shape_factor", "has_reconstructed", "possible_species", "has_props", "theoretical", "database_IDs"]}