{
  "builder_meta": null,
  "nsites": null,
  "elements": null,
  "nelements": null,
  "composition": null,
  "composition_reduced": null,
  "formula_pretty": "GeSe2",
  "formula_anonymous": "AB2",
  "chemsys": null,
  "volume": 1488.2818239048045,
  "density": 4.115928916643514,
  "density_atomic": 31.005871331350093,
  "symmetry": null,
  "property_name": null,
  "material_id": "mp-540625",
  "deprecated": null,
  "deprecation_reasons": null,
  "last_updated": null,
  "origins": null,
  "warnings": null,
  "structure": {
    "@module": "pymatgen.core.structure",
    "@class": "Structure",
    "charge": 0,
    "lattice": {
      "matrix": [
        [7.10800443, -0.02758534, 0.0],
        [-0.18320498000000002, 12.24401165, 0.0],
        [0.0, 0.0, 17.10168779]
      ],
      "pbc": [true, true, true],
      "a": 7.108057957549485,
      "b": 12.245382205142986,
      "c": 17.10168779,
      "alpha": 90.0,
      "beta": 90.0,
      "gamma": 91.07959979280336,
      "volume": 1488.2818239048045
    },
    "properties": {},
    "sites": [
      {
        "species": [{ "element": "Ge", "occu": 1 }],
        "abc": [0.66394549, 0.78048848, 0.84497397],
        "properties": { "magmom": 0.0 },
        "label": "Ge",
        "xyz": [4.576338107829891, 9.537994879727675, 14.450481025616826]
      },
      {
        "species": [{ "element": "Ge", "occu": 1 }],
        "abc": [0.33605451000000003, 0.71951152, 0.34497397],
        "properties": { "magmom": 0.0 },
        "label": "Ge",
        "xyz": [2.25685885217011, 8.800437255272323, 5.899637130616827]
      },
      {
        "species": [{ "element": "Ge", "occu": 1 }],
        "abc": [0.33605451000000003, 0.21951152000000002, 0.15502603],
        "properties": { "magmom": 0.0 },
        "label": "Ge",
        "xyz": [2.34846134217011, 2.6784314302723247, 2.651206764383174]
      },
      {
        "species": [{ "element": "Ge", "occu": 1 }],
        "abc": [0.66394549, 0.28048848, 0.65502603],
        "properties": { "magmom": 0.0 },
        "label": "Ge",
        "xyz": [4.667940597829891, 3.415989054727675, 11.202050659383174]
      },
      {
        "species": [{ "element": "Ge", "occu": 1 }],
        "abc": [0.84238531, 0.22379032000000001, 0.8489198800000001],
        "properties": { "magmom": 0.0 },
        "label": "Ge",
        "xyz": [5.94667901414713, 2.7168538000498725, 14.517962746484265]
      },
      {
        "species": [{ "element": "Ge", "occu": 1 }],
        "abc": [0.15761469, 0.27620968, 0.34891988],
        "properties": { "magmom": 0.0 },
        "label": "Ge",
        "xyz": [1.0697229258528704, 3.377566684950127, 5.9671188514842655]
      },
      {
        "species": [{ "element": "Ge", "occu": 1 }],
        "abc": [0.15761469, 0.77620968, 0.15108012],
        "properties": { "magmom": 0.0 },
        "label": "Ge",
        "xyz": [0.9781204358528705, 9.499572509950127, 2.583725043515735]
      },
      {
        "species": [{ "element": "Ge", "occu": 1 }],
        "abc": [0.84238531, 0.72379032, 0.65108012],
        "properties": { "magmom": 0.0 },
        "label": "Ge",
        "xyz": [5.8550765241471305, 8.838859625049873, 11.134568938515736]
      },
      {
        "species": [{ "element": "Ge", "occu": 1 }],
        "abc": [0.16685075, 0.29487209000000003, -0.00011126],
        "properties": { "magmom": -0.0 },
        "label": "Ge",
        "xyz": [1.1319538347978144, 3.6058146705518435, -0.0019027337835154]
      },
      {
        "species": [{ "element": "Ge", "occu": 1 }],
        "abc": [0.8331492500000001, 0.20512791, 0.49988874],
        "properties": { "magmom": -0.0 },
        "label": "Ge",
        "xyz": [5.884448105202186, 2.488605814448156, 8.548941161216485]
      },
      {
        "species": [{ "element": "Ge", "occu": 1 }],
        "abc": [0.8331492500000001, 0.70512791, 0.00011126],
        "properties": { "magmom": -0.0 },
        "label": "Ge",
        "xyz": [5.792845615202186, 8.610611639448155, 0.0019027337835154]
      },
      {
        "species": [{ "element": "Ge", "occu": 1 }],
        "abc": [0.16685075, 0.79487209, 0.5001112600000001],
        "properties": { "magmom": -0.0 },
        "label": "Ge",
        "xyz": [1.0403513447978143, 9.727820495551843, 8.552746628783517]
      },
      {
        "species": [{ "element": "Ge", "occu": 1 }],
        "abc": [0.34038675, 0.72530587, 0.68879606],
        "properties": { "magmom": 0.0 },
        "label": "Ge",
        "xyz": [2.28659087950607, 8.871263837863141, 11.779575169102108]
      },
      {
        "species": [{ "element": "Ge", "occu": 1 }],
        "abc": [0.65961325, 0.77469413, 0.18879606000000002],
        "properties": { "magmom": 0.0 },
        "label": "Ge",
        "xyz": [4.546606080493931, 9.467168297136858, 3.2287312741021075]
      },
      {
        "species": [{ "element": "Ge", "occu": 1 }],
        "abc": [0.65961325, 0.27469413, 0.31120394],
        "properties": { "magmom": 0.0 },
        "label": "Ge",
        "xyz": [4.638208570493931, 3.345162472136859, 5.322112620897893]
      },
      {
        "species": [{ "element": "Ge", "occu": 1 }],
        "abc": [0.34038675, 0.22530587, 0.8112039400000001],
        "properties": { "magmom": 0.0 },
        "label": "Ge",
        "xyz": [2.37819336950607, 2.74925801286314, 13.872956515897894]
      },
      {
        "species": [{ "element": "Se", "occu": 1 }],
        "abc": [0.33706129, 0.79214525, 0.81877445],
        "properties": { "magmom": -0.0 },
        "label": "Se",
        "xyz": [2.25070818781817, 9.689737719206674, 14.002425014328965]
      },
      {
        "species": [{ "element": "Se", "occu": 1 }],
        "abc": [0.66293871, 0.70785475, 0.31877445],
        "properties": { "magmom": -0.0 },
        "label": "Se",
        "xyz": [4.582488772181831, 8.648694415793324, 5.451581119328965]
      },
      {
        "species": [{ "element": "Se", "occu": 1 }],
        "abc": [0.66293871, 0.20785475, 0.18122555],
        "properties": { "magmom": -0.0 },
        "label": "Se",
        "xyz": [4.674091262181831, 2.5266885907933263, 3.0992627756710345]
      },
      {
        "species": [{ "element": "Se", "occu": 1 }],
        "abc": [0.33706129, 0.29214525, 0.6812255500000001],
        "properties": { "magmom": -0.0 },
        "label": "Se",
        "xyz": [2.3423106778181695, 3.567731894206674, 11.650106670671036]
      },
      {
        "species": [{ "element": "Se", "occu": 1 }],
        "abc": [0.72240699, 0.87961926, 0.96208888],
        "properties": { "magmom": 0.0 },
        "label": "Se",
        "xyz": [4.973721456247051, 10.750140624566852, 16.453343651990775]
      },
      {
        "species": [{ "element": "Se", "occu": 1 }],
        "abc": [0.27759301000000003, 0.62038074, 0.46208888000000004],
        "properties": { "magmom": 0.0 },
        "label": "Se",
        "xyz": [1.8594755037529493, 7.588291510433147, 7.902499756990776]
      },
      {
        "species": [{ "element": "Se", "occu": 1 }],
        "abc": [0.27759301000000003, 0.12037974, 0.03791112],
        "properties": { "magmom": 0.0 },
        "label": "Se",
        "xyz": [1.9510781769579293, 1.4662734414214975, 0.6483441380092247]
      },
      {
        "species": [{ "element": "Se", "occu": 1 }],
        "abc": [0.72240699, 0.37962026, 0.53791112],
        "properties": { "magmom": 0.0 },
        "label": "Se",
        "xyz": [5.0653237630420715, 4.628147043578502, 9.199188033009223]
      },
      {
        "species": [{ "element": "Se", "occu": 1 }],
        "abc": [0.77195803, 0.60599814, 0.883618599999999],
        "properties": { "magmom": 0.0 },
        "label": "Se",
        "xyz": [5.376059219895336, 7.39855356131505, 15.111369422636876]
      },
      {
        "species": [{ "element": "Se", "occu": 1 }],
        "abc": [0.22804197, 0.89400186, 0.3836186],
        "properties": { "magmom": 0.0 },
        "label": "Se",
        "xyz": [1.4571377401046643, 10.939878573684949, 6.5605255276368935]
      },
      {
        "species": [{ "element": "Se", "occu": 1 }],
        "abc": [0.22804197, 0.39400186, 0.1163814],
        "properties": { "magmom": 0.0 },
        "label": "Se",
        "xyz": [1.5487402301046644, 4.817872748684948, 1.990318367363106]
      },
      {
        "species": [{ "element": "Se", "occu": 1 }],
        "abc": [0.77195803, 0.10599814, 0.6163814],
        "properties": { "magmom": 0.0 },
        "label": "Se",
        "xyz": [5.467661709895336, 1.2765477363150508, 10.541162262363105]
      },
      {
        "species": [{ "element": "Se", "occu": 1 }],
        "abc": [0.84902402, 0.86512583, 0.74472072],
        "properties": { "magmom": -0.0 },
        "label": "Se",
        "xyz": [5.876371134953775, 10.569190124976053, 12.735981244184009]
      },
      {
        "species": [{ "element": "Se", "occu": 1 }],
        "abc": [0.15097598, 0.63487417, 0.24472072],
        "properties": { "magmom": -0.0 },
        "label": "Se",
        "xyz": [0.9568258250462248, 7.769242010023947, 4.185137349184009]
      },
      {
        "species": [{ "element": "Se", "occu": 1 }],
        "abc": [0.15097598, 0.13487417000000002, 0.25527928],
        "properties": { "magmom": -0.0 },
        "label": "Se",
        "xyz": [1.0484283150462248, 1.6472361850239474, 4.365706545815991]
      },
      {
        "species": [{ "element": "Se", "occu": 1 }],
        "abc": [0.84902402, 0.36512583, 0.75527928],
        "properties": { "magmom": -0.0 },
        "label": "Se",
        "xyz": [5.967973624953775, 4.447184299976052, 12.91655044081599]
      },
      {
        "species": [{ "element": "Se", "occu": 1 }],
        "abc": [0.58858317, 0.6001436, 0.67197568],
        "properties": { "magmom": 0.0 },
        "label": "Se",
        "xyz": [4.073702483548315, 7.331928963210212, 11.491918281832946]
      },
      {
        "species": [{ "element": "Se", "occu": 1 }],
        "abc": [0.41141683, 0.8998564, 0.17197568],
        "properties": { "magmom": 0.0 },
        "label": "Se",
        "xyz": [2.759494476451685, 11.006503171789788, 2.941074386832947]
      },
      {
        "species": [{ "element": "Se", "occu": 1 }],
        "abc": [0.41141683, 0.3998564, 0.32802432],
        "properties": { "magmom": 0.0 },
        "label": "Se",
        "xyz": [2.851096966451685, 4.884497346789788, 5.609769508167052]
      },
      {
        "species": [{ "element": "Se", "occu": 1 }],
        "abc": [0.58858317, 0.1001436, 0.82802432],
        "properties": { "magmom": 0.0 },
        "label": "Se",
        "xyz": [4.165304973548316, 1.209923138210212, 14.160613403167053]
      },
      {
        "species": [{ "element": "Se", "occu": 1 }],
        "abc": [0.09253785, 0.59931528, 0.662579399999999],
        "properties": { "magmom": -0.0 },
        "label": "Se",
        "xyz": [0.5479619038565812, 7.3354705822878925, 11.331226034885509]
      },
      {
        "species": [{ "element": "Se", "occu": 1 }],
        "abc": [0.90746215, 0.90068472, 0.162579399999999],
        "properties": { "magmom": -0.0 },
        "label": "Se",
        "xyz": [6.285235056143419, 11.002961552712106, 2.7803821398855093]
      },
      {
        "species": [{ "element": "Se", "occu": 1 }],
        "abc": [0.90746215, 0.40068472, 0.337420599999999],
        "properties": { "magmom": -0.0 },
        "label": "Se",
        "xyz": [6.3768375461434195, 4.880955727712107, 5.770461755114457]
      },
      {
        "species": [{ "element": "Se", "occu": 1 }],
        "abc": [0.09253785, 0.09931528, 0.8374206],
        "properties": { "magmom": -0.0 },
        "label": "Se",
        "xyz": [0.6395643938565811, 1.213464757287893, 14.321305650114473]
      },
      {
        "species": [{ "element": "Se", "occu": 1 }],
        "abc": [0.34528637, 0.87681915, 0.60341848],
        "properties": { "magmom": -0.0 },
        "label": "Se",
        "xyz": [2.293659412739252, 10.72625904562928, 10.319474451676358]
      },
      {
        "species": [{ "element": "Se", "occu": 1 }],
        "abc": [0.65471363, 0.62318085, 0.10341848000000001],
        "properties": { "magmom": -0.0 },
        "label": "Se",
        "xyz": [4.539537547260749, 7.612173089370718, 1.7686305566763594]
      },
      {
        "species": [{ "element": "Se", "occu": 1 }],
        "abc": [0.65471363, 0.12318085000000001, 0.39658152],
        "properties": { "magmom": -0.0 },
        "label": "Se",
        "xyz": [4.6311400372607485, 1.4901672643707182, 6.782213338323641]
      },
      {
        "species": [{ "element": "Se", "occu": 1 }],
        "abc": [0.34528637, 0.37681915, 0.89658152],
        "properties": { "magmom": -0.0 },
        "label": "Se",
        "xyz": [2.385261902739252, 4.604253220629281, 15.333057233323641]
      },
      {
        "species": [{ "element": "Se", "occu": 1 }],
        "abc": [0.83923296, 0.804912499999999, 0.52517696],
        "properties": { "magmom": 0.0 },
        "label": "Se",
        "xyz": [5.817807619017763, 9.832207500689806, 8.981412404421318]
      },
      {
        "species": [{ "element": "Se", "occu": 1 }],
        "abc": [0.16076704, 0.6950875, 0.02517696],
        "properties": { "magmom": 0.0 },
        "label": "Se",
        "xyz": [1.0153893409822372, 8.50622463431018, 0.4305685094213184]
      },
      {
        "species": [{ "element": "Se", "occu": 1 }],
        "abc": [0.16076704, 0.1950875, 0.47482304000000003],
        "properties": { "magmom": 0.0 },
        "label": "Se",
        "xyz": [1.1069918309822373, 2.3842188093101813, 8.120275385578681]
      },
      {
        "species": [{ "element": "Se", "occu": 1 }],
        "abc": [0.83923296, 0.3049125, 0.97482304],
        "properties": { "magmom": 0.0 },
        "label": "Se",
        "xyz": [5.909410109017764, 3.710201675689818, 16.67111928057868]
      }
    ]
  },
  "task_ids": null,
  "uncorrected_energy_per_atom": null,
  "energy_per_atom": -4.450939352083334,
  "formation_energy_per_atom": -0.5793224153125001,
  "energy_above_hull": 0.0,
  "is_stable": true,
  "equilibrium_reaction_energy_per_atom": null,
  "decomposes_to": null,
  "xas": null,
  "grain_boundaries": null,
  "band_gap": 1.7063000000000001,
  "cbm": null,
  "vbm": null,
  "efermi": 0.044774430000000004,
  "is_gap_direct": null,
  "is_metal": null,
  "es_source_calc_id": null,
  "bandstructure": null,
  "dos": null,
  "dos_energy_up": null,
  "dos_energy_down": null,
  "is_magnetic": null,
  "ordering": null,
  "total_magnetization": 0.0,
  "total_magnetization_normalized_vol": null,
  "total_magnetization_normalized_formula_units": null,
  "num_magnetic_sites": null,
  "num_unique_magnetic_sites": null,
  "types_of_magnetic_species": null,
  "bulk_modulus": null,
  "shear_modulus": null,
  "universal_anisotropy": null,
  "homogeneous_poisson": null,
  "e_total": null,
  "e_ionic": null,
  "e_electronic": null,
  "n": null,
  "e_ij_max": null,
  "weighted_surface_energy_EV_PER_ANG2": null,
  "weighted_surface_energy": null,
  "weighted_work_function": null,
  "surface_anisotropy": null,
  "shape_factor": null,
  "has_reconstructed": null,
  "possible_species": null,
  "has_props": null,
  "theoretical": null,
  "database_IDs": null,
  "fields_not_requested": [
    "builder_meta",
    "nsites",
    "elements",
    "nelements",
    "composition",
    "composition_reduced",
    "chemsys",
    "symmetry",
    "property_name",
    "deprecated",
    "deprecation_reasons",
    "last_updated",
    "origins",
    "warnings",
    "task_ids",
    "uncorrected_energy_per_atom",
    "equilibrium_reaction_energy_per_atom",
    "decomposes_to",
    "xas",
    "grain_boundaries",
    "cbm",
    "vbm",
    "is_gap_direct",
    "is_metal",
    "es_source_calc_id",
    "bandstructure",
    "dos",
    "dos_energy_up",
    "dos_energy_down",
    "is_magnetic",
    "ordering",
    "total_magnetization_normalized_vol",
    "total_magnetization_normalized_formula_units",
    "num_magnetic_sites",
    "num_unique_magnetic_sites",
    "types_of_magnetic_species",
    "bulk_modulus",
    "shear_modulus",
    "universal_anisotropy",
    "homogeneous_poisson",
    "e_total",
    "e_ionic",
    "e_electronic",
    "n",
    "e_ij_max",
    "weighted_surface_energy_EV_PER_ANG2",
    "weighted_surface_energy",
    "weighted_work_function",
    "surface_anisotropy",
    "shape_factor",
    "has_reconstructed",
    "possible_species",
    "has_props",
    "theoretical",
    "database_IDs"
  ]
}
