{
  "builder_meta": null,
  "nsites": null,
  "elements": null,
  "nelements": null,
  "composition": null,
  "composition_reduced": null,
  "formula_pretty": "H2C",
  "formula_anonymous": "AB2",
  "chemsys": null,
  "volume": 89.72908441199431,
  "density": 1.038311455574231,
  "density_atomic": 7.477423700999526,
  "symmetry": null,
  "property_name": null,
  "material_id": "mp-985782",
  "deprecated": null,
  "deprecation_reasons": null,
  "last_updated": null,
  "origins": null,
  "warnings": null,
  "structure": {
    "@module": "pymatgen.core.structure",
    "@class": "Structure",
    "charge": 0,
    "lattice": {
      "matrix": [
        [7.15876328, 0.0, 0.0],
        [0.0, 4.92581135, 0.0],
        [0.0, 0.0, 2.54458791]
      ],
      "pbc": [true, true, true],
      "a": 7.15876328,
      "b": 4.92581135,
      "c": 2.54458791,
      "alpha": 90.0,
      "beta": 90.0,
      "gamma": 90.0,
      "volume": 89.72908441199431
    },
    "properties": {},
    "sites": [
      {
        "species": [{ "element": "H", "occu": 1 }],
        "abc": [0.19269094, 0.96329542, 0.25],
        "properties": { "magmom": 0.0 },
        "label": "H",
        "xyz": [1.3794288256606833, 4.745011513239017, 0.6361469775]
      },
      {
        "species": [{ "element": "H", "occu": 1 }],
        "abc": [0.80730906, 0.03670458, 0.75],
        "properties": { "magmom": 0.0 },
        "label": "H",
        "xyz": [5.779334454339317, 0.180799836760983, 1.9084409325]
      },
      {
        "species": [{ "element": "H", "occu": 1 }],
        "abc": [0.30730906, 0.46329542, 0.75],
        "properties": { "magmom": 0.0 },
        "label": "H",
        "xyz": [2.199952814339317, 2.282105838239017, 1.9084409325]
      },
      {
        "species": [{ "element": "H", "occu": 1 }],
        "abc": [0.69269094, 0.53670458, 0.25],
        "properties": { "magmom": 0.0 },
        "label": "H",
        "xyz": [4.958810465660683, 2.643705511760983, 0.6361469775]
      },
      {
        "species": [{ "element": "H", "occu": 1 }],
        "abc": [0.01469079, 0.7186113, 0.25],
        "properties": { "magmom": -0.0 },
        "label": "H",
        "xyz": [0.1051678880061912, 3.539743697778255, 0.6361469775]
      },
      {
        "species": [{ "element": "H", "occu": 1 }],
        "abc": [0.98530921, 0.2813887, 0.75],
        "properties": { "magmom": -0.0 },
        "label": "H",
        "xyz": [7.053595391993809, 1.386067652221745, 1.9084409325]
      },
      {
        "species": [{ "element": "H", "occu": 1 }],
        "abc": [0.48530921, 0.218611299999999, 0.75],
        "properties": { "magmom": -0.0 },
        "label": "H",
        "xyz": [3.4742137519938083, 1.0768380227782501, 1.9084409325]
      },
      {
        "species": [{ "element": "H", "occu": 1 }],
        "abc": [0.5146907900000001, 0.781388699999999, 0.25],
        "properties": { "magmom": -0.0 },
        "label": "H",
        "xyz": [3.6845495280061913, 3.8489733272217403, 0.6361469775]
      },
      {
        "species": [{ "element": "C", "occu": 1 }],
        "abc": [0.0402304, 0.9385300400000001, 0.25],
        "properties": { "magmom": -0.0 },
        "label": "C",
        "xyz": [0.287999910259712, 4.623021923347954, 0.6361469775]
      },
      {
        "species": [{ "element": "C", "occu": 1 }],
        "abc": [0.9597696, 0.061469960000000004, 0.75],
        "properties": { "magmom": -0.0 },
        "label": "C",
        "xyz": [6.8707633697402875, 0.302789426652046, 1.9084409325]
      },
      {
        "species": [{ "element": "C", "occu": 1 }],
        "abc": [0.4597696, 0.43853004, 0.75],
        "properties": { "magmom": -0.0 },
        "label": "C",
        "xyz": [3.2913817297402876, 2.160116248347954, 1.9084409325]
      },
      {
        "species": [{ "element": "C", "occu": 1 }],
        "abc": [0.5402304, 0.56146996, 0.25],
        "properties": { "magmom": -0.0 },
        "label": "C",
        "xyz": [3.867381550259712, 2.7656951016520464, 0.6361469775]
      }
    ]
  },
  "task_ids": null,
  "uncorrected_energy_per_atom": null,
  "energy_per_atom": -5.5052453425,
  "formation_energy_per_atom": -0.165579219166667,
  "energy_above_hull": 0.044776267916665,
  "is_stable": false,
  "equilibrium_reaction_energy_per_atom": null,
  "decomposes_to": null,
  "xas": null,
  "grain_boundaries": null,
  "band_gap": 6.4785,
  "cbm": null,
  "vbm": null,
  "efermi": -2.11473177,
  "is_gap_direct": null,
  "is_metal": null,
  "es_source_calc_id": null,
  "bandstructure": null,
  "dos": null,
  "dos_energy_up": null,
  "dos_energy_down": null,
  "is_magnetic": null,
  "ordering": null,
  "total_magnetization": 0.0,
  "total_magnetization_normalized_vol": null,
  "total_magnetization_normalized_formula_units": null,
  "num_magnetic_sites": null,
  "num_unique_magnetic_sites": null,
  "types_of_magnetic_species": null,
  "bulk_modulus": null,
  "shear_modulus": null,
  "universal_anisotropy": null,
  "homogeneous_poisson": null,
  "e_total": null,
  "e_ionic": null,
  "e_electronic": null,
  "n": null,
  "e_ij_max": null,
  "weighted_surface_energy_EV_PER_ANG2": null,
  "weighted_surface_energy": null,
  "weighted_work_function": null,
  "surface_anisotropy": null,
  "shape_factor": null,
  "has_reconstructed": null,
  "possible_species": null,
  "has_props": null,
  "theoretical": null,
  "database_IDs": null,
  "fields_not_requested": [
    "builder_meta",
    "nsites",
    "elements",
    "nelements",
    "composition",
    "composition_reduced",
    "chemsys",
    "symmetry",
    "property_name",
    "deprecated",
    "deprecation_reasons",
    "last_updated",
    "origins",
    "warnings",
    "task_ids",
    "uncorrected_energy_per_atom",
    "equilibrium_reaction_energy_per_atom",
    "decomposes_to",
    "xas",
    "grain_boundaries",
    "cbm",
    "vbm",
    "is_gap_direct",
    "is_metal",
    "es_source_calc_id",
    "bandstructure",
    "dos",
    "dos_energy_up",
    "dos_energy_down",
    "is_magnetic",
    "ordering",
    "total_magnetization_normalized_vol",
    "total_magnetization_normalized_formula_units",
    "num_magnetic_sites",
    "num_unique_magnetic_sites",
    "types_of_magnetic_species",
    "bulk_modulus",
    "shear_modulus",
    "universal_anisotropy",
    "homogeneous_poisson",
    "e_total",
    "e_ionic",
    "e_electronic",
    "n",
    "e_ij_max",
    "weighted_surface_energy_EV_PER_ANG2",
    "weighted_surface_energy",
    "weighted_work_function",
    "surface_anisotropy",
    "shape_factor",
    "has_reconstructed",
    "possible_species",
    "has_props",
    "theoretical",
    "database_IDs"
  ]
}
