{"builder_meta": null, "nsites": null, "elements": null, "nelements": null, "composition": null, "composition_reduced": null, "formula_pretty": "H2C3", "formula_anonymous": "A2B3", "chemsys": null, "volume": 184.71370166452914, "density": 1.368174783481111, "density_atomic": 9.235685083226457, "symmetry": null, "property_name": null, "material_id": "mp-995217", "deprecated": null, "deprecation_reasons": null, "last_updated": null, "origins": null, "warnings": null, "structure": {"@module": "pymatgen.core.structure", "@class": "Structure", "charge": 0.0, "lattice": {"matrix": [[5.73272282, 4.28247335, -0.08539281], [-5.73272282, 4.28247335, -0.08539281], [0.0, 0.86615314, 3.74468304]], "pbc": [true, true, true], "a": 7.156184797530642, "b": 7.156184797530642, "c": 3.843549444458273, "alpha": 82.92134498551596, "beta": 82.92134498551596, "gamma": 106.46795645670359, "volume": 184.71370166452914}, "properties": {}, "sites": [{"species": [{"element": "H", "occu": 1}], "abc": [0.55549112, 0.69537308, 0.77912497], "properties": {"magmom": 0.0}, "label": "H", "xyz": [-0.8019045041983275, 6.031634140186975, 2.810761252233107]}, {"species": [{"element": "H", "occu": 1}], "abc": [0.30462692, 0.44450888, 0.72087503], "properties": {"magmom": 0.0}, "label": "H", "xyz": [-0.8019045041983273, 3.8325422698130245, 2.635477687766893]}, {"species": [{"element": "H", "occu": 1}], "abc": [0.44450888, 0.30462692, 0.22087503], "properties": {"magmom": 0.0}, "label": "H", "xyz": [0.8019045041983273, 3.399465699813024, 0.7631361677668932]}, {"species": [{"element": "H", "occu": 1}], "abc": [0.69537308, 0.55549112, 0.27912497000000003], "properties": {"magmom": 0.0}, "label": "H", "xyz": [0.8019045041983275, 5.598557570186975, 0.9384197322331069]}, {"species": [{"element": "H", "occu": 1}], "abc": [0.83679249, 0.97572399, 0.49535201], "properties": {"magmom": -0.0}, "label": "H", "xyz": [-0.7964557804668297, 8.19110422090262, 1.7001603952784015]}, {"species": [{"element": "H", "occu": 1}], "abc": [0.02427601, 0.16320751, 0.00464799], "properties": {"magmom": -0.0}, "label": "H", "xyz": [-0.7964557804668301, 0.8069190490973807, 0.0013955047215984014]}, {"species": [{"element": "H", "occu": 1}], "abc": [0.16320751, 0.02427601, 0.50464799], "properties": {"magmom": -0.0}, "label": "H", "xyz": [0.7964557804668301, 1.2399956190973807, 1.8737370247215985]}, {"species": [{"element": "H", "occu": 1}], "abc": [0.97572399, 0.83679249, 0.9953520100000001], "properties": {"magmom": -0.0}, "label": "H", "xyz": [0.7964557804668297, 8.624180790902619, 3.572501915278402]}, {"species": [{"element": "C", "occu": 1}], "abc": [0.33496427, 0.83544089, 0.66493574], "properties": {"magmom": 0.0}, "label": "C", "xyz": [-2.8690937403504684, 5.58816508550171, 2.3900294028169498]}, {"species": [{"element": "C", "occu": 1}], "abc": [0.16455911, 0.66503573, 0.83506426], "properties": {"magmom": 0.0}, "label": "C", "xyz": [-2.869093740350469, 4.276011324498291, 3.05620953718305]}, {"species": [{"element": "C", "occu": 1}], "abc": [0.66503573, 0.16455911, 0.33506426], "properties": {"magmom": 0.0}, "label": "C", "xyz": [2.869093740350469, 3.8429347544982906, 1.18386801718305]}, {"species": [{"element": "C", "occu": 1}], "abc": [0.83544089, 0.33496427, 0.16493574], "properties": {"magmom": 0.0}, "label": "C", "xyz": [2.8690937403504684, 5.15508851550171, 0.51768788281695]}, {"species": [{"element": "C", "occu": 1}], "abc": [0.52891485, 0.82728833, 0.65233036], "properties": {"magmom": -0.0}, "label": "C", "xyz": [-1.7104924576788134, 6.372921965166584, 2.3269604350979587]}, {"species": [{"element": "C", "occu": 1}], "abc": [0.17271167, 0.47108515, 0.84766964], "properties": {"magmom": -0.0}, "label": "C", "xyz": [-1.7104924576788139, 3.491254444833417, 3.1192785049020415]}, {"species": [{"element": "C", "occu": 1}], "abc": [0.47108515, 0.17271167, 0.34766964], "properties": {"magmom": -0.0}, "label": "C", "xyz": [1.7104924576788139, 3.0581778748334165, 1.2469369849020413]}, {"species": [{"element": "C", "occu": 1}], "abc": [0.82728833, 0.52891485, 0.15233036], "properties": {"magmom": -0.0}, "label": "C", "xyz": [1.7104924576788134, 5.939845395166583, 0.45461891509795854]}, {"species": [{"element": "C", "occu": 1}], "abc": [0.68926983, 0.98739318, 0.49153487], "properties": {"magmom": -0.0}, "label": "C", "xyz": [-1.7090585317198466, 7.606009128325775, 1.6974673254106467]}, {"species": [{"element": "C", "occu": 1}], "abc": [0.01260682, 0.31073017, 0.00846513], "properties": {"magmom": -0.0}, "label": "C", "xyz": [-1.7090585317198472, 1.3920141416742249, 0.004088574589353296]}, {"species": [{"element": "C", "occu": 1}], "abc": [0.31073017, 0.01260682, 0.50846513], "properties": {"magmom": -0.0}, "label": "C", "xyz": [1.7090585317198472, 1.8250907116742248, 1.8764300945893535]}, {"species": [{"element": "C", "occu": 1}], "abc": [0.98739318, 0.68926983, 0.9915348700000001], "properties": {"magmom": -0.0}, "label": "C", "xyz": [1.7090585317198466, 8.039085698325776, 3.569808845410647]}]}, "task_ids": null, "uncorrected_energy_per_atom": null, "energy_per_atom": -6.8780584425, "formation_energy_per_atom": 0.017207428499999, "energy_above_hull": 0.143420720749999, "is_stable": false, "equilibrium_reaction_energy_per_atom": null, "decomposes_to": null, "xas": null, "grain_boundaries": null, "band_gap": 1.969799999999999, "cbm": null, "vbm": null, "efermi": 0.20721225000000001, "is_gap_direct": null, "is_metal": null, "es_source_calc_id": null, "bandstructure": null, "dos": null, "dos_energy_up": null, "dos_energy_down": null, "is_magnetic": null, "ordering": null, "total_magnetization": 0.0, "total_magnetization_normalized_vol": null, "total_magnetization_normalized_formula_units": null, "num_magnetic_sites": null, "num_unique_magnetic_sites": null, "types_of_magnetic_species": null, "bulk_modulus": null, "shear_modulus": null, "universal_anisotropy": null, "homogeneous_poisson": null, "e_total": null, "e_ionic": null, "e_electronic": null, "n": null, "e_ij_max": null, "weighted_surface_energy_EV_PER_ANG2": null, "weighted_surface_energy": null, "weighted_work_function": null, "surface_anisotropy": null, "shape_factor": null, "has_reconstructed": null, "possible_species": null, "has_props": null, "theoretical": null, "database_IDs": null, "fields_not_requested": ["builder_meta", "nsites", "elements", "nelements", "composition", "composition_reduced", "chemsys", "symmetry", "property_name", "deprecated", "deprecation_reasons", "last_updated", "origins", "warnings", "task_ids", "uncorrected_energy_per_atom", "equilibrium_reaction_energy_per_atom", "decomposes_to", "xas", "grain_boundaries", "cbm", "vbm", "is_gap_direct", "is_metal", "es_source_calc_id", "bandstructure", "dos", "dos_energy_up", "dos_energy_down", "is_magnetic", "ordering", "total_magnetization_normalized_vol", "total_magnetization_normalized_formula_units", "num_magnetic_sites", "num_unique_magnetic_sites", "types_of_magnetic_species", "bulk_modulus", "shear_modulus", "universal_anisotropy", "homogeneous_poisson", "e_total", "e_ionic", "e_electronic", "n", "e_ij_max", "weighted_surface_energy_EV_PER_ANG2", "weighted_surface_energy", "weighted_work_function", "surface_anisotropy", "shape_factor", "has_reconstructed", "possible_species", "has_props", "theoretical", "database_IDs"]}