{
  "builder_meta": null,
  "nsites": null,
  "elements": null,
  "nelements": null,
  "composition": null,
  "composition_reduced": null,
  "formula_pretty": "H2O",
  "formula_anonymous": "AB2",
  "chemsys": null,
  "volume": 115.06958218241854,
  "density": 1.039895189271257,
  "density_atomic": 9.589131848534878,
  "symmetry": null,
  "property_name": null,
  "material_id": "mp-697111",
  "deprecated": null,
  "deprecation_reasons": null,
  "last_updated": null,
  "origins": null,
  "warnings": null,
  "structure": {
    "@module": "pymatgen.core.structure",
    "@class": "Structure",
    "charge": 0,
    "lattice": {
      "matrix": [
        [2.16330216, 3.76300538, 0.0],
        [-2.16330216, 3.76300538, 0.0],
        [0.0, 0.0, 7.06770668]
      ],
      "pbc": [true, true, true],
      "a": 4.3405167578722255,
      "b": 4.3405167578722255,
      "c": 7.06770668,
      "alpha": 90.0,
      "beta": 90.0,
      "gamma": 59.78805546106612,
      "volume": 115.06958218241854
    },
    "properties": {},
    "sites": [
      {
        "species": [{ "element": "H", "occu": 1 }],
        "abc": [0.33603074, 0.33603074, 0.70070179],
        "properties": { "magmom": 0.0 },
        "label": "H",
        "xyz": [0.0, 2.5289709649307626, 4.9523547218709565]
      },
      {
        "species": [{ "element": "H", "occu": 1 }],
        "abc": [0.66396926, 0.66396926, 0.20070179],
        "properties": { "magmom": 0.0 },
        "label": "H",
        "xyz": [0.0, 4.997039795069238, 1.418501381870957]
      },
      {
        "species": [{ "element": "H", "occu": 1 }],
        "abc": [0.46046973, 0.46046973, 0.51645832],
        "properties": { "magmom": 0.0 },
        "label": "H",
        "xyz": [0.0, 3.465500142634295, 3.6501759182055777]
      },
      {
        "species": [{ "element": "H", "occu": 1 }],
        "abc": [0.53953027, 0.53953027, 0.016458320000000002],
        "properties": { "magmom": 0.0 },
        "label": "H",
        "xyz": [0.0, 4.060510617365705, 0.1163225782055776]
      },
      {
        "species": [{ "element": "H", "occu": 1 }],
        "abc": [0.9171189, 0.54712861, 0.48291244],
        "properties": { "magmom": 0.0 },
        "label": "H",
        "xyz": [0.8004007935360262, 5.509971257781604, 3.413083478043099]
      },
      {
        "species": [{ "element": "H", "occu": 1 }],
        "abc": [0.54712861, 0.9171189, 0.48291244],
        "properties": { "magmom": 0.0 },
        "label": "H",
        "xyz": [-0.8004007935360262, 5.509971257781604, 3.413083478043099]
      },
      {
        "species": [{ "element": "H", "occu": 1 }],
        "abc": [0.0828811, 0.45287139, 0.98291244],
        "properties": { "magmom": 0.0 },
        "label": "H",
        "xyz": [-0.8004007935360264, 2.016039502218396, 6.946936818043099]
      },
      {
        "species": [{ "element": "H", "occu": 1 }],
        "abc": [0.45287139, 0.0828811, 0.98291244],
        "properties": { "magmom": 0.0 },
        "label": "H",
        "xyz": [0.8004007935360264, 2.016039502218396, 6.946936818043099]
      },
      {
        "species": [{ "element": "O", "occu": 1 }],
        "abc": [0.33466271000000003, 0.33466271000000003, 0.55981199],
        "properties": { "magmom": -0.0 },
        "label": "O",
        "xyz": [0.0, 2.51867515643076, 3.9565869412670933]
      },
      {
        "species": [{ "element": "O", "occu": 1 }],
        "abc": [0.66533729, 0.66533729, 0.05981199],
        "properties": { "magmom": -0.0 },
        "label": "O",
        "xyz": [0.0, 5.00733560356924, 0.4227336012670932]
      },
      {
        "species": [{ "element": "O", "occu": 1 }],
        "abc": [0.66751863, 0.66751863, 0.43520003],
        "properties": { "magmom": -0.0 },
        "label": "O",
        "xyz": [0.0, 5.023752391880459, 3.0758661591672003]
      },
      {
        "species": [{ "element": "O", "occu": 1 }],
        "abc": [0.33248137, 0.33248137, 0.9352000300000001],
        "properties": { "magmom": -0.0 },
        "label": "O",
        "xyz": [0.0, 2.5022583681195414, 6.609719499167201]
      }
    ]
  },
  "task_ids": null,
  "uncorrected_energy_per_atom": null,
  "energy_per_atom": -5.192767620833333,
  "formation_energy_per_atom": -1.280002993333333,
  "energy_above_hull": 0.0,
  "is_stable": true,
  "equilibrium_reaction_energy_per_atom": null,
  "decomposes_to": null,
  "xas": null,
  "grain_boundaries": null,
  "band_gap": 5.520200000000001,
  "cbm": null,
  "vbm": null,
  "efermi": -4.07190744,
  "is_gap_direct": null,
  "is_metal": null,
  "es_source_calc_id": null,
  "bandstructure": null,
  "dos": null,
  "dos_energy_up": null,
  "dos_energy_down": null,
  "is_magnetic": null,
  "ordering": null,
  "total_magnetization": 0.0,
  "total_magnetization_normalized_vol": null,
  "total_magnetization_normalized_formula_units": null,
  "num_magnetic_sites": null,
  "num_unique_magnetic_sites": null,
  "types_of_magnetic_species": null,
  "bulk_modulus": null,
  "shear_modulus": null,
  "universal_anisotropy": null,
  "homogeneous_poisson": null,
  "e_total": null,
  "e_ionic": null,
  "e_electronic": null,
  "n": null,
  "e_ij_max": null,
  "weighted_surface_energy_EV_PER_ANG2": null,
  "weighted_surface_energy": null,
  "weighted_work_function": null,
  "surface_anisotropy": null,
  "shape_factor": null,
  "has_reconstructed": null,
  "possible_species": null,
  "has_props": null,
  "theoretical": null,
  "database_IDs": null,
  "fields_not_requested": [
    "builder_meta",
    "nsites",
    "elements",
    "nelements",
    "composition",
    "composition_reduced",
    "chemsys",
    "symmetry",
    "property_name",
    "deprecated",
    "deprecation_reasons",
    "last_updated",
    "origins",
    "warnings",
    "task_ids",
    "uncorrected_energy_per_atom",
    "equilibrium_reaction_energy_per_atom",
    "decomposes_to",
    "xas",
    "grain_boundaries",
    "cbm",
    "vbm",
    "is_gap_direct",
    "is_metal",
    "es_source_calc_id",
    "bandstructure",
    "dos",
    "dos_energy_up",
    "dos_energy_down",
    "is_magnetic",
    "ordering",
    "total_magnetization_normalized_vol",
    "total_magnetization_normalized_formula_units",
    "num_magnetic_sites",
    "num_unique_magnetic_sites",
    "types_of_magnetic_species",
    "bulk_modulus",
    "shear_modulus",
    "universal_anisotropy",
    "homogeneous_poisson",
    "e_total",
    "e_ionic",
    "e_electronic",
    "n",
    "e_ij_max",
    "weighted_surface_energy_EV_PER_ANG2",
    "weighted_surface_energy",
    "weighted_work_function",
    "surface_anisotropy",
    "shape_factor",
    "has_reconstructed",
    "possible_species",
    "has_props",
    "theoretical",
    "database_IDs"
  ]
}
