{
  "builder_meta": null,
  "nsites": null,
  "elements": null,
  "nelements": null,
  "composition": null,
  "composition_reduced": null,
  "formula_pretty": "H2O2",
  "formula_anonymous": "AB",
  "chemsys": null,
  "volume": 117.87786218832953,
  "density": 1.916651826876776,
  "density_atomic": 7.367366386770596,
  "symmetry": null,
  "property_name": null,
  "material_id": "mp-28015",
  "deprecated": null,
  "deprecation_reasons": null,
  "last_updated": null,
  "origins": null,
  "warnings": null,
  "structure": {
    "@module": "pymatgen.core.structure",
    "@class": "Structure",
    "charge": 0,
    "lattice": {
      "matrix": [
        [3.9676918, -0.0, -0.0],
        [-0.0, 3.9676918, 0.0],
        [-0.0, 0.0, 7.48783716]
      ],
      "pbc": [true, true, true],
      "a": 3.9676918,
      "b": 3.9676918,
      "c": 7.48783716,
      "alpha": 90.0,
      "beta": 90.0,
      "gamma": 90.0,
      "volume": 117.87786218832953
    },
    "properties": {},
    "sites": [
      {
        "species": [{ "element": "H", "occu": 1 }],
        "abc": [0.70645716, 0.06042398, 0.37792361],
        "properties": { "magmom": 0.0 },
        "label": "H",
        "xyz": [2.8030042807832882, 0.239743729969364, 2.8298304505993475]
      },
      {
        "species": [{ "element": "H", "occu": 1 }],
        "abc": [0.29354284, 0.9395760200000001, 0.87792361],
        "properties": { "magmom": 0.0 },
        "label": "H",
        "xyz": [1.164687519216712, 3.727948070030636, 6.573749030599347]
      },
      {
        "species": [{ "element": "H", "occu": 1 }],
        "abc": [0.06042398, 0.70645716, 0.62207639],
        "properties": { "magmom": 0.0 },
        "label": "H",
        "xyz": [0.239743729969364, 2.8030042807832882, 4.658006709400652]
      },
      {
        "species": [{ "element": "H", "occu": 1 }],
        "abc": [0.56042398, 0.79354284, 0.12792361],
        "properties": { "magmom": 0.0 },
        "label": "H",
        "xyz": [2.2235896299693643, 3.1485334192167116, 0.9578711605993475]
      },
      {
        "species": [{ "element": "H", "occu": 1 }],
        "abc": [0.43957602, 0.20645716, 0.62792361],
        "properties": { "magmom": 0.0 },
        "label": "H",
        "xyz": [1.744102170030636, 0.819158380783288, 4.701789740599347]
      },
      {
        "species": [{ "element": "H", "occu": 1 }],
        "abc": [0.79354284, 0.56042398, 0.87207639],
        "properties": { "magmom": 0.0 },
        "label": "H",
        "xyz": [3.1485334192167116, 2.2235896299693643, 6.529965999400653]
      },
      {
        "species": [{ "element": "H", "occu": 1 }],
        "abc": [0.20645716, 0.43957602, 0.37207639000000003],
        "properties": { "magmom": 0.0 },
        "label": "H",
        "xyz": [0.819158380783288, 1.744102170030636, 2.7860474194006524]
      },
      {
        "species": [{ "element": "H", "occu": 1 }],
        "abc": [0.9395760200000001, 0.29354284, 0.12207639],
        "properties": { "magmom": 0.0 },
        "label": "H",
        "xyz": [3.727948070030636, 1.164687519216712, 0.9140881294006524]
      },
      {
        "species": [{ "element": "O", "occu": 1 }],
        "abc": [0.82630187, 0.92967769, 0.28307212],
        "properties": { "magmom": -0.0 },
        "label": "O",
        "xyz": [3.2785111539236658, 3.6886745472559417, 2.119597939095979]
      },
      {
        "species": [{ "element": "O", "occu": 1 }],
        "abc": [0.17369813, 0.07032231, 0.78307212],
        "properties": { "magmom": -0.0 },
        "label": "O",
        "xyz": [0.689180646076334, 0.279017252744058, 5.863516519095979]
      },
      {
        "species": [{ "element": "O", "occu": 1 }],
        "abc": [0.92967769, 0.82630187, 0.71692788],
        "properties": { "magmom": -0.0 },
        "label": "O",
        "xyz": [3.6886745472559417, 3.2785111539236658, 5.36823922090402]
      },
      {
        "species": [{ "element": "O", "occu": 1 }],
        "abc": [0.42967769, 0.67369813, 0.03307212],
        "properties": { "magmom": -0.0 },
        "label": "O",
        "xyz": [1.704828647255942, 2.673026546076334, 0.2476386490959792]
      },
      {
        "species": [{ "element": "O", "occu": 1 }],
        "abc": [0.57032231, 0.32630187, 0.53307212],
        "properties": { "magmom": -0.0 },
        "label": "O",
        "xyz": [2.262863152744058, 1.2946652539236658, 3.9915572290959793]
      },
      {
        "species": [{ "element": "O", "occu": 1 }],
        "abc": [0.67369813, 0.42967769, 0.9669278800000001],
        "properties": { "magmom": -0.0 },
        "label": "O",
        "xyz": [2.673026546076334, 1.704828647255942, 7.240198510904021]
      },
      {
        "species": [{ "element": "O", "occu": 1 }],
        "abc": [0.32630187, 0.57032231, 0.46692788],
        "properties": { "magmom": -0.0 },
        "label": "O",
        "xyz": [1.2946652539236658, 2.262863152744058, 3.496279930904021]
      },
      {
        "species": [{ "element": "O", "occu": 1 }],
        "abc": [0.07032231, 0.17369813, 0.21692788000000002],
        "properties": { "magmom": -0.0 },
        "label": "O",
        "xyz": [0.279017252744058, 0.689180646076334, 1.624320640904021]
      }
    ]
  },
  "task_ids": null,
  "uncorrected_energy_per_atom": null,
  "energy_per_atom": -5.045529340624999,
  "formation_energy_per_atom": -0.8739656187499991,
  "energy_above_hull": 0.08603662625000001,
  "is_stable": false,
  "equilibrium_reaction_energy_per_atom": null,
  "decomposes_to": null,
  "xas": null,
  "grain_boundaries": null,
  "band_gap": 4.4853,
  "cbm": null,
  "vbm": null,
  "efermi": -1.4045261,
  "is_gap_direct": null,
  "is_metal": null,
  "es_source_calc_id": null,
  "bandstructure": null,
  "dos": null,
  "dos_energy_up": null,
  "dos_energy_down": null,
  "is_magnetic": null,
  "ordering": null,
  "total_magnetization": 0.0,
  "total_magnetization_normalized_vol": null,
  "total_magnetization_normalized_formula_units": null,
  "num_magnetic_sites": null,
  "num_unique_magnetic_sites": null,
  "types_of_magnetic_species": null,
  "bulk_modulus": null,
  "shear_modulus": null,
  "universal_anisotropy": null,
  "homogeneous_poisson": null,
  "e_total": null,
  "e_ionic": null,
  "e_electronic": null,
  "n": null,
  "e_ij_max": null,
  "weighted_surface_energy_EV_PER_ANG2": null,
  "weighted_surface_energy": null,
  "weighted_work_function": null,
  "surface_anisotropy": null,
  "shape_factor": null,
  "has_reconstructed": null,
  "possible_species": null,
  "has_props": null,
  "theoretical": null,
  "database_IDs": null,
  "fields_not_requested": [
    "builder_meta",
    "nsites",
    "elements",
    "nelements",
    "composition",
    "composition_reduced",
    "chemsys",
    "symmetry",
    "property_name",
    "deprecated",
    "deprecation_reasons",
    "last_updated",
    "origins",
    "warnings",
    "task_ids",
    "uncorrected_energy_per_atom",
    "equilibrium_reaction_energy_per_atom",
    "decomposes_to",
    "xas",
    "grain_boundaries",
    "cbm",
    "vbm",
    "is_gap_direct",
    "is_metal",
    "es_source_calc_id",
    "bandstructure",
    "dos",
    "dos_energy_up",
    "dos_energy_down",
    "is_magnetic",
    "ordering",
    "total_magnetization_normalized_vol",
    "total_magnetization_normalized_formula_units",
    "num_magnetic_sites",
    "num_unique_magnetic_sites",
    "types_of_magnetic_species",
    "bulk_modulus",
    "shear_modulus",
    "universal_anisotropy",
    "homogeneous_poisson",
    "e_total",
    "e_ionic",
    "e_electronic",
    "n",
    "e_ij_max",
    "weighted_surface_energy_EV_PER_ANG2",
    "weighted_surface_energy",
    "weighted_work_function",
    "surface_anisotropy",
    "shape_factor",
    "has_reconstructed",
    "possible_species",
    "has_props",
    "theoretical",
    "database_IDs"
  ]
}
