{"builder_meta": null, "nsites": null, "elements": null, "nelements": null, "composition": null, "composition_reduced": null, "formula_pretty": "H2S", "formula_anonymous": "AB2", "chemsys": null, "volume": 361.08308841841705, "density": 1.253841777237221, "density_atomic": 15.04512868410071, "symmetry": null, "property_name": null, "material_id": "mp-696805", "deprecated": null, "deprecation_reasons": null, "last_updated": null, "origins": null, "warnings": null, "structure": {"@module": "pymatgen.core.structure", "@class": "Structure", "charge": 0, "lattice": {"matrix": [[4.14585307, 0.0, -0.0], [0.0, 13.12324954, 0.0], [-0.0, 0.0, 6.63669493]], "pbc": [true, true, true], "a": 4.14585307, "b": 13.12324954, "c": 6.63669493, "alpha": 90.0, "beta": 90.0, "gamma": 90.0, "volume": 361.08308841841705}, "properties": {}, "sites": [{"species": [{"element": "H", "occu": 1}], "abc": [0.17609305, 0.27916744, 0.75], "properties": {"magmom": -0.0}, "label": "H", "xyz": [0.7300559119481635, 3.6635839785629774, 4.9775211975]}, {"species": [{"element": "H", "occu": 1}], "abc": [0.82390695, 0.7208325600000001, 0.25], "properties": {"magmom": -0.0}, "label": "H", "xyz": [3.415797158051837, 9.459665561437022, 1.6591737325]}, {"species": [{"element": "H", "occu": 1}], "abc": [0.17609305, 0.22083256, 0.25], "properties": {"magmom": -0.0}, "label": "H", "xyz": [0.7300559119481635, 2.8980407914370225, 1.6591737325]}, {"species": [{"element": "H", "occu": 1}], "abc": [0.82390695, 0.77916744, 0.75], "properties": {"magmom": -0.0}, "label": "H", "xyz": [3.415797158051837, 10.225208748562977, 4.9775211975]}, {"species": [{"element": "H", "occu": 1}], "abc": [0.19426601000000002, 0.42911447, 0.75], "properties": {"magmom": 0.0}, "label": "H", "xyz": [0.8053983339551508, 5.631376271034844, 4.9775211975]}, {"species": [{"element": "H", "occu": 1}], "abc": [0.80573399, 0.57088553, 0.25], "properties": {"magmom": 0.0}, "label": "H", "xyz": [3.3404547360448493, 7.491873268965156, 1.6591737325]}, {"species": [{"element": "H", "occu": 1}], "abc": [0.19426601000000002, 0.07088553, 0.25], "properties": {"magmom": 0.0}, "label": "H", "xyz": [0.8053983339551508, 0.9302484989651562, 1.6591737325]}, {"species": [{"element": "H", "occu": 1}], "abc": [0.80573399, 0.92911447, 0.75], "properties": {"magmom": 0.0}, "label": "H", "xyz": [3.3404547360448493, 12.193001041034844, 4.9775211975]}, {"species": [{"element": "H", "occu": 1}], "abc": [0.68306886, 0.12339868, 0.60158806], "properties": {"magmom": 0.0}, "label": "H", "xyz": [2.8319031302524005, 1.6193916705466072, 3.992556427750536]}, {"species": [{"element": "H", "occu": 1}], "abc": [0.31693114, 0.87660132, 0.10158806000000001], "properties": {"magmom": 0.0}, "label": "H", "xyz": [1.3139499397475998, 11.503857869453393, 0.6742089627505359]}, {"species": [{"element": "H", "occu": 1}], "abc": [0.68306886, 0.37660132, 0.39841194], "properties": {"magmom": 0.0}, "label": "H", "xyz": [2.8319031302524005, 4.942233099453393, 2.644138502249464]}, {"species": [{"element": "H", "occu": 1}], "abc": [0.31693114, 0.62339868, 0.89841194], "properties": {"magmom": 0.0}, "label": "H", "xyz": [1.3139499397475998, 8.181016440546607, 5.962485967249465]}, {"species": [{"element": "H", "occu": 1}], "abc": [0.31693114, 0.87660132, 0.39841194], "properties": {"magmom": 0.0}, "label": "H", "xyz": [1.3139499397475998, 11.503857869453393, 2.644138502249464]}, {"species": [{"element": "H", "occu": 1}], "abc": [0.68306886, 0.12339868, 0.89841194], "properties": {"magmom": 0.0}, "label": "H", "xyz": [2.8319031302524005, 1.6193916705466072, 5.962485967249465]}, {"species": [{"element": "H", "occu": 1}], "abc": [0.31693114, 0.62339868, 0.60158806], "properties": {"magmom": 0.0}, "label": "H", "xyz": [1.3139499397475998, 8.181016440546607, 3.992556427750536]}, {"species": [{"element": "H", "occu": 1}], "abc": [0.68306886, 0.37660132, 0.10158806000000001], "properties": {"magmom": 0.0}, "label": "H", "xyz": [2.8319031302524005, 4.942233099453393, 0.6742089627505359]}, {"species": [{"element": "S", "occu": 1}], "abc": [0.962723999999999, 0.35691115, 0.75], "properties": {"magmom": -0.0}, "label": "S", "xyz": [3.991312250962676, 4.683834085058371, 4.9775211975]}, {"species": [{"element": "S", "occu": 1}], "abc": [0.037276, 0.64308885, 0.25], "properties": {"magmom": -0.0}, "label": "S", "xyz": [0.15454081903732, 8.43941545494163, 1.6591737325]}, {"species": [{"element": "S", "occu": 1}], "abc": [0.962723999999999, 0.14308885, 0.25], "properties": {"magmom": -0.0}, "label": "S", "xyz": [3.991312250962676, 1.8777906849416288, 1.6591737325]}, {"species": [{"element": "S", "occu": 1}], "abc": [0.037276, 0.8569111500000001, 0.75], "properties": {"magmom": -0.0}, "label": "S", "xyz": [0.15454081903732, 11.245458855058372, 4.9775211975]}, {"species": [{"element": "S", "occu": 1}], "abc": [0.46906615, 0.10400671, 0.75], "properties": {"magmom": -0.0}, "label": "S", "xyz": [1.9446793380105807, 1.3649060091644134, 4.9775211975]}, {"species": [{"element": "S", "occu": 1}], "abc": [0.53093385, 0.89599329, 0.25], "properties": {"magmom": -0.0}, "label": "S", "xyz": [2.20117373198942, 11.758343530835587, 1.6591737325]}, {"species": [{"element": "S", "occu": 1}], "abc": [0.46906615, 0.39599329, 0.25], "properties": {"magmom": -0.0}, "label": "S", "xyz": [1.9446793380105807, 5.196718760835586, 1.6591737325]}, {"species": [{"element": "S", "occu": 1}], "abc": [0.53093385, 0.6040067100000001, 0.75], "properties": {"magmom": -0.0}, "label": "S", "xyz": [2.20117373198942, 7.926530779164414, 4.9775211975]}]}, "task_ids": null, "uncorrected_energy_per_atom": null, "energy_per_atom": -5.152175359583333, "formation_energy_per_atom": -0.1704340646875, "energy_above_hull": 0.0, "is_stable": true, "equilibrium_reaction_energy_per_atom": null, "decomposes_to": null, "xas": null, "grain_boundaries": null, "band_gap": 4.3246, "cbm": null, "vbm": null, "efermi": -1.36219139, "is_gap_direct": null, "is_metal": null, "es_source_calc_id": null, "bandstructure": null, "dos": null, "dos_energy_up": null, "dos_energy_down": null, "is_magnetic": null, "ordering": null, "total_magnetization": 0.0, "total_magnetization_normalized_vol": null, "total_magnetization_normalized_formula_units": null, "num_magnetic_sites": null, "num_unique_magnetic_sites": null, "types_of_magnetic_species": null, "bulk_modulus": null, "shear_modulus": null, "universal_anisotropy": null, "homogeneous_poisson": null, "e_total": null, "e_ionic": null, "e_electronic": null, "n": null, "e_ij_max": null, "weighted_surface_energy_EV_PER_ANG2": null, "weighted_surface_energy": null, "weighted_work_function": null, "surface_anisotropy": null, "shape_factor": null, "has_reconstructed": null, "possible_species": null, "has_props": null, "theoretical": null, "database_IDs": null, "fields_not_requested": ["builder_meta", "nsites", "elements", "nelements", "composition", "composition_reduced", "chemsys", "symmetry", "property_name", "deprecated", "deprecation_reasons", "last_updated", "origins", "warnings", "task_ids", "uncorrected_energy_per_atom", "equilibrium_reaction_energy_per_atom", "decomposes_to", "xas", "grain_boundaries", "cbm", "vbm", "is_gap_direct", "is_metal", "es_source_calc_id", "bandstructure", "dos", "dos_energy_up", "dos_energy_down", "is_magnetic", "ordering", "total_magnetization_normalized_vol", "total_magnetization_normalized_formula_units", "num_magnetic_sites", "num_unique_magnetic_sites", "types_of_magnetic_species", "bulk_modulus", "shear_modulus", "universal_anisotropy", "homogeneous_poisson", "e_total", "e_ionic", "e_electronic", "n", "e_ij_max", "weighted_surface_energy_EV_PER_ANG2", "weighted_surface_energy", "weighted_work_function", "surface_anisotropy", "shape_factor", "has_reconstructed", "possible_species", "has_props", "theoretical", "database_IDs"]}