{
  "builder_meta": null,
  "nsites": null,
  "elements": null,
  "nelements": null,
  "composition": null,
  "composition_reduced": null,
  "formula_pretty": "H2W",
  "formula_anonymous": "AB2",
  "chemsys": null,
  "volume": 84.49080634020984,
  "density": 14.61086538834209,
  "density_atomic": 7.040900528350821,
  "symmetry": null,
  "property_name": null,
  "material_id": "mp-1095432",
  "deprecated": null,
  "deprecation_reasons": null,
  "last_updated": null,
  "origins": null,
  "warnings": null,
  "structure": {
    "@module": "pymatgen.core.structure",
    "@class": "Structure",
    "charge": 0,
    "lattice": {
      "matrix": [
        [3.113467, 0.0, 0.0],
        [0.0, 5.059199, 0.0],
        [0.0, 0.0, 5.363934]
      ],
      "pbc": [true, true, true],
      "a": 3.113467,
      "b": 5.059199,
      "c": 5.363934,
      "alpha": 90.0,
      "beta": 90.0,
      "gamma": 90.0,
      "volume": 84.49080634020984
    },
    "properties": {},
    "sites": [
      {
        "species": [{ "element": "H", "occu": 1 }],
        "abc": [0.25, 0.612904999999999, 0.073947],
        "properties": { "magmom": 0.0 },
        "label": "H",
        "xyz": [0.77836675, 3.1008083630949947, 0.396646827498]
      },
      {
        "species": [{ "element": "H", "occu": 1 }],
        "abc": [0.25, 0.112904999999999, 0.426052999999999],
        "properties": { "magmom": 0.0 },
        "label": "H",
        "xyz": [0.77836675, 0.571208863094995, 2.285320172501995]
      },
      {
        "species": [{ "element": "H", "occu": 1 }],
        "abc": [0.75, 0.387094999999999, 0.9260529999999991],
        "properties": { "magmom": 0.0 },
        "label": "H",
        "xyz": [2.33510025, 1.9583906369049948, 4.967287172501996]
      },
      {
        "species": [{ "element": "H", "occu": 1 }],
        "abc": [0.75, 0.887095, 0.573947],
        "properties": { "magmom": 0.0 },
        "label": "H",
        "xyz": [2.33510025, 4.487990136904999, 3.078613827498]
      },
      {
        "species": [{ "element": "H", "occu": 1 }],
        "abc": [0.25, 0.475352999999999, 0.669831],
        "properties": { "magmom": -0.0 },
        "label": "H",
        "xyz": [0.77836675, 2.404905422246995, 3.592929275154]
      },
      {
        "species": [{ "element": "H", "occu": 1 }],
        "abc": [0.25, 0.975352999999999, 0.830168999999999],
        "properties": { "magmom": -0.0 },
        "label": "H",
        "xyz": [0.77836675, 4.934504922246995, 4.4529717248459955]
      },
      {
        "species": [{ "element": "H", "occu": 1 }],
        "abc": [0.75, 0.524647, 0.330169],
        "properties": { "magmom": -0.0 },
        "label": "H",
        "xyz": [2.33510025, 2.6542935777529997, 1.7710047248460001]
      },
      {
        "species": [{ "element": "H", "occu": 1 }],
        "abc": [0.75, 0.024647, 0.169830999999999],
        "properties": { "magmom": -0.0 },
        "label": "H",
        "xyz": [2.33510025, 0.12469407775299998, 0.9109622751539947]
      },
      {
        "species": [{ "element": "W", "occu": 1 }],
        "abc": [0.75, 0.771254, 0.914055],
        "properties": { "magmom": 0.0 },
        "label": "W",
        "xyz": [2.33510025, 3.9019274655459997, 4.90293069237]
      },
      {
        "species": [{ "element": "W", "occu": 1 }],
        "abc": [0.75, 0.271254, 0.585944999999999],
        "properties": { "magmom": 0.0 },
        "label": "W",
        "xyz": [2.33510025, 1.372327965546, 3.1429703076299953]
      },
      {
        "species": [{ "element": "W", "occu": 1 }],
        "abc": [0.25, 0.228745999999999, 0.085945],
        "properties": { "magmom": 0.0 },
        "label": "W",
        "xyz": [0.77836675, 1.1572715344539948, 0.46100330763]
      },
      {
        "species": [{ "element": "W", "occu": 1 }],
        "abc": [0.25, 0.728746, 0.414055],
        "properties": { "magmom": 0.0 },
        "label": "W",
        "xyz": [0.77836675, 3.6868710344539997, 2.2209636923700002]
      }
    ]
  },
  "task_ids": null,
  "uncorrected_energy_per_atom": null,
  "energy_per_atom": -19.245952749999997,
  "formation_energy_per_atom": 0.18005364416666902,
  "energy_above_hull": 0.18005364416666902,
  "is_stable": false,
  "equilibrium_reaction_energy_per_atom": null,
  "decomposes_to": null,
  "xas": null,
  "grain_boundaries": null,
  "band_gap": 0.0,
  "cbm": null,
  "vbm": null,
  "efermi": 7.19918596,
  "is_gap_direct": null,
  "is_metal": null,
  "es_source_calc_id": null,
  "bandstructure": null,
  "dos": null,
  "dos_energy_up": null,
  "dos_energy_down": null,
  "is_magnetic": null,
  "ordering": null,
  "total_magnetization": 0.0030696,
  "total_magnetization_normalized_vol": null,
  "total_magnetization_normalized_formula_units": null,
  "num_magnetic_sites": null,
  "num_unique_magnetic_sites": null,
  "types_of_magnetic_species": null,
  "bulk_modulus": null,
  "shear_modulus": null,
  "universal_anisotropy": null,
  "homogeneous_poisson": null,
  "e_total": null,
  "e_ionic": null,
  "e_electronic": null,
  "n": null,
  "e_ij_max": null,
  "weighted_surface_energy_EV_PER_ANG2": null,
  "weighted_surface_energy": null,
  "weighted_work_function": null,
  "surface_anisotropy": null,
  "shape_factor": null,
  "has_reconstructed": null,
  "possible_species": null,
  "has_props": null,
  "theoretical": null,
  "database_IDs": null,
  "fields_not_requested": [
    "builder_meta",
    "nsites",
    "elements",
    "nelements",
    "composition",
    "composition_reduced",
    "chemsys",
    "symmetry",
    "property_name",
    "deprecated",
    "deprecation_reasons",
    "last_updated",
    "origins",
    "warnings",
    "task_ids",
    "uncorrected_energy_per_atom",
    "equilibrium_reaction_energy_per_atom",
    "decomposes_to",
    "xas",
    "grain_boundaries",
    "cbm",
    "vbm",
    "is_gap_direct",
    "is_metal",
    "es_source_calc_id",
    "bandstructure",
    "dos",
    "dos_energy_up",
    "dos_energy_down",
    "is_magnetic",
    "ordering",
    "total_magnetization_normalized_vol",
    "total_magnetization_normalized_formula_units",
    "num_magnetic_sites",
    "num_unique_magnetic_sites",
    "types_of_magnetic_species",
    "bulk_modulus",
    "shear_modulus",
    "universal_anisotropy",
    "homogeneous_poisson",
    "e_total",
    "e_ionic",
    "e_electronic",
    "n",
    "e_ij_max",
    "weighted_surface_energy_EV_PER_ANG2",
    "weighted_surface_energy",
    "weighted_work_function",
    "surface_anisotropy",
    "shape_factor",
    "has_reconstructed",
    "possible_species",
    "has_props",
    "theoretical",
    "database_IDs"
  ]
}
