{
  "builder_meta": null,
  "nsites": null,
  "elements": null,
  "nelements": null,
  "composition": null,
  "composition_reduced": null,
  "formula_pretty": "H3F2",
  "formula_anonymous": "A2B3",
  "chemsys": null,
  "volume": 107.89760004773296,
  "density": 1.262611080199545,
  "density_atomic": 10.789760004773296,
  "symmetry": null,
  "property_name": null,
  "material_id": "mp-1184796",
  "deprecated": null,
  "deprecation_reasons": null,
  "last_updated": null,
  "origins": null,
  "warnings": null,
  "structure": {
    "@module": "pymatgen.core.structure",
    "@class": "Structure",
    "charge": 0,
    "lattice": {
      "matrix": [
        [-5.401238, 0.04743000000000001, 0.029390999999999],
        [2.716311, -3.390825, -0.371274],
        [-2.700966, 1.364799, 6.089753]
      ],
      "pbc": [true, true, true],
      "a": 5.401526207325574,
      "b": 4.360491258152228,
      "c": 6.800219499734255,
      "alpha": 118.66849261402638,
      "beta": 66.18392803308147,
      "gamma": 129.0645242921216,
      "volume": 107.89760004773296
    },
    "properties": {},
    "sites": [
      {
        "species": [{ "element": "H", "occu": 1 }],
        "abc": [0.775455999999999, 0.306857999999999, 0.208347],
        "properties": { "magmom": -0.0 },
        "label": "H",
        "xyz": [-3.9176388168919978, -0.7193701225169968, 1.1776447984949996]
      },
      {
        "species": [{ "element": "H", "occu": 1 }],
        "abc": [0.769212999999999, 0.826056, 0.241844999999999],
        "properties": { "magmom": -0.0 },
        "label": "H",
        "xyz": [-2.564092608547992, -2.4344577494550017, 1.188691138223993]
      },
      {
        "species": [{ "element": "H", "occu": 1 }],
        "abc": [0.27027, 0.428928, 0.458474999999999],
        "properties": { "magmom": 0.0 },
        "label": "H",
        "xyz": [-1.5330161365019976, -0.8158746579750012, 2.6406931979729937]
      },
      {
        "species": [{ "element": "H", "occu": 1 }],
        "abc": [0.320471, 0.608136999999999, 0.564723],
        "properties": { "magmom": 0.0 },
        "label": "H",
        "xyz": [-1.6043485429090028, -1.2761528178179966, 3.222657090042]
      },
      {
        "species": [{ "element": "H", "occu": 1 }],
        "abc": [0.182479, 0.166987, 0.751844],
        "properties": { "magmom": -0.0 },
        "label": "H",
        "xyz": [-2.562728965349, 0.468547224051, 4.521909563383]
      },
      {
        "species": [{ "element": "H", "occu": 1 }],
        "abc": [0.675856, 0.683041, 0.786982],
        "properties": { "magmom": -0.0 },
        "label": "H",
        "xyz": [-3.920718952589, -1.2099444021270003, 4.558794714907999]
      },
      {
        "species": [{ "element": "F", "occu": 1 }],
        "abc": [0.780279, 0.454686999999999, 0.130657],
        "properties": { "magmom": -0.0 },
        "label": "F",
        "xyz": [-3.332301400407002, -1.3264348708619969, 0.6497885765719995]
      },
      {
        "species": [{ "element": "F", "occu": 1 }],
        "abc": [0.777440999999999, 0.091465999999999, 0.314878999999999],
        "properties": { "magmom": -0.0 },
        "label": "F",
        "xyz": [-4.801171243145995, 0.156475371501002, 1.9064261556339936]
      },
      {
        "species": [{ "element": "F", "occu": 1 }],
        "abc": [0.9933289999999991, 0.910547999999999, 0.675133],
        "properties": { "magmom": -0.0 },
        "label": "F",
        "xyz": [-4.715386071351998, -2.1189744843629965, 3.8025253466359996]
      },
      {
        "species": [{ "element": "F", "occu": 1 }],
        "abc": [0.45522, 0.52329, 0.867105999999999],
        "properties": { "magmom": -0.0 },
        "label": "F",
        "xyz": [-3.3793570035659974, -0.5693683279560013, 5.0995567643779935]
      }
    ]
  },
  "task_ids": null,
  "uncorrected_energy_per_atom": null,
  "energy_per_atom": -4.209631617,
  "formation_energy_per_atom": -1.406990803749999,
  "energy_above_hull": 0.0,
  "is_stable": true,
  "equilibrium_reaction_energy_per_atom": null,
  "decomposes_to": null,
  "xas": null,
  "grain_boundaries": null,
  "band_gap": 8.0745,
  "cbm": null,
  "vbm": null,
  "efermi": 2.05086096,
  "is_gap_direct": null,
  "is_metal": null,
  "es_source_calc_id": null,
  "bandstructure": null,
  "dos": null,
  "dos_energy_up": null,
  "dos_energy_down": null,
  "is_magnetic": null,
  "ordering": null,
  "total_magnetization": 0.00021659999999900002,
  "total_magnetization_normalized_vol": null,
  "total_magnetization_normalized_formula_units": null,
  "num_magnetic_sites": null,
  "num_unique_magnetic_sites": null,
  "types_of_magnetic_species": null,
  "bulk_modulus": null,
  "shear_modulus": null,
  "universal_anisotropy": null,
  "homogeneous_poisson": null,
  "e_total": null,
  "e_ionic": null,
  "e_electronic": null,
  "n": null,
  "e_ij_max": null,
  "weighted_surface_energy_EV_PER_ANG2": null,
  "weighted_surface_energy": null,
  "weighted_work_function": null,
  "surface_anisotropy": null,
  "shape_factor": null,
  "has_reconstructed": null,
  "possible_species": null,
  "has_props": null,
  "theoretical": null,
  "database_IDs": null,
  "fields_not_requested": [
    "builder_meta",
    "nsites",
    "elements",
    "nelements",
    "composition",
    "composition_reduced",
    "chemsys",
    "symmetry",
    "property_name",
    "deprecated",
    "deprecation_reasons",
    "last_updated",
    "origins",
    "warnings",
    "task_ids",
    "uncorrected_energy_per_atom",
    "equilibrium_reaction_energy_per_atom",
    "decomposes_to",
    "xas",
    "grain_boundaries",
    "cbm",
    "vbm",
    "is_gap_direct",
    "is_metal",
    "es_source_calc_id",
    "bandstructure",
    "dos",
    "dos_energy_up",
    "dos_energy_down",
    "is_magnetic",
    "ordering",
    "total_magnetization_normalized_vol",
    "total_magnetization_normalized_formula_units",
    "num_magnetic_sites",
    "num_unique_magnetic_sites",
    "types_of_magnetic_species",
    "bulk_modulus",
    "shear_modulus",
    "universal_anisotropy",
    "homogeneous_poisson",
    "e_total",
    "e_ionic",
    "e_electronic",
    "n",
    "e_ij_max",
    "weighted_surface_energy_EV_PER_ANG2",
    "weighted_surface_energy",
    "weighted_work_function",
    "surface_anisotropy",
    "shape_factor",
    "has_reconstructed",
    "possible_species",
    "has_props",
    "theoretical",
    "database_IDs"
  ]
}
