{"builder_meta": null, "nsites": null, "elements": null, "nelements": null, "composition": null, "composition_reduced": null, "formula_pretty": "H3N", "formula_anonymous": "AB3", "chemsys": null, "volume": 126.62415197784367, "density": 0.893347543664843, "density_atomic": 7.914009498615229, "symmetry": null, "property_name": null, "material_id": "mp-29145", "deprecated": null, "deprecation_reasons": null, "last_updated": null, "origins": null, "warnings": null, "structure": {"@module": "pymatgen.core.structure", "@class": "Structure", "charge": 0, "lattice": {"matrix": [[5.02156224, -0.0, 0.0], [0.0, 5.02156224, 0.0], [-0.0, -0.0, 5.02156224]], "pbc": [true, true, true], "a": 5.02156224, "b": 5.02156224, "c": 5.02156224, "alpha": 90.0, "beta": 90.0, "gamma": 90.0, "volume": 126.62415197784367}, "properties": {}, "sites": [{"species": [{"element": "H", "occu": 1}], "abc": [0.13483255, 0.72585228, 0.6017114100000001], "properties": {"magmom": -0.0}, "label": "H", "xyz": [0.677070041802912, 3.6449124010659073, 3.0215312958331584]}, {"species": [{"element": "H", "occu": 1}], "abc": [0.63483255, 0.77414772, 0.39828859], "properties": {"magmom": -0.0}, "label": "H", "xyz": [3.187851161802912, 3.8874309589340923, 2.0000309441668414]}, {"species": [{"element": "H", "occu": 1}], "abc": [0.8651674500000001, 0.22585228000000002, 0.89828859], "properties": {"magmom": -0.0}, "label": "H", "xyz": [4.344492198197088, 1.1341312810659072, 4.510812064166841]}, {"species": [{"element": "H", "occu": 1}], "abc": [0.77414772, 0.39828859, 0.63483255], "properties": {"magmom": -0.0}, "label": "H", "xyz": [3.8874309589340923, 2.0000309441668414, 3.187851161802912]}, {"species": [{"element": "H", "occu": 1}], "abc": [0.36516745, 0.27414772, 0.10171141], "properties": {"magmom": -0.0}, "label": "H", "xyz": [1.833711078197088, 1.3766498389340927, 0.5107501758331584]}, {"species": [{"element": "H", "occu": 1}], "abc": [0.10171141, 0.36516745, 0.27414772], "properties": {"magmom": -0.0}, "label": "H", "xyz": [0.5107501758331584, 1.833711078197088, 1.3766498389340927]}, {"species": [{"element": "H", "occu": 1}], "abc": [0.27414772, 0.10171141, 0.36516745], "properties": {"magmom": -0.0}, "label": "H", "xyz": [1.3766498389340927, 0.5107501758331584, 1.833711078197088]}, {"species": [{"element": "H", "occu": 1}], "abc": [0.22585228000000002, 0.89828859, 0.8651674500000001], "properties": {"magmom": -0.0}, "label": "H", "xyz": [1.1341312810659072, 4.510812064166841, 4.344492198197088]}, {"species": [{"element": "H", "occu": 1}], "abc": [0.6017114100000001, 0.13483255, 0.72585228], "properties": {"magmom": -0.0}, "label": "H", "xyz": [3.0215312958331584, 0.677070041802912, 3.6449124010659073]}, {"species": [{"element": "H", "occu": 1}], "abc": [0.72585228, 0.6017114100000001, 0.13483255], "properties": {"magmom": -0.0}, "label": "H", "xyz": [3.6449124010659073, 3.0215312958331584, 0.677070041802912]}, {"species": [{"element": "H", "occu": 1}], "abc": [0.39828859, 0.63483255, 0.77414772], "properties": {"magmom": -0.0}, "label": "H", "xyz": [2.0000309441668414, 3.187851161802912, 3.8874309589340923]}, {"species": [{"element": "H", "occu": 1}], "abc": [0.89828859, 0.8651674500000001, 0.22585228000000002], "properties": {"magmom": -0.0}, "label": "H", "xyz": [4.510812064166841, 4.344492198197088, 1.1341312810659072]}, {"species": [{"element": "N", "occu": 1}], "abc": [0.7956466400000001, 0.70435336, 0.29564664], "properties": {"magmom": -0.0}, "label": "N", "xyz": [3.995389123806874, 3.5369542361931265, 1.4846080038068736]}, {"species": [{"element": "N", "occu": 1}], "abc": [0.70435336, 0.29564664, 0.7956466400000001], "properties": {"magmom": -0.0}, "label": "N", "xyz": [3.5369542361931265, 1.4846080038068736, 3.995389123806874]}, {"species": [{"element": "N", "occu": 1}], "abc": [0.29564664, 0.7956466400000001, 0.70435336], "properties": {"magmom": -0.0}, "label": "N", "xyz": [1.4846080038068736, 3.995389123806874, 3.5369542361931265]}, {"species": [{"element": "N", "occu": 1}], "abc": [0.20435336, 0.20435336, 0.20435336], "properties": {"magmom": -0.0}, "label": "N", "xyz": [1.0261731161931265, 1.0261731161931265, 1.0261731161931265]}]}, "task_ids": null, "uncorrected_energy_per_atom": null, "energy_per_atom": -5.22238111, "formation_energy_per_atom": -0.34885914125, "energy_above_hull": 0.0, "is_stable": true, "equilibrium_reaction_energy_per_atom": null, "decomposes_to": null, "xas": null, "grain_boundaries": null, "band_gap": 4.3412, "cbm": null, "vbm": null, "efermi": -2.41444541, "is_gap_direct": null, "is_metal": null, "es_source_calc_id": null, "bandstructure": null, "dos": null, "dos_energy_up": null, "dos_energy_down": null, "is_magnetic": null, "ordering": null, "total_magnetization": 0.0, "total_magnetization_normalized_vol": null, "total_magnetization_normalized_formula_units": null, "num_magnetic_sites": null, "num_unique_magnetic_sites": null, "types_of_magnetic_species": null, "bulk_modulus": null, "shear_modulus": null, "universal_anisotropy": null, "homogeneous_poisson": null, "e_total": null, "e_ionic": null, "e_electronic": null, "n": null, "e_ij_max": null, "weighted_surface_energy_EV_PER_ANG2": null, "weighted_surface_energy": null, "weighted_work_function": null, "surface_anisotropy": null, "shape_factor": null, "has_reconstructed": null, "possible_species": null, "has_props": null, "theoretical": null, "database_IDs": null, "fields_not_requested": ["builder_meta", "nsites", "elements", "nelements", "composition", "composition_reduced", "chemsys", "symmetry", "property_name", "deprecated", "deprecation_reasons", "last_updated", "origins", "warnings", "task_ids", "uncorrected_energy_per_atom", "equilibrium_reaction_energy_per_atom", "decomposes_to", "xas", "grain_boundaries", "cbm", "vbm", "is_gap_direct", "is_metal", "es_source_calc_id", "bandstructure", "dos", "dos_energy_up", "dos_energy_down", "is_magnetic", "ordering", "total_magnetization_normalized_vol", "total_magnetization_normalized_formula_units", "num_magnetic_sites", "num_unique_magnetic_sites", "types_of_magnetic_species", "bulk_modulus", "shear_modulus", "universal_anisotropy", "homogeneous_poisson", "e_total", "e_ionic", "e_electronic", "n", "e_ij_max", "weighted_surface_energy_EV_PER_ANG2", "weighted_surface_energy", "weighted_work_function", "surface_anisotropy", "shape_factor", "has_reconstructed", "possible_species", "has_props", "theoretical", "database_IDs"]}