{"builder_meta": null, "nsites": null, "elements": null, "nelements": null, "composition": null, "composition_reduced": null, "formula_pretty": "H3O2", "formula_anonymous": "A2B3", "chemsys": null, "volume": 154.17553065697615, "density": 1.508836803787709, "density_atomic": 7.708776532848807, "symmetry": null, "property_name": null, "material_id": "mp-1212478", "deprecated": null, "deprecation_reasons": null, "last_updated": null, "origins": null, "warnings": null, "structure": {"@module": "pymatgen.core.structure", "@class": "Structure", "charge": 0, "lattice": {"matrix": [[0.02944688, -0.0, -4.34928913], [-3.88974593, -4.5727170600000004, 2.01829956], [-3.88974593, 4.5727170600000004, 2.01829956]], "pbc": [true, true, true], "a": 4.349388813968911, "b": 6.333513860777666, "c": 6.333513860777666, "alpha": 92.43761333216774, "beta": 108.83358404077906, "gamma": 108.83358404077906, "volume": 154.17553065697618}, "properties": {}, "sites": [{"species": [{"element": "H", "occu": 1}], "abc": [0.98259801, 0.22031652000000002, 0.16941446000000002], "properties": {"magmom": -0.0}, "label": "H", "xyz": [-1.4870200475612028, -0.23276071815114352, -3.4870089786002616]}, {"species": [{"element": "H", "occu": 1}], "abc": [0.01740199, 0.77968348, 0.8305855400000001], "properties": {"magmom": -0.0}, "label": "H", "xyz": [-6.263024932438798, 0.23276071815114419, 3.1743189686002626]}, {"species": [{"element": "H", "occu": 1}], "abc": [0.51740199, 0.8305855400000001, 0.77968348], "properties": {"magmom": -0.0}, "label": "H", "xyz": [-6.248301492438799, -0.23276071815114419, 0.9996744036002627]}, {"species": [{"element": "H", "occu": 1}], "abc": [0.48259801, 0.16941446000000002, 0.22031652000000002], "properties": {"magmom": -0.0}, "label": "H", "xyz": [-1.5017434875612028, 0.23276071815114352, -1.3123644136002623]}, {"species": [{"element": "H", "occu": 1}], "abc": [0.57857465, 0.465123399999999, 0.75153145], "properties": {"magmom": 0.0}, "label": "H", "xyz": [-4.715441032712665, 1.3096629763563379, -0.06081448771169029]}, {"species": [{"element": "H", "occu": 1}], "abc": [0.42142535000000003, 0.534876599999999, 0.24846855], "properties": {"magmom": 0.0}, "label": "H", "xyz": [-3.0346039472873274, -1.3096629763563288, -0.25187552228831367]}, {"species": [{"element": "H", "occu": 1}], "abc": [0.92142535, 0.24846855, 0.534876599999999], "properties": {"magmom": 0.0}, "label": "H", "xyz": [-3.0198805072873274, 1.3096629763563288, -2.4265200872883135]}, {"species": [{"element": "H", "occu": 1}], "abc": [0.07857465, 0.75153145, 0.465123399999999], "properties": {"magmom": 0.0}, "label": "H", "xyz": [-4.730164472712665, -1.3096629763563379, 2.113830077288309]}, {"species": [{"element": "H", "occu": 1}], "abc": [0.89206637, 0.7215288, 0.04341485], "properties": {"magmom": 0.0}, "label": "H", "xyz": [-2.949167877917419, -3.1008232277889873, -2.335969134059764]}, {"species": [{"element": "H", "occu": 1}], "abc": [0.10793363, 0.2784712, 0.95658515], "properties": {"magmom": 0.0}, "label": "H", "xyz": [-4.8008771020825804, 3.100823227788988, 2.023279124059764]}, {"species": [{"element": "H", "occu": 1}], "abc": [0.60793363, 0.95658515, 0.2784712], "properties": {"magmom": 0.0}, "label": "H", "xyz": [-4.78615366208258, -3.100823227788988, -0.15136544094023596]}, {"species": [{"element": "H", "occu": 1}], "abc": [0.39206637, 0.04341485, 0.7215288], "properties": {"magmom": 0.0}, "label": "H", "xyz": [-2.963891317917419, 3.1008232277889873, -0.16132456905976422]}, {"species": [{"element": "O", "occu": 1}], "abc": [0.91011874, 0.67680627, 0.30810197], "properties": {"magmom": -0.0}, "label": "O", "xyz": [-3.8042426606409325, -1.6859804427053584, -1.9705296754589219]}, {"species": [{"element": "O", "occu": 1}], "abc": [0.08988126, 0.32319373, 0.69189803], "properties": {"magmom": -0.0}, "label": "O", "xyz": [-3.945802319359068, 1.6859804427053584, 1.6578396654589218]}, {"species": [{"element": "O", "occu": 1}], "abc": [0.58988126, 0.69189803, 0.32319373], "properties": {"magmom": -0.0}, "label": "O", "xyz": [-3.931078879359068, -1.6859804427053584, -0.5168048995410779]}, {"species": [{"element": "O", "occu": 1}], "abc": [0.41011874, 0.30810197, 0.67680627], "properties": {"magmom": -0.0}, "label": "O", "xyz": [-3.8189661006409326, 1.6859804427053584, 0.20411488954107848]}, {"species": [{"element": "O", "occu": 1}], "abc": [0.81359524, 0.71659879, 0.87813746], "properties": {"magmom": 0.0}, "label": "O", "xyz": [-6.179160996460112, 0.7386706321587098, -0.3199054618606909]}, {"species": [{"element": "O", "occu": 1}], "abc": [0.18640476, 0.28340121, 0.12186254], "properties": {"magmom": 0.0}, "label": "O", "xyz": [-1.570883983539889, -0.7386706321587103, 0.007215451860691252]}, {"species": [{"element": "O", "occu": 1}], "abc": [0.6864047600000001, 0.12186254, 0.28340121], "properties": {"magmom": 0.0}, "label": "O", "xyz": [-1.5561605435398889, 0.7386706321587103, -2.1674291131393093]}, {"species": [{"element": "O", "occu": 1}], "abc": [0.31359524, 0.87813746, 0.71659879], "properties": {"magmom": 0.0}, "label": "O", "xyz": [-6.193884436460111, -0.7386706321587098, 1.8547391031393092]}]}, "task_ids": null, "uncorrected_energy_per_atom": null, "energy_per_atom": -5.125966989499999, "formation_energy_per_atom": -1.109682724249999, "energy_above_hull": 0.042319969750000005, "is_stable": false, "equilibrium_reaction_energy_per_atom": null, "decomposes_to": null, "xas": null, "grain_boundaries": null, "band_gap": 3.830199999999999, "cbm": null, "vbm": null, "efermi": 2.23355325, "is_gap_direct": null, "is_metal": null, "es_source_calc_id": null, "bandstructure": null, "dos": null, "dos_energy_up": null, "dos_energy_down": null, "is_magnetic": null, "ordering": null, "total_magnetization": 0.0, "total_magnetization_normalized_vol": null, "total_magnetization_normalized_formula_units": null, "num_magnetic_sites": null, "num_unique_magnetic_sites": null, "types_of_magnetic_species": null, "bulk_modulus": null, "shear_modulus": null, "universal_anisotropy": null, "homogeneous_poisson": null, "e_total": null, "e_ionic": null, "e_electronic": null, "n": null, "e_ij_max": null, "weighted_surface_energy_EV_PER_ANG2": null, "weighted_surface_energy": null, "weighted_work_function": null, "surface_anisotropy": null, "shape_factor": null, "has_reconstructed": null, "possible_species": null, "has_props": null, "theoretical": null, "database_IDs": null, "fields_not_requested": ["builder_meta", "nsites", "elements", "nelements", "composition", "composition_reduced", "chemsys", "symmetry", "property_name", "deprecated", "deprecation_reasons", "last_updated", "origins", "warnings", "task_ids", "uncorrected_energy_per_atom", "equilibrium_reaction_energy_per_atom", "decomposes_to", "xas", "grain_boundaries", "cbm", "vbm", "is_gap_direct", "is_metal", "es_source_calc_id", "bandstructure", "dos", "dos_energy_up", "dos_energy_down", "is_magnetic", "ordering", "total_magnetization_normalized_vol", "total_magnetization_normalized_formula_units", "num_magnetic_sites", "num_unique_magnetic_sites", "types_of_magnetic_species", "bulk_modulus", "shear_modulus", "universal_anisotropy", "homogeneous_poisson", "e_total", "e_ionic", "e_electronic", "n", "e_ij_max", "weighted_surface_energy_EV_PER_ANG2", "weighted_surface_energy", "weighted_work_function", "surface_anisotropy", "shape_factor", "has_reconstructed", "possible_species", "has_props", "theoretical", "database_IDs"]}