{"builder_meta": null, "nsites": null, "elements": null, "nelements": null, "composition": null, "composition_reduced": null, "formula_pretty": "H3Pd4", "formula_anonymous": "A3B4", "chemsys": null, "volume": 67.70699918721489, "density": 10.514118919112848, "density_atomic": 9.672428455316412, "symmetry": null, "property_name": null, "material_id": "mp-1224413", "deprecated": null, "deprecation_reasons": null, "last_updated": null, "origins": null, "warnings": null, "structure": {"@module": "pymatgen.core.structure", "@class": "Structure", "charge": 0, "lattice": {"matrix": [[-2.04586748, -2.04586747, 0.0], [0.0, 2.04586747, -2.04586748], [6.07404911, -4.02817857, -6.07404911]], "pbc": [true, true, true], "a": 2.893293529962999, "b": 2.893293529962999, "c": 9.487590198421875, "alpha": 81.22944125569221, "beta": 98.77055874430778, "gamma": 119.99999983830949, "volume": 67.70699918721489}, "properties": {}, "sites": [{"species": [{"element": "H", "occu": 1}], "abc": [0.11264186, 0.88735814, 0.33792459], "properties": {"magmom": -0.0}, "label": "H", "xyz": [1.8221202368759024, 0.22374624401737542, -3.8679877168759025]}, {"species": [{"element": "H", "occu": 1}], "abc": [0.875, 0.125, 0.625], "properties": {"magmom": 0.0}, "label": "H", "xyz": [2.0061466487499997, -4.05201220875, -4.05201412875]}, {"species": [{"element": "H", "occu": 1}], "abc": [0.63735814, 0.36264186, 0.91207541], "properties": {"magmom": -0.0}, "label": "H", "xyz": [4.2360405406240975, -4.236035721517375, -6.281908020624098]}, {"species": [{"element": "Pd", "occu": 1}], "abc": [0.24974981000000002, 0.75025019, 0.74924743], "properties": {"magmom": 0.0}, "label": "Pd", "xyz": [4.040010670946108, -1.994144994988936, -6.085878150946109]}, {"species": [{"element": "Pd", "occu": 1}], "abc": [0.50025019, 0.49974981, 0.5007525700000001], "properties": {"magmom": 0.0}, "label": "Pd", "xyz": [2.0181501065538914, -2.018144482511064, -4.0640175865538914]}, {"species": [{"element": "Pd", "occu": 1}], "abc": [0.00052474, 0.99947526, 0.00157422], "properties": {"magmom": 0.0}, "label": "Pd", "xyz": [0.008488341088489, 2.037379133739119, -2.054355821088489]}, {"species": [{"element": "Pd", "occu": 1}], "abc": [0.74947526, 0.25052474, 0.24842578], "properties": {"magmom": 0.0}, "label": "Pd", "xyz": [-0.02437667358848894, -2.021490041239119, -2.021490806411511]}]}, "task_ids": null, "uncorrected_energy_per_atom": null, "energy_per_atom": -14.66454952, "formation_energy_per_atom": -0.06352785660714101, "energy_above_hull": 0.01305697642857, "is_stable": false, "equilibrium_reaction_energy_per_atom": null, "decomposes_to": null, "xas": null, "grain_boundaries": null, "band_gap": 0.0, "cbm": null, "vbm": null, "efermi": 3.6077921, "is_gap_direct": null, "is_metal": null, "es_source_calc_id": null, "bandstructure": null, "dos": null, "dos_energy_up": null, "dos_energy_down": null, "is_magnetic": null, "ordering": null, "total_magnetization": 0.0, "total_magnetization_normalized_vol": null, "total_magnetization_normalized_formula_units": null, "num_magnetic_sites": null, "num_unique_magnetic_sites": null, "types_of_magnetic_species": null, "bulk_modulus": null, "shear_modulus": null, "universal_anisotropy": null, "homogeneous_poisson": null, "e_total": null, "e_ionic": null, "e_electronic": null, "n": null, "e_ij_max": null, "weighted_surface_energy_EV_PER_ANG2": null, "weighted_surface_energy": null, "weighted_work_function": null, "surface_anisotropy": null, "shape_factor": null, "has_reconstructed": null, "possible_species": null, "has_props": null, "theoretical": null, "database_IDs": null, "fields_not_requested": ["builder_meta", "nsites", "elements", "nelements", "composition", "composition_reduced", "chemsys", "symmetry", "property_name", "deprecated", "deprecation_reasons", "last_updated", "origins", "warnings", "task_ids", "uncorrected_energy_per_atom", "equilibrium_reaction_energy_per_atom", "decomposes_to", "xas", "grain_boundaries", "cbm", "vbm", "is_gap_direct", "is_metal", "es_source_calc_id", "bandstructure", "dos", "dos_energy_up", "dos_energy_down", "is_magnetic", "ordering", "total_magnetization_normalized_vol", "total_magnetization_normalized_formula_units", "num_magnetic_sites", "num_unique_magnetic_sites", "types_of_magnetic_species", "bulk_modulus", "shear_modulus", "universal_anisotropy", "homogeneous_poisson", "e_total", "e_ionic", "e_electronic", "n", "e_ij_max", "weighted_surface_energy_EV_PER_ANG2", "weighted_surface_energy", "weighted_work_function", "surface_anisotropy", "shape_factor", "has_reconstructed", "possible_species", "has_props", "theoretical", "database_IDs"]}