{"builder_meta": null, "nsites": null, "elements": null, "nelements": null, "composition": null, "composition_reduced": null, "formula_pretty": "H3W", "formula_anonymous": "AB3", "chemsys": null, "volume": 69.02458631624727, "density": 8.990844851208388, "density_atomic": 8.628073289530908, "symmetry": null, "property_name": null, "material_id": "mp-1079923", "deprecated": null, "deprecation_reasons": null, "last_updated": null, "origins": null, "warnings": null, "structure": {"@module": "pymatgen.core.structure", "@class": "Structure", "charge": 0, "lattice": {"matrix": [[3.053199, 0.0, 0.0], [0.0, 3.066496, 0.0], [0.0, 1.427741999999999, 7.372356]], "pbc": [true, true, true], "a": 3.053199, "b": 3.066496, "c": 7.509332873784461, "alpha": 79.03968702626058, "beta": 90.0, "gamma": 90.0, "volume": 69.02458631624727}, "properties": {}, "sites": [{"species": [{"element": "H", "occu": 1}], "abc": [0.25, 0.429761, 0.219098], "properties": {"magmom": -0.0}, "label": "H", "xyz": [0.76329975, 1.6306758041719998, 1.6152684548879999]}, {"species": [{"element": "H", "occu": 1}], "abc": [0.75, 0.570238999999999, 0.780902], "properties": {"magmom": -0.0}, "label": "H", "xyz": [2.2898992500000004, 2.8635621958279964, 5.757087545111999]}, {"species": [{"element": "H", "occu": 1}], "abc": [0.25, 0.11028, 0.779687], "properties": {"magmom": -0.0}, "label": "H", "xyz": [0.76329975, 1.4513650556339992, 5.748130132572]}, {"species": [{"element": "H", "occu": 1}], "abc": [0.75, 0.8897200000000001, 0.220312999999999], "properties": {"magmom": -0.0}, "label": "H", "xyz": [2.2898992500000004, 3.0428729443659983, 1.6242258674279926]}, {"species": [{"element": "H", "occu": 1}], "abc": [0.75, 0.095053, 0.619796], "properties": {"magmom": -0.0}, "label": "H", "xyz": [2.2898992500000004, 1.1763884249199994, 4.569356759376]}, {"species": [{"element": "H", "occu": 1}], "abc": [0.25, 0.904947, 0.380204], "properties": {"magmom": -0.0}, "label": "H", "xyz": [0.76329975, 3.3178495750799994, 2.802999240624]}, {"species": [{"element": "W", "occu": 1}], "abc": [0.75, 0.319706999999999, 0.378942], "properties": {"magmom": 0.0}, "label": "W", "xyz": [2.2898992500000004, 1.5214116456359965, 2.7936953273519998]}, {"species": [{"element": "W", "occu": 1}], "abc": [0.25, 0.680292999999999, 0.621058], "properties": {"magmom": 0.0}, "label": "W", "xyz": [0.76329975, 2.9728263543639963, 4.578660672648]}]}, "task_ids": null, "uncorrected_energy_per_atom": null, "energy_per_atom": -15.355219026875, "formation_energy_per_atom": 0.0780638690625, "energy_above_hull": 0.0780638690625, "is_stable": false, "equilibrium_reaction_energy_per_atom": null, "decomposes_to": null, "xas": null, "grain_boundaries": null, "band_gap": 0.0, "cbm": null, "vbm": null, "efermi": 2.50407926, "is_gap_direct": null, "is_metal": null, "es_source_calc_id": null, "bandstructure": null, "dos": null, "dos_energy_up": null, "dos_energy_down": null, "is_magnetic": null, "ordering": null, "total_magnetization": 0.003473399999999, "total_magnetization_normalized_vol": null, "total_magnetization_normalized_formula_units": null, "num_magnetic_sites": null, "num_unique_magnetic_sites": null, "types_of_magnetic_species": null, "bulk_modulus": null, "shear_modulus": null, "universal_anisotropy": null, "homogeneous_poisson": null, "e_total": null, "e_ionic": null, "e_electronic": null, "n": null, "e_ij_max": null, "weighted_surface_energy_EV_PER_ANG2": null, "weighted_surface_energy": null, "weighted_work_function": null, "surface_anisotropy": null, "shape_factor": null, "has_reconstructed": null, "possible_species": null, "has_props": null, "theoretical": null, "database_IDs": null, "fields_not_requested": ["builder_meta", "nsites", "elements", "nelements", "composition", "composition_reduced", "chemsys", "symmetry", "property_name", "deprecated", "deprecation_reasons", "last_updated", "origins", "warnings", "task_ids", "uncorrected_energy_per_atom", "equilibrium_reaction_energy_per_atom", "decomposes_to", "xas", "grain_boundaries", "cbm", "vbm", "is_gap_direct", "is_metal", "es_source_calc_id", "bandstructure", "dos", "dos_energy_up", "dos_energy_down", "is_magnetic", "ordering", "total_magnetization_normalized_vol", "total_magnetization_normalized_formula_units", "num_magnetic_sites", "num_unique_magnetic_sites", "types_of_magnetic_species", "bulk_modulus", "shear_modulus", "universal_anisotropy", "homogeneous_poisson", "e_total", "e_ionic", "e_electronic", "n", "e_ij_max", "weighted_surface_energy_EV_PER_ANG2", "weighted_surface_energy", "weighted_work_function", "surface_anisotropy", "shape_factor", "has_reconstructed", "possible_species", "has_props", "theoretical", "database_IDs"]}