{
  "builder_meta": null,
  "nsites": null,
  "elements": null,
  "nelements": null,
  "composition": null,
  "composition_reduced": null,
  "formula_pretty": "H4C",
  "formula_anonymous": "AB4",
  "chemsys": null,
  "volume": 60.93263869609719,
  "density": 0.43718985628098306,
  "density_atomic": 12.18652773921944,
  "symmetry": null,
  "property_name": null,
  "material_id": "mp-1021328",
  "deprecated": null,
  "deprecation_reasons": null,
  "last_updated": null,
  "origins": null,
  "warnings": null,
  "structure": {
    "@module": "pymatgen.core.structure",
    "@class": "Structure",
    "charge": 0,
    "lattice": {
      "matrix": [
        [-2.0240368, -3.505729129999999, -1.4312098500000001],
        [-0.0, -0.0, 4.2936226],
        [-2.02403083, 3.50572914, -1.43120687]
      ],
      "pbc": [true, true, true],
      "a": 4.293625896072201,
      "b": 4.2936226,
      "c": 4.293622096618521,
      "alpha": 109.47121362069112,
      "beta": 109.47121241527664,
      "gamma": 109.47123787354438,
      "volume": 60.93263869609718
    },
    "properties": {},
    "sites": [
      {
        "species": [{ "element": "H", "occu": 1 }],
        "abc": [0.25368713, 0.25368713, 0.25368713],
        "properties": { "magmom": 0.0 },
        "label": "H",
        "xyz": [-1.026942659100602, 2.5368716016771486e-9, 0.36307851213632447]
      },
      {
        "species": [{ "element": "H", "occu": 1 }],
        "abc": [0.0, 0.0, 0.74631287],
        "properties": { "magmom": 0.0 },
        "label": "H",
        "xyz": [-1.5105602577057822, 2.616370775916032, -1.068128106713417]
      },
      {
        "species": [{ "element": "H", "occu": 1 }],
        "abc": [0.0, 0.74631287, 0.0],
        "properties": { "magmom": 0.0 },
        "label": "H",
        "xyz": [0.0, 0.0, 3.204385805302862]
      },
      {
        "species": [{ "element": "H", "occu": 1 }],
        "abc": [0.74631287, -0.0, -0.0],
        "properties": { "magmom": 0.0 },
        "label": "H",
        "xyz": [-1.5105647131936162, -2.6163707684529025, -1.0681303307257697]
      },
      {
        "species": [{ "element": "C", "occu": 1 }],
        "abc": [-0.0, -0.0, -0.0],
        "properties": { "magmom": -0.0 },
        "label": "C",
        "xyz": [0.0, 0.0, 0.0]
      }
    ]
  },
  "task_ids": null,
  "uncorrected_energy_per_atom": null,
  "energy_per_atom": -4.814292834,
  "formation_energy_per_atom": -0.2524265845,
  "energy_above_hull": 0.0,
  "is_stable": true,
  "equilibrium_reaction_energy_per_atom": null,
  "decomposes_to": null,
  "xas": null,
  "grain_boundaries": null,
  "band_gap": 7.6375,
  "cbm": null,
  "vbm": null,
  "efermi": -6.83573931,
  "is_gap_direct": null,
  "is_metal": null,
  "es_source_calc_id": null,
  "bandstructure": null,
  "dos": null,
  "dos_energy_up": null,
  "dos_energy_down": null,
  "is_magnetic": null,
  "ordering": null,
  "total_magnetization": 0.0,
  "total_magnetization_normalized_vol": null,
  "total_magnetization_normalized_formula_units": null,
  "num_magnetic_sites": null,
  "num_unique_magnetic_sites": null,
  "types_of_magnetic_species": null,
  "bulk_modulus": null,
  "shear_modulus": null,
  "universal_anisotropy": null,
  "homogeneous_poisson": null,
  "e_total": null,
  "e_ionic": null,
  "e_electronic": null,
  "n": null,
  "e_ij_max": null,
  "weighted_surface_energy_EV_PER_ANG2": null,
  "weighted_surface_energy": null,
  "weighted_work_function": null,
  "surface_anisotropy": null,
  "shape_factor": null,
  "has_reconstructed": null,
  "possible_species": null,
  "has_props": null,
  "theoretical": null,
  "database_IDs": null,
  "fields_not_requested": [
    "builder_meta",
    "nsites",
    "elements",
    "nelements",
    "composition",
    "composition_reduced",
    "chemsys",
    "symmetry",
    "property_name",
    "deprecated",
    "deprecation_reasons",
    "last_updated",
    "origins",
    "warnings",
    "task_ids",
    "uncorrected_energy_per_atom",
    "equilibrium_reaction_energy_per_atom",
    "decomposes_to",
    "xas",
    "grain_boundaries",
    "cbm",
    "vbm",
    "is_gap_direct",
    "is_metal",
    "es_source_calc_id",
    "bandstructure",
    "dos",
    "dos_energy_up",
    "dos_energy_down",
    "is_magnetic",
    "ordering",
    "total_magnetization_normalized_vol",
    "total_magnetization_normalized_formula_units",
    "num_magnetic_sites",
    "num_unique_magnetic_sites",
    "types_of_magnetic_species",
    "bulk_modulus",
    "shear_modulus",
    "universal_anisotropy",
    "homogeneous_poisson",
    "e_total",
    "e_ionic",
    "e_electronic",
    "n",
    "e_ij_max",
    "weighted_surface_energy_EV_PER_ANG2",
    "weighted_surface_energy",
    "weighted_work_function",
    "surface_anisotropy",
    "shape_factor",
    "has_reconstructed",
    "possible_species",
    "has_props",
    "theoretical",
    "database_IDs"
  ]
}
