{"builder_meta": null, "nsites": null, "elements": null, "nelements": null, "composition": null, "composition_reduced": null, "formula_pretty": "H4C7", "formula_anonymous": "A4B7", "chemsys": null, "volume": 1562.9917316688384, "density": 1.123265450430229, "density_atomic": 11.840846452036654, "symmetry": null, "property_name": null, "material_id": "mp-1097016", "deprecated": null, "deprecation_reasons": null, "last_updated": null, "origins": null, "warnings": null, "structure": {"@module": "pymatgen.core.structure", "@class": "Structure", "charge": 0, "lattice": {"matrix": [[11.453383, 0.0, 0.0], [0.0, 8.914317, 0.0], [0.0, 0.6741600000000001, 15.308577]], "pbc": [true, true, true], "a": 11.453383, "b": 8.914317, "c": 15.323414158422038, "alpha": 87.47843436987931, "beta": 90.0, "gamma": 90.0, "volume": 1562.9917316688384}, "properties": {}, "sites": [{"species": [{"element": "H", "occu": 1}], "abc": [0.713019, 0.118184, 0.392665], "properties": {"magmom": 0.0}, "label": "H", "xyz": [8.166479693277, 1.3182486767280002, 6.011142387705]}, {"species": [{"element": "H", "occu": 1}], "abc": [0.213019, 0.881815999999999, 0.607335], "properties": {"magmom": 0.0}, "label": "H", "xyz": [2.439788193277, 8.270228323271992, 9.297434612295]}, {"species": [{"element": "H", "occu": 1}], "abc": [0.868267999999999, 0.26118, 0.464282], "properties": {"magmom": 0.0}, "label": "H", "xyz": [9.94460595064399, 2.6412416671800005, 7.107496746713999]}, {"species": [{"element": "H", "occu": 1}], "abc": [0.368268, 0.73882, 0.535718], "properties": {"magmom": 0.0}, "label": "H", "xyz": [4.217914450644, 6.947235332820001, 8.201080253286]}, {"species": [{"element": "H", "occu": 1}], "abc": [0.075658, 0.176115, 0.455852], "properties": {"magmom": 0.0}, "label": "H", "xyz": [0.8665400510140001, 1.877262122775, 6.9784454426039995]}, {"species": [{"element": "H", "occu": 1}], "abc": [0.575658, 0.823885, 0.544148], "properties": {"magmom": 0.0}, "label": "H", "xyz": [6.593231551014, 7.711214877225, 8.330131557396]}, {"species": [{"element": "H", "occu": 1}], "abc": [0.216271, 0.021278, 0.405800999999999], "properties": {"magmom": -0.0}, "label": "H", "xyz": [2.477034594793, 0.4632536392859994, 6.212235855176985]}, {"species": [{"element": "H", "occu": 1}], "abc": [0.716271, 0.978722, 0.594198999999999], "properties": {"magmom": -0.0}, "label": "H", "xyz": [8.203726094793, 9.125223360714001, 9.096341144822985]}, {"species": [{"element": "H", "occu": 1}], "abc": [0.281506, 0.797447999999999, 0.32444], "properties": {"magmom": -0.0}, "label": "H", "xyz": [3.224196034798, 7.327428733415991, 4.96671472188]}, {"species": [{"element": "H", "occu": 1}], "abc": [0.781505999999999, 0.202551999999999, 0.67556], "properties": {"magmom": -0.0}, "label": "H", "xyz": [8.950887534797989, 2.2610482665839915, 10.34186227812]}, {"species": [{"element": "H", "occu": 1}], "abc": [0.135011, 0.647868, 0.247597999999999], "properties": {"magmom": 0.0}, "label": "H", "xyz": [1.546332692213, 5.942221393835999, 3.7903730480459847]}, {"species": [{"element": "H", "occu": 1}], "abc": [0.635011, 0.352132, 0.752402], "properties": {"magmom": 0.0}, "label": "H", "xyz": [7.273024192213001, 3.6462556061640004, 11.518203951954]}, {"species": [{"element": "H", "occu": 1}], "abc": [0.700596999999999, 0.05077, 0.203922], "properties": {"magmom": 0.0}, "label": "H", "xyz": [8.024205769650989, 0.5900559296100001, 3.1217556389939998]}, {"species": [{"element": "H", "occu": 1}], "abc": [0.200597, 0.9492300000000001, 0.796078], "properties": {"magmom": 0.0}, "label": "H", "xyz": [2.2975142696510003, 8.998421070390002, 12.186821361005999]}, {"species": [{"element": "H", "occu": 1}], "abc": [0.532895999999999, 0.934770999999999, 0.133625], "properties": {"magmom": -0.0}, "label": "H", "xyz": [6.103461987167989, 8.422929646406992, 2.0456086016249997]}, {"species": [{"element": "H", "occu": 1}], "abc": [0.032896, 0.065229, 0.866375], "properties": {"magmom": -0.0}, "label": "H", "xyz": [0.37677048716800005, 1.165547353593, 13.262968398375]}, {"species": [{"element": "H", "occu": 1}], "abc": [0.402148, 0.71272, 0.117331999999999], "properties": {"magmom": -0.0}, "label": "H", "xyz": [4.605955066684, 6.43251255336, 1.7961859565639848]}, {"species": [{"element": "H", "occu": 1}], "abc": [0.902148, 0.28728000000000004, 0.882668], "properties": {"magmom": -0.0}, "label": "H", "xyz": [10.332646566684, 3.1559644466400005, 13.512391043436]}, {"species": [{"element": "H", "occu": 1}], "abc": [0.333393999999999, 0.462522, 0.171224], "properties": {"magmom": -0.0}, "label": "H", "xyz": [3.818489171901989, 4.238500099314, 2.621195788248]}, {"species": [{"element": "H", "occu": 1}], "abc": [0.833394, 0.537478, 0.828776], "properties": {"magmom": -0.0}, "label": "H", "xyz": [9.545180671902001, 5.349976900686, 12.687381211752]}, {"species": [{"element": "H", "occu": 1}], "abc": [0.340391, 0.251182, 0.281086], "properties": {"magmom": -0.0}, "label": "H", "xyz": [3.898628492753, 2.4286129104540004, 4.303026674622]}, {"species": [{"element": "H", "occu": 1}], "abc": [0.840391, 0.748818, 0.718913999999999], "properties": {"magmom": -0.0}, "label": "H", "xyz": [9.625319992753, 7.159864089546, 11.005550325377985]}, {"species": [{"element": "H", "occu": 1}], "abc": [0.421359, 0.136872, 0.419629], "properties": {"magmom": -0.0}, "label": "H", "xyz": [4.825986007497, 1.503017483064, 6.423922857932999]}, {"species": [{"element": "H", "occu": 1}], "abc": [0.921358999999999, 0.863128, 0.580371], "properties": {"magmom": -0.0}, "label": "H", "xyz": [10.55267750749699, 8.085459516936, 8.884654142067]}, {"species": [{"element": "H", "occu": 1}], "abc": [0.573112, 0.269962, 0.502086], "properties": {"magmom": 0.0}, "label": "H", "xyz": [6.564071237896, 2.745013143714, 7.686222191622]}, {"species": [{"element": "H", "occu": 1}], "abc": [0.073112, 0.730038, 0.497913999999999], "properties": {"magmom": 0.0}, "label": "H", "xyz": [0.837379737896, 6.843463856285999, 7.622354808377985]}, {"species": [{"element": "H", "occu": 1}], "abc": [0.706202999999999, 0.483971999999999, 0.515017], "properties": {"magmom": -0.0}, "label": "H", "xyz": [8.08841343474899, 4.661483687843991, 7.884177400808999]}, {"species": [{"element": "H", "occu": 1}], "abc": [0.206203, 0.516027999999999, 0.484983], "properties": {"magmom": -0.0}, "label": "H", "xyz": [2.361721934749, 4.926993312155992, 7.424399599191]}, {"species": [{"element": "H", "occu": 1}], "abc": [0.790852, 0.721985, 0.454414999999999], "properties": {"magmom": -0.0}, "label": "H", "xyz": [9.057930852316, 6.742351575645, 6.956447017454985]}, {"species": [{"element": "H", "occu": 1}], "abc": [0.290852, 0.278015, 0.545585], "properties": {"magmom": -0.0}, "label": "H", "xyz": [3.331239352316, 2.8461254243550003, 8.352129982545]}, {"species": [{"element": "H", "occu": 1}], "abc": [0.920287, 0.498104, 0.324359], "properties": {"magmom": -0.0}, "label": "H", "xyz": [10.540399480921, 4.658926818408, 4.965474727143]}, {"species": [{"element": "H", "occu": 1}], "abc": [0.420286999999999, 0.501896, 0.675640999999999], "properties": {"magmom": -0.0}, "label": "H", "xyz": [4.813707980920989, 4.929550181591999, 10.343102272856985]}, {"species": [{"element": "H", "occu": 1}], "abc": [0.793142, 0.33, 0.245253], "properties": {"magmom": -0.0}, "label": "H", "xyz": [9.084159099386001, 3.1070643724800004, 3.7544744349809998]}, {"species": [{"element": "H", "occu": 1}], "abc": [0.293142, 0.67, 0.754747], "properties": {"magmom": -0.0}, "label": "H", "xyz": [3.357467599386, 6.481412627520001, 11.554102565018999]}, {"species": [{"element": "H", "occu": 1}], "abc": [0.659957999999999, 0.284651, 0.119849], "properties": {"magmom": 0.0}, "label": "H", "xyz": [7.5587517379139895, 2.618266650207, 1.8347176448729998]}, {"species": [{"element": "H", "occu": 1}], "abc": [0.159958, 0.715349, 0.880150999999999], "properties": {"magmom": 0.0}, "label": "H", "xyz": [1.8320602379139999, 6.970210349793001, 13.473859355126985]}, {"species": [{"element": "H", "occu": 1}], "abc": [0.567191, 0.373384999999999, 0.98177], "properties": {"magmom": 0.0}, "label": "H", "xyz": [6.496255757153, 3.990342316244991, 15.02950164129]}, {"species": [{"element": "H", "occu": 1}], "abc": [0.067191, 0.626614999999999, 0.018230000000000003], "properties": {"magmom": 0.0}, "label": "H", "xyz": [0.769564257153, 5.598134683754992, 0.27907535871000005]}, {"species": [{"element": "H", "occu": 1}], "abc": [0.539685, 0.57416, 0.865962999999999], "properties": {"magmom": -0.0}, "label": "H", "xyz": [6.181219004355, 5.702041864799999, 13.256661264650985]}, {"species": [{"element": "H", "occu": 1}], "abc": [0.039685, 0.42584000000000005, 0.134037], "properties": {"magmom": -0.0}, "label": "H", "xyz": [0.454527504355, 3.8864351352000006, 2.0519157353489996]}, {"species": [{"element": "H", "occu": 1}], "abc": [0.590864, 0.824778999999999, 0.800037999999999], "properties": {"magmom": -0.0}, "label": "H", "xyz": [6.767391692912, 7.891695079022991, 12.247443325925985]}, {"species": [{"element": "H", "occu": 1}], "abc": [0.090864, 0.175221, 0.199962], "properties": {"magmom": -0.0}, "label": "H", "xyz": [1.040700192912, 1.696781920977, 3.061133674074]}, {"species": [{"element": "H", "occu": 1}], "abc": [0.735763, 0.986865, 0.873097999999999], "properties": {"magmom": 0.0}, "label": "H", "xyz": [8.426975436229, 9.385835193885, 13.365887961545985]}, {"species": [{"element": "H", "occu": 1}], "abc": [0.235763, 0.013134999999999002, 0.126902], "properties": {"magmom": 0.0}, "label": "H", "xyz": [2.7002839362290003, 0.2026418061149911, 1.9426890384539997]}, {"species": [{"element": "H", "occu": 1}], "abc": [0.866680999999999, 0.030097, 0.99548], "properties": {"magmom": -0.0}, "label": "H", "xyz": [9.926429431822989, 0.9394069955490001, 15.23938223196]}, {"species": [{"element": "H", "occu": 1}], "abc": [0.366681, 0.969903, 0.004520000000000001], "properties": {"magmom": -0.0}, "label": "H", "xyz": [4.199737931823, 8.649070004451, 0.06919476804000001]}, {"species": [{"element": "H", "occu": 1}], "abc": [0.95291, 0.948687, 0.137725], "properties": {"magmom": 0.0}, "label": "H", "xyz": [10.91404319453, 8.549745337779, 2.108373767325]}, {"species": [{"element": "H", "occu": 1}], "abc": [0.45291000000000003, 0.051313, 0.862275], "properties": {"magmom": 0.0}, "label": "H", "xyz": [5.18735169453, 1.038731662221, 13.200203232675]}, {"species": [{"element": "C", "occu": 1}], "abc": [0.826824999999999, 0.951907, 0.341626999999999], "properties": {"magmom": 0.0}, "label": "C", "xyz": [9.469943398974989, 8.715912010838998, 5.229823234778984]}, {"species": [{"element": "C", "occu": 1}], "abc": [0.326825, 0.048093, 0.658373], "properties": {"magmom": 0.0}, "label": "C", "xyz": [3.743251898975, 0.8725649891610001, 10.078753765221]}, {"species": [{"element": "C", "occu": 1}], "abc": [0.803275, 0.080178, 0.387416], "properties": {"magmom": -0.0}, "label": "C", "xyz": [9.200216229325, 0.9759124789860001, 5.930787667032]}, {"species": [{"element": "C", "occu": 1}], "abc": [0.303274999999999, 0.919821999999999, 0.612584], "properties": {"magmom": -0.0}, "label": "C", "xyz": [3.473524729324989, 8.612564521013992, 9.377789332968]}, {"species": [{"element": "C", "occu": 1}], "abc": [0.891268, 0.162625, 0.428291], "properties": {"magmom": 0.0}, "label": "C", "xyz": [10.208033759644, 1.7384274626849998, 6.5565257519069995]}, {"species": [{"element": "C", "occu": 1}], "abc": [0.391268, 0.837375, 0.571709], "properties": {"magmom": 0.0}, "label": "C", "xyz": [4.481342259644, 7.850049537315, 8.752051248093]}, {"species": [{"element": "C", "occu": 1}], "abc": [0.005358, 0.117004, 0.423579], "properties": {"magmom": 0.0}, "label": "C", "xyz": [0.061367226114, 1.328570764908, 6.4843917370829995]}, {"species": [{"element": "C", "occu": 1}], "abc": [0.505358, 0.882996, 0.576421], "properties": {"magmom": 0.0}, "label": "C", "xyz": [5.788058726114, 8.259906235092, 8.824185262916998]}, {"species": [{"element": "C", "occu": 1}], "abc": [0.035071, 0.990352, 0.37543000000000004], "properties": {"magmom": -0.0}, "label": "C", "xyz": [0.401681595193, 9.081411558384, 5.747299063110001]}, {"species": [{"element": "C", "occu": 1}], "abc": [0.535071, 0.009648, 0.6245700000000001], "properties": {"magmom": -0.0}, "label": "C", "xyz": [6.128373095193, 0.5070654416160001, 9.56127793689]}, {"species": [{"element": "C", "occu": 1}], "abc": [0.154674, 0.9508489999999991, 0.371691], "properties": {"magmom": 0.0}, "label": "C", "xyz": [1.7715405621420002, 8.726748609692992, 5.690060293707]}, {"species": [{"element": "C", "occu": 1}], "abc": [0.654674, 0.049151, 0.628309], "properties": {"magmom": 0.0}, "label": "C", "xyz": [7.498232062142, 0.8617283903070001, 9.618516706293]}, {"species": [{"element": "C", "occu": 1}], "abc": [0.189516, 0.828518, 0.32705], "properties": {"magmom": 0.0}, "label": "C", "xyz": [2.170599332628, 7.606156120206001, 5.00667010785]}, {"species": [{"element": "C", "occu": 1}], "abc": [0.689516, 0.171482, 0.67295], "properties": {"magmom": 0.0}, "label": "C", "xyz": [7.897290832628, 1.9823208797940002, 10.30190689215]}, {"species": [{"element": "C", "occu": 1}], "abc": [0.105333, 0.744495999999999, 0.282918], "properties": {"magmom": 0.0}, "label": "C", "xyz": [1.206419191539, 6.827405348111991, 4.331071987686]}, {"species": [{"element": "C", "occu": 1}], "abc": [0.605333, 0.255504, 0.717082], "properties": {"magmom": 0.0}, "label": "C", "xyz": [6.933110691539, 2.7610716518880003, 10.977505012314]}, {"species": [{"element": "C", "occu": 1}], "abc": [0.986857, 0.780660999999999, 0.281997999999999], "properties": {"magmom": 0.0}, "label": "C", "xyz": [11.302851187231001, 7.149171395216991, 4.316988096845985]}, {"species": [{"element": "C", "occu": 1}], "abc": [0.486857, 0.219338999999999, 0.718001999999999], "properties": {"magmom": 0.0}, "label": "C", "xyz": [5.576159687231, 2.439305604782991, 10.991588903153986]}, {"species": [{"element": "C", "occu": 1}], "abc": [0.946784, 0.904952, 0.331663999999999], "properties": {"magmom": -0.0}, "label": "C", "xyz": [10.843879770272, 8.290623600023999, 5.077303882127985]}, {"species": [{"element": "C", "occu": 1}], "abc": [0.446783999999999, 0.095048, 0.668335999999999], "properties": {"magmom": -0.0}, "label": "C", "xyz": [5.117188270271989, 1.2978533999759994, 10.231273117871986]}, {"species": [{"element": "C", "occu": 1}], "abc": [0.7228800000000001, 0.8750700000000001, 0.304094], "properties": {"magmom": -0.0}, "label": "C", "xyz": [8.279421503040002, 8.00565938823, 4.6552464142379995]}, {"species": [{"element": "C", "occu": 1}], "abc": [0.22288000000000002, 0.12493000000000001, 0.695905999999999], "properties": {"magmom": -0.0}, "label": "C", "xyz": [2.55273000304, 1.5828176117699995, 10.653330585761985]}, {"species": [{"element": "C", "occu": 1}], "abc": [0.666496, 0.944646, 0.231657], "properties": {"magmom": -0.0}, "label": "C", "xyz": [7.633633955968, 8.577047779902, 3.546339022089]}, {"species": [{"element": "C", "occu": 1}], "abc": [0.166496, 0.055354, 0.768343], "properties": {"magmom": -0.0}, "label": "C", "xyz": [1.9069424559680002, 1.0114292200980002, 11.762237977911]}, {"species": [{"element": "C", "occu": 1}], "abc": [0.571404999999999, 0.879178999999999, 0.191652], "properties": {"magmom": -0.0}, "label": "C", "xyz": [6.544520313114989, 7.966484418062992, 2.9339193992039996]}, {"species": [{"element": "C", "occu": 1}], "abc": [0.071405, 0.120821, 0.808348], "properties": {"magmom": -0.0}, "label": "C", "xyz": [0.817828813115, 1.621992581937, 12.374657600795999]}, {"species": [{"element": "C", "occu": 1}], "abc": [0.527721, 0.7393400000000001, 0.222338999999999], "properties": {"magmom": 0.0}, "label": "C", "xyz": [6.044190730143, 6.740603191020001, 3.4036937016029847]}, {"species": [{"element": "C", "occu": 1}], "abc": [0.027721, 0.26066, 0.777660999999999], "properties": {"magmom": 0.0}, "label": "C", "xyz": [0.317499230143, 2.8478738089799993, 11.904883298396985]}, {"species": [{"element": "C", "occu": 1}], "abc": [0.578033999999999, 0.670451999999999, 0.299562999999999], "properties": {"magmom": 0.0}, "label": "C", "xyz": [6.620444789021989, 6.178575053363991, 4.585883251850985]}, {"species": [{"element": "C", "occu": 1}], "abc": [0.078033999999999, 0.329548, 0.700437], "properties": {"magmom": 0.0}, "label": "C", "xyz": [0.8937532890219887, 3.4099019466360003, 10.722693748149]}, {"species": [{"element": "C", "occu": 1}], "abc": [0.437613, 0.661212, 0.177685999999999], "properties": {"magmom": -0.0}, "label": "C", "xyz": [5.012149294779, 6.014042165964001, 2.720119812821985]}, {"species": [{"element": "C", "occu": 1}], "abc": [0.937612999999999, 0.338788, 0.822314], "properties": {"magmom": -0.0}, "label": "C", "xyz": [10.738840794778989, 3.574434834036, 12.588457187178]}, {"species": [{"element": "C", "occu": 1}], "abc": [0.399202, 0.523324999999999, 0.207247], "properties": {"magmom": -0.0}, "label": "C", "xyz": [4.572213400366, 4.804802581544992, 3.1726566575189996]}, {"species": [{"element": "C", "occu": 1}], "abc": [0.899202, 0.476674999999999, 0.792752999999999], "properties": {"magmom": -0.0}, "label": "C", "xyz": [10.298904900366, 4.783674418454991, 12.135920342480985]}, {"species": [{"element": "C", "occu": 1}], "abc": [0.444664, 0.453154, 0.285956999999999], "properties": {"magmom": 0.0}, "label": "C", "xyz": [5.092907098312001, 4.232339176938, 4.377594753188985]}, {"species": [{"element": "C", "occu": 1}], "abc": [0.944664, 0.546845999999999, 0.714043], "properties": {"magmom": 0.0}, "label": "C", "xyz": [10.819598598312, 5.356137823061991, 10.930982246811]}, {"species": [{"element": "C", "occu": 1}], "abc": [0.533652, 0.529505, 0.332467], "properties": {"magmom": -0.0}, "label": "C", "xyz": [6.112120744716001, 4.944311375805, 5.0895966694590005]}, {"species": [{"element": "C", "occu": 1}], "abc": [0.033652, 0.470495, 0.667532999999999], "properties": {"magmom": -0.0}, "label": "C", "xyz": [0.38542924471600004, 4.644165624195, 10.218980330540985]}, {"species": [{"element": "C", "occu": 1}], "abc": [0.405983999999999, 0.311077999999999, 0.317919], "properties": {"magmom": -0.0}, "label": "C", "xyz": [4.649890243871989, 2.9873761767659914, 4.866887491263]}, {"species": [{"element": "C", "occu": 1}], "abc": [0.905984, 0.688921999999999, 0.682080999999999], "properties": {"magmom": -0.0}, "label": "C", "xyz": [10.376581743872, 6.601100823233991, 10.441689508736985]}, {"species": [{"element": "C", "occu": 1}], "abc": [0.451789, 0.24703000000000003, 0.395331], "properties": {"magmom": -0.0}, "label": "C", "xyz": [5.174512452187, 2.4686200754700005, 6.051955053986999]}, {"species": [{"element": "C", "occu": 1}], "abc": [0.951789, 0.75297, 0.604669], "properties": {"magmom": -0.0}, "label": "C", "xyz": [10.901203952187, 7.1198569245300005, 9.256621946013]}, {"species": [{"element": "C", "occu": 1}], "abc": [0.537265, 0.321148, 0.441777], "properties": {"magmom": -0.0}, "label": "C", "xyz": [6.153501817495, 3.160643458236, 6.762977221329]}, {"species": [{"element": "C", "occu": 1}], "abc": [0.037265, 0.678852, 0.558223], "properties": {"magmom": -0.0}, "label": "C", "xyz": [0.42681031749500004, 6.4278335417640005, 8.545599778671]}, {"species": [{"element": "C", "occu": 1}], "abc": [0.580633, 0.461315, 0.410935999999999], "properties": {"magmom": 0.0}, "label": "C", "xyz": [6.650212131439, 4.389344760614999, 6.290845398071985]}, {"species": [{"element": "C", "occu": 1}], "abc": [0.080633, 0.538685, 0.589063999999999], "properties": {"magmom": 0.0}, "label": "C", "xyz": [0.923520631439, 5.1991322393849995, 9.017731601927984]}, {"species": [{"element": "C", "occu": 1}], "abc": [0.672692, 0.537071, 0.454397999999999], "properties": {"magmom": -0.0}, "label": "C", "xyz": [7.7045991170359995, 5.093958101186999, 6.956186771645985]}, {"species": [{"element": "C", "occu": 1}], "abc": [0.172691999999999, 0.462929, 0.545601999999999], "properties": {"magmom": -0.0}, "label": "C", "xyz": [1.9779076170359888, 4.494518898812999, 8.352390228353984]}, {"species": [{"element": "C", "occu": 1}], "abc": [0.718904, 0.668693, 0.420813], "properties": {"magmom": 0.0}, "label": "C", "xyz": [8.233882852232, 6.244636669761, 6.442048213101]}, {"species": [{"element": "C", "occu": 1}], "abc": [0.218904, 0.331306999999999, 0.579187], "properties": {"magmom": 0.0}, "label": "C", "xyz": [2.507191352232, 3.3438403302389914, 8.866528786899]}, {"species": [{"element": "C", "occu": 1}], "abc": [0.674752999999999, 0.740167, 0.34166799999999903], "properties": {"magmom": -0.0}, "label": "C", "xyz": [7.728204539398989, 6.828422169819, 5.230450886435985]}, {"species": [{"element": "C", "occu": 1}], "abc": [0.174753, 0.259833, 0.658331999999999], "properties": {"magmom": -0.0}, "label": "C", "xyz": [2.001513039399, 2.7600548301809993, 10.078126113563984]}, {"species": [{"element": "C", "occu": 1}], "abc": [0.909316, 0.683717, 0.229238], "properties": {"magmom": -0.0}, "label": "C", "xyz": [10.414744416028, 6.249413166369, 3.509307574326]}, {"species": [{"element": "C", "occu": 1}], "abc": [0.409315999999999, 0.316283, 0.770762], "properties": {"magmom": -0.0}, "label": "C", "xyz": [4.688052916027989, 3.3390638336309997, 11.799269425673998]}, {"species": [{"element": "C", "occu": 1}], "abc": [0.884664, 0.53705, 0.26126699999999903], "properties": {"magmom": 0.0}, "label": "C", "xyz": [10.132395618312001, 4.963569705569999, 3.999625987058985]}, {"species": [{"element": "C", "occu": 1}], "abc": [0.384664, 0.46295000000000003, 0.738733], "properties": {"magmom": 0.0}, "label": "C", "xyz": [4.405704118312, 4.624907294430001, 11.308951012941]}, {"species": [{"element": "C", "occu": 1}], "abc": [0.812477999999999, 0.441312999999999, 0.216307], "properties": {"magmom": -0.0}, "label": "C", "xyz": [9.30562171307399, 4.079829505340991, 3.3113523651389998]}, {"species": [{"element": "C", "occu": 1}], "abc": [0.312478, 0.558686999999999, 0.783693], "properties": {"magmom": -0.0}, "label": "C", "xyz": [3.578930213074, 5.508647494658992, 11.997224634860999]}, {"species": [{"element": "C", "occu": 1}], "abc": [0.761197, 0.487832, 0.136372], "properties": {"magmom": 0.0}, "label": "C", "xyz": [8.718280779451, 4.440625638264, 2.0876612626439996]}, {"species": [{"element": "C", "occu": 1}], "abc": [0.261197, 0.512168, 0.863628], "properties": {"magmom": 0.0}, "label": "C", "xyz": [2.9915892794510004, 5.1478513617359996, 13.220915737355998]}, {"species": [{"element": "C", "occu": 1}], "abc": [0.788681, 0.634124, 0.100148], "properties": {"magmom": 0.0}, "label": "C", "xyz": [9.033065557823, 5.720298128988001, 1.533123369396]}, {"species": [{"element": "C", "occu": 1}], "abc": [0.288680999999999, 0.365876, 0.899852], "properties": {"magmom": 0.0}, "label": "C", "xyz": [3.306374057822989, 3.868178871012, 13.775453630604]}, {"species": [{"element": "C", "occu": 1}], "abc": [0.681067, 0.395333999999999, 0.090952999999999], "properties": {"magmom": -0.0}, "label": "C", "xyz": [7.800521199661, 3.5854494713579905, 1.3923610038809848]}, {"species": [{"element": "C", "occu": 1}], "abc": [0.181066999999999, 0.604665999999999, 0.909046999999999], "properties": {"magmom": -0.0}, "label": "C", "xyz": [2.0738296996609886, 6.003027528641991, 13.916215996118986]}, {"species": [{"element": "C", "occu": 1}], "abc": [0.629636, 0.444380999999999, 0.014530999999999001], "properties": {"magmom": -0.0}, "label": "C", "xyz": [7.211462258588, 3.971149321736991, 0.2224489323869847]}, {"species": [{"element": "C", "occu": 1}], "abc": [0.129636, 0.555619, 0.985468999999999], "properties": {"magmom": -0.0}, "label": "C", "xyz": [1.4847707585880001, 5.617327678263, 15.086128067612984]}, {"species": [{"element": "C", "occu": 1}], "abc": [0.655808, 0.589969, 0.976047], "properties": {"magmom": -0.0}, "label": "C", "xyz": [7.511220198464, 5.917182531693, 14.941890655119]}, {"species": [{"element": "C", "occu": 1}], "abc": [0.155808, 0.410031, 0.023953], "properties": {"magmom": -0.0}, "label": "C", "xyz": [1.784528698464, 3.6712944683070003, 0.366686344881]}, {"species": [{"element": "C", "occu": 1}], "abc": [0.737383, 0.683407, 0.019100000000000002], "properties": {"magmom": 0.0}, "label": "C", "xyz": [8.445529916689, 6.104983094019, 0.29239382070000003]}, {"species": [{"element": "C", "occu": 1}], "abc": [0.237382999999999, 0.316593, 0.9809], "properties": {"magmom": 0.0}, "label": "C", "xyz": [2.718838416688989, 3.4834939059810006, 15.0161831793]}, {"species": [{"element": "C", "occu": 1}], "abc": [0.603584, 0.644162, 0.897799], "properties": {"magmom": -0.0}, "label": "C", "xyz": [6.913078724672, 6.347524441194, 13.744025122023]}, {"species": [{"element": "C", "occu": 1}], "abc": [0.103584, 0.355838, 0.102201], "properties": {"magmom": -0.0}, "label": "C", "xyz": [1.186387224672, 3.240952558806, 1.564551877977]}, {"species": [{"element": "C", "occu": 1}], "abc": [0.632262, 0.7855200000000001, 0.860978999999999], "properties": {"magmom": -0.0}, "label": "C", "xyz": [7.241538842346, 7.5828118924800005, 13.180363316882985]}, {"species": [{"element": "C", "occu": 1}], "abc": [0.132262, 0.21448, 0.139021], "properties": {"magmom": -0.0}, "label": "C", "xyz": [1.514847342346, 2.00566510752, 2.128213683117]}, {"species": [{"element": "C", "occu": 1}], "abc": [0.7130500000000001, 0.876320999999999, 0.901713999999999], "properties": {"magmom": -0.0}, "label": "C", "xyz": [8.166834748150002, 8.419702697996991, 13.803958200977984]}, {"species": [{"element": "C", "occu": 1}], "abc": [0.21305000000000002, 0.123679, 0.098286], "properties": {"magmom": -0.0}, "label": "C", "xyz": [2.4401432481500005, 1.1687743020030001, 1.504618799022]}, {"species": [{"element": "C", "occu": 1}], "abc": [0.765467999999999, 0.828054, 0.981034], "properties": {"magmom": -0.0}, "label": "C", "xyz": [8.767198178243989, 8.042909730558, 15.018234528617999]}, {"species": [{"element": "C", "occu": 1}], "abc": [0.265468, 0.171946, 0.018966], "properties": {"magmom": -0.0}, "label": "C", "xyz": [3.040506678244, 1.545567269442, 0.290342471382]}, {"species": [{"element": "C", "occu": 1}], "abc": [0.845773999999999, 0.920308999999999, 0.025980000000000003], "properties": {"magmom": 0.0}, "label": "C", "xyz": [9.68697355344199, 8.221440840752992, 0.39771683046000006]}, {"species": [{"element": "C", "occu": 1}], "abc": [0.345773999999999, 0.079691, 0.9740200000000001], "properties": {"magmom": 0.0}, "label": "C", "xyz": [3.960282053441989, 1.3670361592470002, 14.910860169540001]}, {"species": [{"element": "C", "occu": 1}], "abc": [0.892751, 0.8750829999999991, 0.104845], "properties": {"magmom": -0.0}, "label": "C", "xyz": [10.225019126633, 7.871449568510992, 1.6050277555649999]}, {"species": [{"element": "C", "occu": 1}], "abc": [0.392750999999999, 0.124917, 0.895154999999999], "properties": {"magmom": -0.0}, "label": "C", "xyz": [4.498327626632989, 1.7170274314889995, 13.703549244434985]}, {"species": [{"element": "C", "occu": 1}], "abc": [0.864969, 0.731505, 0.145906999999999], "properties": {"magmom": 0.0}, "label": "C", "xyz": [9.906821240127, 6.619232120204999, 2.233628544338985]}, {"species": [{"element": "C", "occu": 1}], "abc": [0.364969, 0.268495, 0.854093], "properties": {"magmom": 0.0}, "label": "C", "xyz": [4.180129740127, 2.969244879795, 13.074948455661]}]}, "task_ids": null, "uncorrected_energy_per_atom": null, "energy_per_atom": -7.08934482530303, "formation_energy_per_atom": 0.018048284015151, "energy_above_hull": 0.13278764060606002, "is_stable": false, "equilibrium_reaction_energy_per_atom": null, "decomposes_to": null, "xas": null, "grain_boundaries": null, "band_gap": 2.2582, "cbm": null, "vbm": null, "efermi": -0.4240699, "is_gap_direct": null, "is_metal": null, "es_source_calc_id": null, "bandstructure": null, "dos": null, "dos_energy_up": null, "dos_energy_down": null, "is_magnetic": null, "ordering": null, "total_magnetization": 0.0030139, "total_magnetization_normalized_vol": null, "total_magnetization_normalized_formula_units": null, "num_magnetic_sites": null, "num_unique_magnetic_sites": null, "types_of_magnetic_species": null, "bulk_modulus": null, "shear_modulus": null, "universal_anisotropy": null, "homogeneous_poisson": null, "e_total": null, "e_ionic": null, "e_electronic": null, "n": null, "e_ij_max": null, "weighted_surface_energy_EV_PER_ANG2": null, "weighted_surface_energy": null, "weighted_work_function": null, "surface_anisotropy": null, "shape_factor": null, "has_reconstructed": null, "possible_species": null, "has_props": null, "theoretical": null, "database_IDs": null, "fields_not_requested": ["builder_meta", "nsites", "elements", "nelements", "composition", "composition_reduced", "chemsys", "symmetry", "property_name", "deprecated", "deprecation_reasons", "last_updated", "origins", "warnings", "task_ids", "uncorrected_energy_per_atom", "equilibrium_reaction_energy_per_atom", "decomposes_to", "xas", "grain_boundaries", "cbm", "vbm", "is_gap_direct", "is_metal", "es_source_calc_id", "bandstructure", "dos", "dos_energy_up", "dos_energy_down", "is_magnetic", "ordering", "total_magnetization_normalized_vol", "total_magnetization_normalized_formula_units", "num_magnetic_sites", "num_unique_magnetic_sites", "types_of_magnetic_species", "bulk_modulus", "shear_modulus", "universal_anisotropy", "homogeneous_poisson", "e_total", "e_ionic", "e_electronic", "n", "e_ij_max", "weighted_surface_energy_EV_PER_ANG2", "weighted_surface_energy", "weighted_work_function", "surface_anisotropy", "shape_factor", "has_reconstructed", "possible_species", "has_props", "theoretical", "database_IDs"]}