{"builder_meta": null, "nsites": null, "elements": null, "nelements": null, "composition": null, "composition_reduced": null, "formula_pretty": "H4W", "formula_anonymous": "AB4", "chemsys": null, "volume": 66.1549916995326, "density": 9.43143938125846, "density_atomic": 6.61549916995326, "symmetry": null, "property_name": null, "material_id": "mp-1078595", "deprecated": null, "deprecation_reasons": null, "last_updated": null, "origins": null, "warnings": null, "structure": {"@module": "pymatgen.core.structure", "@class": "Structure", "charge": 0, "lattice": {"matrix": [[3.07302567, 0.0, 0.0], [0.0, 3.07302567, 0.0], [0.0, 0.0, 7.00535653]], "pbc": [true, true, true], "a": 3.07302567, "b": 3.07302567, "c": 7.00535653, "alpha": 90.0, "beta": 90.0, "gamma": 90.0, "volume": 66.1549916995326}, "properties": {}, "sites": [{"species": [{"element": "H", "occu": 1}], "abc": [0.0, 0.5, 0.87304656], "properties": {"magmom": -0.0}, "label": "H", "xyz": [0.0, 1.536512835, 6.116002420090037]}, {"species": [{"element": "H", "occu": 1}], "abc": [0.5, -0.0, 0.12695344], "properties": {"magmom": -0.0}, "label": "H", "xyz": [1.536512835, 0.0, 0.8893541099099632]}, {"species": [{"element": "H", "occu": 1}], "abc": [-0.0, 0.5, 0.3821082], "properties": {"magmom": 0.0}, "label": "H", "xyz": [0.0, 1.536512835, 2.6768041740365462]}, {"species": [{"element": "H", "occu": 1}], "abc": [0.5, 0.0, 0.6178918], "properties": {"magmom": 0.0}, "label": "H", "xyz": [1.536512835, 0.0, 4.3285523559634544]}, {"species": [{"element": "H", "occu": 1}], "abc": [-0.0, 0.0, 0.71493112], "properties": {"magmom": -0.0}, "label": "H", "xyz": [0.0, 0.0, 5.008347389992214]}, {"species": [{"element": "H", "occu": 1}], "abc": [0.5, 0.5, 0.28506888], "properties": {"magmom": -0.0}, "label": "H", "xyz": [1.536512835, 1.536512835, 1.9970091400077867]}, {"species": [{"element": "H", "occu": 1}], "abc": [-0.0, -0.0, 0.28506888], "properties": {"magmom": -0.0}, "label": "H", "xyz": [0.0, 0.0, 1.9970091400077867]}, {"species": [{"element": "H", "occu": 1}], "abc": [0.5, 0.5, 0.71493112], "properties": {"magmom": -0.0}, "label": "H", "xyz": [1.536512835, 1.536512835, 5.008347389992214]}, {"species": [{"element": "W", "occu": 1}], "abc": [0.0, 0.5, 0.13693942], "properties": {"magmom": 0.0}, "label": "W", "xyz": [0.0, 1.536512835, 0.9593094601114127]}, {"species": [{"element": "W", "occu": 1}], "abc": [0.5, 0.0, 0.86306058], "properties": {"magmom": 0.0}, "label": "W", "xyz": [1.536512835, 0.0, 6.046047069888587]}]}, "task_ids": null, "uncorrected_energy_per_atom": null, "energy_per_atom": -12.887946695, "formation_energy_per_atom": 0.149702102, "energy_above_hull": 0.149702102, "is_stable": false, "equilibrium_reaction_energy_per_atom": null, "decomposes_to": null, "xas": null, "grain_boundaries": null, "band_gap": 0.031199999999999003, "cbm": null, "vbm": null, "efermi": 3.99562626, "is_gap_direct": null, "is_metal": null, "es_source_calc_id": null, "bandstructure": null, "dos": null, "dos_energy_up": null, "dos_energy_down": null, "is_magnetic": null, "ordering": null, "total_magnetization": 0.0, "total_magnetization_normalized_vol": null, "total_magnetization_normalized_formula_units": null, "num_magnetic_sites": null, "num_unique_magnetic_sites": null, "types_of_magnetic_species": null, "bulk_modulus": null, "shear_modulus": null, "universal_anisotropy": null, "homogeneous_poisson": null, "e_total": null, "e_ionic": null, "e_electronic": null, "n": null, "e_ij_max": null, "weighted_surface_energy_EV_PER_ANG2": null, "weighted_surface_energy": null, "weighted_work_function": null, "surface_anisotropy": null, "shape_factor": null, "has_reconstructed": null, "possible_species": null, "has_props": null, "theoretical": null, "database_IDs": null, "fields_not_requested": ["builder_meta", "nsites", "elements", "nelements", "composition", "composition_reduced", "chemsys", "symmetry", "property_name", "deprecated", "deprecation_reasons", "last_updated", "origins", "warnings", "task_ids", "uncorrected_energy_per_atom", "equilibrium_reaction_energy_per_atom", "decomposes_to", "xas", "grain_boundaries", "cbm", "vbm", "is_gap_direct", "is_metal", "es_source_calc_id", "bandstructure", "dos", "dos_energy_up", "dos_energy_down", "is_magnetic", "ordering", "total_magnetization_normalized_vol", "total_magnetization_normalized_formula_units", "num_magnetic_sites", "num_unique_magnetic_sites", "types_of_magnetic_species", "bulk_modulus", "shear_modulus", "universal_anisotropy", "homogeneous_poisson", "e_total", "e_ionic", "e_electronic", "n", "e_ij_max", "weighted_surface_energy_EV_PER_ANG2", "weighted_surface_energy", "weighted_work_function", "surface_anisotropy", "shape_factor", "has_reconstructed", "possible_species", "has_props", "theoretical", "database_IDs"]}