{"builder_meta": null, "nsites": null, "elements": null, "nelements": null, "composition": null, "composition_reduced": null, "formula_pretty": "H5W", "formula_anonymous": "AB5", "chemsys": null, "volume": 84.38247919256015, "density": 7.433820948113154, "density_atomic": 7.03187326604668, "symmetry": null, "property_name": null, "material_id": "mp-2922796", "deprecated": null, "deprecation_reasons": null, "last_updated": null, "origins": null, "warnings": null, "structure": {"@module": "pymatgen.core.structure", "@class": "Structure", "charge": 0.0, "lattice": {"matrix": [[2.84690225, 0.0, 0.0], [0.0, 4.95159986, 0.0], [0.0, 0.0, 5.98596514]], "pbc": [true, true, true], "a": 2.84690225, "b": 4.95159986, "c": 5.98596514, "alpha": 90.0, "beta": 90.0, "gamma": 90.0, "volume": 84.38247919256015}, "properties": {}, "sites": [{"species": [{"element": "H", "occu": 1}], "abc": [0.454810599999999, 0.28817741, 0.60587548], "properties": {"magmom": 0.0}, "label": "H", "xyz": [1.294801320463847, 1.4269392230111626, 3.6267495024607674]}, {"species": [{"element": "H", "occu": 1}], "abc": [0.454810599999999, 0.71182259, 0.39412452000000003], "properties": {"magmom": -0.0}, "label": "H", "xyz": [1.294801320463847, 3.5246606369888376, 2.3592156375392332]}, {"species": [{"element": "H", "occu": 1}], "abc": [0.454810599999999, 0.28817741, 0.89412452], "properties": {"magmom": 0.0}, "label": "H", "xyz": [1.294801320463847, 1.4269392230111626, 5.3521982075392325]}, {"species": [{"element": "H", "occu": 1}], "abc": [0.454810599999999, 0.71182259, 0.10587548000000001], "properties": {"magmom": -0.0}, "label": "H", "xyz": [1.294801320463847, 3.5246606369888376, 0.6337669324607673]}, {"species": [{"element": "H", "occu": 1}], "abc": [0.95466785, 0.80630729, 0.5750204600000001], "properties": {"magmom": -0.0}, "label": "H", "xyz": [2.7178460501676622, 3.9925110642809796, 3.442052428346765]}, {"species": [{"element": "H", "occu": 1}], "abc": [0.95466785, 0.19369271000000002, 0.42497954], "properties": {"magmom": -0.0}, "label": "H", "xyz": [2.7178460501676622, 0.9590887957190207, 2.5439127116532356]}, {"species": [{"element": "H", "occu": 1}], "abc": [0.95466785, 0.80630729, 0.92497954], "properties": {"magmom": -0.0}, "label": "H", "xyz": [2.7178460501676622, 3.9925110642809796, 5.536895281653236]}, {"species": [{"element": "H", "occu": 1}], "abc": [0.95466785, 0.19369271000000002, 0.07502046], "properties": {"magmom": 0.0}, "label": "H", "xyz": [2.7178460501676622, 0.9590887957190207, 0.4490698583467644]}, {"species": [{"element": "H", "occu": 1}], "abc": [0.45478299, 0.8760262, 0.75], "properties": {"magmom": 0.0}, "label": "H", "xyz": [1.2947227174927274, 4.337731209276332, 4.489473855]}, {"species": [{"element": "H", "occu": 1}], "abc": [0.45478299, 0.1239738, 0.25], "properties": {"magmom": -0.0}, "label": "H", "xyz": [1.2947227174927274, 0.6138686507236679, 1.496491285]}, {"species": [{"element": "W", "occu": 1}], "abc": [0.95476812, 0.10702089000000001, 0.75], "properties": {"magmom": -0.0}, "label": "W", "xyz": [2.7181315090562697, 0.5299246239410754, 4.489473855]}, {"species": [{"element": "W", "occu": 1}], "abc": [0.95476812, 0.89297911, 0.25], "properties": {"magmom": 0.0}, "label": "W", "xyz": [2.7181315090562697, 4.421675236058924, 1.496491285]}]}, "task_ids": null, "uncorrected_energy_per_atom": null, "energy_per_atom": -11.128297635208334, "formation_energy_per_atom": 0.31226176249999804, "energy_above_hull": 0.31226176250000004, "is_stable": false, "equilibrium_reaction_energy_per_atom": null, "decomposes_to": null, "xas": null, "grain_boundaries": null, "band_gap": 0.0, "cbm": null, "vbm": null, "efermi": 2.62344804, "is_gap_direct": null, "is_metal": null, "es_source_calc_id": null, "bandstructure": null, "dos": null, "dos_energy_up": null, "dos_energy_down": null, "is_magnetic": null, "ordering": null, "total_magnetization": 0.0, "total_magnetization_normalized_vol": null, "total_magnetization_normalized_formula_units": null, "num_magnetic_sites": null, "num_unique_magnetic_sites": null, "types_of_magnetic_species": null, "bulk_modulus": null, "shear_modulus": null, "universal_anisotropy": null, "homogeneous_poisson": null, "e_total": null, "e_ionic": null, "e_electronic": null, "n": null, "e_ij_max": null, "weighted_surface_energy_EV_PER_ANG2": null, "weighted_surface_energy": null, "weighted_work_function": null, "surface_anisotropy": null, "shape_factor": null, "has_reconstructed": null, "possible_species": null, "has_props": null, "theoretical": null, "database_IDs": null, "fields_not_requested": ["builder_meta", "nsites", "elements", "nelements", "composition", "composition_reduced", "chemsys", "symmetry", "property_name", "deprecated", "deprecation_reasons", "last_updated", "origins", "warnings", "task_ids", "uncorrected_energy_per_atom", "equilibrium_reaction_energy_per_atom", "decomposes_to", "xas", "grain_boundaries", "cbm", "vbm", "is_gap_direct", "is_metal", "es_source_calc_id", "bandstructure", "dos", "dos_energy_up", "dos_energy_down", "is_magnetic", "ordering", "total_magnetization_normalized_vol", "total_magnetization_normalized_formula_units", "num_magnetic_sites", "num_unique_magnetic_sites", "types_of_magnetic_species", "bulk_modulus", "shear_modulus", "universal_anisotropy", "homogeneous_poisson", "e_total", "e_ionic", "e_electronic", "n", "e_ij_max", "weighted_surface_energy_EV_PER_ANG2", "weighted_surface_energy", "weighted_work_function", "surface_anisotropy", "shape_factor", "has_reconstructed", "possible_species", "has_props", "theoretical", "database_IDs"]}