{
  "builder_meta": null,
  "nsites": null,
  "elements": null,
  "nelements": null,
  "composition": null,
  "composition_reduced": null,
  "formula_pretty": "H6W",
  "formula_anonymous": "AB6",
  "chemsys": null,
  "volume": 103.29474085833793,
  "density": 6.105167443459917,
  "density_atomic": 7.378195775595566,
  "symmetry": null,
  "property_name": null,
  "material_id": "mp-1104418",
  "deprecated": null,
  "deprecation_reasons": null,
  "last_updated": null,
  "origins": null,
  "warnings": null,
  "structure": {
    "@module": "pymatgen.core.structure",
    "@class": "Structure",
    "charge": 0,
    "lattice": {
      "matrix": [
        [1.5080900000000002, 5.814264, 0.0],
        [-1.5080900000000002, 5.814264, 0.0],
        [0.0, 3.931318, 5.890148]
      ],
      "pbc": [true, true, true],
      "a": 6.006663076101073,
      "b": 6.006663076101073,
      "c": 7.0816032562568765,
      "alpha": 57.49566833835318,
      "beta": 57.49566833835318,
      "gamma": 29.081619472278316,
      "volume": 103.29474085833795
    },
    "properties": {},
    "sites": [
      {
        "species": [{ "element": "H", "occu": 1 }],
        "abc": [0.462910999999999, 0.462910999999999, 0.01709],
        "properties": { "magmom": 0.0 },
        "label": "H",
        "xyz": [0.0, 5.450159749627988, 0.10066262932]
      },
      {
        "species": [{ "element": "H", "occu": 1 }],
        "abc": [0.537088999999999, 0.537088999999999, 0.9829100000000001],
        "properties": { "magmom": 0.0 },
        "label": "H",
        "xyz": [0.0, 10.109686250371988, 5.7894853706800005]
      },
      {
        "species": [{ "element": "H", "occu": 1 }],
        "abc": [0.446152999999999, 0.446152999999999, 0.664787999999999],
        "properties": { "magmom": -0.0 },
        "label": "H",
        "xyz": [0.0, 7.801595683367985, 3.915699708623994]
      },
      {
        "species": [{ "element": "H", "occu": 1 }],
        "abc": [0.553847, 0.553847, 0.335212],
        "properties": { "magmom": -0.0 },
        "label": "H",
        "xyz": [0.0, 7.758250316631999, 1.974448291376]
      },
      {
        "species": [{ "element": "H", "occu": 1 }],
        "abc": [0.809279, 0.809279, 0.700556],
        "properties": { "magmom": -0.0 },
        "label": "H",
        "xyz": [0.0, 12.16483192412, 4.126378522287999]
      },
      {
        "species": [{ "element": "H", "occu": 1 }],
        "abc": [0.190721, 0.190721, 0.299444],
        "properties": { "magmom": -0.0 },
        "label": "H",
        "xyz": [0.0, 3.39501407588, 1.7637694777119999]
      },
      {
        "species": [{ "element": "H", "occu": 1 }],
        "abc": [0.038625, 0.038625, 0.631514],
        "properties": { "magmom": -0.0 },
        "label": "H",
        "xyz": [0.0, 2.931834249452, 3.719710924072]
      },
      {
        "species": [{ "element": "H", "occu": 1 }],
        "abc": [0.961375, 0.961375, 0.368486],
        "properties": { "magmom": -0.0 },
        "label": "H",
        "xyz": [0.0, 12.628011750548, 2.170437075928]
      },
      {
        "species": [{ "element": "H", "occu": 1 }],
        "abc": [0.257069, 0.257069, 0.805863999999999],
        "properties": { "magmom": -0.0 },
        "label": "H",
        "xyz": [0.0, 6.157441713183996, 4.746658227871994]
      },
      {
        "species": [{ "element": "H", "occu": 1 }],
        "abc": [0.742931, 0.742931, 0.194136],
        "properties": { "magmom": -0.0 },
        "label": "H",
        "xyz": [0.0, 9.402404286816, 1.143489772128]
      },
      {
        "species": [{ "element": "H", "occu": 1 }],
        "abc": [0.832824999999999, 0.832824999999999, 0.343835],
        "properties": { "magmom": -0.0 },
        "label": "H",
        "xyz": [0.0, 11.036253556129989, 2.02523903758]
      },
      {
        "species": [{ "element": "H", "occu": 1 }],
        "abc": [0.167175, 0.167175, 0.656165],
        "properties": { "magmom": -0.0 },
        "label": "H",
        "xyz": [0.0, 4.52359244387, 3.86490896242]
      },
      {
        "species": [{ "element": "W", "occu": 1 }],
        "abc": [0.647247999999999, 0.647247999999999, 0.479398999999999],
        "properties": { "magmom": 0.001 },
        "label": "W",
        "xyz": [0.0, 9.411211408825984, 2.823731061051994]
      },
      {
        "species": [{ "element": "W", "occu": 1 }],
        "abc": [0.352752, 0.352752, 0.520601],
        "properties": { "magmom": 0.001 },
        "label": "W",
        "xyz": [0.0, 6.148634591174, 3.066416938948]
      }
    ]
  },
  "task_ids": null,
  "uncorrected_energy_per_atom": null,
  "energy_per_atom": -10.077777775357143,
  "formation_energy_per_atom": 0.222003479999999,
  "energy_above_hull": 0.222003479999999,
  "is_stable": false,
  "equilibrium_reaction_energy_per_atom": null,
  "decomposes_to": null,
  "xas": null,
  "grain_boundaries": null,
  "band_gap": 0.0,
  "cbm": null,
  "vbm": null,
  "efermi": 1.95116952,
  "is_gap_direct": null,
  "is_metal": null,
  "es_source_calc_id": null,
  "bandstructure": null,
  "dos": null,
  "dos_energy_up": null,
  "dos_energy_down": null,
  "is_magnetic": null,
  "ordering": null,
  "total_magnetization": 0.0014092999999990002,
  "total_magnetization_normalized_vol": null,
  "total_magnetization_normalized_formula_units": null,
  "num_magnetic_sites": null,
  "num_unique_magnetic_sites": null,
  "types_of_magnetic_species": null,
  "bulk_modulus": null,
  "shear_modulus": null,
  "universal_anisotropy": null,
  "homogeneous_poisson": null,
  "e_total": null,
  "e_ionic": null,
  "e_electronic": null,
  "n": null,
  "e_ij_max": null,
  "weighted_surface_energy_EV_PER_ANG2": null,
  "weighted_surface_energy": null,
  "weighted_work_function": null,
  "surface_anisotropy": null,
  "shape_factor": null,
  "has_reconstructed": null,
  "possible_species": null,
  "has_props": null,
  "theoretical": null,
  "database_IDs": null,
  "fields_not_requested": [
    "builder_meta",
    "nsites",
    "elements",
    "nelements",
    "composition",
    "composition_reduced",
    "chemsys",
    "symmetry",
    "property_name",
    "deprecated",
    "deprecation_reasons",
    "last_updated",
    "origins",
    "warnings",
    "task_ids",
    "uncorrected_energy_per_atom",
    "equilibrium_reaction_energy_per_atom",
    "decomposes_to",
    "xas",
    "grain_boundaries",
    "cbm",
    "vbm",
    "is_gap_direct",
    "is_metal",
    "es_source_calc_id",
    "bandstructure",
    "dos",
    "dos_energy_up",
    "dos_energy_down",
    "is_magnetic",
    "ordering",
    "total_magnetization_normalized_vol",
    "total_magnetization_normalized_formula_units",
    "num_magnetic_sites",
    "num_unique_magnetic_sites",
    "types_of_magnetic_species",
    "bulk_modulus",
    "shear_modulus",
    "universal_anisotropy",
    "homogeneous_poisson",
    "e_total",
    "e_ionic",
    "e_electronic",
    "n",
    "e_ij_max",
    "weighted_surface_energy_EV_PER_ANG2",
    "weighted_surface_energy",
    "weighted_work_function",
    "surface_anisotropy",
    "shape_factor",
    "has_reconstructed",
    "possible_species",
    "has_props",
    "theoretical",
    "database_IDs"
  ]
}
