{"builder_meta": null, "nsites": null, "elements": null, "nelements": null, "composition": null, "composition_reduced": null, "formula_pretty": "H7O4", "formula_anonymous": "A4B7", "chemsys": null, "volume": 171.36173128474005, "density": 1.377047025745924, "density_atomic": 7.78916960385182, "symmetry": null, "property_name": null, "material_id": "mp-696717", "deprecated": null, "deprecation_reasons": null, "last_updated": null, "origins": null, "warnings": null, "structure": {"@module": "pymatgen.core.structure", "@class": "Structure", "charge": 0, "lattice": {"matrix": [[-2.825205, 3.380053, 4.486218], [2.825205, -3.380053, 4.486218], [2.825205, 3.380053, -4.486218]], "pbc": [true, true, true], "a": 6.287502963685823, "b": 6.287502963685823, "c": 6.287502963685823, "alpha": 126.5977464483855, "beta": 114.96152833343895, "gamma": 88.95699203303383, "volume": 171.36173128474005}, "properties": {}, "sites": [{"species": [{"element": "H", "occu": 1}], "abc": [0.0, 0.0, 0.5], "properties": {"magmom": -0.002}, "label": "H", "xyz": [1.4126025, 1.6900265, -2.243109]}, {"species": [{"element": "H", "occu": 1}], "abc": [0.5, 0.0, 0.0], "properties": {"magmom": -0.002}, "label": "H", "xyz": [-1.4126025, 1.6900265, 2.243109]}, {"species": [{"element": "H", "occu": 1}], "abc": [0.5, 0.5, 0.5], "properties": {"magmom": -0.002}, "label": "H", "xyz": [1.4126025, 1.6900265, 2.243109]}, {"species": [{"element": "H", "occu": 1}], "abc": [0.0, 0.5, 0.0], "properties": {"magmom": -0.002}, "label": "H", "xyz": [1.4126025, -1.6900265, 2.243109]}, {"species": [{"element": "H", "occu": 1}], "abc": [0.123737, 0.873737, 0.25], "properties": {"magmom": -0.004}, "label": "H", "xyz": [2.8252050000000004, -1.6900265, 3.353331313332]}, {"species": [{"element": "H", "occu": 1}], "abc": [0.376262999999999, 0.126263, 0.25], "properties": {"magmom": -0.004}, "label": "H", "xyz": [2.7755575615628914e-15, 1.6900264999999968, 1.1328866866679956]}, {"species": [{"element": "H", "occu": 1}], "abc": [0.876263, 0.126263, 0.75], "properties": {"magmom": -0.004}, "label": "H", "xyz": [-4.440892098500626e-16, 5.0700795, 1.1328866866680007]}, {"species": [{"element": "H", "occu": 1}], "abc": [0.623737, 0.873737, 0.75], "properties": {"magmom": -0.004}, "label": "H", "xyz": [2.825205, 1.6900265, 3.353331313332]}, {"species": [{"element": "H", "occu": 1}], "abc": [0.25, 0.243506, 0.493506], "properties": {"magmom": -0.002}, "label": "H", "xyz": [1.37590873746, 1.6900265, 0.0]}, {"species": [{"element": "H", "occu": 1}], "abc": [0.25, 0.756494, 0.006494], "properties": {"magmom": -0.002}, "label": "H", "xyz": [1.44929626254, -1.6900265, 4.486218]}, {"species": [{"element": "H", "occu": 1}], "abc": [0.75, 0.756494, 0.506494], "properties": {"magmom": -0.002}, "label": "H", "xyz": [1.4492962625400003, 1.6900265, 4.486217999999999]}, {"species": [{"element": "H", "occu": 1}], "abc": [0.75, 0.243506, 0.993506], "properties": {"magmom": -0.002}, "label": "H", "xyz": [1.3759087374600003, 5.0700795, -8.881784197001252e-16]}, {"species": [{"element": "H", "occu": 1}], "abc": [0.0, 0.5, 0.5], "properties": {"magmom": -0.248}, "label": "H", "xyz": [2.825205, 0.0, 0.0]}, {"species": [{"element": "H", "occu": 1}], "abc": [0.5, 0.5, 0.0], "properties": {"magmom": -0.248}, "label": "H", "xyz": [0.0, 0.0, 4.486218]}, {"species": [{"element": "O", "occu": 1}], "abc": [0.070022, 0.078682, 0.400565], "properties": {"magmom": 0.34}, "label": "O", "xyz": [1.156144516125, 1.3246596709650003, -1.1299033516980002]}, {"species": [{"element": "O", "occu": 1}], "abc": [0.321882, 0.921318, 0.991339], "properties": {"magmom": 0.34}, "label": "O", "xyz": [4.494265483874999, 1.3246529108590002, 1.1299033516980002]}, {"species": [{"element": "O", "occu": 1}], "abc": [0.429977999999999, 0.330543, 0.508661], "properties": {"magmom": 0.34}, "label": "O", "xyz": [1.1561473413300027, 2.055396709087997, 1.1298988654799955]}, {"species": [{"element": "O", "occu": 1}], "abc": [0.178118, 0.669457, 0.099435], "properties": {"magmom": 0.34}, "label": "O", "xyz": [1.6690576586699999, -1.3246562909120003, 3.3563191345199996]}, {"species": [{"element": "O", "occu": 1}], "abc": [0.929978, 0.921318, 0.599434999999999], "properties": {"magmom": 0.34}, "label": "O", "xyz": [1.6690604838749974, 2.055393329034997, 5.616121351698005]}, {"species": [{"element": "O", "occu": 1}], "abc": [0.678118, 0.078682, 0.008661], "properties": {"magmom": 0.34}, "label": "O", "xyz": [-1.669060483875, 2.055400089141, 3.356314648302]}, {"species": [{"element": "O", "occu": 1}], "abc": [0.570022, 0.669457, 0.491338999999999], "properties": {"magmom": 0.34}, "label": "O", "xyz": [1.669057658669997, 1.324656290911997, 3.3563191345200045]}, {"species": [{"element": "O", "occu": 1}], "abc": [0.821882, 0.330543, 0.900565], "properties": {"magmom": 0.34}, "label": "O", "xyz": [1.1561473413299996, 4.704709290912, 1.1298988654800004]}]}, "task_ids": null, "uncorrected_energy_per_atom": null, "energy_per_atom": -4.437389249090909, "formation_energy_per_atom": -0.477570240795454, "energy_above_hull": 0.744250798295452, "is_stable": false, "equilibrium_reaction_energy_per_atom": null, "decomposes_to": null, "xas": null, "grain_boundaries": null, "band_gap": 0.0, "cbm": null, "vbm": null, "efermi": -2.17801928, "is_gap_direct": null, "is_metal": null, "es_source_calc_id": null, "bandstructure": null, "dos": null, "dos_energy_up": null, "dos_energy_down": null, "is_magnetic": null, "ordering": null, "total_magnetization": 2.0000013, "total_magnetization_normalized_vol": null, "total_magnetization_normalized_formula_units": null, "num_magnetic_sites": null, "num_unique_magnetic_sites": null, "types_of_magnetic_species": null, "bulk_modulus": null, "shear_modulus": null, "universal_anisotropy": null, "homogeneous_poisson": null, "e_total": null, "e_ionic": null, "e_electronic": null, "n": null, "e_ij_max": null, "weighted_surface_energy_EV_PER_ANG2": null, "weighted_surface_energy": null, "weighted_work_function": null, "surface_anisotropy": null, "shape_factor": null, "has_reconstructed": null, "possible_species": null, "has_props": null, "theoretical": null, "database_IDs": null, "fields_not_requested": ["builder_meta", "nsites", "elements", "nelements", "composition", "composition_reduced", "chemsys", "symmetry", "property_name", "deprecated", "deprecation_reasons", "last_updated", "origins", "warnings", "task_ids", "uncorrected_energy_per_atom", "equilibrium_reaction_energy_per_atom", "decomposes_to", "xas", "grain_boundaries", "cbm", "vbm", "is_gap_direct", "is_metal", "es_source_calc_id", "bandstructure", "dos", "dos_energy_up", "dos_energy_down", "is_magnetic", "ordering", "total_magnetization_normalized_vol", "total_magnetization_normalized_formula_units", "num_magnetic_sites", "num_unique_magnetic_sites", "types_of_magnetic_species", "bulk_modulus", "shear_modulus", "universal_anisotropy", "homogeneous_poisson", "e_total", "e_ionic", "e_electronic", "n", "e_ij_max", "weighted_surface_energy_EV_PER_ANG2", "weighted_surface_energy", "weighted_work_function", "surface_anisotropy", "shape_factor", "has_reconstructed", "possible_species", "has_props", "theoretical", "database_IDs"]}