{
  "builder_meta": null,
  "nsites": null,
  "elements": null,
  "nelements": null,
  "composition": null,
  "composition_reduced": null,
  "formula_pretty": "H8C5",
  "formula_anonymous": "A5B8",
  "chemsys": null,
  "volume": 439.2789976775241,
  "density": 1.029969321623781,
  "density_atomic": 8.447673032260079,
  "symmetry": null,
  "property_name": null,
  "material_id": "mp-1195106",
  "deprecated": null,
  "deprecation_reasons": null,
  "last_updated": null,
  "origins": null,
  "warnings": null,
  "structure": {
    "@module": "pymatgen.core.structure",
    "@class": "Structure",
    "charge": 0,
    "lattice": {
      "matrix": [
        [6.854012, 0.0, 0.0],
        [0.0, 6.854012, 0.0],
        [0.0, 0.0, 9.350842]
      ],
      "pbc": [true, true, true],
      "a": 6.854012,
      "b": 6.854012,
      "c": 9.350842,
      "alpha": 90.0,
      "beta": 90.0,
      "gamma": 90.0,
      "volume": 439.2789976775241
    },
    "properties": {},
    "sites": [
      {
        "species": [{ "element": "H", "occu": 1 }],
        "abc": [0.8107800000000001, 0.447920999999999, 0.663528999999999],
        "properties": { "magmom": 0.0 },
        "label": "H",
        "xyz": [5.5570958493600005, 3.070055909051993, 6.204554841417991]
      },
      {
        "species": [{ "element": "H", "occu": 1 }],
        "abc": [0.31078, 0.052079, 0.836471],
        "properties": { "magmom": 0.0 },
        "label": "H",
        "xyz": [2.13008984936, 0.356950090948, 7.821708158582]
      },
      {
        "species": [{ "element": "H", "occu": 1 }],
        "abc": [0.18922000000000003, 0.552079, 0.663528999999999],
        "properties": { "magmom": 0.0 },
        "label": "H",
        "xyz": [1.2969161506400002, 3.783956090948, 6.204554841417991]
      },
      {
        "species": [{ "element": "H", "occu": 1 }],
        "abc": [0.68922, 0.9479209999999991, 0.836471],
        "properties": { "magmom": 0.0 },
        "label": "H",
        "xyz": [4.72392215064, 6.497061909051994, 7.821708158582]
      },
      {
        "species": [{ "element": "H", "occu": 1 }],
        "abc": [0.447920999999999, 0.18922000000000003, 0.336470999999999],
        "properties": { "magmom": 0.0 },
        "label": "H",
        "xyz": [3.070055909051993, 1.2969161506400002, 3.1462871585819907]
      },
      {
        "species": [{ "element": "H", "occu": 1 }],
        "abc": [0.052079, 0.68922, 0.163528999999999],
        "properties": { "magmom": 0.0 },
        "label": "H",
        "xyz": [0.356950090948, 4.72392215064, 1.5291338414179907]
      },
      {
        "species": [{ "element": "H", "occu": 1 }],
        "abc": [0.552079, 0.8107800000000001, 0.336470999999999],
        "properties": { "magmom": 0.0 },
        "label": "H",
        "xyz": [3.783956090948, 5.5570958493600005, 3.1462871585819907]
      },
      {
        "species": [{ "element": "H", "occu": 1 }],
        "abc": [0.9479209999999991, 0.31078, 0.163528999999999],
        "properties": { "magmom": 0.0 },
        "label": "H",
        "xyz": [6.497061909051994, 2.13008984936, 1.5291338414179907]
      },
      {
        "species": [{ "element": "H", "occu": 1 }],
        "abc": [0.51976, 0.627092, 0.762336],
        "properties": { "magmom": 0.0 },
        "label": "H",
        "xyz": [3.56244127712, 4.298096093104, 7.128483486912001]
      },
      {
        "species": [{ "element": "H", "occu": 1 }],
        "abc": [0.019760000000000003, 0.872907999999999, 0.737664],
        "properties": { "magmom": 0.0 },
        "label": "H",
        "xyz": [0.13543527712000003, 5.982921906895993, 6.8977795130879995]
      },
      {
        "species": [{ "element": "H", "occu": 1 }],
        "abc": [0.48024000000000006, 0.372907999999999, 0.762336],
        "properties": { "magmom": 0.0 },
        "label": "H",
        "xyz": [3.2915707228800004, 2.555915906895993, 7.128483486912001]
      },
      {
        "species": [{ "element": "H", "occu": 1 }],
        "abc": [0.9802400000000001, 0.127091999999999, 0.737664],
        "properties": { "magmom": 0.0 },
        "label": "H",
        "xyz": [6.718576722880001, 0.8710900931039932, 6.8977795130879995]
      },
      {
        "species": [{ "element": "H", "occu": 1 }],
        "abc": [0.627092, 0.48024000000000006, 0.237664],
        "properties": { "magmom": 0.0 },
        "label": "H",
        "xyz": [4.298096093104, 3.2915707228800004, 2.222358513088]
      },
      {
        "species": [{ "element": "H", "occu": 1 }],
        "abc": [0.872907999999999, 0.9802400000000001, 0.262336],
        "properties": { "magmom": 0.0 },
        "label": "H",
        "xyz": [5.982921906895993, 6.718576722880001, 2.453062486912]
      },
      {
        "species": [{ "element": "H", "occu": 1 }],
        "abc": [0.372907999999999, 0.51976, 0.237664],
        "properties": { "magmom": 0.0 },
        "label": "H",
        "xyz": [2.555915906895993, 3.56244127712, 2.222358513088]
      },
      {
        "species": [{ "element": "H", "occu": 1 }],
        "abc": [0.127091999999999, 0.019760000000000003, 0.262336],
        "properties": { "magmom": 0.0 },
        "label": "H",
        "xyz": [0.8710900931039932, 0.13543527712000003, 2.453062486912]
      },
      {
        "species": [{ "element": "H", "occu": 1 }],
        "abc": [0.7333500000000001, 0.780766, 0.567025999999999],
        "properties": { "magmom": -0.0 },
        "label": "H",
        "xyz": [5.0263897002, 5.3513795331919995, 5.302170535891991]
      },
      {
        "species": [{ "element": "H", "occu": 1 }],
        "abc": [0.23335000000000003, 0.719233999999999, 0.932974],
        "properties": { "magmom": -0.0 },
        "label": "H",
        "xyz": [1.5993837002000002, 4.929638466807994, 8.724092464108]
      },
      {
        "species": [{ "element": "H", "occu": 1 }],
        "abc": [0.26665, 0.219233999999999, 0.567025999999999],
        "properties": { "magmom": -0.0 },
        "label": "H",
        "xyz": [1.8276222998, 1.5026324668079933, 5.302170535891991]
      },
      {
        "species": [{ "element": "H", "occu": 1 }],
        "abc": [0.76665, 0.280765999999999, 0.932974],
        "properties": { "magmom": -0.0 },
        "label": "H",
        "xyz": [5.2546282998, 1.9243735331919933, 8.724092464108]
      },
      {
        "species": [{ "element": "H", "occu": 1 }],
        "abc": [0.780766, 0.26665, 0.432973999999999],
        "properties": { "magmom": -0.0 },
        "label": "H",
        "xyz": [5.3513795331919995, 1.8276222998, 4.048671464107991]
      },
      {
        "species": [{ "element": "H", "occu": 1 }],
        "abc": [0.719233999999999, 0.76665, 0.067026],
        "properties": { "magmom": -0.0 },
        "label": "H",
        "xyz": [4.929638466807994, 5.2546282998, 0.626749535892]
      },
      {
        "species": [{ "element": "H", "occu": 1 }],
        "abc": [0.219233999999999, 0.7333500000000001, 0.432973999999999],
        "properties": { "magmom": -0.0 },
        "label": "H",
        "xyz": [1.5026324668079933, 5.0263897002, 4.048671464107991]
      },
      {
        "species": [{ "element": "H", "occu": 1 }],
        "abc": [0.280765999999999, 0.23335000000000003, 0.067026],
        "properties": { "magmom": -0.0 },
        "label": "H",
        "xyz": [1.9243735331919933, 1.5993837002000002, 0.626749535892]
      },
      {
        "species": [{ "element": "H", "occu": 1 }],
        "abc": [0.843144, 0.631037, 0.435031],
        "properties": { "magmom": 0.0 },
        "label": "H",
        "xyz": [5.778919093728, 4.325135170444, 4.067906146102]
      },
      {
        "species": [{ "element": "H", "occu": 1 }],
        "abc": [0.343144, 0.868962999999999, 0.064969],
        "properties": { "magmom": 0.0 },
        "label": "H",
        "xyz": [2.351913093728, 5.955882829555994, 0.607514853898]
      },
      {
        "species": [{ "element": "H", "occu": 1 }],
        "abc": [0.156856, 0.368963, 0.435031],
        "properties": { "magmom": 0.0 },
        "label": "H",
        "xyz": [1.075092906272, 2.528876829556, 4.067906146102]
      },
      {
        "species": [{ "element": "H", "occu": 1 }],
        "abc": [0.656856, 0.131037, 0.064969],
        "properties": { "magmom": 0.0 },
        "label": "H",
        "xyz": [4.502098906272, 0.8981291704439999, 0.607514853898]
      },
      {
        "species": [{ "element": "H", "occu": 1 }],
        "abc": [0.631037, 0.156856, 0.564968999999999],
        "properties": { "magmom": 0.0 },
        "label": "H",
        "xyz": [4.325135170444, 1.075092906272, 5.282935853897992]
      },
      {
        "species": [{ "element": "H", "occu": 1 }],
        "abc": [0.868962999999999, 0.656856, 0.935031],
        "properties": { "magmom": 0.0 },
        "label": "H",
        "xyz": [5.955882829555994, 4.502098906272, 8.743327146101999]
      },
      {
        "species": [{ "element": "H", "occu": 1 }],
        "abc": [0.368963, 0.843144, 0.564968999999999],
        "properties": { "magmom": 0.0 },
        "label": "H",
        "xyz": [2.528876829556, 5.778919093728, 5.282935853897992]
      },
      {
        "species": [{ "element": "H", "occu": 1 }],
        "abc": [0.131037, 0.343144, 0.935031],
        "properties": { "magmom": 0.0 },
        "label": "H",
        "xyz": [0.8981291704439999, 2.351913093728, 8.743327146101999]
      },
      {
        "species": [{ "element": "C", "occu": 1 }],
        "abc": [0.680487, 0.469842999999999, 0.595951],
        "properties": { "magmom": -0.0 },
        "label": "C",
        "xyz": [4.6640660638439995, 3.220309560115993, 5.572643640742]
      },
      {
        "species": [{ "element": "C", "occu": 1 }],
        "abc": [0.180486999999999, 0.030157, 0.904049],
        "properties": { "magmom": -0.0 },
        "label": "C",
        "xyz": [1.2370600638439933, 0.206696439884, 8.453619359258]
      },
      {
        "species": [{ "element": "C", "occu": 1 }],
        "abc": [0.319513, 0.530157, 0.595951],
        "properties": { "magmom": -0.0 },
        "label": "C",
        "xyz": [2.189945936156, 3.633702439884, 5.572643640742]
      },
      {
        "species": [{ "element": "C", "occu": 1 }],
        "abc": [0.819512999999999, 0.969843, 0.904049],
        "properties": { "magmom": -0.0 },
        "label": "C",
        "xyz": [5.616951936155994, 6.647315560116, 8.453619359258]
      },
      {
        "species": [{ "element": "C", "occu": 1 }],
        "abc": [0.469842999999999, 0.319513, 0.404049],
        "properties": { "magmom": -0.0 },
        "label": "C",
        "xyz": [3.220309560115993, 2.189945936156, 3.778198359258]
      },
      {
        "species": [{ "element": "C", "occu": 1 }],
        "abc": [0.030157, 0.819512999999999, 0.095951],
        "properties": { "magmom": 0.0 },
        "label": "C",
        "xyz": [0.206696439884, 5.616951936155994, 0.897222640742]
      },
      {
        "species": [{ "element": "C", "occu": 1 }],
        "abc": [0.530157, 0.680487, 0.404049],
        "properties": { "magmom": -0.0 },
        "label": "C",
        "xyz": [3.633702439884, 4.6640660638439995, 3.778198359258]
      },
      {
        "species": [{ "element": "C", "occu": 1 }],
        "abc": [0.969843, 0.180486999999999, 0.095951],
        "properties": { "magmom": -0.0 },
        "label": "C",
        "xyz": [6.647315560116, 1.2370600638439933, 0.897222640742]
      },
      {
        "species": [{ "element": "C", "occu": 1 }],
        "abc": [0.710368999999999, 0.650312, 0.500435],
        "properties": { "magmom": -0.0 },
        "label": "C",
        "xyz": [4.868877650427994, 4.457246251744, 4.67948861627]
      },
      {
        "species": [{ "element": "C", "occu": 1 }],
        "abc": [0.210369, 0.849688, 0.999564999999999],
        "properties": { "magmom": -0.0 },
        "label": "C",
        "xyz": [1.441871650428, 5.823771748256, 9.346774383729992]
      },
      {
        "species": [{ "element": "C", "occu": 1 }],
        "abc": [0.28963099999999903, 0.349688, 0.500435],
        "properties": { "magmom": -0.0 },
        "label": "C",
        "xyz": [1.9851343495719933, 2.396765748256, 4.67948861627]
      },
      {
        "species": [{ "element": "C", "occu": 1 }],
        "abc": [0.789631, 0.150312, 0.999564999999999],
        "properties": { "magmom": -0.0 },
        "label": "C",
        "xyz": [5.412140349572, 1.030240251744, 9.346774383729992]
      },
      {
        "species": [{ "element": "C", "occu": 1 }],
        "abc": [0.650312, 0.28963099999999903, 0.499565],
        "properties": { "magmom": -0.0 },
        "label": "C",
        "xyz": [4.457246251744, 1.9851343495719933, 4.67135338373]
      },
      {
        "species": [{ "element": "C", "occu": 1 }],
        "abc": [0.849688, 0.789631, 0.000435],
        "properties": { "magmom": -0.0 },
        "label": "C",
        "xyz": [5.823771748256, 5.412140349572, 0.00406761627]
      },
      {
        "species": [{ "element": "C", "occu": 1 }],
        "abc": [0.349688, 0.710368999999999, 0.499565],
        "properties": { "magmom": -0.0 },
        "label": "C",
        "xyz": [2.396765748256, 4.868877650427994, 4.67135338373]
      },
      {
        "species": [{ "element": "C", "occu": 1 }],
        "abc": [0.150312, 0.210369, 0.000435],
        "properties": { "magmom": -0.0 },
        "label": "C",
        "xyz": [1.030240251744, 1.441871650428, 0.00406761627]
      },
      {
        "species": [{ "element": "C", "occu": 1 }],
        "abc": [0.5, 0.5, 0.691288999999999],
        "properties": { "magmom": 0.0 },
        "label": "C",
        "xyz": [3.427006, 3.427006, 6.4641342153379915]
      },
      {
        "species": [{ "element": "C", "occu": 1 }],
        "abc": [0.0, 0.0, 0.808711],
        "properties": { "magmom": 0.0 },
        "label": "C",
        "xyz": [0.0, 0.0, 7.562128784662]
      },
      {
        "species": [{ "element": "C", "occu": 1 }],
        "abc": [0.5, 0.5, 0.308711],
        "properties": { "magmom": 0.0 },
        "label": "C",
        "xyz": [3.427006, 3.427006, 2.886707784662]
      },
      {
        "species": [{ "element": "C", "occu": 1 }],
        "abc": [0.0, 0.0, 0.191289],
        "properties": { "magmom": 0.0 },
        "label": "C",
        "xyz": [0.0, 0.0, 1.7887132153379999]
      }
    ]
  },
  "task_ids": null,
  "uncorrected_energy_per_atom": null,
  "energy_per_atom": -5.7766302273076935,
  "formation_energy_per_atom": -0.13781030634615402,
  "energy_above_hull": 0.056363989423076,
  "is_stable": false,
  "equilibrium_reaction_energy_per_atom": null,
  "decomposes_to": null,
  "xas": null,
  "grain_boundaries": null,
  "band_gap": 4.9384,
  "cbm": null,
  "vbm": null,
  "efermi": 2.97117386,
  "is_gap_direct": null,
  "is_metal": null,
  "es_source_calc_id": null,
  "bandstructure": null,
  "dos": null,
  "dos_energy_up": null,
  "dos_energy_down": null,
  "is_magnetic": null,
  "ordering": null,
  "total_magnetization": 0.0,
  "total_magnetization_normalized_vol": null,
  "total_magnetization_normalized_formula_units": null,
  "num_magnetic_sites": null,
  "num_unique_magnetic_sites": null,
  "types_of_magnetic_species": null,
  "bulk_modulus": null,
  "shear_modulus": null,
  "universal_anisotropy": null,
  "homogeneous_poisson": null,
  "e_total": null,
  "e_ionic": null,
  "e_electronic": null,
  "n": null,
  "e_ij_max": null,
  "weighted_surface_energy_EV_PER_ANG2": null,
  "weighted_surface_energy": null,
  "weighted_work_function": null,
  "surface_anisotropy": null,
  "shape_factor": null,
  "has_reconstructed": null,
  "possible_species": null,
  "has_props": null,
  "theoretical": null,
  "database_IDs": null,
  "fields_not_requested": [
    "builder_meta",
    "nsites",
    "elements",
    "nelements",
    "composition",
    "composition_reduced",
    "chemsys",
    "symmetry",
    "property_name",
    "deprecated",
    "deprecation_reasons",
    "last_updated",
    "origins",
    "warnings",
    "task_ids",
    "uncorrected_energy_per_atom",
    "equilibrium_reaction_energy_per_atom",
    "decomposes_to",
    "xas",
    "grain_boundaries",
    "cbm",
    "vbm",
    "is_gap_direct",
    "is_metal",
    "es_source_calc_id",
    "bandstructure",
    "dos",
    "dos_energy_up",
    "dos_energy_down",
    "is_magnetic",
    "ordering",
    "total_magnetization_normalized_vol",
    "total_magnetization_normalized_formula_units",
    "num_magnetic_sites",
    "num_unique_magnetic_sites",
    "types_of_magnetic_species",
    "bulk_modulus",
    "shear_modulus",
    "universal_anisotropy",
    "homogeneous_poisson",
    "e_total",
    "e_ionic",
    "e_electronic",
    "n",
    "e_ij_max",
    "weighted_surface_energy_EV_PER_ANG2",
    "weighted_surface_energy",
    "weighted_work_function",
    "surface_anisotropy",
    "shape_factor",
    "has_reconstructed",
    "possible_species",
    "has_props",
    "theoretical",
    "database_IDs"
  ]
}
