{"builder_meta": null, "nsites": null, "elements": null, "nelements": null, "composition": null, "composition_reduced": null, "formula_pretty": "HC2", "formula_anonymous": "AB2", "chemsys": null, "volume": 743.4401050968248, "density": 1.3417257399898062, "density_atomic": 10.325557015233677, "symmetry": null, "property_name": null, "material_id": "mp-603334", "deprecated": null, "deprecation_reasons": null, "last_updated": null, "origins": null, "warnings": null, "structure": {"@module": "pymatgen.core.structure", "@class": "Structure", "charge": 0, "lattice": {"matrix": [[4.762271, 0.0, 0.0], [0.0, 10.228366, 0.0], [0.0, 5.889058, 15.262498]], "pbc": [true, true, true], "a": 4.762271, "b": 10.228366, "c": 16.359243543861314, "alpha": 68.9008163486706, "beta": 90.0, "gamma": 90.0, "volume": 743.4401050968248}, "properties": {}, "sites": [{"species": [{"element": "H", "occu": 1}], "abc": [0.8223800000000001, 0.932129, 0.728293], "properties": {"magmom": 0.0}, "label": "H", "xyz": [3.9163964249800007, 13.823116289208, 11.115570455914]}, {"species": [{"element": "H", "occu": 1}], "abc": [0.533687999999999, 0.691975999999999, 0.24157], "properties": {"magmom": 0.0}, "label": "H", "xyz": [2.5415668854479954, 8.500403532275989, 3.6869616418600004]}, {"species": [{"element": "H", "occu": 1}], "abc": [0.130700999999999, 0.809574999999999, 0.342854], "properties": {"magmom": 0.0}, "label": "H", "xyz": [0.6224335819709953, 10.29971649598199, 5.232808489292]}, {"species": [{"element": "H", "occu": 1}], "abc": [0.033687999999999, 0.308023999999999, 0.25843000000000005], "properties": {"magmom": 0.0}, "label": "H", "xyz": [0.16043138544799526, 4.67249146772399, 3.944287358140001]}, {"species": [{"element": "H", "occu": 1}], "abc": [0.40964000000000006, 0.498050999999999, 0.415616], "properties": {"magmom": 0.0}, "label": "H", "xyz": [1.9508166924400003, 7.541834644393989, 6.343338368768]}, {"species": [{"element": "H", "occu": 1}], "abc": [0.17762000000000003, 0.067871, 0.271707], "properties": {"magmom": 0.0}, "label": "H", "xyz": [0.8458745750200002, 2.294307710792, 4.146927544086]}, {"species": [{"element": "H", "occu": 1}], "abc": [0.248291999999999, 0.534596, 0.687425], "properties": {"magmom": 0.0}, "label": "H", "xyz": [1.1824337911319953, 9.516329245786, 10.49182268765]}, {"species": [{"element": "H", "occu": 1}], "abc": [0.251708, 0.534596, 0.187424999999999], "properties": {"magmom": 0.0}, "label": "H", "xyz": [1.1987017088679999, 6.571800245785994, 2.860573687649985]}, {"species": [{"element": "H", "occu": 1}], "abc": [0.913164, 0.603995, 0.45408000000000004], "properties": {"magmom": 0.0}, "label": "H", "xyz": [4.348734435444, 8.85198537881, 6.930395091840001]}, {"species": [{"element": "H", "occu": 1}], "abc": [0.630701, 0.190424999999999, 0.157145999999999], "properties": {"magmom": 0.0}, "label": "H", "xyz": [3.003569081971, 2.873178504017984, 2.398440510707985]}, {"species": [{"element": "H", "occu": 1}], "abc": [0.086836, 0.396005, 0.5459200000000001], "properties": {"magmom": 0.0}, "label": "H", "xyz": [0.413536564556, 7.26543862119, 8.332102908160001]}, {"species": [{"element": "H", "occu": 1}], "abc": [0.466312, 0.308023999999999, 0.75843], "properties": {"magmom": 0.0}, "label": "H", "xyz": [2.220704114552, 7.617020467723989, 11.57553635814]}, {"species": [{"element": "H", "occu": 1}], "abc": [0.966312, 0.691975999999999, 0.7415700000000001], "properties": {"magmom": 0.0}, "label": "H", "xyz": [4.6018396145519995, 11.44493253227599, 11.318210641860002]}, {"species": [{"element": "H", "occu": 1}], "abc": [0.9096400000000001, 0.501949, 0.084384], "properties": {"magmom": 0.0}, "label": "H", "xyz": [4.331952192440001, 5.6310603556059995, 1.2879106312320001]}, {"species": [{"element": "H", "occu": 1}], "abc": [0.751707999999999, 0.465404, 0.312575], "properties": {"magmom": 0.0}, "label": "H", "xyz": [3.5798372088679957, 6.6010947542139995, 4.77067531235]}, {"species": [{"element": "H", "occu": 1}], "abc": [0.869298999999999, 0.190424999999999, 0.657146], "properties": {"magmom": 0.0}, "label": "H", "xyz": [4.139837418028995, 5.81770750401799, 10.029689510708002]}, {"species": [{"element": "H", "occu": 1}], "abc": [0.59036, 0.501949, 0.584384], "properties": {"magmom": 0.0}, "label": "H", "xyz": [2.81145430756, 8.575589355605999, 8.919159631232]}, {"species": [{"element": "H", "occu": 1}], "abc": [0.67762, 0.932129, 0.228293], "properties": {"magmom": 0.0}, "label": "H", "xyz": [3.22701007502, 10.878587289208, 3.4843214559140003]}, {"species": [{"element": "H", "occu": 1}], "abc": [0.748292, 0.465404, 0.812574999999999], "properties": {"magmom": 0.0}, "label": "H", "xyz": [3.563569291132, 9.545623754213995, 12.401924312349987]}, {"species": [{"element": "H", "occu": 1}], "abc": [0.586836, 0.603995, 0.95408], "properties": {"magmom": 0.0}, "label": "H", "xyz": [2.7946720645560004, 11.796514378809999, 14.561644091840002]}, {"species": [{"element": "H", "occu": 1}], "abc": [0.413164, 0.396005, 0.04592], "properties": {"magmom": 0.0}, "label": "H", "xyz": [1.967598935444, 4.320909621189999, 0.70085390816]}, {"species": [{"element": "H", "occu": 1}], "abc": [0.32238, 0.067871, 0.771706999999999], "properties": {"magmom": 0.0}, "label": "H", "xyz": [1.53526092498, 5.238836710791995, 11.778176544085985]}, {"species": [{"element": "H", "occu": 1}], "abc": [0.09036000000000001, 0.498050999999999, 0.915616], "properties": {"magmom": 0.0}, "label": "H", "xyz": [0.43031880756000007, 10.48636364439399, 13.974587368768]}, {"species": [{"element": "H", "occu": 1}], "abc": [0.369299, 0.809574999999999, 0.842854], "properties": {"magmom": 0.0}, "label": "H", "xyz": [1.758701918029, 13.244245495981989, 12.864057489292]}, {"species": [{"element": "C", "occu": 1}], "abc": [0.298751, 0.018682999999999002, 0.559315], "properties": {"magmom": -0.0}, "label": "C", "xyz": [1.422733223521, 3.48493503724799, 8.53654406887]}, {"species": [{"element": "C", "occu": 1}], "abc": [0.420892, 0.138041, 0.493685999999999], "properties": {"magmom": -0.0}, "label": "C", "xyz": [2.004401765732, 4.319279358793994, 7.534881587627986]}, {"species": [{"element": "C", "occu": 1}], "abc": [0.8564900000000001, 0.709075999999999, 0.451119], "properties": {"magmom": 0.0}, "label": "C", "xyz": [4.0788374887900005, 9.90935480571799, 6.8852028352620005]}, {"species": [{"element": "C", "occu": 1}], "abc": [0.701249, 0.981317, 0.440685], "properties": {"magmom": -0.0}, "label": "C", "xyz": [3.339537776479, 12.632488962752, 6.72595393113]}, {"species": [{"element": "C", "occu": 1}], "abc": [0.920891999999999, 0.861958999999999, 0.006313999999999], "properties": {"magmom": -0.0}, "label": "C", "xyz": [4.385537265731996, 8.853615641205984, 0.09636741237198475]}, {"species": [{"element": "C", "occu": 1}], "abc": [0.256316999999999, 0.761994, 0.631984], "properties": {"magmom": -0.0}, "label": "C", "xyz": [1.2206510159069954, 11.515743952875999, 9.645654536032]}, {"species": [{"element": "C", "occu": 1}], "abc": [0.079108, 0.138041, 0.993686], "properties": {"magmom": -0.0}, "label": "C", "xyz": [0.376733734268, 7.263808358794, 15.166130587628]}, {"species": [{"element": "C", "occu": 1}], "abc": [0.35649000000000003, 0.290923999999999, 0.048881], "properties": {"magmom": 0.0}, "label": "C", "xyz": [1.6977019887900002, 3.26354019428199, 0.746046164738]}, {"species": [{"element": "C", "occu": 1}], "abc": [0.94452, 0.216461, 0.309651], "properties": {"magmom": 0.0}, "label": "C", "xyz": [4.498060204920001, 4.037595031484, 4.726047768198001]}, {"species": [{"element": "C", "occu": 1}], "abc": [0.14351, 0.290923999999999, 0.548881], "properties": {"magmom": 0.0}, "label": "C", "xyz": [0.6834335112100001, 6.20806919428199, 8.377295164738]}, {"species": [{"element": "C", "occu": 1}], "abc": [0.657759, 0.724379, 0.512277], "properties": {"magmom": -0.0}, "label": "C", "xyz": [3.132426610689, 10.42604249978, 7.818626687946]}, {"species": [{"element": "C", "occu": 1}], "abc": [0.403665, 0.037207, 0.11847], "properties": {"magmom": 0.0}, "label": "C", "xyz": [1.922362123215, 1.078243515022, 1.8081481380600002]}, {"species": [{"element": "C", "occu": 1}], "abc": [0.44452, 0.783539, 0.190349], "properties": {"magmom": 0.0}, "label": "C", "xyz": [2.11692470492, 9.135299968515998, 2.905201231802]}, {"species": [{"element": "C", "occu": 1}], "abc": [0.201248999999999, 0.018682999999999002, 0.059315], "properties": {"magmom": -0.0}, "label": "C", "xyz": [0.9584022764789953, 0.5404060372479897, 0.90529506887]}, {"species": [{"element": "C", "occu": 1}], "abc": [0.034061, 0.392096, 0.920721999999999], "properties": {"magmom": -0.0}, "label": "C", "xyz": [0.162207712531, 9.432686655011995, 14.052517683555987]}, {"species": [{"element": "C", "occu": 1}], "abc": [0.596335, 0.962793, 0.88153], "properties": {"magmom": 0.0}, "label": "C", "xyz": [2.839908876785, 15.039180484978, 13.45434986194]}, {"species": [{"element": "C", "occu": 1}], "abc": [0.05548, 0.783539, 0.690349], "properties": {"magmom": 0.0}, "label": "C", "xyz": [0.26421079508, 12.079828968515999, 10.536450231802]}, {"species": [{"element": "C", "occu": 1}], "abc": [0.476728999999999, 0.083273, 0.816674999999999], "properties": {"magmom": 0.0}, "label": "C", "xyz": [2.2703126915589955, 5.661193164067994, 12.464500554149986]}, {"species": [{"element": "C", "occu": 1}], "abc": [0.965939, 0.607904, 0.079278], "properties": {"magmom": -0.0}, "label": "C", "xyz": [4.600063287469, 6.684737344987999, 1.2099803164440002]}, {"species": [{"element": "C", "occu": 1}], "abc": [0.5554800000000001, 0.216461, 0.809651], "properties": {"magmom": 0.0}, "label": "C", "xyz": [2.6453462950800004, 6.982124031484, 12.357296768198001]}, {"species": [{"element": "C", "occu": 1}], "abc": [0.798751, 0.981317, 0.940685], "properties": {"magmom": -0.0}, "label": "C", "xyz": [3.803868723521, 15.577017962751999, 14.35720293113]}, {"species": [{"element": "C", "occu": 1}], "abc": [0.841185, 0.374003, 0.862902], "properties": {"magmom": -0.0}, "label": "C", "xyz": [4.005950931135, 8.907119495414, 13.170040049196]}, {"species": [{"element": "C", "occu": 1}], "abc": [0.903664999999999, 0.962793, 0.38153000000000004], "properties": {"magmom": 0.0}, "label": "C", "xyz": [4.303497623214995, 12.094651484978, 5.82310086194]}, {"species": [{"element": "C", "occu": 1}], "abc": [0.465939, 0.392096, 0.420722], "properties": {"magmom": -0.0}, "label": "C", "xyz": [2.218927787469, 6.4881576550119995, 6.421268683556]}, {"species": [{"element": "C", "occu": 1}], "abc": [0.534061, 0.607904, 0.579278], "properties": {"magmom": -0.0}, "label": "C", "xyz": [2.543343212531, 9.629266344988, 8.841229316444]}, {"species": [{"element": "C", "occu": 1}], "abc": [0.342240999999999, 0.275621, 0.487722999999999], "properties": {"magmom": -0.0}, "label": "C", "xyz": [1.6298443893109953, 5.691381500219994, 7.443871312053985]}, {"species": [{"element": "C", "occu": 1}], "abc": [0.756317, 0.238006, 0.868016], "properties": {"magmom": -0.0}, "label": "C", "xyz": [3.6017865159070004, 7.546209047124, 13.248092463968002]}, {"species": [{"element": "C", "occu": 1}], "abc": [0.476786, 0.17589000000000002, 0.111571999999999], "properties": {"magmom": -0.0}, "label": "C", "xyz": [2.270584141006, 2.4561212749159944, 1.702867426855985]}, {"species": [{"element": "C", "occu": 1}], "abc": [0.523270999999999, 0.916727, 0.183325], "properties": {"magmom": 0.0}, "label": "C", "xyz": [2.4919583084409953, 10.456230835932, 2.79799744585]}, {"species": [{"element": "C", "occu": 1}], "abc": [0.579108, 0.861958999999999, 0.506313999999999], "properties": {"magmom": -0.0}, "label": "C", "xyz": [2.757869234268, 11.798144641205983, 7.727616412371986]}, {"species": [{"element": "C", "occu": 1}], "abc": [0.158814999999999, 0.625997, 0.137098], "properties": {"magmom": -0.0}, "label": "C", "xyz": [0.7563200688649954, 7.210304504586, 2.092457950804]}, {"species": [{"element": "C", "occu": 1}], "abc": [0.622269, 0.119336, 0.434127], "properties": {"magmom": 0.0}, "label": "C", "xyz": [2.963413612899, 3.777211367342, 6.625862469246]}, {"species": [{"element": "C", "occu": 1}], "abc": [0.243682999999999, 0.761994, 0.131984], "properties": {"magmom": -0.0}, "label": "C", "xyz": [1.1604844840929953, 8.571214952876, 2.014405536032]}, {"species": [{"element": "C", "occu": 1}], "abc": [0.877730999999999, 0.119336, 0.934126999999999], "properties": {"magmom": 0.0}, "label": "C", "xyz": [4.179992887100996, 6.721740367341995, 14.257111469245986]}, {"species": [{"element": "C", "occu": 1}], "abc": [0.096334999999999, 0.037207, 0.6184700000000001], "properties": {"magmom": 0.0}, "label": "C", "xyz": [0.4587733767849953, 4.022772515022001, 9.439397138060002]}, {"species": [{"element": "C", "occu": 1}], "abc": [0.157758999999999, 0.275621, 0.9877229999999991], "properties": {"magmom": -0.0}, "label": "C", "xyz": [0.7512911106889953, 8.635910500219996, 15.075120312053988]}, {"species": [{"element": "C", "occu": 1}], "abc": [0.523214, 0.8241100000000001, 0.888428], "properties": {"magmom": -0.0}, "label": "C", "xyz": [2.491686858994, 13.661302725084001, 13.559630573144]}, {"species": [{"element": "C", "occu": 1}], "abc": [0.377731, 0.880664, 0.565873], "properties": {"magmom": 0.0}, "label": "C", "xyz": [1.798857387101, 12.340212632658, 8.636635530753999]}, {"species": [{"element": "C", "occu": 1}], "abc": [0.658814999999999, 0.374003, 0.362902], "properties": {"magmom": -0.0}, "label": "C", "xyz": [3.1374555688649957, 5.962590495414, 5.538791049196]}, {"species": [{"element": "C", "occu": 1}], "abc": [0.842240999999999, 0.724379, 0.012277], "properties": {"magmom": -0.0}, "label": "C", "xyz": [4.010979889310995, 7.481513499779999, 0.18737768794600002]}, {"species": [{"element": "C", "occu": 1}], "abc": [0.976729, 0.916727, 0.683325], "properties": {"magmom": 0.0}, "label": "C", "xyz": [4.651448191559, 13.400759835932, 10.42924644585]}, {"species": [{"element": "C", "occu": 1}], "abc": [0.743683, 0.238006, 0.368016], "properties": {"magmom": -0.0}, "label": "C", "xyz": [3.541619984093, 4.601680047124, 5.616843463968]}, {"species": [{"element": "C", "occu": 1}], "abc": [0.122268999999999, 0.880664, 0.065873], "properties": {"magmom": 0.0}, "label": "C", "xyz": [0.5822781128989952, 9.395683632658, 1.005386530754]}, {"species": [{"element": "C", "occu": 1}], "abc": [0.64351, 0.709075999999999, 0.951118999999999], "properties": {"magmom": 0.0}, "label": "C", "xyz": [3.06456901121, 12.853883805717985, 14.516451835261986]}, {"species": [{"element": "C", "occu": 1}], "abc": [0.341184999999999, 0.625997, 0.637097999999999], "properties": {"magmom": -0.0}, "label": "C", "xyz": [1.6248154311349954, 10.154833504585994, 9.723706950803987]}, {"species": [{"element": "C", "occu": 1}], "abc": [0.976785999999999, 0.8241100000000001, 0.388428], "properties": {"magmom": -0.0}, "label": "C", "xyz": [4.651719641005996, 10.716773725084, 5.928381573144001]}, {"species": [{"element": "C", "occu": 1}], "abc": [0.023271, 0.083273, 0.316675], "properties": {"magmom": 0.0}, "label": "C", "xyz": [0.11082280844100001, 2.716664164068, 4.83325155415]}, {"species": [{"element": "C", "occu": 1}], "abc": [0.023214, 0.17589000000000002, 0.611572], "properties": {"magmom": -0.0}, "label": "C", "xyz": [0.110551358994, 5.400650274916, 9.334116426856001]}]}, "task_ids": null, "uncorrected_energy_per_atom": null, "energy_per_atom": -7.281974915277778, "formation_energy_per_atom": 0.002190892638888, "energy_above_hull": 0.107368636180553, "is_stable": false, "equilibrium_reaction_energy_per_atom": null, "decomposes_to": null, "xas": null, "grain_boundaries": null, "band_gap": 2.4998, "cbm": null, "vbm": null, "efermi": 1.14112952, "is_gap_direct": null, "is_metal": null, "es_source_calc_id": null, "bandstructure": null, "dos": null, "dos_energy_up": null, "dos_energy_down": null, "is_magnetic": null, "ordering": null, "total_magnetization": 4.05e-05, "total_magnetization_normalized_vol": null, "total_magnetization_normalized_formula_units": null, "num_magnetic_sites": null, "num_unique_magnetic_sites": null, "types_of_magnetic_species": null, "bulk_modulus": null, "shear_modulus": null, "universal_anisotropy": null, "homogeneous_poisson": null, "e_total": null, "e_ionic": null, "e_electronic": null, "n": null, "e_ij_max": null, "weighted_surface_energy_EV_PER_ANG2": null, "weighted_surface_energy": null, "weighted_work_function": null, "surface_anisotropy": null, "shape_factor": null, "has_reconstructed": null, "possible_species": null, "has_props": null, "theoretical": null, "database_IDs": null, "fields_not_requested": ["builder_meta", "nsites", "elements", "nelements", "composition", "composition_reduced", "chemsys", "symmetry", "property_name", "deprecated", "deprecation_reasons", "last_updated", "origins", "warnings", "task_ids", "uncorrected_energy_per_atom", "equilibrium_reaction_energy_per_atom", "decomposes_to", "xas", "grain_boundaries", "cbm", "vbm", "is_gap_direct", "is_metal", "es_source_calc_id", "bandstructure", "dos", "dos_energy_up", "dos_energy_down", "is_magnetic", "ordering", "total_magnetization_normalized_vol", "total_magnetization_normalized_formula_units", "num_magnetic_sites", "num_unique_magnetic_sites", "types_of_magnetic_species", "bulk_modulus", "shear_modulus", "universal_anisotropy", "homogeneous_poisson", "e_total", "e_ionic", "e_electronic", "n", "e_ij_max", "weighted_surface_energy_EV_PER_ANG2", "weighted_surface_energy", "weighted_work_function", "surface_anisotropy", "shape_factor", "has_reconstructed", "possible_species", "has_props", "theoretical", "database_IDs"]}