{
  "builder_meta": null,
  "nsites": null,
  "elements": null,
  "nelements": null,
  "composition": null,
  "composition_reduced": null,
  "formula_pretty": "HC3",
  "formula_anonymous": "AB3",
  "chemsys": null,
  "volume": 73.1585749125948,
  "density": 1.681455209369799,
  "density_atomic": 9.14482186407435,
  "symmetry": null,
  "property_name": null,
  "material_id": "mp-995200",
  "deprecated": null,
  "deprecation_reasons": null,
  "last_updated": null,
  "origins": null,
  "warnings": null,
  "structure": {
    "@module": "pymatgen.core.structure",
    "@class": "Structure",
    "charge": 0,
    "lattice": {
      "matrix": [
        [2.463933, 0.0, 0.0],
        [0.0, 3.663947, 0.0],
        [0.0, 0.24145000000000003, 8.103771]
      ],
      "pbc": [true, true, true],
      "a": 2.463933,
      "b": 3.663947,
      "c": 8.107367175781604,
      "alpha": 88.29339026096275,
      "beta": 90.0,
      "gamma": 90.0,
      "volume": 73.1585749125948
    },
    "properties": {},
    "sites": [
      {
        "species": [{ "element": "H", "occu": 1 }],
        "abc": [0.25, 0.23987399999999903, 0.080502999999999],
        "properties": { "magmom": 0.0 },
        "label": "H",
        "xyz": [0.61598325, 0.8983230720279962, 0.652377876812992]
      },
      {
        "species": [{ "element": "H", "occu": 1 }],
        "abc": [0.75, 0.760126, 0.919497],
        "properties": { "magmom": 0.0 },
        "label": "H",
        "xyz": [1.84794975, 3.007073927972, 7.4513931231870005]
      },
      {
        "species": [{ "element": "C", "occu": 1 }],
        "abc": [0.25, 0.322534999999999, 0.20883000000000002],
        "properties": { "magmom": 0.0 },
        "label": "C",
        "xyz": [0.61598325, 1.2321731491449963, 1.69231049793]
      },
      {
        "species": [{ "element": "C", "occu": 1 }],
        "abc": [0.75, 0.677465, 0.79117],
        "properties": { "magmom": 0.0 },
        "label": "C",
        "xyz": [1.84794975, 2.673223850855, 6.411460502070001]
      },
      {
        "species": [{ "element": "C", "occu": 1 }],
        "abc": [0.75, 0.374386999999999, 0.288825],
        "properties": { "magmom": -0.0 },
        "label": "C",
        "xyz": [1.84794975, 1.4414709217389963, 2.340571659075]
      },
      {
        "species": [{ "element": "C", "occu": 1 }],
        "abc": [0.75, 0.484766, 0.458763],
        "properties": { "magmom": 0.0 },
        "label": "C",
        "xyz": [1.84794975, 1.886925257752, 3.7177102952729997]
      },
      {
        "species": [{ "element": "C", "occu": 1 }],
        "abc": [0.25, 0.515234, 0.541237],
        "properties": { "magmom": 0.0 },
        "label": "C",
        "xyz": [0.61598325, 2.018471742248, 4.386060704727]
      },
      {
        "species": [{ "element": "C", "occu": 1 }],
        "abc": [0.25, 0.625613, 0.711175],
        "properties": { "magmom": -0.0 },
        "label": "C",
        "xyz": [0.61598325, 2.4639260782609997, 5.763199340925]
      }
    ]
  },
  "task_ids": null,
  "uncorrected_energy_per_atom": null,
  "energy_per_atom": -7.71150002125,
  "formation_energy_per_atom": 0.058790707812499,
  "energy_above_hull": 0.13767401546874902,
  "is_stable": false,
  "equilibrium_reaction_energy_per_atom": null,
  "decomposes_to": null,
  "xas": null,
  "grain_boundaries": null,
  "band_gap": 0.0,
  "cbm": null,
  "vbm": null,
  "efermi": 2.3975691,
  "is_gap_direct": null,
  "is_metal": null,
  "es_source_calc_id": null,
  "bandstructure": null,
  "dos": null,
  "dos_energy_up": null,
  "dos_energy_down": null,
  "is_magnetic": null,
  "ordering": null,
  "total_magnetization": 1.15e-5,
  "total_magnetization_normalized_vol": null,
  "total_magnetization_normalized_formula_units": null,
  "num_magnetic_sites": null,
  "num_unique_magnetic_sites": null,
  "types_of_magnetic_species": null,
  "bulk_modulus": null,
  "shear_modulus": null,
  "universal_anisotropy": null,
  "homogeneous_poisson": null,
  "e_total": null,
  "e_ionic": null,
  "e_electronic": null,
  "n": null,
  "e_ij_max": null,
  "weighted_surface_energy_EV_PER_ANG2": null,
  "weighted_surface_energy": null,
  "weighted_work_function": null,
  "surface_anisotropy": null,
  "shape_factor": null,
  "has_reconstructed": null,
  "possible_species": null,
  "has_props": null,
  "theoretical": null,
  "database_IDs": null,
  "fields_not_requested": [
    "builder_meta",
    "nsites",
    "elements",
    "nelements",
    "composition",
    "composition_reduced",
    "chemsys",
    "symmetry",
    "property_name",
    "deprecated",
    "deprecation_reasons",
    "last_updated",
    "origins",
    "warnings",
    "task_ids",
    "uncorrected_energy_per_atom",
    "equilibrium_reaction_energy_per_atom",
    "decomposes_to",
    "xas",
    "grain_boundaries",
    "cbm",
    "vbm",
    "is_gap_direct",
    "is_metal",
    "es_source_calc_id",
    "bandstructure",
    "dos",
    "dos_energy_up",
    "dos_energy_down",
    "is_magnetic",
    "ordering",
    "total_magnetization_normalized_vol",
    "total_magnetization_normalized_formula_units",
    "num_magnetic_sites",
    "num_unique_magnetic_sites",
    "types_of_magnetic_species",
    "bulk_modulus",
    "shear_modulus",
    "universal_anisotropy",
    "homogeneous_poisson",
    "e_total",
    "e_ionic",
    "e_electronic",
    "n",
    "e_ij_max",
    "weighted_surface_energy_EV_PER_ANG2",
    "weighted_surface_energy",
    "weighted_work_function",
    "surface_anisotropy",
    "shape_factor",
    "has_reconstructed",
    "possible_species",
    "has_props",
    "theoretical",
    "database_IDs"
  ]
}
