{"builder_meta": null, "nsites": null, "elements": null, "nelements": null, "composition": null, "composition_reduced": null, "formula_pretty": "HC6", "formula_anonymous": "AB6", "chemsys": null, "volume": 131.18563940158248, "density": 1.849884540770867, "density_atomic": 9.370402814398748, "symmetry": null, "property_name": null, "material_id": "mp-995202", "deprecated": null, "deprecation_reasons": null, "last_updated": null, "origins": null, "warnings": null, "structure": {"@module": "pymatgen.core.structure", "@class": "Structure", "charge": 0, "lattice": {"matrix": [[2.46457, 0.0, 0.0], [-0.010386, 3.754661999999999, 0.0], [-0.996267999999999, -1.558602, 14.176672]], "pbc": [true, true, true], "a": 2.46457, "b": 3.7546763646471573, "c": 14.296846474583548, "alpha": 96.24752953192291, "beta": 93.99586374576204, "gamma": 90.15848895273781, "volume": 131.18563940158245}, "properties": {}, "sites": [{"species": [{"element": "H", "occu": 1}], "abc": [0.182432999999999, 0.252496, 0.954645], "properties": {"magmom": 0.0}, "label": "H", "xyz": [-0.5040857895060014, -0.5398744699380003, 13.533689041439999]}, {"species": [{"element": "H", "occu": 1}], "abc": [0.817566999999999, 0.747504, 0.045355], "properties": {"magmom": 0.0}, "label": "H", "xyz": [1.9620017895059978, 2.735934469937999, 0.64298295856]}, {"species": [{"element": "C", "occu": 1}], "abc": [0.6411600000000001, 0.056595, 0.835870999999999], "properties": {"magmom": 0.0}, "label": "C", "xyz": [0.7468443761020019, -1.0902951164519985, 11.849869001311987]}, {"species": [{"element": "C", "occu": 1}], "abc": [0.35884000000000005, 0.943404999999999, 0.164129], "properties": {"magmom": 0.0}, "label": "C", "xyz": [0.7110716238980004, 3.286355116451995, 2.326802998688]}, {"species": [{"element": "C", "occu": 1}], "abc": [0.477774, 0.420477999999999, 0.451858999999999], "properties": {"magmom": 0.0}, "label": "C", "xyz": [0.7229677204600016, 0.8744844273179974, 6.405856833247986]}, {"species": [{"element": "C", "occu": 1}], "abc": [0.522226, 0.579522, 0.548141], "properties": {"magmom": 0.0}, "label": "C", "xyz": [0.7349482795400005, 1.3215755726819993, 7.770815166752]}, {"species": [{"element": "C", "occu": 1}], "abc": [0.082576, 0.817498, 0.691848], "properties": {"magmom": 0.0}, "label": "C", "xyz": [-0.49424222517199934, 1.991112999179999, 9.808102169856]}, {"species": [{"element": "C", "occu": 1}], "abc": [0.917423999999999, 0.182502, 0.308152], "properties": {"magmom": 0.0}, "label": "C", "xyz": [1.9521582251719982, 0.20494700081999978, 4.368569830144]}, {"species": [{"element": "C", "occu": 1}], "abc": [0.158693, 0.131848, 0.881452], "properties": {"magmom": -0.001}, "label": "C", "xyz": [-0.48842178745399917, -0.8787881747280002, 12.496055887744]}, {"species": [{"element": "C", "occu": 1}], "abc": [0.841306999999999, 0.868151999999999, 0.118548], "properties": {"magmom": -0.001}, "label": "C", "xyz": [1.946337787453998, 3.074848174727995, 1.680616112256]}, {"species": [{"element": "C", "occu": 1}], "abc": [0.043281, 0.658162, 0.595746], "properties": {"magmom": -0.0}, "label": "C", "xyz": [-0.49368929228999947, 1.5426449441519994, 8.445695637312]}, {"species": [{"element": "C", "occu": 1}], "abc": [0.956719, 0.341838, 0.404254], "properties": {"magmom": -0.0}, "label": "C", "xyz": [1.9516052922900002, 0.6534150558479994, 5.730976362688]}, {"species": [{"element": "C", "occu": 1}], "abc": [0.601685999999999, 0.896191, 0.739155], "properties": {"magmom": -0.0}, "label": "C", "xyz": [0.7371929517539986, 2.2128458311319985, 10.47875799216]}, {"species": [{"element": "C", "occu": 1}], "abc": [0.398314, 0.103809, 0.260845], "properties": {"magmom": -0.0}, "label": "C", "xyz": [0.7207230482460003, -0.016785831132000106, 3.6979140078399997]}]}, "task_ids": null, "uncorrected_energy_per_atom": null, "energy_per_atom": -8.35463832857143, "formation_energy_per_atom": 0.04067015624999901, "energy_above_hull": 0.08574633205357, "is_stable": false, "equilibrium_reaction_energy_per_atom": null, "decomposes_to": null, "xas": null, "grain_boundaries": null, "band_gap": 0.0, "cbm": null, "vbm": null, "efermi": 3.06036638, "is_gap_direct": null, "is_metal": null, "es_source_calc_id": null, "bandstructure": null, "dos": null, "dos_energy_up": null, "dos_energy_down": null, "is_magnetic": null, "ordering": null, "total_magnetization": 0.0134323, "total_magnetization_normalized_vol": null, "total_magnetization_normalized_formula_units": null, "num_magnetic_sites": null, "num_unique_magnetic_sites": null, "types_of_magnetic_species": null, "bulk_modulus": null, "shear_modulus": null, "universal_anisotropy": null, "homogeneous_poisson": null, "e_total": null, "e_ionic": null, "e_electronic": null, "n": null, "e_ij_max": null, "weighted_surface_energy_EV_PER_ANG2": null, "weighted_surface_energy": null, "weighted_work_function": null, "surface_anisotropy": null, "shape_factor": null, "has_reconstructed": null, "possible_species": null, "has_props": null, "theoretical": null, "database_IDs": null, "fields_not_requested": ["builder_meta", "nsites", "elements", "nelements", "composition", "composition_reduced", "chemsys", "symmetry", "property_name", "deprecated", "deprecation_reasons", "last_updated", "origins", "warnings", "task_ids", "uncorrected_energy_per_atom", "equilibrium_reaction_energy_per_atom", "decomposes_to", "xas", "grain_boundaries", "cbm", "vbm", "is_gap_direct", "is_metal", "es_source_calc_id", "bandstructure", "dos", "dos_energy_up", "dos_energy_down", "is_magnetic", "ordering", "total_magnetization_normalized_vol", "total_magnetization_normalized_formula_units", "num_magnetic_sites", "num_unique_magnetic_sites", "types_of_magnetic_species", "bulk_modulus", "shear_modulus", "universal_anisotropy", "homogeneous_poisson", "e_total", "e_ionic", "e_electronic", "n", "e_ij_max", "weighted_surface_energy_EV_PER_ANG2", "weighted_surface_energy", "weighted_work_function", "surface_anisotropy", "shape_factor", "has_reconstructed", "possible_species", "has_props", "theoretical", "database_IDs"]}