{"builder_meta": null, "nsites": null, "elements": null, "nelements": null, "composition": null, "composition_reduced": null, "formula_pretty": "HCl", "formula_anonymous": "AB", "chemsys": null, "volume": 80.23830758731305, "density": 1.509124932852689, "density_atomic": 20.05957689682826, "symmetry": null, "property_name": null, "material_id": "mp-632326", "deprecated": null, "deprecation_reasons": null, "last_updated": null, "origins": null, "warnings": null, "structure": {"@module": "pymatgen.core.structure", "@class": "Structure", "charge": 0, "lattice": {"matrix": [[2.54576107, 0.0, 3.02571635], [0.0, 5.20841896, 0.0], [-2.54576107, 0.0, 3.02571635]], "pbc": [true, true, true], "a": 3.9542203853838074, "b": 5.20841896, "c": 3.9542203853838074, "alpha": 90.0, "beta": 80.1528133400838, "gamma": 90.0, "volume": 80.23830758731305}, "properties": {}, "sites": [{"species": [{"element": "H", "occu": 1}], "abc": [0.93807032, 0.67318352, 0.06192968], "properties": {"magmom": 0.0}, "label": "H", "xyz": [2.230444733156885, 3.5062218091275397, 3.0257163500000006]}, {"species": [{"element": "H", "occu": 1}], "abc": [0.06192968, 0.17318352, 0.93807032], "properties": {"magmom": 0.0}, "label": "H", "xyz": [-2.230444733156885, 0.9020123291275393, 3.0257163500000006]}, {"species": [{"element": "Cl", "occu": 1}], "abc": [0.75798731, 0.49681648, 0.24201269], "properties": {"magmom": -0.0}, "label": "Cl", "xyz": [1.3135481007040433, 2.587628374072461, 3.0257163499999997]}, {"species": [{"element": "Cl", "occu": 1}], "abc": [0.24201269, 0.99681648, 0.75798731], "properties": {"magmom": -0.0}, "label": "Cl", "xyz": [-1.3135481007040433, 5.191837854072461, 3.0257163499999997]}]}, "task_ids": null, "uncorrected_energy_per_atom": null, "energy_per_atom": -3.4363465125, "formation_energy_per_atom": -0.814491893125, "energy_above_hull": 0.0, "is_stable": true, "equilibrium_reaction_energy_per_atom": null, "decomposes_to": null, "xas": null, "grain_boundaries": null, "band_gap": 5.8162, "cbm": null, "vbm": null, "efermi": -3.47171726, "is_gap_direct": null, "is_metal": null, "es_source_calc_id": null, "bandstructure": null, "dos": null, "dos_energy_up": null, "dos_energy_down": null, "is_magnetic": null, "ordering": null, "total_magnetization": 0.0, "total_magnetization_normalized_vol": null, "total_magnetization_normalized_formula_units": null, "num_magnetic_sites": null, "num_unique_magnetic_sites": null, "types_of_magnetic_species": null, "bulk_modulus": null, "shear_modulus": null, "universal_anisotropy": null, "homogeneous_poisson": null, "e_total": null, "e_ionic": null, "e_electronic": null, "n": null, "e_ij_max": null, "weighted_surface_energy_EV_PER_ANG2": null, "weighted_surface_energy": null, "weighted_work_function": null, "surface_anisotropy": null, "shape_factor": null, "has_reconstructed": null, "possible_species": null, "has_props": null, "theoretical": null, "database_IDs": null, "fields_not_requested": ["builder_meta", "nsites", "elements", "nelements", "composition", "composition_reduced", "chemsys", "symmetry", "property_name", "deprecated", "deprecation_reasons", "last_updated", "origins", "warnings", "task_ids", "uncorrected_energy_per_atom", "equilibrium_reaction_energy_per_atom", "decomposes_to", "xas", "grain_boundaries", "cbm", "vbm", "is_gap_direct", "is_metal", "es_source_calc_id", "bandstructure", "dos", "dos_energy_up", "dos_energy_down", "is_magnetic", "ordering", "total_magnetization_normalized_vol", "total_magnetization_normalized_formula_units", "num_magnetic_sites", "num_unique_magnetic_sites", "types_of_magnetic_species", "bulk_modulus", "shear_modulus", "universal_anisotropy", "homogeneous_poisson", "e_total", "e_ionic", "e_electronic", "n", "e_ij_max", "weighted_surface_energy_EV_PER_ANG2", "weighted_surface_energy", "weighted_work_function", "surface_anisotropy", "shape_factor", "has_reconstructed", "possible_species", "has_props", "theoretical", "database_IDs"]}