{
  "builder_meta": null,
  "nsites": null,
  "elements": null,
  "nelements": null,
  "composition": null,
  "composition_reduced": null,
  "formula_pretty": "HF",
  "formula_anonymous": "AB",
  "chemsys": null,
  "volume": 34.11175069732638,
  "density": 1.947792991229329,
  "density_atomic": 8.527937674331595,
  "symmetry": null,
  "property_name": null,
  "material_id": "mp-1536913",
  "deprecated": null,
  "deprecation_reasons": null,
  "last_updated": null,
  "origins": null,
  "warnings": null,
  "structure": {
    "@module": "pymatgen.core.structure",
    "@class": "Structure",
    "charge": 0,
    "lattice": {
      "matrix": [
        [1.44398218, -2.19057986, 0.0],
        [1.44398218, 2.19057986, 0.0],
        [0.0, 0.0, 5.3920398]
      ],
      "pbc": [true, true, true],
      "a": 2.623685320154681,
      "b": 2.623685320154681,
      "c": 5.3920398,
      "alpha": 90.0,
      "beta": 90.0,
      "gamma": 113.21601089304447,
      "volume": 34.11175069732638
    },
    "properties": {},
    "sites": [
      {
        "species": [{ "element": "H", "occu": 1 }],
        "abc": [0.57172857, 0.42827143, 0.57927804],
        "properties": { "magmom": 0.0 },
        "label": "H",
        "xyz": [1.44398218, -0.31425432165720046, 3.1234902469459924]
      },
      {
        "species": [{ "element": "H", "occu": 1 }],
        "abc": [0.42827143, 0.57172857, 0.07927804000000001],
        "properties": { "magmom": 0.0 },
        "label": "H",
        "xyz": [1.44398218, 0.31425432165720046, 0.42747034694599206]
      },
      {
        "species": [{ "element": "F", "occu": 1 }],
        "abc": [0.35543674000000003, 0.64456326, 0.58272196],
        "properties": { "magmom": 0.0 },
        "label": "F",
        "xyz": [1.44398218, 0.633354731703887, 3.142060000654008]
      },
      {
        "species": [{ "element": "F", "occu": 1 }],
        "abc": [0.64456326, 0.35543674000000003, 0.08272196],
        "properties": { "magmom": 0.0 },
        "label": "F",
        "xyz": [1.44398218, -0.633354731703887, 0.446040100654008]
      }
    ]
  },
  "task_ids": null,
  "uncorrected_energy_per_atom": null,
  "energy_per_atom": -4.377763395,
  "formation_energy_per_atom": -1.723253988124999,
  "energy_above_hull": 0.0,
  "is_stable": true,
  "equilibrium_reaction_energy_per_atom": null,
  "decomposes_to": null,
  "xas": null,
  "grain_boundaries": null,
  "band_gap": 6.9765999999999995,
  "cbm": null,
  "vbm": null,
  "efermi": -5.36338705,
  "is_gap_direct": null,
  "is_metal": null,
  "es_source_calc_id": null,
  "bandstructure": null,
  "dos": null,
  "dos_energy_up": null,
  "dos_energy_down": null,
  "is_magnetic": null,
  "ordering": null,
  "total_magnetization": 0.0,
  "total_magnetization_normalized_vol": null,
  "total_magnetization_normalized_formula_units": null,
  "num_magnetic_sites": null,
  "num_unique_magnetic_sites": null,
  "types_of_magnetic_species": null,
  "bulk_modulus": null,
  "shear_modulus": null,
  "universal_anisotropy": null,
  "homogeneous_poisson": null,
  "e_total": null,
  "e_ionic": null,
  "e_electronic": null,
  "n": null,
  "e_ij_max": null,
  "weighted_surface_energy_EV_PER_ANG2": null,
  "weighted_surface_energy": null,
  "weighted_work_function": null,
  "surface_anisotropy": null,
  "shape_factor": null,
  "has_reconstructed": null,
  "possible_species": null,
  "has_props": null,
  "theoretical": null,
  "database_IDs": null,
  "fields_not_requested": [
    "builder_meta",
    "nsites",
    "elements",
    "nelements",
    "composition",
    "composition_reduced",
    "chemsys",
    "symmetry",
    "property_name",
    "deprecated",
    "deprecation_reasons",
    "last_updated",
    "origins",
    "warnings",
    "task_ids",
    "uncorrected_energy_per_atom",
    "equilibrium_reaction_energy_per_atom",
    "decomposes_to",
    "xas",
    "grain_boundaries",
    "cbm",
    "vbm",
    "is_gap_direct",
    "is_metal",
    "es_source_calc_id",
    "bandstructure",
    "dos",
    "dos_energy_up",
    "dos_energy_down",
    "is_magnetic",
    "ordering",
    "total_magnetization_normalized_vol",
    "total_magnetization_normalized_formula_units",
    "num_magnetic_sites",
    "num_unique_magnetic_sites",
    "types_of_magnetic_species",
    "bulk_modulus",
    "shear_modulus",
    "universal_anisotropy",
    "homogeneous_poisson",
    "e_total",
    "e_ionic",
    "e_electronic",
    "n",
    "e_ij_max",
    "weighted_surface_energy_EV_PER_ANG2",
    "weighted_surface_energy",
    "weighted_work_function",
    "surface_anisotropy",
    "shape_factor",
    "has_reconstructed",
    "possible_species",
    "has_props",
    "theoretical",
    "database_IDs"
  ]
}
