{
  "builder_meta": null,
  "nsites": null,
  "elements": null,
  "nelements": null,
  "composition": null,
  "composition_reduced": null,
  "formula_pretty": "Hf2As",
  "formula_anonymous": "AB2",
  "chemsys": null,
  "volume": 714.1393815730228,
  "density": 12.051252148799948,
  "density_atomic": 19.83720504369508,
  "symmetry": null,
  "property_name": null,
  "material_id": "mp-1199529",
  "deprecated": null,
  "deprecation_reasons": null,
  "last_updated": null,
  "origins": null,
  "warnings": null,
  "structure": {
    "@module": "pymatgen.core.structure",
    "@class": "Structure",
    "charge": 0,
    "lattice": {
      "matrix": [
        [0.0, 0.0, -3.664514999999999],
        [0.0, -12.559878, 0.0],
        [-15.516046, 0.0, 0.0]
      ],
      "pbc": [true, true, true],
      "a": 3.664514999999999,
      "b": 12.559878,
      "c": 15.516046,
      "alpha": 90.0,
      "beta": 90.0,
      "gamma": 90.0,
      "volume": 714.1393815730225
    },
    "properties": {},
    "sites": [
      {
        "species": [{ "element": "Hf", "occu": 1 }],
        "abc": [0.5, 0.651435, 0.478176999999999],
        "properties": { "magmom": -0.0 },
        "label": "Hf",
        "xyz": [-7.419416328141985, -8.18194412493, -1.8322574999999994]
      },
      {
        "species": [{ "element": "Hf", "occu": 1 }],
        "abc": [0.5, 0.348564999999999, 0.521822999999999],
        "properties": { "magmom": -0.0 },
        "label": "Hf",
        "xyz": [-8.096629671857984, -4.377933875069988, -1.8322574999999994]
      },
      {
        "species": [{ "element": "Hf", "occu": 1 }],
        "abc": [0.0, 0.848565, 0.978177],
        "properties": { "magmom": -0.0 },
        "label": "Hf",
        "xyz": [-15.177439328141999, -10.65787287507, 0.0]
      },
      {
        "species": [{ "element": "Hf", "occu": 1 }],
        "abc": [0.0, 0.151435, 0.021823],
        "properties": { "magmom": -0.0 },
        "label": "Hf",
        "xyz": [-0.338606671858, -1.9020051249299998, 0.0]
      },
      {
        "species": [{ "element": "Hf", "occu": 1 }],
        "abc": [0.5, 0.592681, 0.244698],
        "properties": { "magmom": 0.001 },
        "label": "Hf",
        "xyz": [-3.796745424108, -7.444001052918, -1.8322574999999994]
      },
      {
        "species": [{ "element": "Hf", "occu": 1 }],
        "abc": [0.5, 0.407319, 0.755301999999999],
        "properties": { "magmom": 0.001 },
        "label": "Hf",
        "xyz": [-11.719300575891985, -5.115876947082, -1.8322574999999994]
      },
      {
        "species": [{ "element": "Hf", "occu": 1 }],
        "abc": [0.0, 0.907319, 0.744698],
        "properties": { "magmom": 0.001 },
        "label": "Hf",
        "xyz": [-11.554768424108, -11.395815947082, 0.0]
      },
      {
        "species": [{ "element": "Hf", "occu": 1 }],
        "abc": [0.0, 0.092681, 0.255302],
        "properties": { "magmom": 0.001 },
        "label": "Hf",
        "xyz": [-3.9612775758919994, -1.164062052918, 0.0]
      },
      {
        "species": [{ "element": "Hf", "occu": 1 }],
        "abc": [0.5, 0.083352, 0.424374],
        "properties": { "magmom": 0.001 },
        "label": "Hf",
        "xyz": [-6.5846065052039995, -1.0468909510559998, -1.8322574999999994]
      },
      {
        "species": [{ "element": "Hf", "occu": 1 }],
        "abc": [0.5, 0.916647999999999, 0.575626],
        "properties": { "magmom": 0.001 },
        "label": "Hf",
        "xyz": [-8.931439494795999, -11.512987048943987, -1.8322574999999994]
      },
      {
        "species": [{ "element": "Hf", "occu": 1 }],
        "abc": [0.0, 0.416647999999999, 0.924373999999999],
        "properties": { "magmom": 0.001 },
        "label": "Hf",
        "xyz": [-14.342629505203984, -5.233048048943988, 0.0]
      },
      {
        "species": [{ "element": "Hf", "occu": 1 }],
        "abc": [0.0, 0.583352, 0.075626],
        "properties": { "magmom": 0.001 },
        "label": "Hf",
        "xyz": [-1.173416494796, -7.326829951055999, 0.0]
      },
      {
        "species": [{ "element": "Hf", "occu": 1 }],
        "abc": [0.5, 0.971283, 0.10693899999999901],
        "properties": { "magmom": 0.0 },
        "label": "Hf",
        "xyz": [-1.6592704431939844, -12.199195983473999, -1.8322574999999994]
      },
      {
        "species": [{ "element": "Hf", "occu": 1 }],
        "abc": [0.5, 0.028717, 0.893061],
        "properties": { "magmom": 0.0 },
        "label": "Hf",
        "xyz": [-13.856775556806, -0.36068201652599996, -1.8322574999999994]
      },
      {
        "species": [{ "element": "Hf", "occu": 1 }],
        "abc": [0.0, 0.528717, 0.606939],
        "properties": { "magmom": 0.0 },
        "label": "Hf",
        "xyz": [-9.417293443194, -6.640621016526, 0.0]
      },
      {
        "species": [{ "element": "Hf", "occu": 1 }],
        "abc": [0.0, 0.47128299999999906, 0.393061],
        "properties": { "magmom": 0.0 },
        "label": "Hf",
        "xyz": [-6.098752556806, -5.919256983473988, 0.0]
      },
      {
        "species": [{ "element": "Hf", "occu": 1 }],
        "abc": [0.5, 0.307676, 0.292631],
        "properties": { "magmom": -0.001 },
        "label": "Hf",
        "xyz": [-4.540476057025999, -3.864373023528, -1.8322574999999994]
      },
      {
        "species": [{ "element": "Hf", "occu": 1 }],
        "abc": [0.5, 0.692323999999999, 0.707368999999999],
        "properties": { "magmom": -0.001 },
        "label": "Hf",
        "xyz": [-10.975569942973985, -8.695504976471987, -1.8322574999999994]
      },
      {
        "species": [{ "element": "Hf", "occu": 1 }],
        "abc": [0.0, 0.192324, 0.792631],
        "properties": { "magmom": -0.001 },
        "label": "Hf",
        "xyz": [-12.298499057026, -2.4155659764719997, 0.0]
      },
      {
        "species": [{ "element": "Hf", "occu": 1 }],
        "abc": [0.0, 0.807676, 0.207369],
        "properties": { "magmom": -0.001 },
        "label": "Hf",
        "xyz": [-3.217546942974, -10.144312023527998, 0.0]
      },
      {
        "species": [{ "element": "Hf", "occu": 1 }],
        "abc": [0.5, 0.38246, 0.079891999999999],
        "properties": { "magmom": 0.0 },
        "label": "Hf",
        "xyz": [-1.2396079470319845, -4.80365093988, -1.8322574999999994]
      },
      {
        "species": [{ "element": "Hf", "occu": 1 }],
        "abc": [0.5, 0.6175400000000001, 0.920107999999999],
        "properties": { "magmom": 0.0 },
        "label": "Hf",
        "xyz": [-14.276438052967984, -7.7562270601200005, -1.8322574999999994]
      },
      {
        "species": [{ "element": "Hf", "occu": 1 }],
        "abc": [0.0, 0.11754, 0.579892],
        "properties": { "magmom": 0.0 },
        "label": "Hf",
        "xyz": [-8.997630947031999, -1.47628806012, 0.0]
      },
      {
        "species": [{ "element": "Hf", "occu": 1 }],
        "abc": [0.0, 0.88246, 0.420108],
        "properties": { "magmom": 0.0 },
        "label": "Hf",
        "xyz": [-6.518415052968, -11.08358993988, 0.0]
      },
      {
        "species": [{ "element": "As", "occu": 1 }],
        "abc": [0.5, 0.934531999999999, 0.290024],
        "properties": { "magmom": -0.0 },
        "label": "As",
        "xyz": [-4.500025725104, -11.737607907095986, -1.8322574999999994]
      },
      {
        "species": [{ "element": "As", "occu": 1 }],
        "abc": [0.5, 0.065468, 0.709975999999999],
        "properties": { "magmom": -0.0 },
        "label": "As",
        "xyz": [-11.016020274895984, -0.822270092904, -1.8322574999999994]
      },
      {
        "species": [{ "element": "As", "occu": 1 }],
        "abc": [0.0, 0.565468, 0.790024],
        "properties": { "magmom": -0.0 },
        "label": "As",
        "xyz": [-12.258048725103999, -7.102209092903999, 0.0]
      },
      {
        "species": [{ "element": "As", "occu": 1 }],
        "abc": [0.0, 0.434532, 0.209976],
        "properties": { "magmom": -0.0 },
        "label": "As",
        "xyz": [-3.2579972748959998, -5.457668907095999, 0.0]
      },
      {
        "species": [{ "element": "As", "occu": 1 }],
        "abc": [0.5, 0.743525, 0.087033],
        "properties": { "magmom": -0.0 },
        "label": "As",
        "xyz": [-1.350408031518, -9.33858328995, -1.8322574999999994]
      },
      {
        "species": [{ "element": "As", "occu": 1 }],
        "abc": [0.5, 0.256475, 0.912967],
        "properties": { "magmom": -0.0 },
        "label": "As",
        "xyz": [-14.165637968481999, -3.22129471005, -1.8322574999999994]
      },
      {
        "species": [{ "element": "As", "occu": 1 }],
        "abc": [0.0, 0.756475, 0.587033],
        "properties": { "magmom": -0.0 },
        "label": "As",
        "xyz": [-9.108431031518, -9.50123371005, 0.0]
      },
      {
        "species": [{ "element": "As", "occu": 1 }],
        "abc": [0.0, 0.243525, 0.412967],
        "properties": { "magmom": -0.0 },
        "label": "As",
        "xyz": [-6.407614968481999, -3.0586442899499997, 0.0]
      },
      {
        "species": [{ "element": "As", "occu": 1 }],
        "abc": [0.5, 0.185967, 0.149559],
        "properties": { "magmom": -0.0 },
        "label": "As",
        "xyz": [-2.3205643237139997, -2.3357228320259997, -1.8322574999999994]
      },
      {
        "species": [{ "element": "As", "occu": 1 }],
        "abc": [0.5, 0.814033, 0.850441],
        "properties": { "magmom": -0.0 },
        "label": "As",
        "xyz": [-13.195481676285999, -10.224155167973999, -1.8322574999999994]
      },
      {
        "species": [{ "element": "As", "occu": 1 }],
        "abc": [0.0, 0.314033, 0.649559],
        "properties": { "magmom": -0.0 },
        "label": "As",
        "xyz": [-10.078587323714, -3.944216167974, 0.0]
      },
      {
        "species": [{ "element": "As", "occu": 1 }],
        "abc": [0.0, 0.685967, 0.350441],
        "properties": { "magmom": -0.0 },
        "label": "As",
        "xyz": [-5.437458676286, -8.615661832026, 0.0]
      }
    ]
  },
  "task_ids": null,
  "uncorrected_energy_per_atom": null,
  "energy_per_atom": -8.995063146944444,
  "formation_energy_per_atom": -0.8002296161111101,
  "energy_above_hull": 0.0,
  "is_stable": true,
  "equilibrium_reaction_energy_per_atom": null,
  "decomposes_to": null,
  "xas": null,
  "grain_boundaries": null,
  "band_gap": 0.0,
  "cbm": null,
  "vbm": null,
  "efermi": 5.86218787,
  "is_gap_direct": null,
  "is_metal": null,
  "es_source_calc_id": null,
  "bandstructure": null,
  "dos": null,
  "dos_energy_up": null,
  "dos_energy_down": null,
  "is_magnetic": null,
  "ordering": null,
  "total_magnetization": 0.0008483999999990001,
  "total_magnetization_normalized_vol": null,
  "total_magnetization_normalized_formula_units": null,
  "num_magnetic_sites": null,
  "num_unique_magnetic_sites": null,
  "types_of_magnetic_species": null,
  "bulk_modulus": null,
  "shear_modulus": null,
  "universal_anisotropy": null,
  "homogeneous_poisson": null,
  "e_total": null,
  "e_ionic": null,
  "e_electronic": null,
  "n": null,
  "e_ij_max": null,
  "weighted_surface_energy_EV_PER_ANG2": null,
  "weighted_surface_energy": null,
  "weighted_work_function": null,
  "surface_anisotropy": null,
  "shape_factor": null,
  "has_reconstructed": null,
  "possible_species": null,
  "has_props": null,
  "theoretical": null,
  "database_IDs": null,
  "fields_not_requested": [
    "builder_meta",
    "nsites",
    "elements",
    "nelements",
    "composition",
    "composition_reduced",
    "chemsys",
    "symmetry",
    "property_name",
    "deprecated",
    "deprecation_reasons",
    "last_updated",
    "origins",
    "warnings",
    "task_ids",
    "uncorrected_energy_per_atom",
    "equilibrium_reaction_energy_per_atom",
    "decomposes_to",
    "xas",
    "grain_boundaries",
    "cbm",
    "vbm",
    "is_gap_direct",
    "is_metal",
    "es_source_calc_id",
    "bandstructure",
    "dos",
    "dos_energy_up",
    "dos_energy_down",
    "is_magnetic",
    "ordering",
    "total_magnetization_normalized_vol",
    "total_magnetization_normalized_formula_units",
    "num_magnetic_sites",
    "num_unique_magnetic_sites",
    "types_of_magnetic_species",
    "bulk_modulus",
    "shear_modulus",
    "universal_anisotropy",
    "homogeneous_poisson",
    "e_total",
    "e_ionic",
    "e_electronic",
    "n",
    "e_ij_max",
    "weighted_surface_energy_EV_PER_ANG2",
    "weighted_surface_energy",
    "weighted_work_function",
    "surface_anisotropy",
    "shape_factor",
    "has_reconstructed",
    "possible_species",
    "has_props",
    "theoretical",
    "database_IDs"
  ]
}
