{
  "builder_meta": null,
  "nsites": null,
  "elements": null,
  "nelements": null,
  "composition": null,
  "composition_reduced": null,
  "formula_pretty": "Hf2Al3",
  "formula_anonymous": "A2B3",
  "chemsys": null,
  "volume": 178.77586181948135,
  "density": 8.135225028264449,
  "density_atomic": 17.877586181948136,
  "symmetry": null,
  "property_name": null,
  "material_id": "mp-846",
  "deprecated": null,
  "deprecation_reasons": null,
  "last_updated": null,
  "origins": null,
  "warnings": null,
  "structure": {
    "@module": "pymatgen.core.structure",
    "@class": "Structure",
    "charge": 0,
    "lattice": {
      "matrix": [
        [5.37982826, -0.00204874, -1.02149277],
        [-2.9591376, 4.49289046, -1.02149277],
        [0.00110014, 0.00204144, 7.39722898]
      ],
      "pbc": [true, true, true],
      "a": 5.4759477520875315,
      "b": 5.475948091468275,
      "c": 7.39722934349998,
      "alpha": 100.74251260246342,
      "beta": 100.74251632657327,
      "gamma": 119.76289432486445,
      "volume": 178.77586181948135
    },
    "properties": {},
    "sites": [
      {
        "species": [{ "element": "Hf", "occu": 1 }],
        "abc": [0.13673743, 0.76933328, 0.89399943],
        "properties": { "magmom": -0.0 },
        "label": "Hf",
        "xyz": [-1.539955621132636, 3.45807506102655, 5.687573812325716]
      },
      {
        "species": [{ "element": "Hf", "occu": 1 }],
        "abc": [0.87533385, 0.242737999999999, 0.10600057],
        "properties": { "magmom": -0.0 },
        "label": "Hf",
        "xyz": [3.9909672558828837, 1.0890183068112473, -0.35799182281500486]
      },
      {
        "species": [{ "element": "Hf", "occu": 1 }],
        "abc": [0.01933328, 0.88673743, 0.39399943],
        "properties": { "magmom": -0.0 },
        "label": "Hf",
        "xyz": [-2.519534889804955, 3.9847788571042297, 1.9889593223257145]
      },
      {
        "species": [{ "element": "Hf", "occu": 1 }],
        "abc": [0.49273799999999907, 0.62533385, 0.60600057],
        "properties": { "magmom": -0.0 },
        "label": "Hf",
        "xyz": [0.8010635945551947, 2.8097841107335717, 3.3406226671849955]
      },
      {
        "species": [{ "element": "Al", "occu": 1 }],
        "abc": [0.62206504, 0.62206504, -0.0],
        "properties": { "magmom": 0.0 },
        "label": "Al",
        "xyz": [1.5058270322405265, 2.7935956341854684, -1.2708698816595216]
      },
      {
        "species": [{ "element": "Al", "occu": 1 }],
        "abc": [0.8720650400000001, 0.37206504, 0.5],
        "properties": { "magmom": 0.0 },
        "label": "Al",
        "xyz": [3.591118567240527, 1.670881554185469, 2.4277446083404786]
      },
      {
        "species": [{ "element": "Al", "occu": 1 }],
        "abc": [0.54455493, 0.18056516, 0.72925641],
        "properties": { "magmom": 0.0 },
        "label": "Al",
        "xyz": [2.396097131477203, 0.8116325665107158, 4.653771720586013]
      },
      {
        "species": [{ "element": "Al", "occu": 1 }],
        "abc": [0.45130874, 0.81529852, 0.27074359],
        "properties": { "magmom": 0.0 },
        "label": "Al",
        "xyz": [0.015680863533742647, 3.6626750350865014, 0.7089221715777279]
      },
      {
        "species": [{ "element": "Al", "occu": 1 }],
        "abc": [0.43056516, 0.29455493, 0.22925641],
        "properties": { "magmom": 0.0 },
        "label": "Al",
        "xyz": [1.444990261057951, 1.3229889320826997, 0.9551572305860125]
      },
      {
        "species": [{ "element": "Al", "occu": 1 }],
        "abc": [0.06529852, 0.20130874, 0.77074359],
        "properties": { "magmom": 0.0 },
        "label": "Al",
        "xyz": [-0.24355751265734624, 0.9058977645651252, 5.429029431577729]
      }
    ]
  },
  "task_ids": null,
  "uncorrected_energy_per_atom": null,
  "energy_per_atom": -22.580618199,
  "formation_energy_per_atom": -0.48079304500000103,
  "energy_above_hull": 0.014650736999996002,
  "is_stable": false,
  "equilibrium_reaction_energy_per_atom": null,
  "decomposes_to": null,
  "xas": null,
  "grain_boundaries": null,
  "band_gap": 0.0,
  "cbm": null,
  "vbm": null,
  "efermi": 6.25264831,
  "is_gap_direct": null,
  "is_metal": null,
  "es_source_calc_id": null,
  "bandstructure": null,
  "dos": null,
  "dos_energy_up": null,
  "dos_energy_down": null,
  "is_magnetic": null,
  "ordering": null,
  "total_magnetization": 0.0,
  "total_magnetization_normalized_vol": null,
  "total_magnetization_normalized_formula_units": null,
  "num_magnetic_sites": null,
  "num_unique_magnetic_sites": null,
  "types_of_magnetic_species": null,
  "bulk_modulus": null,
  "shear_modulus": null,
  "universal_anisotropy": null,
  "homogeneous_poisson": null,
  "e_total": null,
  "e_ionic": null,
  "e_electronic": null,
  "n": null,
  "e_ij_max": null,
  "weighted_surface_energy_EV_PER_ANG2": null,
  "weighted_surface_energy": null,
  "weighted_work_function": null,
  "surface_anisotropy": null,
  "shape_factor": null,
  "has_reconstructed": null,
  "possible_species": null,
  "has_props": null,
  "theoretical": null,
  "database_IDs": null,
  "fields_not_requested": [
    "builder_meta",
    "nsites",
    "elements",
    "nelements",
    "composition",
    "composition_reduced",
    "chemsys",
    "symmetry",
    "property_name",
    "deprecated",
    "deprecation_reasons",
    "last_updated",
    "origins",
    "warnings",
    "task_ids",
    "uncorrected_energy_per_atom",
    "equilibrium_reaction_energy_per_atom",
    "decomposes_to",
    "xas",
    "grain_boundaries",
    "cbm",
    "vbm",
    "is_gap_direct",
    "is_metal",
    "es_source_calc_id",
    "bandstructure",
    "dos",
    "dos_energy_up",
    "dos_energy_down",
    "is_magnetic",
    "ordering",
    "total_magnetization_normalized_vol",
    "total_magnetization_normalized_formula_units",
    "num_magnetic_sites",
    "num_unique_magnetic_sites",
    "types_of_magnetic_species",
    "bulk_modulus",
    "shear_modulus",
    "universal_anisotropy",
    "homogeneous_poisson",
    "e_total",
    "e_ionic",
    "e_electronic",
    "n",
    "e_ij_max",
    "weighted_surface_energy_EV_PER_ANG2",
    "weighted_surface_energy",
    "weighted_work_function",
    "surface_anisotropy",
    "shape_factor",
    "has_reconstructed",
    "possible_species",
    "has_props",
    "theoretical",
    "database_IDs"
  ]
}
