{
  "builder_meta": null,
  "nsites": null,
  "elements": null,
  "nelements": null,
  "composition": null,
  "composition_reduced": null,
  "formula_pretty": "Hf2Al",
  "formula_anonymous": "AB2",
  "chemsys": null,
  "volume": 120.94313620471435,
  "density": 10.543519126838898,
  "density_atomic": 20.157189367452393,
  "symmetry": null,
  "property_name": null,
  "material_id": "mp-12772",
  "deprecated": null,
  "deprecation_reasons": null,
  "last_updated": null,
  "origins": null,
  "warnings": null,
  "structure": {
    "@module": "pymatgen.core.structure",
    "@class": "Structure",
    "charge": 0,
    "lattice": {
      "matrix": [
        [4.54407187, -1e-8, 2.55342867],
        [2.27203492, 4.81696875, 1.27671434],
        [-0.08770351, 0.0, 5.47609787]
      ],
      "pbc": [true, true, true],
      "a": 5.21234948295903,
      "b": 5.476799258886307,
      "c": 5.476800141276369,
      "alpha": 76.91242315584607,
      "beta": 61.58482198727025,
      "gamma": 61.58482915515054,
      "volume": 120.94313620471434
    },
    "properties": {},
    "sites": [
      {
        "species": [{ "element": "Hf", "occu": 1 }],
        "abc": [0.65105805, 0.19788389, 0.5],
        "properties": { "magmom": 0.0 },
        "label": "Hf",
        "xyz": [3.3642019239274927, 0.953200507747857, 4.6531204257222765]
      },
      {
        "species": [{ "element": "Hf", "occu": 1 }],
        "abc": [0.8489419500000001, 0.5, 0.80211611],
        "properties": { "magmom": 0.0 },
        "label": "Hf",
        "xyz": [4.9233222959834, 2.4084843665105806, 7.198536205759393]
      },
      {
        "species": [{ "element": "Hf", "occu": 1 }],
        "abc": [0.34894195, 0.80211611, 0.5],
        "properties": { "magmom": 0.0 },
        "label": "Hf",
        "xyz": [3.3642013560725075, 3.863768232252143, 4.653120454277724]
      },
      {
        "species": [{ "element": "Hf", "occu": 1 }],
        "abc": [0.15105805, 0.5, 0.19788389],
        "properties": { "magmom": 0.0 },
        "label": "Hf",
        "xyz": [1.8050809840165993, 2.4084843734894195, 2.1077046742406083]
      },
      {
        "species": [{ "element": "Al", "occu": 1 }],
        "abc": [0.75, 0.0, 0.0],
        "properties": { "magmom": -0.0 },
        "label": "Al",
        "xyz": [3.4080539025, -7.500000000000001e-9, 1.9150715025]
      },
      {
        "species": [{ "element": "Al", "occu": 1 }],
        "abc": [0.25, 0.0, 0.0],
        "properties": { "magmom": -0.0 },
        "label": "Al",
        "xyz": [1.1360179675, -2.5e-9, 0.6383571675]
      }
    ]
  },
  "task_ids": null,
  "uncorrected_energy_per_atom": null,
  "energy_per_atom": -32.655055690000005,
  "formation_energy_per_atom": -0.31007932000000404,
  "energy_above_hull": 0.037185234444436,
  "is_stable": false,
  "equilibrium_reaction_energy_per_atom": null,
  "decomposes_to": null,
  "xas": null,
  "grain_boundaries": null,
  "band_gap": 0.0,
  "cbm": null,
  "vbm": null,
  "efermi": 4.913733,
  "is_gap_direct": null,
  "is_metal": null,
  "es_source_calc_id": null,
  "bandstructure": null,
  "dos": null,
  "dos_energy_up": null,
  "dos_energy_down": null,
  "is_magnetic": null,
  "ordering": null,
  "total_magnetization": 0.0,
  "total_magnetization_normalized_vol": null,
  "total_magnetization_normalized_formula_units": null,
  "num_magnetic_sites": null,
  "num_unique_magnetic_sites": null,
  "types_of_magnetic_species": null,
  "bulk_modulus": null,
  "shear_modulus": null,
  "universal_anisotropy": null,
  "homogeneous_poisson": null,
  "e_total": null,
  "e_ionic": null,
  "e_electronic": null,
  "n": null,
  "e_ij_max": null,
  "weighted_surface_energy_EV_PER_ANG2": null,
  "weighted_surface_energy": null,
  "weighted_work_function": null,
  "surface_anisotropy": null,
  "shape_factor": null,
  "has_reconstructed": null,
  "possible_species": null,
  "has_props": null,
  "theoretical": null,
  "database_IDs": null,
  "fields_not_requested": [
    "builder_meta",
    "nsites",
    "elements",
    "nelements",
    "composition",
    "composition_reduced",
    "chemsys",
    "symmetry",
    "property_name",
    "deprecated",
    "deprecation_reasons",
    "last_updated",
    "origins",
    "warnings",
    "task_ids",
    "uncorrected_energy_per_atom",
    "equilibrium_reaction_energy_per_atom",
    "decomposes_to",
    "xas",
    "grain_boundaries",
    "cbm",
    "vbm",
    "is_gap_direct",
    "is_metal",
    "es_source_calc_id",
    "bandstructure",
    "dos",
    "dos_energy_up",
    "dos_energy_down",
    "is_magnetic",
    "ordering",
    "total_magnetization_normalized_vol",
    "total_magnetization_normalized_formula_units",
    "num_magnetic_sites",
    "num_unique_magnetic_sites",
    "types_of_magnetic_species",
    "bulk_modulus",
    "shear_modulus",
    "universal_anisotropy",
    "homogeneous_poisson",
    "e_total",
    "e_ionic",
    "e_electronic",
    "n",
    "e_ij_max",
    "weighted_surface_energy_EV_PER_ANG2",
    "weighted_surface_energy",
    "weighted_work_function",
    "surface_anisotropy",
    "shape_factor",
    "has_reconstructed",
    "possible_species",
    "has_props",
    "theoretical",
    "database_IDs"
  ]
}
