{"builder_meta": null, "nsites": null, "elements": null, "nelements": null, "composition": null, "composition_reduced": null, "formula_pretty": "Hf2Bi", "formula_anonymous": "AB2", "chemsys": null, "volume": 140.60286877584684, "density": 13.368139107414914, "density_atomic": 23.433811462641142, "symmetry": null, "property_name": null, "material_id": "mp-1072744", "deprecated": null, "deprecation_reasons": null, "last_updated": null, "origins": null, "warnings": null, "structure": {"@module": "pymatgen.core.structure", "@class": "Structure", "charge": 0, "lattice": {"matrix": [[1.92564332, 5.43368196, 0.38934097], [-1.92564332, 5.43368196, 0.38934097], [0.0, 2.52177848, 6.89953091]], "pbc": [true, true, true], "a": 5.777939791068319, "b": 5.777939791068319, "c": 7.345944015593676, "alpha": 67.28645948118111, "beta": 67.28645948118111, "gamma": 38.93536052964435, "volume": 140.60286877584684}, "properties": {}, "sites": [{"species": [{"element": "Hf", "occu": 1}], "abc": [0.15033141, 0.15033141, 0.9480255200000001], "properties": {"magmom": 0.0}, "label": "Hf", "xyz": [0.0, 4.024416495903537, 6.657991732690559]}, {"species": [{"element": "Hf", "occu": 1}], "abc": [0.8496685900000001, 0.8496685900000001, 0.05197448], "properties": {"magmom": 0.0}, "label": "Hf", "xyz": [0.0, 9.364725904096463, 1.0202211173094415]}, {"species": [{"element": "Hf", "occu": 1}], "abc": [0.4820191, 0.4820191, 0.27292758], "properties": {"magmom": -0.0}, "label": "Hf", "xyz": [0.0, 5.926539873933351, 2.258411842306552]}, {"species": [{"element": "Hf", "occu": 1}], "abc": [0.5179809, 0.5179809, 0.72707242], "properties": {"magmom": -0.0}, "label": "Hf", "xyz": [0.0, 7.462602526066649, 5.419801007693449]}, {"species": [{"element": "Bi", "occu": 1}], "abc": [0.82943708, 0.82943708, 0.63392958], "properties": {"magmom": 0.0}, "label": "Bi", "xyz": [0.0, 10.612424569781593, 5.019684406535653]}, {"species": [{"element": "Bi", "occu": 1}], "abc": [0.17056292, 0.17056292, 0.36607042], "properties": {"magmom": 0.0}, "label": "Bi", "xyz": [0.0, 2.7767178302184083, 2.6585284434643475]}]}, "task_ids": null, "uncorrected_energy_per_atom": null, "energy_per_atom": -49.795184795000004, "formation_energy_per_atom": -0.19348328666667103, "energy_above_hull": 0.0, "is_stable": true, "equilibrium_reaction_energy_per_atom": null, "decomposes_to": null, "xas": null, "grain_boundaries": null, "band_gap": 0.0, "cbm": null, "vbm": null, "efermi": 6.33444311, "is_gap_direct": null, "is_metal": null, "es_source_calc_id": null, "bandstructure": null, "dos": null, "dos_energy_up": null, "dos_energy_down": null, "is_magnetic": null, "ordering": null, "total_magnetization": 0.0, "total_magnetization_normalized_vol": null, "total_magnetization_normalized_formula_units": null, "num_magnetic_sites": null, "num_unique_magnetic_sites": null, "types_of_magnetic_species": null, "bulk_modulus": null, "shear_modulus": null, "universal_anisotropy": null, "homogeneous_poisson": null, "e_total": null, "e_ionic": null, "e_electronic": null, "n": null, "e_ij_max": null, "weighted_surface_energy_EV_PER_ANG2": null, "weighted_surface_energy": null, "weighted_work_function": null, "surface_anisotropy": null, "shape_factor": null, "has_reconstructed": null, "possible_species": null, "has_props": null, "theoretical": null, "database_IDs": null, "fields_not_requested": ["builder_meta", "nsites", "elements", "nelements", "composition", "composition_reduced", "chemsys", "symmetry", "property_name", "deprecated", "deprecation_reasons", "last_updated", "origins", "warnings", "task_ids", "uncorrected_energy_per_atom", "equilibrium_reaction_energy_per_atom", "decomposes_to", "xas", "grain_boundaries", "cbm", "vbm", "is_gap_direct", "is_metal", "es_source_calc_id", "bandstructure", "dos", "dos_energy_up", "dos_energy_down", "is_magnetic", "ordering", "total_magnetization_normalized_vol", "total_magnetization_normalized_formula_units", "num_magnetic_sites", "num_unique_magnetic_sites", "types_of_magnetic_species", "bulk_modulus", "shear_modulus", "universal_anisotropy", "homogeneous_poisson", "e_total", "e_ionic", "e_electronic", "n", "e_ij_max", "weighted_surface_energy_EV_PER_ANG2", "weighted_surface_energy", "weighted_work_function", "surface_anisotropy", "shape_factor", "has_reconstructed", "possible_species", "has_props", "theoretical", "database_IDs"]}