{
  "builder_meta": null,
  "nsites": null,
  "elements": null,
  "nelements": null,
  "composition": null,
  "composition_reduced": null,
  "formula_pretty": "Hf2Co",
  "formula_anonymous": "AB2",
  "chemsys": null,
  "volume": 425.5142719620773,
  "density": 12.984572393820434,
  "density_atomic": 17.72976133175322,
  "symmetry": null,
  "property_name": null,
  "material_id": "mp-1190841",
  "deprecated": null,
  "deprecation_reasons": null,
  "last_updated": null,
  "origins": null,
  "warnings": null,
  "structure": {
    "@module": "pymatgen.core.structure",
    "@class": "Structure",
    "charge": 0,
    "lattice": {
      "matrix": [
        [-5.96982195, -5.96982195, 0.0],
        [-5.96982195, -0.0, -5.96982195],
        [-0.0, -5.96982195, -5.96982195]
      ],
      "pbc": [true, true, true],
      "a": 8.442603166642597,
      "b": 8.442603166642597,
      "c": 8.442603166642597,
      "alpha": 59.99999999999999,
      "beta": 59.99999999999999,
      "gamma": 59.99999999999999,
      "volume": 425.5142719620773
    },
    "properties": {},
    "sites": [
      {
        "species": [{ "element": "Hf", "occu": 1 }],
        "abc": [0.0, -0.0, 0.5],
        "properties": { "magmom": 0.0 },
        "label": "Hf",
        "xyz": [0.0, -2.984910975, -2.984910975]
      },
      {
        "species": [{ "element": "Hf", "occu": 1 }],
        "abc": [0.0, 0.5, -0.0],
        "properties": { "magmom": 0.0 },
        "label": "Hf",
        "xyz": [-2.984910975, 0.0, -2.984910975]
      },
      {
        "species": [{ "element": "Hf", "occu": 1 }],
        "abc": [0.5, -0.0, -0.0],
        "properties": { "magmom": 0.0 },
        "label": "Hf",
        "xyz": [-2.984910975, -2.984910975, 0.0]
      },
      {
        "species": [{ "element": "Hf", "occu": 1 }],
        "abc": [0.0, -0.0, -0.0],
        "properties": { "magmom": 0.0 },
        "label": "Hf",
        "xyz": [0.0, 0.0, 0.0]
      },
      {
        "species": [{ "element": "Hf", "occu": 1 }],
        "abc": [0.43727849, 0.81272151, 0.81272151],
        "properties": { "magmom": 0.0 },
        "label": "Hf",
        "xyz": [-7.4622774375, -7.4622774375, -9.70360541927029]
      },
      {
        "species": [{ "element": "Hf", "occu": 1 }],
        "abc": [0.81272151, 0.43727849, 0.43727849],
        "properties": { "magmom": 0.0 },
        "label": "Hf",
        "xyz": [-7.4622774375, -7.4622774375, -5.220949455729711]
      },
      {
        "species": [{ "element": "Hf", "occu": 1 }],
        "abc": [0.81272151, 0.43727849, 0.81272151],
        "properties": { "magmom": 0.0 },
        "label": "Hf",
        "xyz": [-7.4622774375, -9.70360541927029, -7.4622774375]
      },
      {
        "species": [{ "element": "Hf", "occu": 1 }],
        "abc": [0.43727849, 0.81272151, 0.43727849],
        "properties": { "magmom": 0.0 },
        "label": "Hf",
        "xyz": [-7.4622774375, -5.220949455729711, -7.4622774375]
      },
      {
        "species": [{ "element": "Hf", "occu": 1 }],
        "abc": [0.81272151, 0.81272151, 0.43727849],
        "properties": { "magmom": 0.0 },
        "label": "Hf",
        "xyz": [-9.70360541927029, -7.4622774375, -7.4622774375]
      },
      {
        "species": [{ "element": "Hf", "occu": 1 }],
        "abc": [0.43727849, 0.43727849, 0.81272151],
        "properties": { "magmom": 0.0 },
        "label": "Hf",
        "xyz": [-5.220949455729711, -7.4622774375, -7.4622774375]
      },
      {
        "species": [{ "element": "Hf", "occu": 1 }],
        "abc": [0.56272151, 0.18727849, 0.18727849],
        "properties": { "magmom": 0.0 },
        "label": "Hf",
        "xyz": [-4.4773664625, -4.4773664625, -2.236038480729711]
      },
      {
        "species": [{ "element": "Hf", "occu": 1 }],
        "abc": [0.18727849, 0.56272151, 0.56272151],
        "properties": { "magmom": 0.0 },
        "label": "Hf",
        "xyz": [-4.4773664625, -4.4773664625, -6.718694444270289]
      },
      {
        "species": [{ "element": "Hf", "occu": 1 }],
        "abc": [0.18727849, 0.56272151, 0.18727849],
        "properties": { "magmom": 0.0 },
        "label": "Hf",
        "xyz": [-4.4773664625, -2.236038480729711, -4.4773664625]
      },
      {
        "species": [{ "element": "Hf", "occu": 1 }],
        "abc": [0.56272151, 0.18727849, 0.56272151],
        "properties": { "magmom": 0.0 },
        "label": "Hf",
        "xyz": [-4.4773664625, -6.718694444270289, -4.4773664625]
      },
      {
        "species": [{ "element": "Hf", "occu": 1 }],
        "abc": [0.18727849, 0.18727849, 0.56272151],
        "properties": { "magmom": 0.0 },
        "label": "Hf",
        "xyz": [-2.236038480729711, -4.4773664625, -4.4773664625]
      },
      {
        "species": [{ "element": "Hf", "occu": 1 }],
        "abc": [0.56272151, 0.56272151, 0.18727849],
        "properties": { "magmom": 0.0 },
        "label": "Hf",
        "xyz": [-6.718694444270289, -4.4773664625, -4.4773664625]
      },
      {
        "species": [{ "element": "Co", "occu": 1 }],
        "abc": [0.222612199999999, 0.222612199999999, 0.83216441],
        "properties": { "magmom": -0.0 },
        "label": "Co",
        "xyz": [-2.657910395795568, -6.296828558724584, -6.296828558724584]
      },
      {
        "species": [{ "element": "Co", "occu": 1 }],
        "abc": [0.222612199999999, 0.83216441, 0.222612199999999],
        "properties": { "magmom": -0.0 },
        "label": "Co",
        "xyz": [-6.296828558724584, -2.657910395795568, -6.296828558724584]
      },
      {
        "species": [{ "element": "Co", "occu": 1 }],
        "abc": [0.83216441, 0.222612199999999, 0.222612199999999],
        "properties": { "magmom": -0.0 },
        "label": "Co",
        "xyz": [-6.296828558724584, -6.296828558724584, -2.657910395795568]
      },
      {
        "species": [{ "element": "Co", "occu": 1 }],
        "abc": [0.222612199999999, 0.222612199999999, 0.222612199999999],
        "properties": { "magmom": -0.0 },
        "label": "Co",
        "xyz": [-2.657910395795568, -2.657910395795568, -2.657910395795568]
      },
      {
        "species": [{ "element": "Co", "occu": 1 }],
        "abc": [0.7773878, 0.7773878, 0.16783559],
        "properties": { "magmom": -0.0 },
        "label": "Co",
        "xyz": [-9.28173350420442, -5.64281534127541, -5.64281534127541]
      },
      {
        "species": [{ "element": "Co", "occu": 1 }],
        "abc": [0.7773878, 0.16783559, 0.7773878],
        "properties": { "magmom": -0.0 },
        "label": "Co",
        "xyz": [-5.64281534127541, -9.28173350420442, -5.64281534127541]
      },
      {
        "species": [{ "element": "Co", "occu": 1 }],
        "abc": [0.16783559, 0.7773878, 0.7773878],
        "properties": { "magmom": -0.0 },
        "label": "Co",
        "xyz": [-5.64281534127541, -5.64281534127541, -9.28173350420442]
      },
      {
        "species": [{ "element": "Co", "occu": 1 }],
        "abc": [0.7773878, 0.7773878, 0.7773878],
        "properties": { "magmom": -0.0 },
        "label": "Co",
        "xyz": [-9.28173350420442, -9.28173350420442, -9.28173350420442]
      }
    ]
  },
  "task_ids": null,
  "uncorrected_energy_per_atom": null,
  "energy_per_atom": -34.72735761208333,
  "formation_energy_per_atom": -0.21500364208333603,
  "energy_above_hull": 0.074589567916667,
  "is_stable": false,
  "equilibrium_reaction_energy_per_atom": null,
  "decomposes_to": null,
  "xas": null,
  "grain_boundaries": null,
  "band_gap": 0.0,
  "cbm": null,
  "vbm": null,
  "efermi": 5.08676324,
  "is_gap_direct": null,
  "is_metal": null,
  "es_source_calc_id": null,
  "bandstructure": null,
  "dos": null,
  "dos_energy_up": null,
  "dos_energy_down": null,
  "is_magnetic": null,
  "ordering": null,
  "total_magnetization": 4e-7,
  "total_magnetization_normalized_vol": null,
  "total_magnetization_normalized_formula_units": null,
  "num_magnetic_sites": null,
  "num_unique_magnetic_sites": null,
  "types_of_magnetic_species": null,
  "bulk_modulus": null,
  "shear_modulus": null,
  "universal_anisotropy": null,
  "homogeneous_poisson": null,
  "e_total": null,
  "e_ionic": null,
  "e_electronic": null,
  "n": null,
  "e_ij_max": null,
  "weighted_surface_energy_EV_PER_ANG2": null,
  "weighted_surface_energy": null,
  "weighted_work_function": null,
  "surface_anisotropy": null,
  "shape_factor": null,
  "has_reconstructed": null,
  "possible_species": null,
  "has_props": null,
  "theoretical": null,
  "database_IDs": null,
  "fields_not_requested": [
    "builder_meta",
    "nsites",
    "elements",
    "nelements",
    "composition",
    "composition_reduced",
    "chemsys",
    "symmetry",
    "property_name",
    "deprecated",
    "deprecation_reasons",
    "last_updated",
    "origins",
    "warnings",
    "task_ids",
    "uncorrected_energy_per_atom",
    "equilibrium_reaction_energy_per_atom",
    "decomposes_to",
    "xas",
    "grain_boundaries",
    "cbm",
    "vbm",
    "is_gap_direct",
    "is_metal",
    "es_source_calc_id",
    "bandstructure",
    "dos",
    "dos_energy_up",
    "dos_energy_down",
    "is_magnetic",
    "ordering",
    "total_magnetization_normalized_vol",
    "total_magnetization_normalized_formula_units",
    "num_magnetic_sites",
    "num_unique_magnetic_sites",
    "types_of_magnetic_species",
    "bulk_modulus",
    "shear_modulus",
    "universal_anisotropy",
    "homogeneous_poisson",
    "e_total",
    "e_ionic",
    "e_electronic",
    "n",
    "e_ij_max",
    "weighted_surface_energy_EV_PER_ANG2",
    "weighted_surface_energy",
    "weighted_work_function",
    "surface_anisotropy",
    "shape_factor",
    "has_reconstructed",
    "possible_species",
    "has_props",
    "theoretical",
    "database_IDs"
  ]
}
