{"builder_meta": null, "nsites": null, "elements": null, "nelements": null, "composition": null, "composition_reduced": null, "formula_pretty": "Hf2Co7", "formula_anonymous": "A2B7", "chemsys": null, "volume": 115.71627575434937, "density": 11.042572326012923, "density_atomic": 12.857363972705485, "symmetry": null, "property_name": null, "material_id": "mp-1079776", "deprecated": null, "deprecation_reasons": null, "last_updated": null, "origins": null, "warnings": null, "structure": {"@module": "pymatgen.core.structure", "@class": "Structure", "charge": 0, "lattice": {"matrix": [[-4.646129, 0.0, -0.459862], [-2.323065, -4.117405, -0.229931], [-2.314946, 0.0, 5.8198170000000005]], "pbc": [true, true, true], "a": 4.668831518023006, "b": 4.733130379887184, "c": 6.263325386438502, "alpha": 82.1681873292705, "beta": 73.96142305929507, "gamma": 60.44836794149748, "volume": 115.7162757543494}, "properties": {}, "sites": [{"species": [{"element": "Hf", "occu": 1}], "abc": [0.10035000000000001, 0.0, 0.231857999999999], "properties": {"magmom": -0.28800000000000003}, "label": "Hf", "xyz": [-1.0029777948179976, 0.0, 1.3032239782859942]}, {"species": [{"element": "Hf", "occu": 1}], "abc": [0.8996500000000001, 0.0, 0.768142], "properties": {"magmom": -0.28800000000000003}, "label": "Hf", "xyz": [-5.958097205182, 0.0, 4.0567310217140005]}, {"species": [{"element": "Co", "occu": 1}], "abc": [0.5, 0.5, 0.5], "properties": {"magmom": 1.198}, "label": "Co", "xyz": [-4.64207, -2.0587025, 2.5650120000000003]}, {"species": [{"element": "Co", "occu": 1}], "abc": [0.0, 0.5, 0.5], "properties": {"magmom": 1.198}, "label": "Co", "xyz": [-2.3190055000000003, -2.0587025, 2.7949430000000004]}, {"species": [{"element": "Co", "occu": 1}], "abc": [0.5449, 0.663947, 0.845063999999999], "properties": {"magmom": 1.23}, "label": "Co", "xyz": [-6.0303452561989985, -2.7337386975349998, 4.514877031830995]}, {"species": [{"element": "Co", "occu": 1}], "abc": [0.208846999999999, 0.336053, 0.845063999999999], "properties": {"magmom": 1.23}, "label": "Co", "xyz": [-3.707280592251993, -1.3836663024649998, 4.7448080318309955]}, {"species": [{"element": "Co", "occu": 1}], "abc": [0.4551, 0.336053, 0.154936], "properties": {"magmom": 1.23}, "label": "Co", "xyz": [-3.2537947438010004, -1.3836663024649998, 0.615146968169]}, {"species": [{"element": "Co", "occu": 1}], "abc": [0.791153, 0.663947, 0.154936], "properties": {"magmom": 1.23}, "label": "Co", "xyz": [-5.576859407748, -2.7337386975349998, 0.38521596816900006]}, {"species": [{"element": "Co", "occu": 1}], "abc": [0.5, 0.0, 0.5], "properties": {"magmom": 1.072}, "label": "Co", "xyz": [-3.4805375, 0.0, 2.6799775]}]}, "task_ids": null, "uncorrected_energy_per_atom": null, "energy_per_atom": -20.549613958318478, "formation_energy_per_atom": -0.222675214985144, "energy_above_hull": 0.008021956060606001, "is_stable": false, "equilibrium_reaction_energy_per_atom": null, "decomposes_to": null, "xas": null, "grain_boundaries": null, "band_gap": 0.0, "cbm": null, "vbm": null, "efermi": 5.45494544, "is_gap_direct": null, "is_metal": null, "es_source_calc_id": null, "bandstructure": null, "dos": null, "dos_energy_up": null, "dos_energy_down": null, "is_magnetic": null, "ordering": null, "total_magnetization": 7.5630133, "total_magnetization_normalized_vol": null, "total_magnetization_normalized_formula_units": null, "num_magnetic_sites": null, "num_unique_magnetic_sites": null, "types_of_magnetic_species": null, "bulk_modulus": null, "shear_modulus": null, "universal_anisotropy": null, "homogeneous_poisson": null, "e_total": null, "e_ionic": null, "e_electronic": null, "n": null, "e_ij_max": null, "weighted_surface_energy_EV_PER_ANG2": null, "weighted_surface_energy": null, "weighted_work_function": null, "surface_anisotropy": null, "shape_factor": null, "has_reconstructed": null, "possible_species": null, "has_props": null, "theoretical": null, "database_IDs": null, "fields_not_requested": ["builder_meta", "nsites", "elements", "nelements", "composition", "composition_reduced", "chemsys", "symmetry", "property_name", "deprecated", "deprecation_reasons", "last_updated", "origins", "warnings", "task_ids", "uncorrected_energy_per_atom", "equilibrium_reaction_energy_per_atom", "decomposes_to", "xas", "grain_boundaries", "cbm", "vbm", "is_gap_direct", "is_metal", "es_source_calc_id", "bandstructure", "dos", "dos_energy_up", "dos_energy_down", "is_magnetic", "ordering", "total_magnetization_normalized_vol", "total_magnetization_normalized_formula_units", "num_magnetic_sites", "num_unique_magnetic_sites", "types_of_magnetic_species", "bulk_modulus", "shear_modulus", "universal_anisotropy", "homogeneous_poisson", "e_total", "e_ionic", "e_electronic", "n", "e_ij_max", "weighted_surface_energy_EV_PER_ANG2", "weighted_surface_energy", "weighted_work_function", "surface_anisotropy", "shape_factor", "has_reconstructed", "possible_species", "has_props", "theoretical", "database_IDs"]}