{"builder_meta": null, "nsites": null, "elements": null, "nelements": null, "composition": null, "composition_reduced": null, "formula_pretty": "Hf2Fe", "formula_anonymous": "AB2", "chemsys": null, "volume": 436.67688682665096, "density": 12.558705273380314, "density_atomic": 18.19487028444379, "symmetry": null, "property_name": null, "material_id": "mp-2754", "deprecated": null, "deprecation_reasons": null, "last_updated": null, "origins": null, "warnings": null, "structure": {"@module": "pymatgen.core.structure", "@class": "Structure", "charge": 0, "lattice": {"matrix": [[7.37488478, -6.639999999999996e-06, 4.25787539], [2.45829083, 6.95315543, 4.25787539], [1e-08, 1e-08, 8.51574975]], "pbc": [true, true, true], "a": 8.515775264477533, "b": 8.51581276657538, "c": 8.51574975, "alpha": 60.00024070112819, "beta": 60.000095043213925, "gamma": 60.000278766833084, "volume": 436.67688682665096}, "properties": {}, "sites": [{"species": [{"element": "Hf", "occu": 1}], "abc": [0.5, 0.5, 0.5], "properties": {"magmom": 0.431}, "label": "Hf", "xyz": [4.916587810000001, 3.4765744, 8.515750265]}, {"species": [{"element": "Hf", "occu": 1}], "abc": [0.5, 0.5, 0.0], "properties": {"magmom": 0.431}, "label": "Hf", "xyz": [4.916587805000001, 3.476574395, 4.25787539]}, {"species": [{"element": "Hf", "occu": 1}], "abc": [-0.0, 0.5, 0.5], "properties": {"magmom": 0.431}, "label": "Hf", "xyz": [1.22914542, 3.47657772, 6.38681257]}, {"species": [{"element": "Hf", "occu": 1}], "abc": [0.5, 0.0, 0.5], "properties": {"magmom": 0.431}, "label": "Hf", "xyz": [3.687442395, -3.314999999999998e-06, 6.38681257]}, {"species": [{"element": "Hf", "occu": 1}], "abc": [0.68475896, 0.06522748, 0.06524642], "properties": {"magmom": 0.392}, "label": "Hf", "xyz": [5.210366548673101, 0.4535322606001862, 3.7489709905131066]}, {"species": [{"element": "Hf", "occu": 1}], "abc": [0.9347519, 0.93479544, 0.31522683], "properties": {"magmom": 0.392}, "label": "Hf", "xyz": [9.191686621616165, 6.499771785974892, 10.644692408191755]}, {"species": [{"element": "Hf", "occu": 1}], "abc": [0.31522719, 0.31523275, 0.93477053], "properties": {"magmom": 0.392}, "label": "Hf", "xyz": [3.099697993761556, 2.191860223615496, 10.644691770061744]}, {"species": [{"element": "Hf", "occu": 1}], "abc": [0.9347674300000001, 0.31522706, 0.315212799999999], "properties": {"magmom": 0.392}, "label": "Hf", "xyz": [7.668721886464704, 2.1918165402183285, 8.006594099403392]}, {"species": [{"element": "Hf", "occu": 1}], "abc": [0.9347674300000001, 0.31522706, 0.93479171], "properties": {"magmom": 0.392}, "label": "Hf", "xyz": [7.668721892660493, 2.1918165464141177, 13.282773047341173]}, {"species": [{"element": "Hf", "occu": 1}], "abc": [0.31524104000000003, 0.93477252, 0.31523186000000003], "properties": {"magmom": 0.392}, "label": "Hf", "xyz": [4.6228090651316815, 6.4996165332045965, 8.006837607277323]}, {"species": [{"element": "Hf", "occu": 1}], "abc": [0.06523257, 0.68477294, 0.06520829], "properties": {"magmom": 0.392}, "label": "Hf", "xyz": [2.1644537273395077, 4.761332253585882, 3.7487274826588264]}, {"species": [{"element": "Hf", "occu": 1}], "abc": [0.0652481, 0.06520456, 0.68477317], "properties": {"magmom": 0.392}, "label": "Hf", "xyz": [0.6414889983838346, 0.45337701402510844, 6.386808121808245]}, {"species": [{"element": "Hf", "occu": 1}], "abc": [0.68477281, 0.68476725, 0.06522947], "properties": {"magmom": 0.392}, "label": "Hf", "xyz": [6.733477626238445, 4.761288576384505, 6.386808759938255]}, {"species": [{"element": "Hf", "occu": 1}], "abc": [0.68475896, 0.06522748, 0.68476814], "properties": {"magmom": 0.392}, "label": "Hf", "xyz": [5.210366554868319, 0.4535322667954034, 9.024662922722676]}, {"species": [{"element": "Hf", "occu": 1}], "abc": [0.31524104000000003, 0.93477252, 0.93475458], "properties": {"magmom": 0.392}, "label": "Hf", "xyz": [4.622809071326909, 6.499616539399824, 13.282538055236643]}, {"species": [{"element": "Hf", "occu": 1}], "abc": [0.06523257, 0.68477294, 0.684787199999999], "properties": {"magmom": 0.392}, "label": "Hf", "xyz": [2.164453733535297, 4.761332259781671, 9.024906430596591]}, {"species": [{"element": "Fe", "occu": 1}], "abc": [0.71401663, 0.71406242, 0.7140548], "properties": {"magmom": -2.067}, "label": "Fe", "xyz": [7.021163483528048, 4.964982259052064, 12.161294626555879]}, {"species": [{"element": "Fe", "occu": 1}], "abc": [0.28598337, 0.28593758, 0.64213485], "properties": {"magmom": -2.067}, "label": "Fe", "xyz": [2.8120121400338487, 1.9881665445098313, 7.903427826384208]}, {"species": [{"element": "Fe", "occu": 1}], "abc": [0.64213762, 0.28594847, 0.28595695], "properties": {"magmom": -2.067}, "label": "Fe", "xyz": [5.438635464916523, 1.9882398959464649, 6.386812747885587]}, {"species": [{"element": "Fe", "occu": 1}], "abc": [0.28597885, 0.64213517, 0.28594299], "properties": {"magmom": -2.067}, "label": "Fe", "xyz": [3.6876160711578247, 4.464863748039339, 6.38681279047872]}, {"species": [{"element": "Fe", "occu": 1}], "abc": [0.35786238, 0.71405153, 0.71404305], "properties": {"magmom": -2.067}, "label": "Fe", "xyz": [4.394540155083477, 4.964908904053535, 10.644687782114412]}, {"species": [{"element": "Fe", "occu": 1}], "abc": [0.71402115, 0.35786483, 0.71405701], "properties": {"magmom": -2.067}, "label": "Fe", "xyz": [6.145559548842177, 2.488285051960661, 10.64468773952128]}, {"species": [{"element": "Fe", "occu": 1}], "abc": [0.71401663, 0.71406242, 0.35786515], "properties": {"magmom": -2.067}, "label": "Fe", "xyz": [7.021163479966152, 4.964982255490168, 9.128072703615793]}, {"species": [{"element": "Fe", "occu": 1}], "abc": [0.28598337, 0.28593758, 0.2859452], "properties": {"magmom": -2.067}, "label": "Fe", "xyz": [2.812012136471952, 1.9881665409479348, 4.87020590344412]}]}, "task_ids": null, "uncorrected_energy_per_atom": null, "energy_per_atom": -9.643947358749992, "formation_energy_per_atom": -0.18248093541665802, "energy_above_hull": 0.0, "is_stable": true, "equilibrium_reaction_energy_per_atom": null, "decomposes_to": null, "xas": null, "grain_boundaries": null, "band_gap": 0.0, "cbm": null, "vbm": null, "efermi": 5.14126727, "is_gap_direct": null, "is_metal": null, "es_source_calc_id": null, "bandstructure": null, "dos": null, "dos_energy_up": null, "dos_energy_down": null, "is_magnetic": null, "ordering": null, "total_magnetization": 7.4199977, "total_magnetization_normalized_vol": null, "total_magnetization_normalized_formula_units": null, "num_magnetic_sites": null, "num_unique_magnetic_sites": null, "types_of_magnetic_species": null, "bulk_modulus": null, "shear_modulus": null, "universal_anisotropy": null, "homogeneous_poisson": null, "e_total": null, "e_ionic": null, "e_electronic": null, "n": null, "e_ij_max": null, "weighted_surface_energy_EV_PER_ANG2": null, "weighted_surface_energy": null, "weighted_work_function": null, "surface_anisotropy": null, "shape_factor": null, "has_reconstructed": null, "possible_species": null, "has_props": null, "theoretical": null, "database_IDs": null, "fields_not_requested": ["builder_meta", "nsites", "elements", "nelements", "composition", "composition_reduced", "chemsys", "symmetry", "property_name", "deprecated", "deprecation_reasons", "last_updated", "origins", "warnings", "task_ids", "uncorrected_energy_per_atom", "equilibrium_reaction_energy_per_atom", "decomposes_to", "xas", "grain_boundaries", "cbm", "vbm", "is_gap_direct", "is_metal", "es_source_calc_id", "bandstructure", "dos", "dos_energy_up", "dos_energy_down", "is_magnetic", "ordering", "total_magnetization_normalized_vol", "total_magnetization_normalized_formula_units", "num_magnetic_sites", "num_unique_magnetic_sites", "types_of_magnetic_species", "bulk_modulus", "shear_modulus", "universal_anisotropy", "homogeneous_poisson", "e_total", "e_ionic", "e_electronic", "n", "e_ij_max", "weighted_surface_energy_EV_PER_ANG2", "weighted_surface_energy", "weighted_work_function", "surface_anisotropy", "shape_factor", "has_reconstructed", "possible_species", "has_props", "theoretical", "database_IDs"]}