{
  "builder_meta": null,
  "nsites": null,
  "elements": null,
  "nelements": null,
  "composition": null,
  "composition_reduced": null,
  "formula_pretty": "Hf2Ga",
  "formula_anonymous": "AB2",
  "chemsys": null,
  "volume": 116.86961913234231,
  "density": 12.125597851620531,
  "density_atomic": 19.478269855390383,
  "symmetry": null,
  "property_name": null,
  "material_id": "mp-30572",
  "deprecated": null,
  "deprecation_reasons": null,
  "last_updated": null,
  "origins": null,
  "warnings": null,
  "structure": {
    "@module": "pymatgen.core.structure",
    "@class": "Structure",
    "charge": 0,
    "lattice": {
      "matrix": [
        [4.57354765, 2e-8, 2.55915203],
        [2.28677585, 4.72225719, 1.27957652],
        [-0.01914006, 0.0, 5.40055486]
      ],
      "pbc": [true, true, true],
      "a": 5.240858442991343,
      "b": 5.400590044354897,
      "c": 5.400588776954455,
      "alpha": 76.38299524984141,
      "beta": 60.97364222192028,
      "gamma": 60.973635095058356,
      "volume": 116.86961913234231
    },
    "properties": {},
    "sites": [
      {
        "species": [{ "element": "Hf", "occu": 1 }],
        "abc": [0.15353924, 0.5, 0.19292352000000001],
        "properties": { "magmom": -0.0 },
        "label": "Hf",
        "xyz": [1.8419143875365749, 2.361128598070785, 2.0746125712749643]
      },
      {
        "species": [{ "element": "Hf", "occu": 1 }],
        "abc": [0.34646076000000003, 0.80707648, 0.5],
        "properties": { "magmom": -0.0 },
        "label": "Hf",
        "xyz": [3.420587768282222, 3.811222717489106, 4.619639300921593]
      },
      {
        "species": [{ "element": "Hf", "occu": 1 }],
        "abc": [0.65353924, 0.19292352000000001, 0.5],
        "properties": { "magmom": -0.0 },
        "label": "Hf",
        "xyz": [3.420595671717778, 0.9110344925108936, 4.619644109078408]
      },
      {
        "species": [{ "element": "Hf", "occu": 1 }],
        "abc": [0.84646076, 0.5, 0.80707648],
        "properties": { "magmom": -0.0 },
        "label": "Hf",
        "xyz": [4.999269052463426, 2.361128611929215, 7.164670838725035]
      },
      {
        "species": [{ "element": "Ga", "occu": 1 }],
        "abc": [0.25, 0.0, -0.0],
        "properties": { "magmom": -0.0 },
        "label": "Ga",
        "xyz": [1.1433869125, 5e-9, 0.6397880075]
      },
      {
        "species": [{ "element": "Ga", "occu": 1 }],
        "abc": [0.75, 0.0, -0.0],
        "properties": { "magmom": -0.0 },
        "label": "Ga",
        "xyz": [3.4301607375, 1.5000000000000002e-8, 1.9193640225]
      }
    ]
  },
  "task_ids": null,
  "uncorrected_energy_per_atom": null,
  "energy_per_atom": -34.383552611666666,
  "formation_energy_per_atom": -0.46835036833333704,
  "energy_above_hull": 0.0,
  "is_stable": true,
  "equilibrium_reaction_energy_per_atom": null,
  "decomposes_to": null,
  "xas": null,
  "grain_boundaries": null,
  "band_gap": 0.0,
  "cbm": null,
  "vbm": null,
  "efermi": 4.21897132,
  "is_gap_direct": null,
  "is_metal": null,
  "es_source_calc_id": null,
  "bandstructure": null,
  "dos": null,
  "dos_energy_up": null,
  "dos_energy_down": null,
  "is_magnetic": null,
  "ordering": null,
  "total_magnetization": 0.0,
  "total_magnetization_normalized_vol": null,
  "total_magnetization_normalized_formula_units": null,
  "num_magnetic_sites": null,
  "num_unique_magnetic_sites": null,
  "types_of_magnetic_species": null,
  "bulk_modulus": null,
  "shear_modulus": null,
  "universal_anisotropy": null,
  "homogeneous_poisson": null,
  "e_total": null,
  "e_ionic": null,
  "e_electronic": null,
  "n": null,
  "e_ij_max": null,
  "weighted_surface_energy_EV_PER_ANG2": null,
  "weighted_surface_energy": null,
  "weighted_work_function": null,
  "surface_anisotropy": null,
  "shape_factor": null,
  "has_reconstructed": null,
  "possible_species": null,
  "has_props": null,
  "theoretical": null,
  "database_IDs": null,
  "fields_not_requested": [
    "builder_meta",
    "nsites",
    "elements",
    "nelements",
    "composition",
    "composition_reduced",
    "chemsys",
    "symmetry",
    "property_name",
    "deprecated",
    "deprecation_reasons",
    "last_updated",
    "origins",
    "warnings",
    "task_ids",
    "uncorrected_energy_per_atom",
    "equilibrium_reaction_energy_per_atom",
    "decomposes_to",
    "xas",
    "grain_boundaries",
    "cbm",
    "vbm",
    "is_gap_direct",
    "is_metal",
    "es_source_calc_id",
    "bandstructure",
    "dos",
    "dos_energy_up",
    "dos_energy_down",
    "is_magnetic",
    "ordering",
    "total_magnetization_normalized_vol",
    "total_magnetization_normalized_formula_units",
    "num_magnetic_sites",
    "num_unique_magnetic_sites",
    "types_of_magnetic_species",
    "bulk_modulus",
    "shear_modulus",
    "universal_anisotropy",
    "homogeneous_poisson",
    "e_total",
    "e_ionic",
    "e_electronic",
    "n",
    "e_ij_max",
    "weighted_surface_energy_EV_PER_ANG2",
    "weighted_surface_energy",
    "weighted_work_function",
    "surface_anisotropy",
    "shape_factor",
    "has_reconstructed",
    "possible_species",
    "has_props",
    "theoretical",
    "database_IDs"
  ]
}
