{"builder_meta": null, "nsites": null, "elements": null, "nelements": null, "composition": null, "composition_reduced": null, "formula_pretty": "Hf2Ga3", "formula_anonymous": "A2B3", "chemsys": null, "volume": 173.04247929954306, "density": 10.865684955763411, "density_atomic": 17.304247929954307, "symmetry": null, "property_name": null, "material_id": "mp-11441", "deprecated": null, "deprecation_reasons": null, "last_updated": null, "origins": null, "warnings": null, "structure": {"@module": "pymatgen.core.structure", "@class": "Structure", "charge": 0, "lattice": {"matrix": [[5.31353581, 0.00045058, -1.0139026], [-2.91321288, 4.44374467, -1.01390261], [0.00388258, 0.00718628, 7.32489656]], "pbc": [true, true, true], "a": 5.40940491084384, "b": 5.409406111479902, "c": 7.324901114127584, "alpha": 100.77266512386471, "beta": 100.77265234156822, "gamma": 119.59076139927252, "volume": 173.04247929954306}, "properties": {}, "sites": [{"species": [{"element": "Hf", "occu": 1}], "abc": [0.13323719, 0.77070326, 0.8952578600000001], "properties": {"magmom": -0.0}, "label": "Hf", "xyz": [-1.5337861731391362, 3.431302111443855, 5.6411636388197595]}, {"species": [{"element": "Hf", "occu": 1}], "abc": [0.8754444, 0.23798032, 0.10474214], "properties": {"magmom": -0.0}, "label": "Hf", "xyz": [3.9588245053913638, 1.0586709426484855, -0.3616788799190368]}, {"species": [{"element": "Hf", "occu": 1}], "abc": [0.02070326, 0.88323719, 0.39525786], "properties": {"magmom": -0.0}, "label": "Hf", "xyz": [-2.4615158243471877, 3.9277303175373293, 1.97871535769442]}, {"species": [{"element": "Hf", "occu": 1}], "abc": [0.48797932, 0.6254444, 0.60474214], "properties": {"magmom": -0.0}, "label": "Hf", "xyz": [0.7731908692934986, 2.7838809389491925, 3.300770410108923]}, {"species": [{"element": "Ga", "occu": 1}], "abc": [0.62264366, 0.62264366, -0.0], "properties": {"magmom": 0.0}, "label": "Ga", "xyz": [1.494545854317124, 2.767149996214615, -1.2626000577214684]}, {"species": [{"element": "Ga", "occu": 1}], "abc": [0.87264366, 0.37264366, 0.5], "properties": {"magmom": 0.0}, "label": "Ga", "xyz": [3.5531743168171244, 1.6599196137146148, 2.3998482247785313]}, {"species": [{"element": "Ga", "occu": 1}], "abc": [0.54003605, 0.17917338, 0.73053468], "properties": {"magmom": 0.0}, "label": "Ga", "xyz": [2.3503670513346906, 0.801693908584484, 4.621882651679449]}, {"species": [{"element": "Ga", "occu": 1}], "abc": [0.4486407, 0.80950238, 0.26946532], "properties": {"magmom": 0.0}, "label": "Ga", "xyz": [0.026661886128938533, 3.59936048824373, 0.6981710474282676]}, {"species": [{"element": "Ga", "occu": 1}], "abc": [0.42917338, 0.29003605, 0.23053468], "properties": {"magmom": 0.0}, "label": "Ga", "xyz": [1.4363864361422884, 1.2906962149971042, 0.9594343705708223]}, {"species": [{"element": "Ga", "occu": 1}], "abc": [0.05950238, 0.1986407, 0.76946532], "properties": {"magmom": 0.0}, "label": "Ga", "xyz": [-0.25952710815986263, 0.888264955692259, 5.374521933536885]}]}, "task_ids": null, "uncorrected_energy_per_atom": null, "energy_per_atom": -25.488735479, "formation_energy_per_atom": -0.562503753000001, "energy_above_hull": 0.0, "is_stable": true, "equilibrium_reaction_energy_per_atom": null, "decomposes_to": null, "xas": null, "grain_boundaries": null, "band_gap": 0.0, "cbm": null, "vbm": null, "efermi": 4.81406718, "is_gap_direct": null, "is_metal": null, "es_source_calc_id": null, "bandstructure": null, "dos": null, "dos_energy_up": null, "dos_energy_down": null, "is_magnetic": null, "ordering": null, "total_magnetization": 0.0, "total_magnetization_normalized_vol": null, "total_magnetization_normalized_formula_units": null, "num_magnetic_sites": null, "num_unique_magnetic_sites": null, "types_of_magnetic_species": null, "bulk_modulus": null, "shear_modulus": null, "universal_anisotropy": null, "homogeneous_poisson": null, "e_total": null, "e_ionic": null, "e_electronic": null, "n": null, "e_ij_max": null, "weighted_surface_energy_EV_PER_ANG2": null, "weighted_surface_energy": null, "weighted_work_function": null, "surface_anisotropy": null, "shape_factor": null, "has_reconstructed": null, "possible_species": null, "has_props": null, "theoretical": null, "database_IDs": null, "fields_not_requested": ["builder_meta", "nsites", "elements", "nelements", "composition", "composition_reduced", "chemsys", "symmetry", "property_name", "deprecated", "deprecation_reasons", "last_updated", "origins", "warnings", "task_ids", "uncorrected_energy_per_atom", "equilibrium_reaction_energy_per_atom", "decomposes_to", "xas", "grain_boundaries", "cbm", "vbm", "is_gap_direct", "is_metal", "es_source_calc_id", "bandstructure", "dos", "dos_energy_up", "dos_energy_down", "is_magnetic", "ordering", "total_magnetization_normalized_vol", "total_magnetization_normalized_formula_units", "num_magnetic_sites", "num_unique_magnetic_sites", "types_of_magnetic_species", "bulk_modulus", "shear_modulus", "universal_anisotropy", "homogeneous_poisson", "e_total", "e_ionic", "e_electronic", "n", "e_ij_max", "weighted_surface_energy_EV_PER_ANG2", "weighted_surface_energy", "weighted_work_function", "surface_anisotropy", "shape_factor", "has_reconstructed", "possible_species", "has_props", "theoretical", "database_IDs"]}