{"builder_meta": null, "nsites": null, "elements": null, "nelements": null, "composition": null, "composition_reduced": null, "formula_pretty": "Hf2Ge", "formula_anonymous": "AB2", "chemsys": null, "volume": 114.60179902419904, "density": 12.450080188393061, "density_atomic": 19.100299837366506, "symmetry": null, "property_name": null, "material_id": "mp-9939", "deprecated": null, "deprecation_reasons": null, "last_updated": null, "origins": null, "warnings": null, "structure": {"@module": "pymatgen.core.structure", "@class": "Structure", "charge": 0, "lattice": {"matrix": [[4.60391106, 2e-08, 2.61137401], [2.30195755, 4.65314962, 1.30568852], [0.00623687, 1e-08, 5.35309059]], "pbc": [true, true, true], "a": 5.2929454246661, "b": 5.35309559594894, "c": 5.353094223278155, "alpha": 75.85281495237376, "beta": 60.37100184287183, "gamma": 60.37097914486172, "volume": 114.60179902419904}, "properties": {}, "sites": [{"species": [{"element": "Hf", "occu": 1}], "abc": [0.6557608500000001, 0.1884783, 0.5], "properties": {"magmom": 0.0}, "label": "Hf", "xyz": [3.4560521107261666, 0.8770177481384629, 4.635076088044625]}, {"species": [{"element": "Hf", "occu": 1}], "abc": [0.84423915, 0.5, 0.8115217], "properties": {"magmom": 0.0}, "label": "Hf", "xyz": [5.042842090315078, 2.3265748349999997, 7.201617610385295]}, {"species": [{"element": "Hf", "occu": 1}], "abc": [0.34423915, 0.8115217, 0.5], "properties": {"magmom": 0.0}, "label": "Hf", "xyz": [3.4560533692738344, 3.776131901861537, 4.635077031955376]}, {"species": [{"element": "Hf", "occu": 1}], "abc": [0.15576085, 0.5, 0.1884783], "properties": {"magmom": 0.0}, "label": "Hf", "xyz": [1.869263389684922, 2.326574815, 2.0685355096147053]}, {"species": [{"element": "Ge", "occu": 1}], "abc": [0.75, -0.0, -0.0], "properties": {"magmom": -0.0}, "label": "Ge", "xyz": [3.452933295, 1.5000000000000002e-08, 1.9585305075]}, {"species": [{"element": "Ge", "occu": 1}], "abc": [0.25, -0.0, -0.0], "properties": {"magmom": -0.0}, "label": "Ge", "xyz": [1.150977765, 5e-09, 0.6528435025]}]}, "task_ids": null, "uncorrected_energy_per_atom": null, "energy_per_atom": -35.445987826666666, "formation_energy_per_atom": -0.7210517066666711, "energy_above_hull": 0.0, "is_stable": true, "equilibrium_reaction_energy_per_atom": null, "decomposes_to": null, "xas": null, "grain_boundaries": null, "band_gap": 0.0, "cbm": null, "vbm": null, "efermi": 5.73700117, "is_gap_direct": null, "is_metal": null, "es_source_calc_id": null, "bandstructure": null, "dos": null, "dos_energy_up": null, "dos_energy_down": null, "is_magnetic": null, "ordering": null, "total_magnetization": 0.0, "total_magnetization_normalized_vol": null, "total_magnetization_normalized_formula_units": null, "num_magnetic_sites": null, "num_unique_magnetic_sites": null, "types_of_magnetic_species": null, "bulk_modulus": null, "shear_modulus": null, "universal_anisotropy": null, "homogeneous_poisson": null, "e_total": null, "e_ionic": null, "e_electronic": null, "n": null, "e_ij_max": null, "weighted_surface_energy_EV_PER_ANG2": null, "weighted_surface_energy": null, "weighted_work_function": null, "surface_anisotropy": null, "shape_factor": null, "has_reconstructed": null, "possible_species": null, "has_props": null, "theoretical": null, "database_IDs": null, "fields_not_requested": ["builder_meta", "nsites", "elements", "nelements", "composition", "composition_reduced", "chemsys", "symmetry", "property_name", "deprecated", "deprecation_reasons", "last_updated", "origins", "warnings", "task_ids", "uncorrected_energy_per_atom", "equilibrium_reaction_energy_per_atom", "decomposes_to", "xas", "grain_boundaries", "cbm", "vbm", "is_gap_direct", "is_metal", "es_source_calc_id", "bandstructure", "dos", "dos_energy_up", "dos_energy_down", "is_magnetic", "ordering", "total_magnetization_normalized_vol", "total_magnetization_normalized_formula_units", "num_magnetic_sites", "num_unique_magnetic_sites", "types_of_magnetic_species", "bulk_modulus", "shear_modulus", "universal_anisotropy", "homogeneous_poisson", "e_total", "e_ionic", "e_electronic", "n", "e_ij_max", "weighted_surface_energy_EV_PER_ANG2", "weighted_surface_energy", "weighted_work_function", "surface_anisotropy", "shape_factor", "has_reconstructed", "possible_species", "has_props", "theoretical", "database_IDs"]}