{"builder_meta": null, "nsites": null, "elements": null, "nelements": null, "composition": null, "composition_reduced": null, "formula_pretty": "Hf2In5", "formula_anonymous": "A2B5", "chemsys": null, "volume": 324.88656666280355, "density": 9.517648726571823, "density_atomic": 23.206183333057396, "symmetry": null, "property_name": null, "material_id": "mp-22050", "deprecated": null, "deprecation_reasons": null, "last_updated": null, "origins": null, "warnings": null, "structure": {"@module": "pymatgen.core.structure", "@class": "Structure", "charge": 0, "lattice": {"matrix": [[3.05736395, -0.0, 0.0], [-0.0, 10.3084248, 0.0], [0.0, 0.0, 10.3084248]], "pbc": [true, true, true], "a": 3.05736395, "b": 10.3084248, "c": 10.3084248, "alpha": 90.0, "beta": 90.0, "gamma": 90.0, "volume": 324.88656666280355}, "properties": {}, "sites": [{"species": [{"element": "Hf", "occu": 1}], "abc": [0.5, 0.82018078, 0.32018078], "properties": {"magmom": -0.0}, "label": "Hf", "xyz": [1.528681975, 8.454771893035344, 3.300559493035344]}, {"species": [{"element": "Hf", "occu": 1}], "abc": [0.5, 0.6798192200000001, 0.82018078], "properties": {"magmom": -0.0}, "label": "Hf", "xyz": [1.528681975, 7.007865306964656, 8.454771893035344]}, {"species": [{"element": "Hf", "occu": 1}], "abc": [0.5, 0.32018078, 0.17981922], "properties": {"magmom": -0.0}, "label": "Hf", "xyz": [1.528681975, 3.300559493035344, 1.853652906964656]}, {"species": [{"element": "Hf", "occu": 1}], "abc": [0.5, 0.17981922, 0.6798192200000001], "properties": {"magmom": -0.0}, "label": "Hf", "xyz": [1.528681975, 1.853652906964656, 7.007865306964656]}, {"species": [{"element": "In", "occu": 1}], "abc": [-0.0, 0.29076102, 0.43805648], "properties": {"magmom": 0.0}, "label": "In", "xyz": [0.0, 2.9972881094412958, 4.515672282232704]}, {"species": [{"element": "In", "occu": 1}], "abc": [0.0, 0.70923898, 0.56194352], "properties": {"magmom": 0.0}, "label": "In", "xyz": [0.0, 7.311136690558703, 5.792752517767296]}, {"species": [{"element": "In", "occu": 1}], "abc": [-0.0, 0.43805648, 0.70923898], "properties": {"magmom": 0.0}, "label": "In", "xyz": [0.0, 4.515672282232704, 7.311136690558703]}, {"species": [{"element": "In", "occu": 1}], "abc": [0.0, 0.56194352, 0.29076102], "properties": {"magmom": 0.0}, "label": "In", "xyz": [0.0, 5.792752517767296, 2.9972881094412958]}, {"species": [{"element": "In", "occu": 1}], "abc": [0.0, -0.0, 0.5], "properties": {"magmom": -0.0}, "label": "In", "xyz": [0.0, 0.0, 5.1542124]}, {"species": [{"element": "In", "occu": 1}], "abc": [0.0, 0.5, -0.0], "properties": {"magmom": -0.0}, "label": "In", "xyz": [0.0, 5.1542124, 0.0]}, {"species": [{"element": "In", "occu": 1}], "abc": [0.0, 0.06194352, 0.20923898], "properties": {"magmom": 0.0}, "label": "In", "xyz": [0.0, 0.638540117767296, 2.156924290558704]}, {"species": [{"element": "In", "occu": 1}], "abc": [-0.0, 0.79076102, 0.06194352], "properties": {"magmom": 0.0}, "label": "In", "xyz": [0.0, 8.151500509441295, 0.638540117767296]}, {"species": [{"element": "In", "occu": 1}], "abc": [0.0, 0.20923898, 0.93805648], "properties": {"magmom": 0.0}, "label": "In", "xyz": [0.0, 2.156924290558704, 9.669884682232702]}, {"species": [{"element": "In", "occu": 1}], "abc": [-0.0, 0.93805648, 0.79076102], "properties": {"magmom": 0.0}, "label": "In", "xyz": [0.0, 9.669884682232702, 8.151500509441295]}]}, "task_ids": null, "uncorrected_energy_per_atom": null, "energy_per_atom": -29.274218930714284, "formation_energy_per_atom": -0.24624997642856802, "energy_above_hull": 0.0, "is_stable": true, "equilibrium_reaction_energy_per_atom": null, "decomposes_to": null, "xas": null, "grain_boundaries": null, "band_gap": 0.0, "cbm": null, "vbm": null, "efermi": 7.07158071, "is_gap_direct": null, "is_metal": null, "es_source_calc_id": null, "bandstructure": null, "dos": null, "dos_energy_up": null, "dos_energy_down": null, "is_magnetic": null, "ordering": null, "total_magnetization": 2.4e-06, "total_magnetization_normalized_vol": null, "total_magnetization_normalized_formula_units": null, "num_magnetic_sites": null, "num_unique_magnetic_sites": null, "types_of_magnetic_species": null, "bulk_modulus": null, "shear_modulus": null, "universal_anisotropy": null, "homogeneous_poisson": null, "e_total": null, "e_ionic": null, "e_electronic": null, "n": null, "e_ij_max": null, "weighted_surface_energy_EV_PER_ANG2": null, "weighted_surface_energy": null, "weighted_work_function": null, "surface_anisotropy": null, "shape_factor": null, "has_reconstructed": null, "possible_species": null, "has_props": null, "theoretical": null, "database_IDs": null, "fields_not_requested": ["builder_meta", "nsites", "elements", "nelements", "composition", "composition_reduced", "chemsys", "symmetry", "property_name", "deprecated", "deprecation_reasons", "last_updated", "origins", "warnings", "task_ids", "uncorrected_energy_per_atom", "equilibrium_reaction_energy_per_atom", "decomposes_to", "xas", "grain_boundaries", "cbm", "vbm", "is_gap_direct", "is_metal", "es_source_calc_id", "bandstructure", "dos", "dos_energy_up", "dos_energy_down", "is_magnetic", "ordering", "total_magnetization_normalized_vol", "total_magnetization_normalized_formula_units", "num_magnetic_sites", "num_unique_magnetic_sites", "types_of_magnetic_species", "bulk_modulus", "shear_modulus", "universal_anisotropy", "homogeneous_poisson", "e_total", "e_ionic", "e_electronic", "n", "e_ij_max", "weighted_surface_energy_EV_PER_ANG2", "weighted_surface_energy", "weighted_work_function", "surface_anisotropy", "shape_factor", "has_reconstructed", "possible_species", "has_props", "theoretical", "database_IDs"]}