{"builder_meta": null, "nsites": null, "elements": null, "nelements": null, "composition": null, "composition_reduced": null, "formula_pretty": "Hf2Mn", "formula_anonymous": "AB2", "chemsys": null, "volume": 450.23273764950085, "density": 12.15382087994649, "density_atomic": 18.759697402062535, "symmetry": null, "property_name": null, "material_id": "mp-1192157", "deprecated": null, "deprecation_reasons": null, "last_updated": null, "origins": null, "warnings": null, "structure": {"@module": "pymatgen.core.structure", "@class": "Structure", "charge": 0, "lattice": {"matrix": [[-0.00029663, 6.08283178, 6.08284088], [6.08333049, -0.00078914, 6.08333338], [6.08287585, 6.08286971, -0.0003345]], "pbc": [true, true, true], "a": 8.602429640698405, "b": 8.603130563087358, "c": 8.602481190170598, "alpha": 60.006101365586794, "beta": 60.00347363088979, "gamma": 60.005871674381034, "volume": 450.23273764950085}, "properties": {}, "sites": [{"species": [{"element": "Hf", "occu": 1}], "abc": [0.125, 0.625, 0.625], "properties": {"magmom": -0.554}, "label": "Hf", "xyz": [7.60384188375, 4.56165432875, 4.5622294100000005]}, {"species": [{"element": "Hf", "occu": 1}], "abc": [0.625, 0.125, 0.625], "properties": {"magmom": -0.554}, "label": "Hf", "xyz": [4.56202832375, 7.60346478875, 4.5619831600000005]}, {"species": [{"element": "Hf", "occu": 1}], "abc": [0.625, 0.625, 0.125], "properties": {"magmom": -0.554}, "label": "Hf", "xyz": [4.56225564375, 4.56163536375, 7.6038171]}, {"species": [{"element": "Hf", "occu": 1}], "abc": [0.625, 0.625, 0.625], "properties": {"magmom": -0.554}, "label": "Hf", "xyz": [7.60369356875, 7.60307021875, 7.60364985]}, {"species": [{"element": "Hf", "occu": 1}], "abc": [0.80998051, 0.80999144, 0.19002143], "properties": {"magmom": -0.558}, "label": "Hf", "xyz": [6.08308212660179, 6.082211591561532, 9.85436696052918]}, {"species": [{"element": "Hf", "occu": 1}], "abc": [0.18996824, 0.18997977, 0.81003483], "properties": {"magmom": -0.558}, "label": "Hf", "xyz": [6.0829946821110115, 6.082731258278968, 2.3109858958887384]}, {"species": [{"element": "Hf", "occu": 1}], "abc": [0.81001225, 0.19004232000000001, 0.8099979900000001], "properties": {"magmom": -0.558}, "label": "Hf", "xyz": [6.0829671776321605, 9.854130525024784, 6.082995472141767]}, {"species": [{"element": "Hf", "occu": 1}], "abc": [0.19002734000000002, 0.8100281300000001, 0.18995881], "properties": {"magmom": -0.558}, "label": "Hf", "xyz": [6.083108311020558, 2.310759808719002, 6.083513692815694]}, {"species": [{"element": "Hf", "occu": 1}], "abc": [0.19003551, 0.810018399999999, 0.80999403], "properties": {"magmom": -0.558}, "label": "Hf", "xyz": [9.854646383678855, 6.0824029720041635, 6.083296797010799]}, {"species": [{"element": "Hf", "occu": 1}], "abc": [0.8100215, 0.19003456, 0.18995441], "properties": {"magmom": -0.558}, "label": "Hf", "xyz": [2.311271849514188, 6.082542485680513, 6.083211936330388]}, {"species": [{"element": "Hf", "occu": 1}], "abc": [0.44001949, 0.44000856, 0.05997857], "properties": {"magmom": -0.558}, "label": "Hf", "xyz": [3.0414291608982102, 3.041059135938468, 5.353267239470818]}, {"species": [{"element": "Hf", "occu": 1}], "abc": [0.06003176, 0.06002023, 0.43996517], "properties": {"magmom": -0.558}, "label": "Hf", "xyz": [3.0413585953889886, 3.0413665392210314, 0.7301395441112613]}, {"species": [{"element": "Hf", "occu": 1}], "abc": [0.43998775, 0.05995768, 0.44000201], "properties": {"magmom": -0.558}, "label": "Hf", "xyz": [3.0410894698678392, 5.352799052475217, 3.040970847858233]}, {"species": [{"element": "Hf", "occu": 1}], "abc": [0.059972660000000004, 0.43997187, 0.06004119], "properties": {"magmom": -0.558}, "label": "Hf", "xyz": [3.041699606479442, 0.729679138780998, 3.0412796271843066]}, {"species": [{"element": "Hf", "occu": 1}], "abc": [0.05996449, 0.4399816, 0.44000597], "properties": {"magmom": -0.558}, "label": "Hf", "xyz": [5.353037383821139, 3.0409056854958374, 3.041162022989194]}, {"species": [{"element": "Hf", "occu": 1}], "abc": [0.4399785, 0.05996544, 0.06004559], "properties": {"magmom": -0.558}, "label": "Hf", "xyz": [0.7299089479858121, 3.041517381819488, 3.0410888836696124]}, {"species": [{"element": "Mn", "occu": 1}], "abc": [0.76175711, 0.41274735, 0.4127396], "properties": {"magmom": 2.618}, "label": "Mn", "xyz": [5.021296324088821, 7.143955852862693, 7.144388959704]}, {"species": [{"element": "Mn", "occu": 1}], "abc": [0.41278551, 0.76172523, 0.41273884], "properties": {"magmom": 2.618}, "label": "Mn", "xyz": [7.144342994288445, 5.020940298680042, 7.144599031804846]}, {"species": [{"element": "Mn", "occu": 1}], "abc": [0.41277814, 0.41273863, 0.76173535], "properties": {"magmom": 2.618999999999999}, "label": "Mn", "xyz": [7.144244614506459, 7.144071167070059, 5.021435628982258]}, {"species": [{"element": "Mn", "occu": 1}], "abc": [0.41277397, 0.41275363, 0.41272711], "properties": {"magmom": 2.618999999999999}, "label": "Mn", "xyz": [5.021362071153751, 5.021074138188027, 5.021618256792768]}, {"species": [{"element": "Mn", "occu": 1}], "abc": [0.48824289, 0.83725265, 0.8372604], "properties": {"magmom": 2.618}, "label": "Mn", "xyz": [10.186090813411177, 8.062184584637308, 8.062910740296001]}, {"species": [{"element": "Mn", "occu": 1}], "abc": [0.83721449, 0.48827477, 0.8372611600000001], "properties": {"magmom": 2.618}, "label": "Mn", "xyz": [8.063044143211556, 10.185200138819958, 8.062700668195154]}, {"species": [{"element": "Mn", "occu": 1}], "abc": [0.83722186, 0.83726137, 0.48826465], "properties": {"magmom": 2.618999999999999}, "label": "Mn", "xyz": [8.063142522993543, 8.06206927042994, 10.185864071017741]}, {"species": [{"element": "Mn", "occu": 1}], "abc": [0.8372260300000001, 0.83724637, 0.83727289], "properties": {"magmom": 2.618999999999999}, "label": "Mn", "xyz": [10.186025066346248, 10.185066299311975, 10.185681443207232]}]}, "task_ids": null, "uncorrected_energy_per_atom": null, "energy_per_atom": -35.06757102625, "formation_energy_per_atom": -0.07218254107758501, "energy_above_hull": 0.031558884027781, "is_stable": false, "equilibrium_reaction_energy_per_atom": null, "decomposes_to": null, "xas": null, "grain_boundaries": null, "band_gap": 0.0, "cbm": null, "vbm": null, "efermi": 5.07161287, "is_gap_direct": null, "is_metal": null, "es_source_calc_id": null, "bandstructure": null, "dos": null, "dos_energy_up": null, "dos_energy_down": null, "is_magnetic": null, "ordering": null, "total_magnetization": 8.588741, "total_magnetization_normalized_vol": null, "total_magnetization_normalized_formula_units": null, "num_magnetic_sites": null, "num_unique_magnetic_sites": null, "types_of_magnetic_species": null, "bulk_modulus": null, "shear_modulus": null, "universal_anisotropy": null, "homogeneous_poisson": null, "e_total": null, "e_ionic": null, "e_electronic": null, "n": null, "e_ij_max": null, "weighted_surface_energy_EV_PER_ANG2": null, "weighted_surface_energy": null, "weighted_work_function": null, "surface_anisotropy": null, "shape_factor": null, "has_reconstructed": null, "possible_species": null, "has_props": null, "theoretical": null, "database_IDs": null, "fields_not_requested": ["builder_meta", "nsites", "elements", "nelements", "composition", "composition_reduced", "chemsys", "symmetry", "property_name", "deprecated", "deprecation_reasons", "last_updated", "origins", "warnings", "task_ids", "uncorrected_energy_per_atom", "equilibrium_reaction_energy_per_atom", "decomposes_to", "xas", "grain_boundaries", "cbm", "vbm", "is_gap_direct", "is_metal", "es_source_calc_id", "bandstructure", "dos", "dos_energy_up", "dos_energy_down", "is_magnetic", "ordering", "total_magnetization_normalized_vol", "total_magnetization_normalized_formula_units", "num_magnetic_sites", "num_unique_magnetic_sites", "types_of_magnetic_species", "bulk_modulus", "shear_modulus", "universal_anisotropy", "homogeneous_poisson", "e_total", "e_ionic", "e_electronic", "n", "e_ij_max", "weighted_surface_energy_EV_PER_ANG2", "weighted_surface_energy", "weighted_work_function", "surface_anisotropy", "shape_factor", "has_reconstructed", "possible_species", "has_props", "theoretical", "database_IDs"]}