{"builder_meta": null, "nsites": null, "elements": null, "nelements": null, "composition": null, "composition_reduced": null, "formula_pretty": "Hf2Ni", "formula_anonymous": "AB2", "chemsys": null, "volume": 105.75703483055912, "density": 13.05335235149764, "density_atomic": 17.626172471759855, "symmetry": null, "property_name": null, "material_id": "mp-861", "deprecated": null, "deprecation_reasons": null, "last_updated": null, "origins": null, "warnings": null, "structure": {"@module": "pymatgen.core.structure", "@class": "Structure", "charge": 0, "lattice": {"matrix": [[4.53867301, -0.0, 2.610944609999999], [2.2693365, 4.49418945, 1.305471799999999], [0.02833511, -0.0, 5.20106425]], "pbc": [true, true, true], "a": 5.236084839666992, "b": 5.2011425267261036, "c": 5.201141433482344, "alpha": 75.32295599662788, "beta": 59.77750131275504, "gamma": 59.777517059401816, "volume": 105.75703483055912}, "properties": {}, "sites": [{"species": [{"element": "Hf", "occu": 1}], "abc": [0.6656108, 0.1687794, 0.5], "properties": {"magmom": 0.0}, "label": "Hf", "xyz": [3.418174580992608, 0.7585265988573301, 4.558741802738707]}, {"species": [{"element": "Hf", "occu": 1}], "abc": [0.834389199999999, 0.5, 0.8312206], "properties": {"magmom": 0.0}, "label": "Hf", "xyz": [4.945240719010754, 2.247094725, 7.154511630905757]}, {"species": [{"element": "Hf", "occu": 1}], "abc": [0.3343892, 0.8312206, 0.5], "properties": {"magmom": 0.0}, "label": "Hf", "xyz": [3.418170039007392, 3.73566285114267, 4.558738857261291]}, {"species": [{"element": "Hf", "occu": 1}], "abc": [0.1656108, 0.5, 0.1687794], "properties": {"magmom": 0.0}, "label": "Hf", "xyz": [1.891103900989242, 2.247094725, 1.9629690290942374]}, {"species": [{"element": "Ni", "occu": 1}], "abc": [0.75, -0.0, 0.0], "properties": {"magmom": -0.0}, "label": "Ni", "xyz": [3.4040047575, 0.0, 1.9582084574999992]}, {"species": [{"element": "Ni", "occu": 1}], "abc": [0.25, -0.0, 0.0], "properties": {"magmom": -0.0}, "label": "Ni", "xyz": [1.1346682525, 0.0, 0.6527361524999997]}]}, "task_ids": null, "uncorrected_energy_per_atom": null, "energy_per_atom": -34.42602806666667, "formation_energy_per_atom": -0.331178753333333, "energy_above_hull": 0.013278753333331, "is_stable": false, "equilibrium_reaction_energy_per_atom": null, "decomposes_to": null, "xas": null, "grain_boundaries": null, "band_gap": 0.0, "cbm": null, "vbm": null, "efermi": 5.57000881, "is_gap_direct": null, "is_metal": null, "es_source_calc_id": null, "bandstructure": null, "dos": null, "dos_energy_up": null, "dos_energy_down": null, "is_magnetic": null, "ordering": null, "total_magnetization": 0.0, "total_magnetization_normalized_vol": null, "total_magnetization_normalized_formula_units": null, "num_magnetic_sites": null, "num_unique_magnetic_sites": null, "types_of_magnetic_species": null, "bulk_modulus": null, "shear_modulus": null, "universal_anisotropy": null, "homogeneous_poisson": null, "e_total": null, "e_ionic": null, "e_electronic": null, "n": null, "e_ij_max": null, "weighted_surface_energy_EV_PER_ANG2": null, "weighted_surface_energy": null, "weighted_work_function": null, "surface_anisotropy": null, "shape_factor": null, "has_reconstructed": null, "possible_species": null, "has_props": null, "theoretical": null, "database_IDs": null, "fields_not_requested": ["builder_meta", "nsites", "elements", "nelements", "composition", "composition_reduced", "chemsys", "symmetry", "property_name", "deprecated", "deprecation_reasons", "last_updated", "origins", "warnings", "task_ids", "uncorrected_energy_per_atom", "equilibrium_reaction_energy_per_atom", "decomposes_to", "xas", "grain_boundaries", "cbm", "vbm", "is_gap_direct", "is_metal", "es_source_calc_id", "bandstructure", "dos", "dos_energy_up", "dos_energy_down", "is_magnetic", "ordering", "total_magnetization_normalized_vol", "total_magnetization_normalized_formula_units", "num_magnetic_sites", "num_unique_magnetic_sites", "types_of_magnetic_species", "bulk_modulus", "shear_modulus", "universal_anisotropy", "homogeneous_poisson", "e_total", "e_ionic", "e_electronic", "n", "e_ij_max", "weighted_surface_energy_EV_PER_ANG2", "weighted_surface_energy", "weighted_work_function", "surface_anisotropy", "shape_factor", "has_reconstructed", "possible_species", "has_props", "theoretical", "database_IDs"]}