{"builder_meta": null, "nsites": null, "elements": null, "nelements": null, "composition": null, "composition_reduced": null, "formula_pretty": "Hf2Ni7", "formula_anonymous": "A2B7", "chemsys": null, "volume": 111.27332953942928, "density": 11.45843327267504, "density_atomic": 12.36370328215881, "symmetry": null, "property_name": null, "material_id": "mp-1205858", "deprecated": null, "deprecation_reasons": null, "last_updated": null, "origins": null, "warnings": null, "structure": {"@module": "pymatgen.core.structure", "@class": "Structure", "charge": 0, "lattice": {"matrix": [[4.05193852, 2.30502904, -0.00046341], [-4.05193852, 2.30502904, -0.00046341], [0.0, 1.71948716, 5.95657529]], "pbc": [true, true, true], "a": 4.6616912016833485, "b": 4.6616912016833485, "c": 6.1997923577200105, "alpha": 82.12331305731281, "beta": 82.12331305731281, "gamma": 120.73144140380937, "volume": 111.27332953942928}, "properties": {}, "sites": [{"species": [{"element": "Hf", "occu": 1}], "abc": [0.10657097, 0.10657097, 0.22834212], "properties": {"magmom": 0.0}, "label": "Hf", "xyz": [0.0, 0.8839297047691168, 1.3600382575517995]}, {"species": [{"element": "Hf", "occu": 1}], "abc": [0.8934290300000001, 0.8934290300000001, 0.77165788], "properties": {"magmom": 0.0}, "label": "Hf", "xyz": [0.0, 5.445615535230884, 4.595610212448201]}, {"species": [{"element": "Ni", "occu": 1}], "abc": [-0.0, 0.5, 0.5], "properties": {"magmom": -0.0}, "label": "Ni", "xyz": [-2.02596926, 2.0122581, 2.97805594]}, {"species": [{"element": "Ni", "occu": 1}], "abc": [0.5, -0.0, 0.5], "properties": {"magmom": -0.0}, "label": "Ni", "xyz": [2.02596926, 2.0122581, 2.97805594]}, {"species": [{"element": "Ni", "occu": 1}], "abc": [0.46359439, 0.7929092400000001, 0.15512543], "properties": {"magmom": -0.0}, "label": "Ni", "xyz": [-1.3343635259230224, 3.163013541089894, 0.9234340268414464]}, {"species": [{"element": "Ni", "occu": 1}], "abc": [0.53640561, 0.20709076, 0.84487457], "properties": {"magmom": -0.0}, "label": "Ni", "xyz": [1.3343635259230218, 3.1665316989101058, 5.032214443158554]}, {"species": [{"element": "Ni", "occu": 1}], "abc": [0.20709076, 0.53640561, 0.84487457], "properties": {"magmom": -0.0}, "label": "Ni", "xyz": [-1.3343635259230218, 3.1665316989101058, 5.032214443158554]}, {"species": [{"element": "Ni", "occu": 1}], "abc": [0.7929092400000001, 0.46359439, 0.15512543], "properties": {"magmom": -0.0}, "label": "Ni", "xyz": [1.3343635259230224, 3.163013541089894, 0.9234340268414464]}, {"species": [{"element": "Ni", "occu": 1}], "abc": [0.5, 0.5, 0.5], "properties": {"magmom": -0.0}, "label": "Ni", "xyz": [0.0, 3.16477262, 2.977824235]}]}, "task_ids": null, "uncorrected_energy_per_atom": null, "energy_per_atom": -19.790882265555556, "formation_energy_per_atom": -0.43812105444444505, "energy_above_hull": 0.021984021333331, "is_stable": false, "equilibrium_reaction_energy_per_atom": null, "decomposes_to": null, "xas": null, "grain_boundaries": null, "band_gap": 0.0, "cbm": null, "vbm": null, "efermi": 7.23040519, "is_gap_direct": null, "is_metal": null, "es_source_calc_id": null, "bandstructure": null, "dos": null, "dos_energy_up": null, "dos_energy_down": null, "is_magnetic": null, "ordering": null, "total_magnetization": 1.77e-05, "total_magnetization_normalized_vol": null, "total_magnetization_normalized_formula_units": null, "num_magnetic_sites": null, "num_unique_magnetic_sites": null, "types_of_magnetic_species": null, "bulk_modulus": null, "shear_modulus": null, "universal_anisotropy": null, "homogeneous_poisson": null, "e_total": null, "e_ionic": null, "e_electronic": null, "n": null, "e_ij_max": null, "weighted_surface_energy_EV_PER_ANG2": null, "weighted_surface_energy": null, "weighted_work_function": null, "surface_anisotropy": null, "shape_factor": null, "has_reconstructed": null, "possible_species": null, "has_props": null, "theoretical": null, "database_IDs": null, "fields_not_requested": ["builder_meta", "nsites", "elements", "nelements", "composition", "composition_reduced", "chemsys", "symmetry", "property_name", "deprecated", "deprecation_reasons", "last_updated", "origins", "warnings", "task_ids", "uncorrected_energy_per_atom", "equilibrium_reaction_energy_per_atom", "decomposes_to", "xas", "grain_boundaries", "cbm", "vbm", "is_gap_direct", "is_metal", "es_source_calc_id", "bandstructure", "dos", "dos_energy_up", "dos_energy_down", "is_magnetic", "ordering", "total_magnetization_normalized_vol", "total_magnetization_normalized_formula_units", "num_magnetic_sites", "num_unique_magnetic_sites", "types_of_magnetic_species", "bulk_modulus", "shear_modulus", "universal_anisotropy", "homogeneous_poisson", "e_total", "e_ionic", "e_electronic", "n", "e_ij_max", "weighted_surface_energy_EV_PER_ANG2", "weighted_surface_energy", "weighted_work_function", "surface_anisotropy", "shape_factor", "has_reconstructed", "possible_species", "has_props", "theoretical", "database_IDs"]}