{"builder_meta": null, "nsites": null, "elements": null, "nelements": null, "composition": null, "composition_reduced": null, "formula_pretty": "Hf2Os", "formula_anonymous": "AB2", "chemsys": null, "volume": 463.7790299907852, "density": 15.674077935817671, "density_atomic": 19.32412624961605, "symmetry": null, "property_name": null, "material_id": "mp-1191415", "deprecated": null, "deprecation_reasons": null, "last_updated": null, "origins": null, "warnings": null, "structure": {"@module": "pymatgen.core.structure", "@class": "Structure", "charge": 0, "lattice": {"matrix": [[-0.0, 6.14365808, 6.14365808], [6.14365808, 0.0, 6.14365808], [6.14365808, 6.14365808, 0.0]], "pbc": [true, true, true], "a": 8.688444579319048, "b": 8.688444579319048, "c": 8.688444579319048, "alpha": 59.99999999999999, "beta": 59.99999999999999, "gamma": 59.99999999999999, "volume": 463.7790299907852}, "properties": {}, "sites": [{"species": [{"element": "Hf", "occu": 1}], "abc": [0.125, 0.625, 0.625], "properties": {"magmom": -0.0}, "label": "Hf", "xyz": [7.6795726, 4.60774356, 4.60774356]}, {"species": [{"element": "Hf", "occu": 1}], "abc": [0.625, 0.125, 0.625], "properties": {"magmom": -0.0}, "label": "Hf", "xyz": [4.60774356, 7.6795726, 4.60774356]}, {"species": [{"element": "Hf", "occu": 1}], "abc": [0.625, 0.625, 0.125], "properties": {"magmom": -0.0}, "label": "Hf", "xyz": [4.60774356, 4.60774356, 7.6795726]}, {"species": [{"element": "Hf", "occu": 1}], "abc": [0.625, 0.625, 0.625], "properties": {"magmom": -0.0}, "label": "Hf", "xyz": [7.6795726, 7.6795726, 7.6795726]}, {"species": [{"element": "Hf", "occu": 1}], "abc": [0.81039295, 0.81039295, 0.18960705], "properties": {"magmom": -0.0}, "label": "Hf", "xyz": [6.14365808, 6.14365808, 9.957554390485072]}, {"species": [{"element": "Hf", "occu": 1}], "abc": [0.18960705, 0.18960705, 0.81039295], "properties": {"magmom": -0.0}, "label": "Hf", "xyz": [6.14365808, 6.14365808, 2.3297617695149277]}, {"species": [{"element": "Hf", "occu": 1}], "abc": [0.81039295, 0.18960705, 0.81039295], "properties": {"magmom": -0.0}, "label": "Hf", "xyz": [6.14365808, 9.957554390485072, 6.14365808]}, {"species": [{"element": "Hf", "occu": 1}], "abc": [0.18960705, 0.81039295, 0.18960705], "properties": {"magmom": -0.0}, "label": "Hf", "xyz": [6.14365808, 2.3297617695149277, 6.14365808]}, {"species": [{"element": "Hf", "occu": 1}], "abc": [0.18960705, 0.81039295, 0.81039295], "properties": {"magmom": -0.0}, "label": "Hf", "xyz": [9.957554390485072, 6.14365808, 6.14365808]}, {"species": [{"element": "Hf", "occu": 1}], "abc": [0.81039295, 0.18960705, 0.18960705], "properties": {"magmom": -0.0}, "label": "Hf", "xyz": [2.3297617695149277, 6.14365808, 6.14365808]}, {"species": [{"element": "Hf", "occu": 1}], "abc": [0.43960705, 0.43960705, 0.06039295], "properties": {"magmom": -0.0}, "label": "Hf", "xyz": [3.07182904, 3.07182904, 5.401590809514928]}, {"species": [{"element": "Hf", "occu": 1}], "abc": [0.06039295, 0.06039295, 0.43960705], "properties": {"magmom": -0.0}, "label": "Hf", "xyz": [3.07182904, 3.07182904, 0.742067270485072]}, {"species": [{"element": "Hf", "occu": 1}], "abc": [0.43960705, 0.06039295, 0.43960705], "properties": {"magmom": -0.0}, "label": "Hf", "xyz": [3.07182904, 5.401590809514928, 3.07182904]}, {"species": [{"element": "Hf", "occu": 1}], "abc": [0.06039295, 0.43960705, 0.06039295], "properties": {"magmom": -0.0}, "label": "Hf", "xyz": [3.07182904, 0.742067270485072, 3.07182904]}, {"species": [{"element": "Hf", "occu": 1}], "abc": [0.06039295, 0.43960705, 0.43960705], "properties": {"magmom": -0.0}, "label": "Hf", "xyz": [5.401590809514928, 3.07182904, 3.07182904]}, {"species": [{"element": "Hf", "occu": 1}], "abc": [0.43960705, 0.06039295, 0.06039295], "properties": {"magmom": -0.0}, "label": "Hf", "xyz": [0.742067270485072, 3.07182904, 3.07182904]}, {"species": [{"element": "Os", "occu": 1}], "abc": [0.7685989, 0.410466699999999, 0.410466699999999], "properties": {"magmom": 0.0}, "label": "Os", "xyz": [5.04353411605186, 7.243775900290041, 7.243775900290041]}, {"species": [{"element": "Os", "occu": 1}], "abc": [0.410466699999999, 0.7685989, 0.410466699999999], "properties": {"magmom": 0.0}, "label": "Os", "xyz": [7.243775900290041, 5.04353411605186, 7.243775900290041]}, {"species": [{"element": "Os", "occu": 1}], "abc": [0.410466699999999, 0.410466699999999, 0.7685989], "properties": {"magmom": 0.0}, "label": "Os", "xyz": [7.243775900290041, 7.243775900290041, 5.04353411605186]}, {"species": [{"element": "Os", "occu": 1}], "abc": [0.410466699999999, 0.410466699999999, 0.410466699999999], "properties": {"magmom": 0.0}, "label": "Os", "xyz": [5.04353411605186, 5.04353411605186, 5.04353411605186]}, {"species": [{"element": "Os", "occu": 1}], "abc": [0.481401099999999, 0.839533299999999, 0.839533299999999], "properties": {"magmom": 0.0}, "label": "Os", "xyz": [10.315611083948117, 8.11536929970994, 8.11536929970994]}, {"species": [{"element": "Os", "occu": 1}], "abc": [0.839533299999999, 0.481401099999999, 0.839533299999999], "properties": {"magmom": 0.0}, "label": "Os", "xyz": [8.11536929970994, 10.315611083948117, 8.11536929970994]}, {"species": [{"element": "Os", "occu": 1}], "abc": [0.839533299999999, 0.839533299999999, 0.481401099999999], "properties": {"magmom": 0.0}, "label": "Os", "xyz": [8.11536929970994, 8.11536929970994, 10.315611083948117]}, {"species": [{"element": "Os", "occu": 1}], "abc": [0.839533299999999, 0.839533299999999, 0.839533299999999], "properties": {"magmom": 0.0}, "label": "Os", "xyz": [10.315611083948117, 10.315611083948117, 10.315611083948117]}]}, "task_ids": null, "uncorrected_energy_per_atom": null, "energy_per_atom": -48.266555213749996, "formation_energy_per_atom": -0.503868670416665, "energy_above_hull": 0.060073846250006, "is_stable": false, "equilibrium_reaction_energy_per_atom": null, "decomposes_to": null, "xas": null, "grain_boundaries": null, "band_gap": 0.0, "cbm": null, "vbm": null, "efermi": 5.7559916300000005, "is_gap_direct": null, "is_metal": null, "es_source_calc_id": null, "bandstructure": null, "dos": null, "dos_energy_up": null, "dos_energy_down": null, "is_magnetic": null, "ordering": null, "total_magnetization": 1.25e-05, "total_magnetization_normalized_vol": null, "total_magnetization_normalized_formula_units": null, "num_magnetic_sites": null, "num_unique_magnetic_sites": null, "types_of_magnetic_species": null, "bulk_modulus": null, "shear_modulus": null, "universal_anisotropy": null, "homogeneous_poisson": null, "e_total": null, "e_ionic": null, "e_electronic": null, "n": null, "e_ij_max": null, "weighted_surface_energy_EV_PER_ANG2": null, "weighted_surface_energy": null, "weighted_work_function": null, "surface_anisotropy": null, "shape_factor": null, "has_reconstructed": null, "possible_species": null, "has_props": null, "theoretical": null, "database_IDs": null, "fields_not_requested": ["builder_meta", "nsites", "elements", "nelements", "composition", "composition_reduced", "chemsys", "symmetry", "property_name", "deprecated", "deprecation_reasons", "last_updated", "origins", "warnings", "task_ids", "uncorrected_energy_per_atom", "equilibrium_reaction_energy_per_atom", "decomposes_to", "xas", "grain_boundaries", "cbm", "vbm", "is_gap_direct", "is_metal", "es_source_calc_id", "bandstructure", "dos", "dos_energy_up", "dos_energy_down", "is_magnetic", "ordering", "total_magnetization_normalized_vol", "total_magnetization_normalized_formula_units", "num_magnetic_sites", "num_unique_magnetic_sites", "types_of_magnetic_species", "bulk_modulus", "shear_modulus", "universal_anisotropy", "homogeneous_poisson", "e_total", "e_ionic", "e_electronic", "n", "e_ij_max", "weighted_surface_energy_EV_PER_ANG2", "weighted_surface_energy", "weighted_work_function", "surface_anisotropy", "shape_factor", "has_reconstructed", "possible_species", "has_props", "theoretical", "database_IDs"]}