{"builder_meta": null, "nsites": null, "elements": null, "nelements": null, "composition": null, "composition_reduced": null, "formula_pretty": "Hf2Pd", "formula_anonymous": "AB2", "chemsys": null, "volume": 57.448783781912525, "density": 13.394431575498581, "density_atomic": 19.149594593970843, "symmetry": null, "property_name": null, "material_id": "mp-11454", "deprecated": null, "deprecation_reasons": null, "last_updated": null, "origins": null, "warnings": null, "structure": {"@module": "pymatgen.core.structure", "@class": "Structure", "charge": 0, "lattice": {"matrix": [[3.14335433, -0.00088258, -0.8864585700000001], [-0.25083061, 3.13333007, -0.8864585700000001], [-0.04427784, -0.0479503, 5.86012762]], "pbc": [true, true, true], "a": 3.265958667712078, "b": 3.2659580705829065, "c": 5.860491061427534, "alpha": 106.1812209726057, "beta": 106.18122024215285, "gamma": 90.02903926439397, "volume": 57.448783781912525}, "properties": {}, "sites": [{"species": [{"element": "Hf", "occu": 1}], "abc": [0.65859961, 0.65859961, 0.31666184], "properties": {"magmom": -0.0}, "label": "Hf", "xyz": [1.8909938916221238, 2.047844665032927, 0.6880362578177055]}, {"species": [{"element": "Hf", "occu": 1}], "abc": [0.34139939, 0.34139939, 0.68333816], "properties": {"magmom": -0.0}, "label": "Hf", "xyz": [0.9572490958541565, 1.036649392519583, 3.3991759950994345]}, {"species": [{"element": "Pd", "occu": 1}], "abc": [0.0, -0.0, -0.0], "properties": {"magmom": 0.0}, "label": "Pd", "xyz": [0.0, 0.0, 0.0]}]}, "task_ids": null, "uncorrected_energy_per_atom": null, "energy_per_atom": -38.28627463666667, "formation_energy_per_atom": -0.531846506666667, "energy_above_hull": 0.0, "is_stable": true, "equilibrium_reaction_energy_per_atom": null, "decomposes_to": null, "xas": null, "grain_boundaries": null, "band_gap": 0.0, "cbm": null, "vbm": null, "efermi": 5.24075819, "is_gap_direct": null, "is_metal": null, "es_source_calc_id": null, "bandstructure": null, "dos": null, "dos_energy_up": null, "dos_energy_down": null, "is_magnetic": null, "ordering": null, "total_magnetization": 1e-07, "total_magnetization_normalized_vol": null, "total_magnetization_normalized_formula_units": null, "num_magnetic_sites": null, "num_unique_magnetic_sites": null, "types_of_magnetic_species": null, "bulk_modulus": null, "shear_modulus": null, "universal_anisotropy": null, "homogeneous_poisson": null, "e_total": null, "e_ionic": null, "e_electronic": null, "n": null, "e_ij_max": null, "weighted_surface_energy_EV_PER_ANG2": null, "weighted_surface_energy": null, "weighted_work_function": null, "surface_anisotropy": null, "shape_factor": null, "has_reconstructed": null, "possible_species": null, "has_props": null, "theoretical": null, "database_IDs": null, "fields_not_requested": ["builder_meta", "nsites", "elements", "nelements", "composition", "composition_reduced", "chemsys", "symmetry", "property_name", "deprecated", "deprecation_reasons", "last_updated", "origins", "warnings", "task_ids", "uncorrected_energy_per_atom", "equilibrium_reaction_energy_per_atom", "decomposes_to", "xas", "grain_boundaries", "cbm", "vbm", "is_gap_direct", "is_metal", "es_source_calc_id", "bandstructure", "dos", "dos_energy_up", "dos_energy_down", "is_magnetic", "ordering", "total_magnetization_normalized_vol", "total_magnetization_normalized_formula_units", "num_magnetic_sites", "num_unique_magnetic_sites", "types_of_magnetic_species", "bulk_modulus", "shear_modulus", "universal_anisotropy", "homogeneous_poisson", "e_total", "e_ionic", "e_electronic", "n", "e_ij_max", "weighted_surface_energy_EV_PER_ANG2", "weighted_surface_energy", "weighted_work_function", "surface_anisotropy", "shape_factor", "has_reconstructed", "possible_species", "has_props", "theoretical", "database_IDs"]}