{"builder_meta": null, "nsites": null, "elements": null, "nelements": null, "composition": null, "composition_reduced": null, "formula_pretty": "Hf2P", "formula_anonymous": "AB2", "chemsys": null, "volume": 657.4552169256518, "density": 11.75828913515104, "density_atomic": 18.262644914601438, "symmetry": null, "property_name": null, "material_id": "mp-504659", "deprecated": null, "deprecation_reasons": null, "last_updated": null, "origins": null, "warnings": null, "structure": {"@module": "pymatgen.core.structure", "@class": "Structure", "charge": 0, "lattice": {"matrix": [[3.58496007, 0.0, 0.0], [0.0, 12.21962583, -0.0], [0.0, 0.0, 15.00803885]], "pbc": [true, true, true], "a": 3.58496007, "b": 12.21962583, "c": 15.00803885, "alpha": 90.0, "beta": 90.0, "gamma": 90.0, "volume": 657.4552169256518}, "properties": {}, "sites": [{"species": [{"element": "Hf", "occu": 1}], "abc": [-0.0, 0.88401235, 0.91535396], "properties": {"magmom": -0.0}, "label": "Hf", "xyz": [0.0, 10.802300146099, 13.737667793181346]}, {"species": [{"element": "Hf", "occu": 1}], "abc": [0.0, 0.11598765, 0.08464604], "properties": {"magmom": -0.0}, "label": "Hf", "xyz": [0.0, 1.4173256839009996, 1.2703710568186541]}, {"species": [{"element": "Hf", "occu": 1}], "abc": [0.5, 0.38401235, 0.58464604], "properties": {"magmom": -0.0}, "label": "Hf", "xyz": [1.792480035, 4.692487231099, 8.774390481818653]}, {"species": [{"element": "Hf", "occu": 1}], "abc": [0.5, 0.61598765, 0.41535396], "properties": {"magmom": -0.0}, "label": "Hf", "xyz": [1.792480035, 7.527138598901, 6.233648368181346]}, {"species": [{"element": "Hf", "occu": 1}], "abc": [-0.0, 0.81301616, 0.70935264], "properties": {"magmom": -0.0}, "label": "Hf", "xyz": [0.0, 9.934753268943412, 10.645991979470065]}, {"species": [{"element": "Hf", "occu": 1}], "abc": [0.0, 0.18698384, 0.29064736], "properties": {"magmom": -0.0}, "label": "Hf", "xyz": [0.0, 2.2848725610565874, 4.3620468705299364]}, {"species": [{"element": "Hf", "occu": 1}], "abc": [0.5, 0.31301616, 0.79064736], "properties": {"magmom": -0.0}, "label": "Hf", "xyz": [1.792480035, 3.8249403539434126, 11.866066295529937]}, {"species": [{"element": "Hf", "occu": 1}], "abc": [0.5, 0.68698384, 0.20935264], "properties": {"magmom": -0.0}, "label": "Hf", "xyz": [1.792480035, 8.394685476056587, 3.141972554470064]}, {"species": [{"element": "Hf", "occu": 1}], "abc": [0.0, 0.47431716, 0.89380803], "properties": {"magmom": 0.0}, "label": "Hf", "xyz": [0.0, 5.795978219948243, 13.414305638681965]}, {"species": [{"element": "Hf", "occu": 1}], "abc": [-0.0, 0.52568284, 0.10619197], "properties": {"magmom": 0.0}, "label": "Hf", "xyz": [0.0, 6.423647610051757, 1.5937332113180345]}, {"species": [{"element": "Hf", "occu": 1}], "abc": [0.5, 0.97431716, 0.60619197], "properties": {"magmom": 0.0}, "label": "Hf", "xyz": [1.792480035, 11.905791134948243, 9.097752636318035]}, {"species": [{"element": "Hf", "occu": 1}], "abc": [0.5, 0.025682840000000002, 0.39380803000000003], "properties": {"magmom": 0.0}, "label": "Hf", "xyz": [1.792480035, 0.3138346950517572, 5.910286213681966]}, {"species": [{"element": "Hf", "occu": 1}], "abc": [-0.0, 0.09777842, 0.75382137], "properties": {"magmom": 0.0}, "label": "Hf", "xyz": [0.0, 1.1948157066485887, 11.313380406920226]}, {"species": [{"element": "Hf", "occu": 1}], "abc": [-0.0, 0.90222158, 0.24617863], "properties": {"magmom": 0.0}, "label": "Hf", "xyz": [0.0, 11.024810123351411, 3.6946584430797755]}, {"species": [{"element": "Hf", "occu": 1}], "abc": [0.5, 0.59777842, 0.7461786300000001], "properties": {"magmom": 0.0}, "label": "Hf", "xyz": [1.792480035, 7.304628621648589, 11.198677868079777]}, {"species": [{"element": "Hf", "occu": 1}], "abc": [0.5, 0.40222158, 0.25382137], "properties": {"magmom": 0.0}, "label": "Hf", "xyz": [1.792480035, 4.914997208351411, 3.8093609819202245]}, {"species": [{"element": "Hf", "occu": 1}], "abc": [0.0, 0.15989805, 0.52201561], "properties": {"magmom": 0.0}, "label": "Hf", "xyz": [0.0, 1.9538943419466317, 7.834430555186448]}, {"species": [{"element": "Hf", "occu": 1}], "abc": [0.0, 0.84010195, 0.47798339], "properties": {"magmom": 0.0}, "label": "Hf", "xyz": [0.0, 10.265731488053369, 7.173593286774702]}, {"species": [{"element": "Hf", "occu": 1}], "abc": [0.5, 0.65989805, 0.97798439], "properties": {"magmom": 0.0}, "label": "Hf", "xyz": [1.792480035, 8.063707256946632, 14.677627719813552]}, {"species": [{"element": "Hf", "occu": 1}], "abc": [0.5, 0.34010195, 0.02201561], "properties": {"magmom": 0.0}, "label": "Hf", "xyz": [1.792480035, 4.155918573053368, 0.3304111301864485]}, {"species": [{"element": "Hf", "occu": 1}], "abc": [-0.0, 0.58836445, 0.57619941], "properties": {"magmom": 0.0}, "label": "Hf", "xyz": [0.0, 7.189593430673744, 8.647623130627078]}, {"species": [{"element": "Hf", "occu": 1}], "abc": [-0.0, 0.41163555, 0.42380059000000003], "properties": {"magmom": 0.0}, "label": "Hf", "xyz": [0.0, 5.030032399326257, 6.360415719372922]}, {"species": [{"element": "Hf", "occu": 1}], "abc": [0.5, 0.08836445, 0.92380059], "properties": {"magmom": 0.0}, "label": "Hf", "xyz": [1.792480035, 1.0797805156737434, 13.864435144372923]}, {"species": [{"element": "Hf", "occu": 1}], "abc": [0.5, 0.9116355500000001, 0.07619941], "properties": {"magmom": 0.0}, "label": "Hf", "xyz": [1.792480035, 11.139845314326257, 1.1436037056270785]}, {"species": [{"element": "P", "occu": 1}], "abc": [0.0, 0.687935499999999, 0.85035362], "properties": {"magmom": -0.0}, "label": "P", "xyz": [0.0, 8.406314405173953, 12.762140165198138]}, {"species": [{"element": "P", "occu": 1}], "abc": [-0.0, 0.312064499999999, 0.14964538], "properties": {"magmom": -0.0}, "label": "P", "xyz": [0.0, 3.813311424826023, 2.245883676763013]}, {"species": [{"element": "P", "occu": 1}], "abc": [0.5, 0.1879355, 0.64964638], "properties": {"magmom": -0.0}, "label": "P", "xyz": [1.792480035, 2.296501490173965, 9.749918109801863]}, {"species": [{"element": "P", "occu": 1}], "abc": [0.5, 0.8120645, 0.35035362000000003], "properties": {"magmom": -0.0}, "label": "P", "xyz": [1.792480035, 9.923124339826035, 5.258120740198137]}, {"species": [{"element": "P", "occu": 1}], "abc": [0.0, 0.44365608, 0.71193739], "properties": {"magmom": -0.0}, "label": "P", "xyz": [0.0, 5.421311294804546, 10.684784007887602]}, {"species": [{"element": "P", "occu": 1}], "abc": [0.0, 0.55634392, 0.28806261], "properties": {"magmom": -0.0}, "label": "P", "xyz": [0.0, 6.798314535195454, 4.323254842112399]}, {"species": [{"element": "P", "occu": 1}], "abc": [0.5, 0.94365608, 0.78806261], "properties": {"magmom": -0.0}, "label": "P", "xyz": [1.792480035, 11.531124209804547, 11.827274267112399]}, {"species": [{"element": "P", "occu": 1}], "abc": [0.5, 0.05634392, 0.21193839], "properties": {"magmom": -0.0}, "label": "P", "xyz": [1.792480035, 0.6885016201954536, 3.1807795909264516]}, {"species": [{"element": "P", "occu": 1}], "abc": [0.0, 0.24505615, 0.90867094], "properties": {"magmom": -0.0}, "label": "P", "xyz": [0.0, 2.9944944603403547, 13.63736876938602]}, {"species": [{"element": "P", "occu": 1}], "abc": [0.0, 0.75494385, 0.09132906], "properties": {"magmom": -0.0}, "label": "P", "xyz": [0.0, 9.225131369659644, 1.370670080613981]}, {"species": [{"element": "P", "occu": 1}], "abc": [0.5, 0.74505615, 0.59132906], "properties": {"magmom": -0.0}, "label": "P", "xyz": [1.792480035, 9.104307375340355, 8.874689505613981]}, {"species": [{"element": "P", "occu": 1}], "abc": [0.5, 0.25494385, 0.40867094], "properties": {"magmom": -0.0}, "label": "P", "xyz": [1.792480035, 3.1153184546596457, 6.133349344386019]}]}, "task_ids": null, "uncorrected_energy_per_atom": null, "energy_per_atom": -34.193794455277775, "formation_energy_per_atom": -1.092158757936513, "energy_above_hull": 0.0, "is_stable": true, "equilibrium_reaction_energy_per_atom": null, "decomposes_to": null, "xas": null, "grain_boundaries": null, "band_gap": 0.0, "cbm": null, "vbm": null, "efermi": 6.42339186, "is_gap_direct": null, "is_metal": null, "es_source_calc_id": null, "bandstructure": null, "dos": null, "dos_energy_up": null, "dos_energy_down": null, "is_magnetic": null, "ordering": null, "total_magnetization": 5.2e-06, "total_magnetization_normalized_vol": null, "total_magnetization_normalized_formula_units": null, "num_magnetic_sites": null, "num_unique_magnetic_sites": null, "types_of_magnetic_species": null, "bulk_modulus": null, "shear_modulus": null, "universal_anisotropy": null, "homogeneous_poisson": null, "e_total": null, "e_ionic": null, "e_electronic": null, "n": null, "e_ij_max": null, "weighted_surface_energy_EV_PER_ANG2": null, "weighted_surface_energy": null, "weighted_work_function": null, "surface_anisotropy": null, "shape_factor": null, "has_reconstructed": null, "possible_species": null, "has_props": null, "theoretical": null, "database_IDs": null, "fields_not_requested": ["builder_meta", "nsites", "elements", "nelements", "composition", "composition_reduced", "chemsys", "symmetry", "property_name", "deprecated", "deprecation_reasons", "last_updated", "origins", "warnings", "task_ids", "uncorrected_energy_per_atom", "equilibrium_reaction_energy_per_atom", "decomposes_to", "xas", "grain_boundaries", "cbm", "vbm", "is_gap_direct", "is_metal", "es_source_calc_id", "bandstructure", "dos", "dos_energy_up", "dos_energy_down", "is_magnetic", "ordering", "total_magnetization_normalized_vol", "total_magnetization_normalized_formula_units", "num_magnetic_sites", "num_unique_magnetic_sites", "types_of_magnetic_species", "bulk_modulus", "shear_modulus", "universal_anisotropy", "homogeneous_poisson", "e_total", "e_ionic", "e_electronic", "n", "e_ij_max", "weighted_surface_energy_EV_PER_ANG2", "weighted_surface_energy", "weighted_work_function", "surface_anisotropy", "shape_factor", "has_reconstructed", "possible_species", "has_props", "theoretical", "database_IDs"]}