{
  "builder_meta": null,
  "nsites": null,
  "elements": null,
  "nelements": null,
  "composition": null,
  "composition_reduced": null,
  "formula_pretty": "Hf2Rh",
  "formula_anonymous": "AB2",
  "chemsys": null,
  "volume": 462.97530739936764,
  "density": 13.195655607682498,
  "density_atomic": 19.290637808306986,
  "symmetry": null,
  "property_name": null,
  "material_id": "mp-1190626",
  "deprecated": null,
  "deprecation_reasons": null,
  "last_updated": null,
  "origins": null,
  "warnings": null,
  "structure": {
    "@module": "pymatgen.core.structure",
    "@class": "Structure",
    "charge": 0,
    "lattice": {
      "matrix": [
        [-6.14010707, -6.14010707, -0.0],
        [-6.14010707, -0.0, -6.14010707],
        [-0.0, -6.14010707, -6.14010707]
      ],
      "pbc": [true, true, true],
      "a": 8.683422692816926,
      "b": 8.683422692816926,
      "c": 8.683422692816926,
      "alpha": 59.99999999999999,
      "beta": 59.99999999999999,
      "gamma": 59.99999999999999,
      "volume": 462.97530739936764
    },
    "properties": {},
    "sites": [
      {
        "species": [{ "element": "Hf", "occu": 1 }],
        "abc": [-0.0, -0.0, 0.5],
        "properties": { "magmom": 0.0 },
        "label": "Hf",
        "xyz": [0.0, -3.070053535, -3.070053535]
      },
      {
        "species": [{ "element": "Hf", "occu": 1 }],
        "abc": [-0.0, 0.5, -0.0],
        "properties": { "magmom": 0.0 },
        "label": "Hf",
        "xyz": [-3.070053535, 0.0, -3.070053535]
      },
      {
        "species": [{ "element": "Hf", "occu": 1 }],
        "abc": [0.5, -0.0, -0.0],
        "properties": { "magmom": 0.0 },
        "label": "Hf",
        "xyz": [-3.070053535, -3.070053535, 0.0]
      },
      {
        "species": [{ "element": "Hf", "occu": 1 }],
        "abc": [-0.0, -0.0, -0.0],
        "properties": { "magmom": 0.0 },
        "label": "Hf",
        "xyz": [0.0, 0.0, 0.0]
      },
      {
        "species": [{ "element": "Hf", "occu": 1 }],
        "abc": [0.43879733, 0.81120267, 0.81120267],
        "properties": { "magmom": 0.0 },
        "label": "Hf",
        "xyz": [-7.675133837500001, -7.675133837500001, -9.961742498539754]
      },
      {
        "species": [{ "element": "Hf", "occu": 1 }],
        "abc": [0.81120267, 0.43879733, 0.43879733],
        "properties": { "magmom": 0.0 },
        "label": "Hf",
        "xyz": [-7.675133837500001, -7.675133837500001, -5.388525176460246]
      },
      {
        "species": [{ "element": "Hf", "occu": 1 }],
        "abc": [0.81120267, 0.43879733, 0.81120267],
        "properties": { "magmom": 0.0 },
        "label": "Hf",
        "xyz": [-7.675133837500001, -9.961742498539754, -7.675133837500001]
      },
      {
        "species": [{ "element": "Hf", "occu": 1 }],
        "abc": [0.43879733, 0.81120267, 0.43879733],
        "properties": { "magmom": 0.0 },
        "label": "Hf",
        "xyz": [-7.675133837500001, -5.388525176460246, -7.675133837500001]
      },
      {
        "species": [{ "element": "Hf", "occu": 1 }],
        "abc": [0.81120267, 0.81120267, 0.43879733],
        "properties": { "magmom": 0.0 },
        "label": "Hf",
        "xyz": [-9.961742498539754, -7.675133837500001, -7.675133837500001]
      },
      {
        "species": [{ "element": "Hf", "occu": 1 }],
        "abc": [0.43879733, 0.43879733, 0.81120267],
        "properties": { "magmom": 0.0 },
        "label": "Hf",
        "xyz": [-5.388525176460246, -7.675133837500001, -7.675133837500001]
      },
      {
        "species": [{ "element": "Hf", "occu": 1 }],
        "abc": [0.56120267, 0.18879733, 0.18879733],
        "properties": { "magmom": 0.0 },
        "label": "Hf",
        "xyz": [-4.6050803025, -4.6050803025, -2.3184716414602464]
      },
      {
        "species": [{ "element": "Hf", "occu": 1 }],
        "abc": [0.18879733, 0.56120267, 0.56120267],
        "properties": { "magmom": 0.0 },
        "label": "Hf",
        "xyz": [-4.6050803025, -4.6050803025, -6.891688963539754]
      },
      {
        "species": [{ "element": "Hf", "occu": 1 }],
        "abc": [0.18879733, 0.56120267, 0.18879733],
        "properties": { "magmom": 0.0 },
        "label": "Hf",
        "xyz": [-4.6050803025, -2.3184716414602464, -4.6050803025]
      },
      {
        "species": [{ "element": "Hf", "occu": 1 }],
        "abc": [0.56120267, 0.18879733, 0.56120267],
        "properties": { "magmom": 0.0 },
        "label": "Hf",
        "xyz": [-4.6050803025, -6.891688963539754, -4.6050803025]
      },
      {
        "species": [{ "element": "Hf", "occu": 1 }],
        "abc": [0.18879733, 0.18879733, 0.56120267],
        "properties": { "magmom": 0.0 },
        "label": "Hf",
        "xyz": [-2.3184716414602464, -4.6050803025, -4.6050803025]
      },
      {
        "species": [{ "element": "Hf", "occu": 1 }],
        "abc": [0.56120267, 0.56120267, 0.18879733],
        "properties": { "magmom": 0.0 },
        "label": "Hf",
        "xyz": [-6.891688963539754, -4.6050803025, -4.6050803025]
      },
      {
        "species": [{ "element": "Rh", "occu": 1 }],
        "abc": [0.22179304, 0.22179304, 0.8346208900000001],
        "properties": { "magmom": -0.0 },
        "label": "Rh",
        "xyz": [-2.7236660259615855, -6.486494640439485, -6.486494640439485]
      },
      {
        "species": [{ "element": "Rh", "occu": 1 }],
        "abc": [0.22179304, 0.8346208900000001, 0.22179304],
        "properties": { "magmom": -0.0 },
        "label": "Rh",
        "xyz": [-6.486494640439485, -2.7236660259615855, -6.486494640439485]
      },
      {
        "species": [{ "element": "Rh", "occu": 1 }],
        "abc": [0.8346208900000001, 0.22179304, 0.22179304],
        "properties": { "magmom": -0.0 },
        "label": "Rh",
        "xyz": [-6.486494640439485, -6.486494640439485, -2.7236660259615855]
      },
      {
        "species": [{ "element": "Rh", "occu": 1 }],
        "abc": [0.22179304, 0.22179304, 0.22179304],
        "properties": { "magmom": -0.0 },
        "label": "Rh",
        "xyz": [-2.7236660259615855, -2.7236660259615855, -2.7236660259615855]
      },
      {
        "species": [{ "element": "Rh", "occu": 1 }],
        "abc": [0.77820696, 0.77820696, 0.16537911],
        "properties": { "magmom": -0.0 },
        "label": "Rh",
        "xyz": [-9.556548114038414, -5.793719499560515, -5.793719499560515]
      },
      {
        "species": [{ "element": "Rh", "occu": 1 }],
        "abc": [0.77820696, 0.16537911, 0.77820696],
        "properties": { "magmom": -0.0 },
        "label": "Rh",
        "xyz": [-5.793719499560515, -9.556548114038414, -5.793719499560515]
      },
      {
        "species": [{ "element": "Rh", "occu": 1 }],
        "abc": [0.16537911, 0.77820696, 0.77820696],
        "properties": { "magmom": -0.0 },
        "label": "Rh",
        "xyz": [-5.793719499560515, -5.793719499560515, -9.556548114038414]
      },
      {
        "species": [{ "element": "Rh", "occu": 1 }],
        "abc": [0.77820696, 0.77820696, 0.77820696],
        "properties": { "magmom": -0.0 },
        "label": "Rh",
        "xyz": [-9.556548114038414, -9.556548114038414, -9.556548114038414]
      }
    ]
  },
  "task_ids": null,
  "uncorrected_energy_per_atom": null,
  "energy_per_atom": -38.809960081250004,
  "formation_energy_per_atom": -0.663606944583335,
  "energy_above_hull": 0.0,
  "is_stable": true,
  "equilibrium_reaction_energy_per_atom": null,
  "decomposes_to": null,
  "xas": null,
  "grain_boundaries": null,
  "band_gap": 0.0,
  "cbm": null,
  "vbm": null,
  "efermi": 5.51589766,
  "is_gap_direct": null,
  "is_metal": null,
  "es_source_calc_id": null,
  "bandstructure": null,
  "dos": null,
  "dos_energy_up": null,
  "dos_energy_down": null,
  "is_magnetic": null,
  "ordering": null,
  "total_magnetization": 7e-7,
  "total_magnetization_normalized_vol": null,
  "total_magnetization_normalized_formula_units": null,
  "num_magnetic_sites": null,
  "num_unique_magnetic_sites": null,
  "types_of_magnetic_species": null,
  "bulk_modulus": null,
  "shear_modulus": null,
  "universal_anisotropy": null,
  "homogeneous_poisson": null,
  "e_total": null,
  "e_ionic": null,
  "e_electronic": null,
  "n": null,
  "e_ij_max": null,
  "weighted_surface_energy_EV_PER_ANG2": null,
  "weighted_surface_energy": null,
  "weighted_work_function": null,
  "surface_anisotropy": null,
  "shape_factor": null,
  "has_reconstructed": null,
  "possible_species": null,
  "has_props": null,
  "theoretical": null,
  "database_IDs": null,
  "fields_not_requested": [
    "builder_meta",
    "nsites",
    "elements",
    "nelements",
    "composition",
    "composition_reduced",
    "chemsys",
    "symmetry",
    "property_name",
    "deprecated",
    "deprecation_reasons",
    "last_updated",
    "origins",
    "warnings",
    "task_ids",
    "uncorrected_energy_per_atom",
    "equilibrium_reaction_energy_per_atom",
    "decomposes_to",
    "xas",
    "grain_boundaries",
    "cbm",
    "vbm",
    "is_gap_direct",
    "is_metal",
    "es_source_calc_id",
    "bandstructure",
    "dos",
    "dos_energy_up",
    "dos_energy_down",
    "is_magnetic",
    "ordering",
    "total_magnetization_normalized_vol",
    "total_magnetization_normalized_formula_units",
    "num_magnetic_sites",
    "num_unique_magnetic_sites",
    "types_of_magnetic_species",
    "bulk_modulus",
    "shear_modulus",
    "universal_anisotropy",
    "homogeneous_poisson",
    "e_total",
    "e_ionic",
    "e_electronic",
    "n",
    "e_ij_max",
    "weighted_surface_energy_EV_PER_ANG2",
    "weighted_surface_energy",
    "weighted_work_function",
    "surface_anisotropy",
    "shape_factor",
    "has_reconstructed",
    "possible_species",
    "has_props",
    "theoretical",
    "database_IDs"
  ]
}
