{
  "builder_meta": null,
  "nsites": null,
  "elements": null,
  "nelements": null,
  "composition": null,
  "composition_reduced": null,
  "formula_pretty": "Hf2Se3",
  "formula_anonymous": "A2B3",
  "chemsys": null,
  "volume": 449.1676199935654,
  "density": 8.781823855470284,
  "density_atomic": 22.45838099967827,
  "symmetry": null,
  "property_name": null,
  "material_id": "mp-1224485",
  "deprecated": null,
  "deprecation_reasons": null,
  "last_updated": null,
  "origins": null,
  "warnings": null,
  "structure": {
    "@module": "pymatgen.core.structure",
    "@class": "Structure",
    "charge": 0,
    "lattice": {
      "matrix": [
        [5.57140828, -3.2169213, -0.00060191],
        [-1.8535428600000001, 3.2207717, -12.52019827],
        [0.00238024, 6.4379683, -0.00140143]
      ],
      "pbc": [true, true, true],
      "a": 6.433441787654715,
      "b": 13.060028950867178,
      "c": 6.437968892543159,
      "alpha": 75.71359407369029,
      "beta": 119.98087546006208,
      "gamma": 104.24876665012374,
      "volume": 449.1676199935654
    },
    "properties": {},
    "sites": [
      {
        "species": [{ "element": "Hf", "occu": 1 }],
        "abc": [0.74454949, 0.23190724000000001, 0.92546972],
        "properties": { "magmom": -0.0 },
        "label": "Hf",
        "xyz": [3.7205420246178034, 4.309907882301847, -2.9052697578617]
      },
      {
        "species": [{ "element": "Hf", "occu": 1 }],
        "abc": [0.91268034, 0.73174459, 0.42515007],
        "properties": { "magmom": 0.0 },
        "label": "Hf",
        "xyz": [3.729606802333705, 2.1578641146656414, -9.162732519285909]
      },
      {
        "species": [{ "element": "Hf", "occu": 1 }],
        "abc": [0.83329818, 0.49926851, 0.83626245],
        "properties": { "magmom": -0.0 },
        "label": "Hf",
        "xyz": [3.7192193031615797, 4.311206366796268, -6.252614268960305]
      },
      {
        "species": [{ "element": "Hf", "occu": 1 }],
        "abc": [0.16977233, 0.49820545, 0.49995439],
        "properties": { "magmom": -0.0 },
        "label": "Hf",
        "xyz": [0.023615821853558913, 4.277152303883973, -6.238433851938499]
      },
      {
        "species": [{ "element": "Hf", "occu": 1 }],
        "abc": [0.4968293, 0.49822685, 0.16435893000000001],
        "properties": { "magmom": -0.0 },
        "label": "Hf",
        "xyz": [1.844945268988356, 1.064551762187974, -6.238428329496783]
      },
      {
        "species": [{ "element": "Hf", "occu": 1 }],
        "abc": [0.66600973, 0.9982130300000001, 0.66450416],
        "properties": { "magmom": -0.0 },
        "label": "Hf",
        "xyz": [1.8619631691488965, 5.35057210844913, -12.499157185278992]
      },
      {
        "species": [{ "element": "Hf", "occu": 1 }],
        "abc": [0.0021479, 0.99937805, 0.33682189],
        "properties": { "magmom": 0.0 },
        "label": "Hf",
        "xyz": [-1.8396215042381578, 5.3803075663470015, -12.512884657829765]
      },
      {
        "species": [{ "element": "Hf", "occu": 1 }],
        "abc": [0.32845516, 0.99808176, 1.5470000000000003e-5],
        "properties": { "magmom": -0.0 },
        "label": "Hf",
        "xyz": [-0.020029485089196174, 2.1580786819648847, -12.496379246996034]
      },
      {
        "species": [{ "element": "Se", "occu": 1 }],
        "abc": [0.62281955, 0.87099044, 0.0425117],
        "properties": { "magmom": -0.0 },
        "label": "Se",
        "xyz": [1.8556650746744237, 1.0753888606502429, -10.90540745856161]
      },
      {
        "species": [{ "element": "Se", "occu": 1 }],
        "abc": [0.28923731, 0.86741964, 0.37620644000000003],
        "properties": { "magmom": 0.0 },
        "label": "Se",
        "xyz": [0.004555125089901872, 4.285312100218337, -10.860967197912496]
      },
      {
        "species": [{ "element": "Se", "occu": 1 }],
        "abc": [0.9542298100000001, 0.86666656, 0.71179727],
        "properties": { "magmom": -0.0 },
        "label": "Se",
        "xyz": [3.7116944985020104, 4.30418118918694, -10.852409059691883]
      },
      {
        "species": [{ "element": "Se", "occu": 1 }],
        "abc": [0.45391116000000004, 0.36725683000000003, 0.87615904],
        "properties": { "magmom": 0.0 },
        "label": "Se",
        "xyz": [1.8502835889690408, 5.363338051062435, -4.599629416841427]
      },
      {
        "species": [{ "element": "Se", "occu": 1 }],
        "abc": [0.12440699000000001, 0.36687005, 0.21193187],
        "properties": { "magmom": 0.0 },
        "label": "Se",
        "xyz": [0.013617221164782905, 2.1458078394374187, -4.593657654816738]
      },
      {
        "species": [{ "element": "Se", "occu": 1 }],
        "abc": [0.7912022200000001, 0.37099379, 0.54217702],
        "properties": { "magmom": 0.0 },
        "label": "Se",
        "xyz": [3.721748220533627, 2.1401694933309225, -4.646151863408122]
      },
      {
        "species": [{ "element": "Se", "occu": 1 }],
        "abc": [0.706288199999999, 0.12751352, 0.3025117],
        "properties": { "magmom": 0.0 },
        "label": "Se",
        "xyz": [3.6993882014456316, 0.08617911704383663, -1.5973436234078033]
      },
      {
        "species": [{ "element": "Se", "occu": 1 }],
        "abc": [0.36554456, 0.12719797, 0.6143152],
        "properties": { "magmom": -0.0 },
        "label": "Se",
        "xyz": [1.8022933168046107, 3.1886893247184807, -1.5936247486183575]
      },
      {
        "species": [{ "element": "Se", "occu": 1 }],
        "abc": [0.05307128, 0.12751012, 0.95554259],
        "properties": { "magmom": 0.0 },
        "label": "Se",
        "xyz": [0.061610717012876764, 6.391707758629236, -1.5978230540175409]
      },
      {
        "species": [{ "element": "Se", "occu": 1 }],
        "abc": [0.87575365, 0.6270240300000001, 0.11386403],
        "properties": { "magmom": 0.0 },
        "label": "Se",
        "xyz": [3.717236246714064, -0.06467630354354548, -7.851151873001463]
      },
      {
        "species": [{ "element": "Se", "occu": 1 }],
        "abc": [0.52974425, 0.62757449, 0.45496312],
        "properties": { "magmom": -0.0 },
        "label": "Se",
        "xyz": [1.7892682070914974, 3.2461667398855036, -7.858313501320912]
      },
      {
        "species": [{ "element": "Se", "occu": 1 }],
        "abc": [0.223179599999999, 0.62736108, 0.80234994],
        "properties": { "magmom": -0.0 },
        "label": "Se",
        "xyz": [0.08249380631237925, 6.468139082406861, -7.8559438797907815]
      }
    ]
  },
  "task_ids": null,
  "uncorrected_energy_per_atom": null,
  "energy_per_atom": -28.104826606,
  "formation_energy_per_atom": -1.457324311437503,
  "energy_above_hull": 0.0,
  "is_stable": true,
  "equilibrium_reaction_energy_per_atom": null,
  "decomposes_to": null,
  "xas": null,
  "grain_boundaries": null,
  "band_gap": 0.0,
  "cbm": null,
  "vbm": null,
  "efermi": 5.07602521,
  "is_gap_direct": null,
  "is_metal": null,
  "es_source_calc_id": null,
  "bandstructure": null,
  "dos": null,
  "dos_energy_up": null,
  "dos_energy_down": null,
  "is_magnetic": null,
  "ordering": null,
  "total_magnetization": 5e-7,
  "total_magnetization_normalized_vol": null,
  "total_magnetization_normalized_formula_units": null,
  "num_magnetic_sites": null,
  "num_unique_magnetic_sites": null,
  "types_of_magnetic_species": null,
  "bulk_modulus": null,
  "shear_modulus": null,
  "universal_anisotropy": null,
  "homogeneous_poisson": null,
  "e_total": null,
  "e_ionic": null,
  "e_electronic": null,
  "n": null,
  "e_ij_max": null,
  "weighted_surface_energy_EV_PER_ANG2": null,
  "weighted_surface_energy": null,
  "weighted_work_function": null,
  "surface_anisotropy": null,
  "shape_factor": null,
  "has_reconstructed": null,
  "possible_species": null,
  "has_props": null,
  "theoretical": null,
  "database_IDs": null,
  "fields_not_requested": [
    "builder_meta",
    "nsites",
    "elements",
    "nelements",
    "composition",
    "composition_reduced",
    "chemsys",
    "symmetry",
    "property_name",
    "deprecated",
    "deprecation_reasons",
    "last_updated",
    "origins",
    "warnings",
    "task_ids",
    "uncorrected_energy_per_atom",
    "equilibrium_reaction_energy_per_atom",
    "decomposes_to",
    "xas",
    "grain_boundaries",
    "cbm",
    "vbm",
    "is_gap_direct",
    "is_metal",
    "es_source_calc_id",
    "bandstructure",
    "dos",
    "dos_energy_up",
    "dos_energy_down",
    "is_magnetic",
    "ordering",
    "total_magnetization_normalized_vol",
    "total_magnetization_normalized_formula_units",
    "num_magnetic_sites",
    "num_unique_magnetic_sites",
    "types_of_magnetic_species",
    "bulk_modulus",
    "shear_modulus",
    "universal_anisotropy",
    "homogeneous_poisson",
    "e_total",
    "e_ionic",
    "e_electronic",
    "n",
    "e_ij_max",
    "weighted_surface_energy_EV_PER_ANG2",
    "weighted_surface_energy",
    "weighted_work_function",
    "surface_anisotropy",
    "shape_factor",
    "has_reconstructed",
    "possible_species",
    "has_props",
    "theoretical",
    "database_IDs"
  ]
}
