{"builder_meta": null, "nsites": null, "elements": null, "nelements": null, "composition": null, "composition_reduced": null, "formula_pretty": "Hf2Sb3", "formula_anonymous": "A2B3", "chemsys": null, "volume": 2704.9252503301686, "density": 0.44339153035601303, "density_atomic": 540.9850500660338, "symmetry": null, "property_name": null, "material_id": "mp-1206519", "deprecated": null, "deprecation_reasons": null, "last_updated": null, "origins": null, "warnings": null, "structure": {"@module": "pymatgen.core.structure", "@class": "Structure", "charge": 0, "lattice": {"matrix": [[8.826732, 0.0, 0.0], [0.0, 8.826732, 0.0], [0.0, 0.0, 34.718055]], "pbc": [true, true, true], "a": 8.826732, "b": 8.826732, "c": 34.718055, "alpha": 90.0, "beta": 90.0, "gamma": 90.0, "volume": 2704.9252503301686}, "properties": {}, "sites": [{"species": [{"element": "Hf", "occu": 1}], "abc": [0.5, 0.5, 0.284765], "properties": {"magmom": 0.47700000000000004}, "label": "Hf", "xyz": [4.413366, 4.413366, 9.886486932075]}, {"species": [{"element": "Hf", "occu": 1}], "abc": [0.5, 0.5, 0.715235], "properties": {"magmom": 0.47700000000000004}, "label": "Hf", "xyz": [4.413366, 4.413366, 24.831568067924998]}, {"species": [{"element": "Sb", "occu": 1}], "abc": [0.5, 0.5, 0.642741], "properties": {"magmom": 0.125}, "label": "Sb", "xyz": [4.413366, 4.413366, 22.314717388755]}, {"species": [{"element": "Sb", "occu": 1}], "abc": [0.5, 0.5, 0.357259], "properties": {"magmom": 0.125}, "label": "Sb", "xyz": [4.413366, 4.413366, 12.403337611245]}, {"species": [{"element": "Sb", "occu": 1}], "abc": [0.5, 0.5, 0.0], "properties": {"magmom": 1.061}, "label": "Sb", "xyz": [4.413366, 4.413366, 0.0]}]}, "task_ids": null, "uncorrected_energy_per_atom": null, "energy_per_atom": -30.60607944125, "formation_energy_per_atom": 2.878276152749998, "energy_above_hull": 3.402983579750003, "is_stable": false, "equilibrium_reaction_energy_per_atom": null, "decomposes_to": null, "xas": null, "grain_boundaries": null, "band_gap": 0.191699999999999, "cbm": null, "vbm": null, "efermi": -3.64947375, "is_gap_direct": null, "is_metal": null, "es_source_calc_id": null, "bandstructure": null, "dos": null, "dos_energy_up": null, "dos_energy_down": null, "is_magnetic": null, "ordering": null, "total_magnetization": 4.9860698, "total_magnetization_normalized_vol": null, "total_magnetization_normalized_formula_units": null, "num_magnetic_sites": null, "num_unique_magnetic_sites": null, "types_of_magnetic_species": null, "bulk_modulus": null, "shear_modulus": null, "universal_anisotropy": null, "homogeneous_poisson": null, "e_total": null, "e_ionic": null, "e_electronic": null, "n": null, "e_ij_max": null, "weighted_surface_energy_EV_PER_ANG2": null, "weighted_surface_energy": null, "weighted_work_function": null, "surface_anisotropy": null, "shape_factor": null, "has_reconstructed": null, "possible_species": null, "has_props": null, "theoretical": null, "database_IDs": null, "fields_not_requested": ["builder_meta", "nsites", "elements", "nelements", "composition", "composition_reduced", "chemsys", "symmetry", "property_name", "deprecated", "deprecation_reasons", "last_updated", "origins", "warnings", "task_ids", "uncorrected_energy_per_atom", "equilibrium_reaction_energy_per_atom", "decomposes_to", "xas", "grain_boundaries", "cbm", "vbm", "is_gap_direct", "is_metal", "es_source_calc_id", "bandstructure", "dos", "dos_energy_up", "dos_energy_down", "is_magnetic", "ordering", "total_magnetization_normalized_vol", "total_magnetization_normalized_formula_units", "num_magnetic_sites", "num_unique_magnetic_sites", "types_of_magnetic_species", "bulk_modulus", "shear_modulus", "universal_anisotropy", "homogeneous_poisson", "e_total", "e_ionic", "e_electronic", "n", "e_ij_max", "weighted_surface_energy_EV_PER_ANG2", "weighted_surface_energy", "weighted_work_function", "surface_anisotropy", "shape_factor", "has_reconstructed", "possible_species", "has_props", "theoretical", "database_IDs"]}