{
  "builder_meta": null,
  "nsites": null,
  "elements": null,
  "nelements": null,
  "composition": null,
  "composition_reduced": null,
  "formula_pretty": "Hf2Si",
  "formula_anonymous": "AB2",
  "chemsys": null,
  "volume": 110.83341689110051,
  "density": 11.538330656684913,
  "density_atomic": 18.472236148516753,
  "symmetry": null,
  "property_name": null,
  "material_id": "mp-9938",
  "deprecated": null,
  "deprecation_reasons": null,
  "last_updated": null,
  "origins": null,
  "warnings": null,
  "structure": {
    "@module": "pymatgen.core.structure",
    "@class": "Structure",
    "charge": 0,
    "lattice": {
      "matrix": [
        [4.50782736, -0.0, 2.52257789],
        [2.25391317, 4.63204785, 1.26128844],
        [-0.0080878, -0.0, 5.30346791]
      ],
      "pbc": [true, true, true],
      "a": 5.165646786093821,
      "b": 5.303474369832168,
      "c": 5.303474076952635,
      "alpha": 76.28015344141515,
      "beta": 60.85602197537661,
      "gamma": 60.85603019904302,
      "volume": 110.83341689110051
    },
    "properties": {},
    "sites": [
      {
        "species": [{ "element": "Hf", "occu": 1 }],
        "abc": [0.65648438, 0.18702724, 0.5],
        "properties": { "magmom": -0.0 },
        "label": "Hf",
        "xyz": [3.3768175089613877, 0.8663191249334341, 4.543662232895464]
      },
      {
        "species": [{ "element": "Hf", "occu": 1 }],
        "abc": [0.84351562, 0.5, 0.8129727600000001],
        "properties": { "magmom": -0.0 },
        "label": "Hf",
        "xyz": [4.922804214335035, 2.316023925, 7.070053017245774]
      },
      {
        "species": [{ "element": "Hf", "occu": 1 }],
        "abc": [0.34351562, 0.8129727600000001, 0.5],
        "properties": { "magmom": -0.0 },
        "label": "Hf",
        "xyz": [3.376835221038613, 3.7657287250665665, 4.5436720071045364]
      },
      {
        "species": [{ "element": "Hf", "occu": 1 }],
        "abc": [0.15648438, 0.5, 0.18702724],
        "properties": { "magmom": -0.0 },
        "label": "Hf",
        "xyz": [1.830848515664965, 2.316023925, 2.0172812227542267]
      },
      {
        "species": [{ "element": "Si", "occu": 1 }],
        "abc": [0.75, 0.0, -0.0],
        "properties": { "magmom": 0.0 },
        "label": "Si",
        "xyz": [3.38087052, 0.0, 1.8919334175]
      },
      {
        "species": [{ "element": "Si", "occu": 1 }],
        "abc": [0.25, 0.0, -0.0],
        "properties": { "magmom": 0.0 },
        "label": "Si",
        "xyz": [1.12695684, 0.0, 0.6306444725]
      }
    ]
  },
  "task_ids": null,
  "uncorrected_energy_per_atom": null,
  "energy_per_atom": -33.81656762166667,
  "formation_energy_per_atom": -0.7910358300000031,
  "energy_above_hull": 0.0,
  "is_stable": true,
  "equilibrium_reaction_energy_per_atom": null,
  "decomposes_to": null,
  "xas": null,
  "grain_boundaries": null,
  "band_gap": 0.0,
  "cbm": null,
  "vbm": null,
  "efermi": 6.1941545,
  "is_gap_direct": null,
  "is_metal": null,
  "es_source_calc_id": null,
  "bandstructure": null,
  "dos": null,
  "dos_energy_up": null,
  "dos_energy_down": null,
  "is_magnetic": null,
  "ordering": null,
  "total_magnetization": 3e-7,
  "total_magnetization_normalized_vol": null,
  "total_magnetization_normalized_formula_units": null,
  "num_magnetic_sites": null,
  "num_unique_magnetic_sites": null,
  "types_of_magnetic_species": null,
  "bulk_modulus": null,
  "shear_modulus": null,
  "universal_anisotropy": null,
  "homogeneous_poisson": null,
  "e_total": null,
  "e_ionic": null,
  "e_electronic": null,
  "n": null,
  "e_ij_max": null,
  "weighted_surface_energy_EV_PER_ANG2": null,
  "weighted_surface_energy": null,
  "weighted_work_function": null,
  "surface_anisotropy": null,
  "shape_factor": null,
  "has_reconstructed": null,
  "possible_species": null,
  "has_props": null,
  "theoretical": null,
  "database_IDs": null,
  "fields_not_requested": [
    "builder_meta",
    "nsites",
    "elements",
    "nelements",
    "composition",
    "composition_reduced",
    "chemsys",
    "symmetry",
    "property_name",
    "deprecated",
    "deprecation_reasons",
    "last_updated",
    "origins",
    "warnings",
    "task_ids",
    "uncorrected_energy_per_atom",
    "equilibrium_reaction_energy_per_atom",
    "decomposes_to",
    "xas",
    "grain_boundaries",
    "cbm",
    "vbm",
    "is_gap_direct",
    "is_metal",
    "es_source_calc_id",
    "bandstructure",
    "dos",
    "dos_energy_up",
    "dos_energy_down",
    "is_magnetic",
    "ordering",
    "total_magnetization_normalized_vol",
    "total_magnetization_normalized_formula_units",
    "num_magnetic_sites",
    "num_unique_magnetic_sites",
    "types_of_magnetic_species",
    "bulk_modulus",
    "shear_modulus",
    "universal_anisotropy",
    "homogeneous_poisson",
    "e_total",
    "e_ionic",
    "e_electronic",
    "n",
    "e_ij_max",
    "weighted_surface_energy_EV_PER_ANG2",
    "weighted_surface_energy",
    "weighted_work_function",
    "surface_anisotropy",
    "shape_factor",
    "has_reconstructed",
    "possible_species",
    "has_props",
    "theoretical",
    "database_IDs"
  ]
}
