{"builder_meta": null, "nsites": null, "elements": null, "nelements": null, "composition": null, "composition_reduced": null, "formula_pretty": "Hf2Te3", "formula_anonymous": "A2B3", "chemsys": null, "volume": 280.44147537265394, "density": 8.760712651771573, "density_atomic": 28.044147537265395, "symmetry": null, "property_name": null, "material_id": "mp-1224444", "deprecated": null, "deprecation_reasons": null, "last_updated": null, "origins": null, "warnings": null, "structure": {"@module": "pymatgen.core.structure", "@class": "Structure", "charge": 0, "lattice": {"matrix": [[6.06683327, 3.50373029, 0.00066935], [-2.02223236, 3.50250145, -6.5967959700000005], [0.00028235, 7.00697636, 0.00094063]], "pbc": [true, true, true], "a": 7.005896967489017, "b": 7.737871619178721, "c": 7.006976428824716, "alpha": 63.09458079217723, "beta": 59.99030750272201, "gamma": 90.00120667825117, "volume": 280.441475372654}, "properties": {}, "sites": [{"species": [{"element": "Hf", "occu": 1}], "abc": [0.666667, -0.0, 0.666667], "properties": {"magmom": -0.0}, "label": "Hf", "xyz": [4.04474576903854, 7.00714127023555, 0.0010733205366599999]}, {"species": [{"element": "Hf", "occu": 1}], "abc": [0.32720734, 0.9813931300000001, 0.34548029], "properties": {"magmom": -0.0}, "label": "Hf", "xyz": [0.0006049774923965572, 7.004549353989312, -6.473506259611476]}, {"species": [{"element": "Hf", "occu": 1}], "abc": [0.00612566, 0.01860687, 0.98785271], "properties": {"magmom": -0.0}, "label": "Hf", "xyz": [-0.00018513653093650139, 7.0084938357751385, -0.12181242092518563]}, {"species": [{"element": "Hf", "occu": 1}], "abc": [0.166666999999999, 0.5, 0.666667], "properties": {"magmom": -0.0}, "label": "Hf", "xyz": [0.00021295403853416136, 7.006526850235547, -3.2976593394633404]}, {"species": [{"element": "Te", "occu": 1}], "abc": [0.74074739, 0.26125192, 0.17030591], "properties": {"magmom": -0.0}, "label": "Te", "xyz": [3.9657269094552223, 4.703743781535015, -1.722769598897143]}, {"species": [{"element": "Te", "occu": 1}], "abc": [0.089119499999999, 0.26133199, 0.47938669], "properties": {"magmom": 0.0}, "label": "Te", "xyz": [0.012334495556484129, 4.586617569614686, -1.7234432408245408]}, {"species": [{"element": "Te", "occu": 1}], "abc": [0.43153482, 0.2614596, 0.82747324], "properties": {"magmom": 0.0}, "label": "Te", "xyz": [2.0895513762561193, 8.225829679352724, -1.723728441612304]}, {"species": [{"element": "Te", "occu": 1}], "abc": [0.90179818, 0.7385404, 0.50585976], "properties": {"magmom": 0.0}, "label": "Te", "xyz": [3.9777017347053407, 9.290943800411727, -4.870920888924356]}, {"species": [{"element": "Te", "occu": 1}], "abc": [0.2442135, 0.73866801, 0.85394631], "properties": {"magmom": 0.0}, "label": "Te", "xyz": [-0.011914654595030124, 9.426425620149761, -4.871875439712119]}, {"species": [{"element": "Te", "occu": 1}], "abc": [0.59258661, 0.73874808, 0.16302809000000001], "properties": {"magmom": -0.0}, "label": "Te", "xyz": [2.101249918621858, 5.806063848936086, -4.8728203600295386]}]}, "task_ids": null, "uncorrected_energy_per_atom": null, "energy_per_atom": -34.210585375, "formation_energy_per_atom": -0.8996846329999981, "energy_above_hull": 0.018905087999996, "is_stable": false, "equilibrium_reaction_energy_per_atom": null, "decomposes_to": null, "xas": null, "grain_boundaries": null, "band_gap": 0.0, "cbm": null, "vbm": null, "efermi": 6.48436502, "is_gap_direct": null, "is_metal": null, "es_source_calc_id": null, "bandstructure": null, "dos": null, "dos_energy_up": null, "dos_energy_down": null, "is_magnetic": null, "ordering": null, "total_magnetization": 0.0, "total_magnetization_normalized_vol": null, "total_magnetization_normalized_formula_units": null, "num_magnetic_sites": null, "num_unique_magnetic_sites": null, "types_of_magnetic_species": null, "bulk_modulus": null, "shear_modulus": null, "universal_anisotropy": null, "homogeneous_poisson": null, "e_total": null, "e_ionic": null, "e_electronic": null, "n": null, "e_ij_max": null, "weighted_surface_energy_EV_PER_ANG2": null, "weighted_surface_energy": null, "weighted_work_function": null, "surface_anisotropy": null, "shape_factor": null, "has_reconstructed": null, "possible_species": null, "has_props": null, "theoretical": null, "database_IDs": null, "fields_not_requested": ["builder_meta", "nsites", "elements", "nelements", "composition", "composition_reduced", "chemsys", "symmetry", "property_name", "deprecated", "deprecation_reasons", "last_updated", "origins", "warnings", "task_ids", "uncorrected_energy_per_atom", "equilibrium_reaction_energy_per_atom", "decomposes_to", "xas", "grain_boundaries", "cbm", "vbm", "is_gap_direct", "is_metal", "es_source_calc_id", "bandstructure", "dos", "dos_energy_up", "dos_energy_down", "is_magnetic", "ordering", "total_magnetization_normalized_vol", "total_magnetization_normalized_formula_units", "num_magnetic_sites", "num_unique_magnetic_sites", "types_of_magnetic_species", "bulk_modulus", "shear_modulus", "universal_anisotropy", "homogeneous_poisson", "e_total", "e_ionic", "e_electronic", "n", "e_ij_max", "weighted_surface_energy_EV_PER_ANG2", "weighted_surface_energy", "weighted_work_function", "surface_anisotropy", "shape_factor", "has_reconstructed", "possible_species", "has_props", "theoretical", "database_IDs"]}