{"builder_meta": null, "nsites": null, "elements": null, "nelements": null, "composition": null, "composition_reduced": null, "formula_pretty": "Hf2Te", "formula_anonymous": "AB2", "chemsys": null, "volume": 287.70584457727847, "density": 11.18731560111763, "density_atomic": 23.97548704810654, "symmetry": null, "property_name": null, "material_id": "mp-567584", "deprecated": null, "deprecation_reasons": null, "last_updated": null, "origins": null, "warnings": null, "structure": {"@module": "pymatgen.core.structure", "@class": "Structure", "charge": 0, "lattice": {"matrix": [[3.74363678, 0.0, -0.0], [-1.87181788, 7.61907744, -0.05615737], [-0.0, 0.012528010000000001, 10.08668865]], "pbc": [true, true, true], "a": 3.74363678, "b": 7.845839461957526, "c": 10.086696430104029, "alpha": 90.34099541581502, "beta": 90.0, "gamma": 103.80242637971023, "volume": 287.7058445772785}, "properties": {}, "sites": [{"species": [{"element": "Hf", "occu": 1}], "abc": [0.7497579400000001, 0.49951587000000003, 0.383761199999999], "properties": {"magmom": 0.0}, "label": "Hf", "xyz": [1.8718186634712777, 3.810657860190185, 3.842828242817908]}, {"species": [{"element": "Hf", "occu": 1}], "abc": [0.2210808, 0.44215961000000004, 0.12659108], "properties": {"magmom": 0.0}, "label": "Hf", "xyz": [3.950419997122978e-06, 3.3704342437463493, 1.2520542890094162]}, {"species": [{"element": "Hf", "occu": 1}], "abc": [0.5895849200000001, 0.17916884, 0.65779341], "properties": {"magmom": -0.0}, "label": "Hf", "xyz": [1.8718203531944988, 1.3733421092133837, 6.624895671851445]}, {"species": [{"element": "Hf", "occu": 1}], "abc": [0.778919199999999, 0.55784039, 0.87340892], "properties": {"magmom": 0.0}, "label": "Hf", "xyz": [1.8718149495799994, 4.261171206253651, 8.778476990990585]}, {"species": [{"element": "Hf", "occu": 1}], "abc": [0.25024206, 0.50048413, 0.6162388], "properties": {"magmom": 0.0}, "label": "Hf", "xyz": [2.3652872227497568e-07, 3.820947589809815, 6.187703037182081]}, {"species": [{"element": "Hf", "occu": 1}], "abc": [0.91170659, 0.82341418, 0.57536954], "properties": {"magmom": -0.0}, "label": "Hf", "xyz": [1.8718169381228418, 6.280864637964915, 5.7573326339042135]}, {"species": [{"element": "Hf", "occu": 1}], "abc": [0.08829341, 0.17658582, 0.42463046], "properties": {"magmom": -0.0}, "label": "Hf", "xyz": [1.9618771581741967e-06, 1.3507408120350854, 4.273198646095785]}, {"species": [{"element": "Hf", "occu": 1}], "abc": [0.41041508, 0.82083116, 0.34220659000000003], "properties": {"magmom": -0.0}, "label": "Hf", "xyz": [-1.4531944985129996e-06, 6.258263340786616, 3.4056356081485544]}, {"species": [{"element": "Te", "occu": 1}], "abc": [0.58354616, 0.16709232000000002, 0.20001034], "properties": {"magmom": -0.0}, "label": "Te", "xyz": [1.8718184752170832, 1.2755950572488841, 2.008058561122242]}, {"species": [{"element": "Te", "occu": 1}], "abc": [0.86651328, 0.73302855, 0.1298839], "properties": {"magmom": -0.0}, "label": "Te", "xyz": [1.8718150389259647, 5.586628474978951, 1.2689335044448213]}, {"species": [{"element": "Te", "occu": 1}], "abc": [0.13348672, 0.26697145, 0.8701161], "properties": {"magmom": -0.0}, "label": "Te", "xyz": [3.8610740356603834e-06, 2.044976975021049, 8.761597775555177]}, {"species": [{"element": "Te", "occu": 1}], "abc": [0.41645384, 0.83290768, 0.79998966], "properties": {"magmom": -0.0}, "label": "Te", "xyz": [4.247829166192929e-07, 6.3560103927511165, 8.022472718877756]}]}, "task_ids": null, "uncorrected_energy_per_atom": null, "energy_per_atom": -39.136065208333335, "formation_energy_per_atom": -0.562713511666672, "energy_above_hull": 0.016243516666669, "is_stable": false, "equilibrium_reaction_energy_per_atom": null, "decomposes_to": null, "xas": null, "grain_boundaries": null, "band_gap": 0.0, "cbm": null, "vbm": null, "efermi": 6.31616644, "is_gap_direct": null, "is_metal": null, "es_source_calc_id": null, "bandstructure": null, "dos": null, "dos_energy_up": null, "dos_energy_down": null, "is_magnetic": null, "ordering": null, "total_magnetization": 3e-07, "total_magnetization_normalized_vol": null, "total_magnetization_normalized_formula_units": null, "num_magnetic_sites": null, "num_unique_magnetic_sites": null, "types_of_magnetic_species": null, "bulk_modulus": null, "shear_modulus": null, "universal_anisotropy": null, "homogeneous_poisson": null, "e_total": null, "e_ionic": null, "e_electronic": null, "n": null, "e_ij_max": null, "weighted_surface_energy_EV_PER_ANG2": null, "weighted_surface_energy": null, "weighted_work_function": null, "surface_anisotropy": null, "shape_factor": null, "has_reconstructed": null, "possible_species": null, "has_props": null, "theoretical": null, "database_IDs": null, "fields_not_requested": ["builder_meta", "nsites", "elements", "nelements", "composition", "composition_reduced", "chemsys", "symmetry", "property_name", "deprecated", "deprecation_reasons", "last_updated", "origins", "warnings", "task_ids", "uncorrected_energy_per_atom", "equilibrium_reaction_energy_per_atom", "decomposes_to", "xas", "grain_boundaries", "cbm", "vbm", "is_gap_direct", "is_metal", "es_source_calc_id", "bandstructure", "dos", "dos_energy_up", "dos_energy_down", "is_magnetic", "ordering", "total_magnetization_normalized_vol", "total_magnetization_normalized_formula_units", "num_magnetic_sites", "num_unique_magnetic_sites", "types_of_magnetic_species", "bulk_modulus", "shear_modulus", "universal_anisotropy", "homogeneous_poisson", "e_total", "e_ionic", "e_electronic", "n", "e_ij_max", "weighted_surface_energy_EV_PER_ANG2", "weighted_surface_energy", "weighted_work_function", "surface_anisotropy", "shape_factor", "has_reconstructed", "possible_species", "has_props", "theoretical", "database_IDs"]}