{"builder_meta": null, "nsites": null, "elements": null, "nelements": null, "composition": null, "composition_reduced": null, "formula_pretty": "Hf3Al2", "formula_anonymous": "A2B3", "chemsys": null, "volume": 389.9870069781917, "density": 10.039069346652234, "density_atomic": 19.499350348909584, "symmetry": null, "property_name": null, "material_id": "mp-8462", "deprecated": null, "deprecation_reasons": null, "last_updated": null, "origins": null, "warnings": null, "structure": {"@module": "pymatgen.core.structure", "@class": "Structure", "charge": 0, "lattice": {"matrix": [[6.86770743, 0.0, 0.0], [0.0, 7.53562323, -1e-07], [0.0, -1e-07, 7.53562323]], "pbc": [true, true, true], "a": 6.86770743, "b": 7.53562323, "c": 7.53562323, "alpha": 90.00000152066465, "beta": 90.0, "gamma": 90.0, "volume": 389.9870069781917}, "properties": {}, "sites": [{"species": [{"element": "Hf", "occu": 1}], "abc": [-0.0, 0.34549202, 0.34549202], "properties": {"magmom": 0.0}, "label": "Hf", "xyz": [0.0, 2.603497657142422, 2.603497657142422]}, {"species": [{"element": "Hf", "occu": 1}], "abc": [0.5, 0.15451034, 0.84548966], "properties": {"magmom": 0.0}, "label": "Hf", "xyz": [3.433853715, 1.164331622830232, 6.371291507169768]}, {"species": [{"element": "Hf", "occu": 1}], "abc": [0.5, 0.84548966, 0.15451034], "properties": {"magmom": 0.0}, "label": "Hf", "xyz": [3.433853715, 6.371291507169768, 1.164331622830232]}, {"species": [{"element": "Hf", "occu": 1}], "abc": [-0.0, 0.65450798, 0.65450798], "properties": {"magmom": 0.0}, "label": "Hf", "xyz": [0.0, 4.932125472857577, 4.932125472857577]}, {"species": [{"element": "Hf", "occu": 1}], "abc": [-0.0, 0.20219261, 0.79780739], "properties": {"magmom": 0.0}, "label": "Hf", "xyz": [0.0, 1.5236472490695914, 6.011975880930408]}, {"species": [{"element": "Hf", "occu": 1}], "abc": [0.5, 0.70219257, 0.70219257], "properties": {"magmom": 0.0}, "label": "Hf", "xyz": [3.433853715, 5.291458572206144, 5.291458572206144]}, {"species": [{"element": "Hf", "occu": 1}], "abc": [0.5, 0.29780743, 0.29780743], "properties": {"magmom": 0.0}, "label": "Hf", "xyz": [3.433853715, 2.2441645577938556, 2.2441645577938556]}, {"species": [{"element": "Hf", "occu": 1}], "abc": [-0.0, 0.79780739, 0.20219261], "properties": {"magmom": 0.0}, "label": "Hf", "xyz": [0.0, 6.011975880930408, 1.5236472490695914]}, {"species": [{"element": "Hf", "occu": 1}], "abc": [0.24997526, 0.0, 0.5], "properties": {"magmom": 0.0}, "label": "Hf", "xyz": [1.7167569504181819, -5e-08, 3.767811615]}, {"species": [{"element": "Hf", "occu": 1}], "abc": [0.75002474, 0.0, 0.5], "properties": {"magmom": 0.0}, "label": "Hf", "xyz": [5.150950479581819, -5e-08, 3.767811615]}, {"species": [{"element": "Hf", "occu": 1}], "abc": [0.24997526, 0.5, 0.0], "properties": {"magmom": 0.0}, "label": "Hf", "xyz": [1.7167569504181819, 3.767811615, -5e-08]}, {"species": [{"element": "Hf", "occu": 1}], "abc": [0.75002474, 0.5, 0.0], "properties": {"magmom": 0.0}, "label": "Hf", "xyz": [5.150950479581819, 3.767811615, -5e-08]}, {"species": [{"element": "Al", "occu": 1}], "abc": [0.20982481, 0.12126595, 0.12126595], "properties": {"magmom": -0.0}, "label": "Al", "xyz": [1.4410154066353384, 0.9138144977014235, 0.9138144977014235]}, {"species": [{"element": "Al", "occu": 1}], "abc": [0.70983104, 0.37873552, 0.62126448], "properties": {"magmom": -0.0}, "label": "Al", "xyz": [4.874911907452627, 2.8540081204116814, 4.6816150095883176]}, {"species": [{"element": "Al", "occu": 1}], "abc": [0.70983104, 0.62126448, 0.37873552], "properties": {"magmom": -0.0}, "label": "Al", "xyz": [4.874911907452627, 4.6816150095883176, 2.8540081204116814]}, {"species": [{"element": "Al", "occu": 1}], "abc": [0.20982481, 0.87873405, 0.87873405], "properties": {"magmom": -0.0}, "label": "Al", "xyz": [1.4410154066353384, 6.621808632298576, 6.621808632298576]}, {"species": [{"element": "Al", "occu": 1}], "abc": [0.29016896000000003, 0.62126448, 0.37873552], "properties": {"magmom": -0.0}, "label": "Al", "xyz": [1.992795522547373, 4.6816150095883176, 2.8540081204116814]}, {"species": [{"element": "Al", "occu": 1}], "abc": [0.29016896000000003, 0.37873552, 0.62126448], "properties": {"magmom": -0.0}, "label": "Al", "xyz": [1.992795522547373, 2.8540081204116814, 4.6816150095883176]}, {"species": [{"element": "Al", "occu": 1}], "abc": [0.79017519, 0.12126595, 0.12126595], "properties": {"magmom": -0.0}, "label": "Al", "xyz": [5.426692023364662, 0.9138144977014235, 0.9138144977014235]}, {"species": [{"element": "Al", "occu": 1}], "abc": [0.79017519, 0.87873405, 0.87873405], "properties": {"magmom": -0.0}, "label": "Al", "xyz": [5.426692023364662, 6.621808632298576, 6.621808632298576]}]}, "task_ids": null, "uncorrected_energy_per_atom": null, "energy_per_atom": -30.160703293, "formation_energy_per_atom": -0.37701472700000505, "energy_above_hull": 0.039702738333325, "is_stable": false, "equilibrium_reaction_energy_per_atom": null, "decomposes_to": null, "xas": null, "grain_boundaries": null, "band_gap": 0.0, "cbm": null, "vbm": null, "efermi": 5.42897207, "is_gap_direct": null, "is_metal": null, "es_source_calc_id": null, "bandstructure": null, "dos": null, "dos_energy_up": null, "dos_energy_down": null, "is_magnetic": null, "ordering": null, "total_magnetization": 0.00016, "total_magnetization_normalized_vol": null, "total_magnetization_normalized_formula_units": null, "num_magnetic_sites": null, "num_unique_magnetic_sites": null, "types_of_magnetic_species": null, "bulk_modulus": null, "shear_modulus": null, "universal_anisotropy": null, "homogeneous_poisson": null, "e_total": null, "e_ionic": null, "e_electronic": null, "n": null, "e_ij_max": null, "weighted_surface_energy_EV_PER_ANG2": null, "weighted_surface_energy": null, "weighted_work_function": null, "surface_anisotropy": null, "shape_factor": null, "has_reconstructed": null, "possible_species": null, "has_props": null, "theoretical": null, "database_IDs": null, "fields_not_requested": ["builder_meta", "nsites", "elements", "nelements", "composition", "composition_reduced", "chemsys", "symmetry", "property_name", "deprecated", "deprecation_reasons", "last_updated", "origins", "warnings", "task_ids", "uncorrected_energy_per_atom", "equilibrium_reaction_energy_per_atom", "decomposes_to", "xas", "grain_boundaries", "cbm", "vbm", "is_gap_direct", "is_metal", "es_source_calc_id", "bandstructure", "dos", "dos_energy_up", "dos_energy_down", "is_magnetic", "ordering", "total_magnetization_normalized_vol", "total_magnetization_normalized_formula_units", "num_magnetic_sites", "num_unique_magnetic_sites", "types_of_magnetic_species", "bulk_modulus", "shear_modulus", "universal_anisotropy", "homogeneous_poisson", "e_total", "e_ionic", "e_electronic", "n", "e_ij_max", "weighted_surface_energy_EV_PER_ANG2", "weighted_surface_energy", "weighted_work_function", "surface_anisotropy", "shape_factor", "has_reconstructed", "possible_species", "has_props", "theoretical", "database_IDs"]}