{"builder_meta": null, "nsites": null, "elements": null, "nelements": null, "composition": null, "composition_reduced": null, "formula_pretty": "Hf3As2", "formula_anonymous": "A2B3", "chemsys": null, "volume": 385.76238264061504, "density": 11.799899551292805, "density_atomic": 19.28811913203075, "symmetry": null, "property_name": null, "material_id": "mp-1190267", "deprecated": null, "deprecation_reasons": null, "last_updated": null, "origins": null, "warnings": null, "structure": {"@module": "pymatgen.core.structure", "@class": "Structure", "charge": 0, "lattice": {"matrix": [[3.0000000000000004e-08, 3.66030672, 7e-08], [0.00025487000000000003, 1.5e-07, 10.04607182], [10.49073986, 4e-08, 0.00026818]], "pbc": [true, true, true], "a": 3.660306720000001, "b": 10.046071823233042, "c": 10.490739863427809, "alpha": 89.99708171896596, "beta": 89.99999931191151, "gamma": 89.99999804876371, "volume": 385.76238264061504}, "properties": {}, "sites": [{"species": [{"element": "Hf", "occu": 1}], "abc": [0.25000006, 0.62548445, 0.54373196], "properties": {"magmom": 0.0}, "label": "Hf", "xyz": [5.704309970649699, 0.9150770151903491, 6.283807542530235]}, {"species": [{"element": "Hf", "occu": 1}], "abc": [0.25000004, 0.87453499, 0.043710099999999], "properties": {"magmom": 0.0}, "label": "Hf", "xyz": [0.45877418858747804, 0.9150769593409213, 8.785653058317603]}, {"species": [{"element": "Hf", "occu": 1}], "abc": [0.74999994, 0.37456555, 0.45631717], "properties": {"magmom": -0.0}, "label": "Hf", "xyz": [4.787200212143123, 2.7452298948191163, 3.7630348442364476]}, {"species": [{"element": "Hf", "occu": 1}], "abc": [0.74999997, 0.12544047, 0.95623492], "properties": {"magmom": -0.0}, "label": "Hf", "xyz": [10.031643784280499, 2.7452299872562658, 1.260440466335399]}, {"species": [{"element": "Hf", "occu": 1}], "abc": [0.74999994, 0.06931649000000001, 0.62733745], "properties": {"magmom": -0.0}, "label": "Hf", "xyz": [6.581251681579562, 2.7452298558725685, 0.6965267287076486]}, {"species": [{"element": "Hf", "occu": 1}], "abc": [0.74999993, 0.4306351, 0.12741104], "properties": {"magmom": 0.0}, "label": "Hf", "xyz": [1.3367458543999893, 2.745229853470236, 4.326225364405585]}, {"species": [{"element": "Hf", "occu": 1}], "abc": [0.24999997000000002, 0.93065027, 0.37267837], "properties": {"magmom": -0.0}, "label": "Hf", "xyz": [3.909909033453142, 0.9150767246954737, 9.349479414107657]}, {"species": [{"element": "Hf", "occu": 1}], "abc": [0.25000014, 0.56939396, 0.87256613], "properties": {"magmom": 0.0}, "label": "Hf", "xyz": [9.154009409415531, 0.91507731275468, 5.720406638318959]}, {"species": [{"element": "Hf", "occu": 1}], "abc": [0.24999986000000002, 0.29620455, 0.71284139], "properties": {"magmom": -0.0}, "label": "Hf", "xyz": [7.47830908508446, 0.9150762405013972, 2.9758833700147416]}, {"species": [{"element": "Hf", "occu": 1}], "abc": [0.24999991, 0.20376711, 0.21293702], "properties": {"magmom": -0.0}, "label": "Hf", "xyz": [2.23391882500694, 0.9150763896549424, 2.0471161445638577]}, {"species": [{"element": "Hf", "occu": 1}], "abc": [0.75000009, 0.7038229500000001, 0.28717224], "properties": {"magmom": -0.0}, "label": "Hf", "xyz": [3.0128286707087555, 2.745230486487937, 7.070732970615598]}, {"species": [{"element": "Hf", "occu": 1}], "abc": [0.75000015, 0.7962031700000001, 0.78704595], "properties": {"magmom": -0.0}, "label": "Hf", "xyz": [8.25689727011851, 2.745230739958321, 7.9989253516145515]}, {"species": [{"element": "As", "occu": 1}], "abc": [0.24999989, 0.17643728, 0.46821353], "properties": {"magmom": 0.0}, "label": "As", "xyz": [4.911951318231856, 0.915076322560394, 1.7726271696099174]}, {"species": [{"element": "As", "occu": 1}], "abc": [0.24999993, 0.32356518, 0.9681740600000001], "properties": {"magmom": 0.0}, "label": "As", "xyz": [10.156944677217457, 0.915076511040269, 3.250818699150634]}, {"species": [{"element": "As", "occu": 1}], "abc": [0.75, 0.82356029, 0.53180715], "properties": {"magmom": -0.0}, "label": "As", "xyz": [5.579260389649111, 2.7452301848063296, 8.273688493981515]}, {"species": [{"element": "As", "occu": 1}], "abc": [0.75000015, 0.67645334, 0.03180528], "properties": {"magmom": -0.0}, "label": "As", "xyz": [0.3338333488172311, 2.74523069178622, 6.79570741855888]}, {"species": [{"element": "As", "occu": 1}], "abc": [0.7500000800000001, 0.50131692, 0.69390417], "properties": {"magmom": 0.0}, "label": "As", "xyz": [7.279695928382619, 2.7452304357782427, 5.036451926621511]}, {"species": [{"element": "As", "occu": 1}], "abc": [0.74999995, 0.99865822, 0.19394326], "properties": {"magmom": 0.0}, "label": "As", "xyz": [2.0348628387808736, 2.7452300145411273, 10.032644265956824]}, {"species": [{"element": "As", "occu": 1}], "abc": [0.24999996, 0.49870573, 0.30612383], "properties": {"magmom": 0.0}, "label": "As", "xyz": [3.2115925781062677, 0.9150766206385438, 5.010115694414256]}, {"species": [{"element": "As", "occu": 1}], "abc": [0.25000004, 0.00128097, 0.80604298], "properties": {"magmom": 0.0}, "label": "As", "xyz": [8.455987553140007, 0.9150768588461334, 0.0130848987256446]}]}, "task_ids": null, "uncorrected_energy_per_atom": null, "energy_per_atom": -8.742539407, "formation_energy_per_atom": -0.900176976, "energy_above_hull": 0.0, "is_stable": true, "equilibrium_reaction_energy_per_atom": null, "decomposes_to": null, "xas": null, "grain_boundaries": null, "band_gap": 0.0, "cbm": null, "vbm": null, "efermi": 6.25357253, "is_gap_direct": null, "is_metal": null, "es_source_calc_id": null, "bandstructure": null, "dos": null, "dos_energy_up": null, "dos_energy_down": null, "is_magnetic": null, "ordering": null, "total_magnetization": 8e-07, "total_magnetization_normalized_vol": null, "total_magnetization_normalized_formula_units": null, "num_magnetic_sites": null, "num_unique_magnetic_sites": null, "types_of_magnetic_species": null, "bulk_modulus": null, "shear_modulus": null, "universal_anisotropy": null, "homogeneous_poisson": null, "e_total": null, "e_ionic": null, "e_electronic": null, "n": null, "e_ij_max": null, "weighted_surface_energy_EV_PER_ANG2": null, "weighted_surface_energy": null, "weighted_work_function": null, "surface_anisotropy": null, "shape_factor": null, "has_reconstructed": null, "possible_species": null, "has_props": null, "theoretical": null, "database_IDs": null, "fields_not_requested": ["builder_meta", "nsites", "elements", "nelements", "composition", "composition_reduced", "chemsys", "symmetry", "property_name", "deprecated", "deprecation_reasons", "last_updated", "origins", "warnings", "task_ids", "uncorrected_energy_per_atom", "equilibrium_reaction_energy_per_atom", "decomposes_to", "xas", "grain_boundaries", "cbm", "vbm", "is_gap_direct", "is_metal", "es_source_calc_id", "bandstructure", "dos", "dos_energy_up", "dos_energy_down", "is_magnetic", "ordering", "total_magnetization_normalized_vol", "total_magnetization_normalized_formula_units", "num_magnetic_sites", "num_unique_magnetic_sites", "types_of_magnetic_species", "bulk_modulus", "shear_modulus", "universal_anisotropy", "homogeneous_poisson", "e_total", "e_ionic", "e_electronic", "n", "e_ij_max", "weighted_surface_energy_EV_PER_ANG2", "weighted_surface_energy", "weighted_work_function", "surface_anisotropy", "shape_factor", "has_reconstructed", "possible_species", "has_props", "theoretical", "database_IDs"]}