{"builder_meta": null, "nsites": null, "elements": null, "nelements": null, "composition": null, "composition_reduced": null, "formula_pretty": "Hf3Ag", "formula_anonymous": "AB3", "chemsys": null, "volume": 83.53821462588672, "density": 12.788018261107105, "density_atomic": 20.88455365647168, "symmetry": null, "property_name": null, "material_id": "mp-1184564", "deprecated": null, "deprecation_reasons": null, "last_updated": null, "origins": null, "warnings": null, "structure": {"@module": "pymatgen.core.structure", "@class": "Structure", "charge": 0, "lattice": {"matrix": [[4.371479, 0.0, 0.0], [0.0, 4.371479, 0.0], [0.0, 0.0, 4.371479]], "pbc": [true, true, true], "a": 4.371479, "b": 4.371479, "c": 4.371479, "alpha": 90.0, "beta": 90.0, "gamma": 90.0, "volume": 83.53821462588672}, "properties": {}, "sites": [{"species": [{"element": "Hf", "occu": 1}], "abc": [0.0, 0.5, 0.5], "properties": {"magmom": 0.009000000000000001}, "label": "Hf", "xyz": [0.0, 2.1857395, 2.1857395]}, {"species": [{"element": "Hf", "occu": 1}], "abc": [0.5, 0.0, 0.5], "properties": {"magmom": 0.007}, "label": "Hf", "xyz": [2.1857395, 0.0, 2.1857395]}, {"species": [{"element": "Hf", "occu": 1}], "abc": [0.5, 0.5, 0.0], "properties": {"magmom": 0.005}, "label": "Hf", "xyz": [2.1857395, 2.1857395, 0.0]}, {"species": [{"element": "Ag", "occu": 1}], "abc": [0.0, 0.0, 0.0], "properties": {"magmom": 0.001}, "label": "Ag", "xyz": [0.0, 0.0, 0.0]}]}, "task_ids": null, "uncorrected_energy_per_atom": null, "energy_per_atom": -39.104735915000006, "formation_energy_per_atom": 0.097794913749986, "energy_above_hull": 0.18299380749999702, "is_stable": false, "equilibrium_reaction_energy_per_atom": null, "decomposes_to": null, "xas": null, "grain_boundaries": null, "band_gap": 0.0, "cbm": null, "vbm": null, "efermi": 4.57982555, "is_gap_direct": null, "is_metal": null, "es_source_calc_id": null, "bandstructure": null, "dos": null, "dos_energy_up": null, "dos_energy_down": null, "is_magnetic": null, "ordering": null, "total_magnetization": 0.0413348, "total_magnetization_normalized_vol": null, "total_magnetization_normalized_formula_units": null, "num_magnetic_sites": null, "num_unique_magnetic_sites": null, "types_of_magnetic_species": null, "bulk_modulus": null, "shear_modulus": null, "universal_anisotropy": null, "homogeneous_poisson": null, "e_total": null, "e_ionic": null, "e_electronic": null, "n": null, "e_ij_max": null, "weighted_surface_energy_EV_PER_ANG2": null, "weighted_surface_energy": null, "weighted_work_function": null, "surface_anisotropy": null, "shape_factor": null, "has_reconstructed": null, "possible_species": null, "has_props": null, "theoretical": null, "database_IDs": null, "fields_not_requested": ["builder_meta", "nsites", "elements", "nelements", "composition", "composition_reduced", "chemsys", "symmetry", "property_name", "deprecated", "deprecation_reasons", "last_updated", "origins", "warnings", "task_ids", "uncorrected_energy_per_atom", "equilibrium_reaction_energy_per_atom", "decomposes_to", "xas", "grain_boundaries", "cbm", "vbm", "is_gap_direct", "is_metal", "es_source_calc_id", "bandstructure", "dos", "dos_energy_up", "dos_energy_down", "is_magnetic", "ordering", "total_magnetization_normalized_vol", "total_magnetization_normalized_formula_units", "num_magnetic_sites", "num_unique_magnetic_sites", "types_of_magnetic_species", "bulk_modulus", "shear_modulus", "universal_anisotropy", "homogeneous_poisson", "e_total", "e_ionic", "e_electronic", "n", "e_ij_max", "weighted_surface_energy_EV_PER_ANG2", "weighted_surface_energy", "weighted_work_function", "surface_anisotropy", "shape_factor", "has_reconstructed", "possible_species", "has_props", "theoretical", "database_IDs"]}