{
  "builder_meta": null,
  "nsites": null,
  "elements": null,
  "nelements": null,
  "composition": null,
  "composition_reduced": null,
  "formula_pretty": "Hf3Al",
  "formula_anonymous": "AB3",
  "chemsys": null,
  "volume": 161.50046434939122,
  "density": 11.566192786839483,
  "density_atomic": 20.187558043673903,
  "symmetry": null,
  "property_name": null,
  "material_id": "mp-1184670",
  "deprecated": null,
  "deprecation_reasons": null,
  "last_updated": null,
  "origins": null,
  "warnings": null,
  "structure": {
    "@module": "pymatgen.core.structure",
    "@class": "Structure",
    "charge": 0,
    "lattice": {
      "matrix": [
        [3.06379206, -5.30664406, 0.0],
        [3.06379206, 5.30664406, -0.0],
        [0.0, -0.0, 4.96666119]
      ],
      "pbc": [true, true, true],
      "a": 6.127584594801799,
      "b": 6.127584594801799,
      "c": 4.96666119,
      "alpha": 90.0,
      "beta": 90.0,
      "gamma": 120.00000512643007,
      "volume": 161.50046434939122
    },
    "properties": {},
    "sites": [
      {
        "species": [{ "element": "Hf", "occu": 1 }],
        "abc": [0.17044251, 0.34088502, 0.25],
        "properties": { "magmom": -0.0 },
        "label": "Hf",
        "xyz": [1.566601226473412, 0.9044777332629905, 1.2416652975]
      },
      {
        "species": [{ "element": "Hf", "occu": 1 }],
        "abc": [0.65911498, 0.82955749, 0.25],
        "properties": { "magmom": -0.0 },
        "label": "Hf",
        "xyz": [4.560982893526589, 0.9044777332629903, 1.2416652975]
      },
      {
        "species": [{ "element": "Hf", "occu": 1 }],
        "abc": [0.17044251, 0.82955749, 0.25],
        "properties": { "magmom": -0.0 },
        "label": "Hf",
        "xyz": [3.06379206, 3.4976885934740185, 1.2416652975]
      },
      {
        "species": [{ "element": "Hf", "occu": 1 }],
        "abc": [0.82955749, 0.65911498, 0.75],
        "properties": { "magmom": -0.0 },
        "label": "Hf",
        "xyz": [4.560982893526589, -0.9044777332629903, 3.7249958925]
      },
      {
        "species": [{ "element": "Hf", "occu": 1 }],
        "abc": [0.34088502, 0.17044251, 0.75],
        "properties": { "magmom": -0.0 },
        "label": "Hf",
        "xyz": [1.566601226473412, -0.9044777332629905, 3.7249958925]
      },
      {
        "species": [{ "element": "Hf", "occu": 1 }],
        "abc": [0.82955749, 0.17044251, 0.75],
        "properties": { "magmom": -0.0 },
        "label": "Hf",
        "xyz": [3.06379206, -3.4976885934740185, 3.7249958925]
      },
      {
        "species": [{ "element": "Al", "occu": 1 }],
        "abc": [0.333333, 0.666667, 0.75],
        "properties": { "magmom": 0.0 },
        "label": "Al",
        "xyz": [3.06379206, 1.7688848910960402, 3.7249958925]
      },
      {
        "species": [{ "element": "Al", "occu": 1 }],
        "abc": [0.666667, 0.333333, 0.25],
        "properties": { "magmom": 0.0 },
        "label": "Al",
        "xyz": [3.06379206, -1.7688848910960402, 1.2416652975]
      }
    ]
  },
  "task_ids": null,
  "uncorrected_energy_per_atom": null,
  "energy_per_atom": -35.78772743125,
  "formation_energy_per_atom": -0.24114130625000002,
  "energy_above_hull": 0.019307109583330002,
  "is_stable": false,
  "equilibrium_reaction_energy_per_atom": null,
  "decomposes_to": null,
  "xas": null,
  "grain_boundaries": null,
  "band_gap": 0.0,
  "cbm": null,
  "vbm": null,
  "efermi": 5.25453994,
  "is_gap_direct": null,
  "is_metal": null,
  "es_source_calc_id": null,
  "bandstructure": null,
  "dos": null,
  "dos_energy_up": null,
  "dos_energy_down": null,
  "is_magnetic": null,
  "ordering": null,
  "total_magnetization": 0.00048029999999900006,
  "total_magnetization_normalized_vol": null,
  "total_magnetization_normalized_formula_units": null,
  "num_magnetic_sites": null,
  "num_unique_magnetic_sites": null,
  "types_of_magnetic_species": null,
  "bulk_modulus": null,
  "shear_modulus": null,
  "universal_anisotropy": null,
  "homogeneous_poisson": null,
  "e_total": null,
  "e_ionic": null,
  "e_electronic": null,
  "n": null,
  "e_ij_max": null,
  "weighted_surface_energy_EV_PER_ANG2": null,
  "weighted_surface_energy": null,
  "weighted_work_function": null,
  "surface_anisotropy": null,
  "shape_factor": null,
  "has_reconstructed": null,
  "possible_species": null,
  "has_props": null,
  "theoretical": null,
  "database_IDs": null,
  "fields_not_requested": [
    "builder_meta",
    "nsites",
    "elements",
    "nelements",
    "composition",
    "composition_reduced",
    "chemsys",
    "symmetry",
    "property_name",
    "deprecated",
    "deprecation_reasons",
    "last_updated",
    "origins",
    "warnings",
    "task_ids",
    "uncorrected_energy_per_atom",
    "equilibrium_reaction_energy_per_atom",
    "decomposes_to",
    "xas",
    "grain_boundaries",
    "cbm",
    "vbm",
    "is_gap_direct",
    "is_metal",
    "es_source_calc_id",
    "bandstructure",
    "dos",
    "dos_energy_up",
    "dos_energy_down",
    "is_magnetic",
    "ordering",
    "total_magnetization_normalized_vol",
    "total_magnetization_normalized_formula_units",
    "num_magnetic_sites",
    "num_unique_magnetic_sites",
    "types_of_magnetic_species",
    "bulk_modulus",
    "shear_modulus",
    "universal_anisotropy",
    "homogeneous_poisson",
    "e_total",
    "e_ionic",
    "e_electronic",
    "n",
    "e_ij_max",
    "weighted_surface_energy_EV_PER_ANG2",
    "weighted_surface_energy",
    "weighted_work_function",
    "surface_anisotropy",
    "shape_factor",
    "has_reconstructed",
    "possible_species",
    "has_props",
    "theoretical",
    "database_IDs"
  ]
}
