{"builder_meta": null, "nsites": null, "elements": null, "nelements": null, "composition": null, "composition_reduced": null, "formula_pretty": "Hf3As", "formula_anonymous": "AB3", "chemsys": null, "volume": 634.8621718512367, "density": 12.772272693695616, "density_atomic": 19.839442870351146, "symmetry": null, "property_name": null, "material_id": "mp-582067", "deprecated": null, "deprecation_reasons": null, "last_updated": null, "origins": null, "warnings": null, "structure": {"@module": "pymatgen.core.structure", "@class": "Structure", "charge": 0, "lattice": {"matrix": [[5.38173945, 0.0, 0.0], [-2.69086922, 7.69829619, -0.03948915], [0.0, -0.00053742, 15.32365071]], "pbc": [true, true, true], "a": 5.38173945, "b": 8.155127269459358, "c": 15.323650719424004, "alpha": 90.27933836151948, "beta": 90.0, "gamma": 109.26637317262232, "volume": 634.8621718512366}, "properties": {}, "sites": [{"species": [{"element": "Hf", "occu": 1}], "abc": [0.9554334800000001, 0.8340319900000001, 0.8079988100000001], "properties": {"magmom": 0.0}, "label": "Hf", "xyz": [2.897623040780439, 6.420191056234648, 12.348556324177748]}, {"species": [{"element": "Hf", "occu": 1}], "abc": [0.53871387, 0.11579313000000001, 0.83329809], "properties": {"magmom": -0.0}, "label": "Hf", "xyz": [2.5876335170367133, 0.8909619804476469, 12.764596296190605]}, {"species": [{"element": "Hf", "occu": 1}], "abc": [0.12140249, 0.16596801, 0.69200119], "properties": {"magmom": 0.0}, "label": "Hf", "xyz": [0.20675836014757837, 1.2772990037653522, 10.597430590822254]}, {"species": [{"element": "Hf", "occu": 1}], "abc": [0.57707926, 0.11579313000000001, 0.33329809], "properties": {"magmom": -0.0}, "label": "Hf", "xyz": [2.7941060499143484, 0.8912306904476469, 5.102770941190604]}, {"species": [{"element": "Hf", "occu": 1}], "abc": [0.52808805, 0.47842749, 0.90520473], "properties": {"magmom": 0.0}, "label": "Hf", "xyz": [1.554646484915715, 3.6825900483322664, 13.852148408643126]}, {"species": [{"element": "Hf", "occu": 1}], "abc": [0.42292074, 0.88420687, 0.66670191], "properties": {"magmom": -0.0}, "label": "Hf", "xyz": [-0.10323581991434816, 6.806528079552353, 10.181390618809395]}, {"species": [{"element": "Hf", "occu": 1}], "abc": [0.121095299999999, 0.68971, 0.98937993], "properties": {"magmom": -0.0}, "label": "Hf", "xyz": [-1.2042160565066204, 5.309060152642919, 15.133676405157752]}, {"species": [{"element": "Hf", "occu": 1}], "abc": [0.29672672, 0.09878365, 0.01660598], "properties": {"magmom": -0.0}, "label": "Hf", "xyz": [1.3310920116688512, 0.7604568720435219, 0.2505633548448483]}, {"species": [{"element": "Hf", "occu": 1}], "abc": [0.8789047, 0.31029, 0.01062007], "properties": {"magmom": -0.0}, "label": "Hf", "xyz": [3.895086286506615, 2.3886986173570803, 0.15048515484224972]}, {"species": [{"element": "Hf", "occu": 1}], "abc": [0.43138631, 0.31029, 0.51062007], "properties": {"magmom": -0.0}, "label": "Hf", "xyz": [1.4866589124431298, 2.3884299073570805, 7.81231050984225]}, {"species": [{"element": "Hf", "occu": 1}], "abc": [0.47191195, 0.52157251, 0.09479527], "properties": {"magmom": 0.0}, "label": "Hf", "xyz": [1.1362237450842856, 4.015168721667734, 1.4320131513568752]}, {"species": [{"element": "Hf", "occu": 1}], "abc": [0.5686136900000001, 0.68971, 0.48937993], "properties": {"magmom": -0.0}, "label": "Hf", "xyz": [1.204211317556871, 5.30932886264292, 7.471851050157751]}, {"species": [{"element": "Hf", "occu": 1}], "abc": [0.47031707, 0.46757144, 0.30141769], "properties": {"magmom": -0.0}, "label": "Hf", "xyz": [1.2729503335803347, 3.5993414472098535, 4.600355400645184]}, {"species": [{"element": "Hf", "occu": 1}], "abc": [0.52968293, 0.53242856, 0.69858231], "properties": {"magmom": -0.0}, "label": "Hf", "xyz": [1.4179198964196655, 4.098417322790147, 10.683806159354818]}, {"species": [{"element": "Hf", "occu": 1}], "abc": [0.70327328, 0.90121635, 0.98339402], "properties": {"magmom": -0.0}, "label": "Hf", "xyz": [1.359778218331149, 6.937301897956479, 15.033598205155153]}, {"species": [{"element": "Hf", "occu": 1}], "abc": [0.04966156, 0.52157251, 0.59479527], "properties": {"magmom": 0.0}, "label": "Hf", "xyz": [-1.1362178365566002, 4.014900011667734, 9.093838506356876]}, {"species": [{"element": "Hf", "occu": 1}], "abc": [0.87859751, 0.8340319900000001, 0.30799881], "properties": {"magmom": 0.0}, "label": "Hf", "xyz": [2.4841118698524216, 6.420459766234647, 4.686730969177747]}, {"species": [{"element": "Hf", "occu": 1}], "abc": [0.80205693, 0.09878365, 0.51660598], "properties": {"magmom": -0.0}, "label": "Hf", "xyz": [4.050647538102636, 0.7601881620435219, 7.9123887098448495]}, {"species": [{"element": "Hf", "occu": 1}], "abc": [0.19794307, 0.90121635, 0.48339402000000004], "properties": {"magmom": -0.0}, "label": "Hf", "xyz": [-1.3597773081026356, 6.937570607956478, 7.3717728501551525]}, {"species": [{"element": "Hf", "occu": 1}], "abc": [0.04456652, 0.16596801, 0.19200119000000002], "properties": {"magmom": 0.0}, "label": "Hf", "xyz": [-0.2067528107804382, 1.277567713765352, 2.9356052358222535]}, {"species": [{"element": "Hf", "occu": 1}], "abc": [0.00274563, 0.53242856, 0.19858231], "properties": {"magmom": -0.0}, "label": "Hf", "xyz": [-1.41791935866682, 4.098686032790146, 3.0219808043548166]}, {"species": [{"element": "Hf", "occu": 1}], "abc": [0.46128613, 0.88420687, 0.16670191], "properties": {"magmom": -0.0}, "label": "Hf", "xyz": [0.1032367129632874, 6.806796789552353, 2.519565263809396]}, {"species": [{"element": "Hf", "occu": 1}], "abc": [0.9972543700000001, 0.46757144, 0.8014176900000001], "properties": {"magmom": -0.0}, "label": "Hf", "xyz": [4.108789588666821, 3.5990727372098537, 12.262180755645185]}, {"species": [{"element": "Hf", "occu": 1}], "abc": [0.95033844, 0.47842749, 0.40520473], "properties": {"magmom": 0.0}, "label": "Hf", "xyz": [3.827088066556601, 3.6828587583322667, 6.190323053643126]}, {"species": [{"element": "As", "occu": 1}], "abc": [0.57912529, 0.24425527, 0.16750079], "properties": {"magmom": 0.0}, "label": "As", "xyz": [2.4594424318199017, 1.8802593961538594, 2.5570781666137408]}, {"species": [{"element": "As", "occu": 1}], "abc": [0.06217795, 0.16811917, 0.87174152], "properties": {"magmom": -0.0}, "label": "As", "xyz": [-0.1177611734098199, 1.2937626745492838, 13.351623678762474]}, {"species": [{"element": "As", "occu": 1}], "abc": [0.9378220500000001, 0.83188083, 0.12825848], "properties": {"magmom": -0.0}, "label": "As", "xyz": [2.8086314034098203, 6.403996095450716, 1.9325378812375267]}, {"species": [{"element": "As", "occu": 1}], "abc": [0.42087471, 0.75574473, 0.83249921], "properties": {"magmom": 0.0}, "label": "As", "xyz": [0.2314277981800985, 5.8174993738461405, 12.72708339338626]}, {"species": [{"element": "As", "occu": 1}], "abc": [0.33486902, 0.75574473, 0.33249921], "properties": {"magmom": 0.0}, "label": "As", "xyz": [-0.23143241661737157, 5.817768083846141, 5.0652580383862595]}, {"species": [{"element": "As", "occu": 1}], "abc": [0.66513098, 0.24425527, 0.6675007900000001], "properties": {"magmom": 0.0}, "label": "As", "xyz": [2.9223026466173723, 1.8799906861538593, 10.218903521613742]}, {"species": [{"element": "As", "occu": 1}], "abc": [0.10594222, 0.16811917, 0.37174152], "properties": {"magmom": -0.0}, "label": "As", "xyz": [0.11776672494963164, 1.294031384549284, 5.689798323762474]}, {"species": [{"element": "As", "occu": 1}], "abc": [0.89405778, 0.83188083, 0.6282584800000001], "properties": {"magmom": -0.0}, "label": "As", "xyz": [2.573103505050369, 6.403727385450717, 9.594363236237527]}]}, "task_ids": null, "uncorrected_energy_per_atom": null, "energy_per_atom": -9.275442623125002, "formation_energy_per_atom": -0.640020217500001, "energy_above_hull": 0.0, "is_stable": true, "equilibrium_reaction_energy_per_atom": null, "decomposes_to": null, "xas": null, "grain_boundaries": null, "band_gap": 0.0, "cbm": null, "vbm": null, "efermi": 5.69440951, "is_gap_direct": null, "is_metal": null, "es_source_calc_id": null, "bandstructure": null, "dos": null, "dos_energy_up": null, "dos_energy_down": null, "is_magnetic": null, "ordering": null, "total_magnetization": 1e-07, "total_magnetization_normalized_vol": null, "total_magnetization_normalized_formula_units": null, "num_magnetic_sites": null, "num_unique_magnetic_sites": null, "types_of_magnetic_species": null, "bulk_modulus": null, "shear_modulus": null, "universal_anisotropy": null, "homogeneous_poisson": null, "e_total": null, "e_ionic": null, "e_electronic": null, "n": null, "e_ij_max": null, "weighted_surface_energy_EV_PER_ANG2": null, "weighted_surface_energy": null, "weighted_work_function": null, "surface_anisotropy": null, "shape_factor": null, "has_reconstructed": null, "possible_species": null, "has_props": null, "theoretical": null, "database_IDs": null, "fields_not_requested": ["builder_meta", "nsites", "elements", "nelements", "composition", "composition_reduced", "chemsys", "symmetry", "property_name", "deprecated", "deprecation_reasons", "last_updated", "origins", "warnings", "task_ids", "uncorrected_energy_per_atom", "equilibrium_reaction_energy_per_atom", "decomposes_to", "xas", "grain_boundaries", "cbm", "vbm", "is_gap_direct", "is_metal", "es_source_calc_id", "bandstructure", "dos", "dos_energy_up", "dos_energy_down", "is_magnetic", "ordering", "total_magnetization_normalized_vol", "total_magnetization_normalized_formula_units", "num_magnetic_sites", "num_unique_magnetic_sites", "types_of_magnetic_species", "bulk_modulus", "shear_modulus", "universal_anisotropy", "homogeneous_poisson", "e_total", "e_ionic", "e_electronic", "n", "e_ij_max", "weighted_surface_energy_EV_PER_ANG2", "weighted_surface_energy", "weighted_work_function", "surface_anisotropy", "shape_factor", "has_reconstructed", "possible_species", "has_props", "theoretical", "database_IDs"]}