{"builder_meta": null, "nsites": null, "elements": null, "nelements": null, "composition": null, "composition_reduced": null, "formula_pretty": "Hf3C", "formula_anonymous": "AB3", "chemsys": null, "volume": 70.40795376827461, "density": 12.912079415794006, "density_atomic": 17.601988442068652, "symmetry": null, "property_name": null, "material_id": "mp-976422", "deprecated": null, "deprecation_reasons": null, "last_updated": null, "origins": null, "warnings": null, "structure": {"@module": "pymatgen.core.structure", "@class": "Structure", "charge": 0, "lattice": {"matrix": [[-1.964786, 1.964786, 4.559647], [1.964786, -1.964786, 4.559647], [1.964786, 1.964786, -4.559647]], "pbc": [true, true, true], "a": 5.339583206225089, "b": 5.339583206225089, "c": 5.339583206225089, "alpha": 136.81951900954343, "beta": 136.81951900954343, "gamma": 62.7158586184398, "volume": 70.40795376827461}, "properties": {}, "sites": [{"species": [{"element": "Hf", "occu": 1}], "abc": [0.75, 0.25, 0.5], "properties": {"magmom": -0.0}, "label": "Hf", "xyz": [1.1102230246251565e-16, 1.9647859999999997, 2.2798235]}, {"species": [{"element": "Hf", "occu": 1}], "abc": [0.25, 0.75, 0.5], "properties": {"magmom": -0.0}, "label": "Hf", "xyz": [1.9647859999999997, 1.1102230246251565e-16, 2.2798235]}, {"species": [{"element": "Hf", "occu": 1}], "abc": [0.5, 0.5, 0.0], "properties": {"magmom": 0.0}, "label": "Hf", "xyz": [0.0, 0.0, 4.559647]}, {"species": [{"element": "C", "occu": 1}], "abc": [0.0, 0.0, 0.0], "properties": {"magmom": -0.0}, "label": "C", "xyz": [0.0, 0.0, 0.0]}]}, "task_ids": null, "uncorrected_energy_per_atom": null, "energy_per_atom": -8.92076351, "formation_energy_per_atom": 0.8542946356250011, "energy_above_hull": 1.323732212500001, "is_stable": false, "equilibrium_reaction_energy_per_atom": null, "decomposes_to": null, "xas": null, "grain_boundaries": null, "band_gap": 0.0, "cbm": null, "vbm": null, "efermi": 5.42621383, "is_gap_direct": null, "is_metal": null, "es_source_calc_id": null, "bandstructure": null, "dos": null, "dos_energy_up": null, "dos_energy_down": null, "is_magnetic": null, "ordering": null, "total_magnetization": 4.0400000000000006e-05, "total_magnetization_normalized_vol": null, "total_magnetization_normalized_formula_units": null, "num_magnetic_sites": null, "num_unique_magnetic_sites": null, "types_of_magnetic_species": null, "bulk_modulus": null, "shear_modulus": null, "universal_anisotropy": null, "homogeneous_poisson": null, "e_total": null, "e_ionic": null, "e_electronic": null, "n": null, "e_ij_max": null, "weighted_surface_energy_EV_PER_ANG2": null, "weighted_surface_energy": null, "weighted_work_function": null, "surface_anisotropy": null, "shape_factor": null, "has_reconstructed": null, "possible_species": null, "has_props": null, "theoretical": null, "database_IDs": null, "fields_not_requested": ["builder_meta", "nsites", "elements", "nelements", "composition", "composition_reduced", "chemsys", "symmetry", "property_name", "deprecated", "deprecation_reasons", "last_updated", "origins", "warnings", "task_ids", "uncorrected_energy_per_atom", "equilibrium_reaction_energy_per_atom", "decomposes_to", "xas", "grain_boundaries", "cbm", "vbm", "is_gap_direct", "is_metal", "es_source_calc_id", "bandstructure", "dos", "dos_energy_up", "dos_energy_down", "is_magnetic", "ordering", "total_magnetization_normalized_vol", "total_magnetization_normalized_formula_units", "num_magnetic_sites", "num_unique_magnetic_sites", "types_of_magnetic_species", "bulk_modulus", "shear_modulus", "universal_anisotropy", "homogeneous_poisson", "e_total", "e_ionic", "e_electronic", "n", "e_ij_max", "weighted_surface_energy_EV_PER_ANG2", "weighted_surface_energy", "weighted_work_function", "surface_anisotropy", "shape_factor", "has_reconstructed", "possible_species", "has_props", "theoretical", "database_IDs"]}