{
  "builder_meta": null,
  "nsites": null,
  "elements": null,
  "nelements": null,
  "composition": null,
  "composition_reduced": null,
  "formula_pretty": "Hf3Ge",
  "formula_anonymous": "AB3",
  "chemsys": null,
  "volume": 644.3623868616849,
  "density": 12.536925585718668,
  "density_atomic": 20.13632458942765,
  "symmetry": null,
  "property_name": null,
  "material_id": "mp-1202616",
  "deprecated": null,
  "deprecation_reasons": null,
  "last_updated": null,
  "origins": null,
  "warnings": null,
  "structure": {
    "@module": "pymatgen.core.structure",
    "@class": "Structure",
    "charge": 0,
    "lattice": {
      "matrix": [
        [10.91734577, 2.48e-6, 0.0],
        [-2.48e-6, 10.91734577, 0.0],
        [0.0, -0.0, 5.40624908]
      ],
      "pbc": [true, true, true],
      "a": 10.917345770000283,
      "b": 10.917345770000283,
      "c": 5.40624908,
      "alpha": 90.0,
      "beta": 90.0,
      "gamma": 90.0,
      "volume": 644.3623868616849
    },
    "properties": {},
    "sites": [
      {
        "species": [{ "element": "Hf", "occu": 1 }],
        "abc": [0.71628912, 0.8180259400000001, 0.50496754],
        "properties": { "magmom": -0.0 },
        "label": "Hf",
        "xyz": [7.819973965624691, 8.930673812206292, 2.7299802985548633]
      },
      {
        "species": [{ "element": "Hf", "occu": 1 }],
        "abc": [0.28371088, 0.18197406, 0.50496754],
        "properties": { "magmom": -0.0 },
        "label": "Hf",
        "xyz": [3.097369324375309, 1.9866744377937087, 2.7299802985548633]
      },
      {
        "species": [{ "element": "Hf", "occu": 1 }],
        "abc": [0.21628912, 0.31802594, 0.99503246],
        "properties": { "magmom": -0.0 },
        "label": "Hf",
        "xyz": [2.3613023206246915, 3.4719996872062917, 5.3793933214451375]
      },
      {
        "species": [{ "element": "Hf", "occu": 1 }],
        "abc": [0.78371088, 0.68197406, 0.99503246],
        "properties": { "magmom": -0.0 },
        "label": "Hf",
        "xyz": [8.55604096937531, 7.4453485627937095, 5.3793933214451375]
      },
      {
        "species": [{ "element": "Hf", "occu": 1 }],
        "abc": [0.18197406, 0.71628912, 0.49503246],
        "properties": { "magmom": -0.0 },
        "label": "Hf",
        "xyz": [1.9866719577937086, 7.819976445624691, 2.676268781445137]
      },
      {
        "species": [{ "element": "Hf", "occu": 1 }],
        "abc": [0.8180259400000001, 0.28371088, 0.49503246],
        "properties": { "magmom": -0.0 },
        "label": "Hf",
        "xyz": [8.930671332206293, 3.097371804375309, 2.676268781445137]
      },
      {
        "species": [{ "element": "Hf", "occu": 1 }],
        "abc": [0.68197406, 0.21628912, 0.00496754],
        "properties": { "magmom": -0.0 },
        "label": "Hf",
        "xyz": [7.4453460827937095, 2.3613048006246915, 0.026855758554863204]
      },
      {
        "species": [{ "element": "Hf", "occu": 1 }],
        "abc": [0.31802594, 0.78371088, 0.00496754],
        "properties": { "magmom": -0.0 },
        "label": "Hf",
        "xyz": [3.4719972072062917, 8.556043449375311, 0.026855758554863204]
      },
      {
        "species": [{ "element": "Hf", "occu": 1 }],
        "abc": [0.64053603, 0.4729138, 0.72168635],
        "properties": { "magmom": 0.0 },
        "label": "Hf",
        "xyz": [6.99295214482687, 5.1629650625339805, 3.9016161657360584]
      },
      {
        "species": [{ "element": "Hf", "occu": 1 }],
        "abc": [0.35946397, 0.5270862, 0.72168635],
        "properties": { "magmom": 0.0 },
        "label": "Hf",
        "xyz": [3.9243911451731317, 5.754383187466019, 3.9016161657360584]
      },
      {
        "species": [{ "element": "Hf", "occu": 1 }],
        "abc": [0.14053603, 0.972913799999999, 0.77831365],
        "properties": { "magmom": 0.0 },
        "label": "Hf",
        "xyz": [1.5342780198268693, 10.621636707533971, 4.207757454263942]
      },
      {
        "species": [{ "element": "Hf", "occu": 1 }],
        "abc": [0.85946397, 0.027086199999999002, 0.77831365],
        "properties": { "magmom": 0.0 },
        "label": "Hf",
        "xyz": [9.383065270173132, 0.2957115424660087, 4.207757454263942]
      },
      {
        "species": [{ "element": "Hf", "occu": 1 }],
        "abc": [0.5270862, 0.64053603, 0.27831365],
        "properties": { "magmom": 0.0 },
        "label": "Hf",
        "xyz": [5.754380707466019, 6.99295462482687, 1.5046329142639423]
      },
      {
        "species": [{ "element": "Hf", "occu": 1 }],
        "abc": [0.4729138, 0.35946397, 0.27831365],
        "properties": { "magmom": 0.0 },
        "label": "Hf",
        "xyz": [5.16296258253398, 3.9243936251731317, 1.5046329142639423]
      },
      {
        "species": [{ "element": "Hf", "occu": 1 }],
        "abc": [0.027086199999999002, 0.14053603, 0.22168635],
        "properties": { "magmom": 0.0 },
        "label": "Hf",
        "xyz": [0.29570906246600875, 1.5342804998268693, 1.198491625736058]
      },
      {
        "species": [{ "element": "Hf", "occu": 1 }],
        "abc": [0.972913799999999, 0.85946397, 0.22168635],
        "properties": { "magmom": 0.0 },
        "label": "Hf",
        "xyz": [10.62163422753397, 9.383067750173131, 1.198491625736058]
      },
      {
        "species": [{ "element": "Hf", "occu": 1 }],
        "abc": [0.60680652, 0.9174939200000001, 0.02603882],
        "properties": { "magmom": 0.0 },
        "label": "Hf",
        "xyz": [6.624714318945499, 10.01659987139289, 0.14077234666928562]
      },
      {
        "species": [{ "element": "Hf", "occu": 1 }],
        "abc": [0.39319348, 0.08250608, 0.02603882],
        "properties": { "magmom": 0.0 },
        "label": "Hf",
        "xyz": [4.292628971054501, 0.9007483786071121, 0.14077234666928562]
      },
      {
        "species": [{ "element": "Hf", "occu": 1 }],
        "abc": [0.10680652, 0.41749392, 0.47396118000000004],
        "properties": { "magmom": 0.0 },
        "label": "Hf",
        "xyz": [1.166042673945499, 4.557925746392888, 2.5623521933307147]
      },
      {
        "species": [{ "element": "Hf", "occu": 1 }],
        "abc": [0.89319348, 0.58250608, 0.47396118000000004],
        "properties": { "magmom": 0.0 },
        "label": "Hf",
        "xyz": [9.751300616054502, 6.359422503607113, 2.5623521933307147]
      },
      {
        "species": [{ "element": "Hf", "occu": 1 }],
        "abc": [0.08250608, 0.60680652, 0.97396118],
        "properties": { "magmom": 0.0 },
        "label": "Hf",
        "xyz": [0.9007458986071121, 6.624716798945499, 5.265476733330715]
      },
      {
        "species": [{ "element": "Hf", "occu": 1 }],
        "abc": [0.9174939200000001, 0.39319348, 0.97396118],
        "properties": { "magmom": 0.0 },
        "label": "Hf",
        "xyz": [10.01659739139289, 4.292631451054501, 5.265476733330715]
      },
      {
        "species": [{ "element": "Hf", "occu": 1 }],
        "abc": [0.58250608, 0.10680652, 0.52603882],
        "properties": { "magmom": 0.0 },
        "label": "Hf",
        "xyz": [6.359420023607113, 1.166045153945499, 2.843896886669286]
      },
      {
        "species": [{ "element": "Hf", "occu": 1 }],
        "abc": [0.41749392, 0.89319348, 0.52603882],
        "properties": { "magmom": 0.0 },
        "label": "Hf",
        "xyz": [4.557923266392888, 9.751303096054501, 2.843896886669286]
      },
      {
        "species": [{ "element": "Ge", "occu": 1 }],
        "abc": [0.70395989, 0.45906766, 0.21437971],
        "properties": { "magmom": 0.0 },
        "label": "Ge",
        "xyz": [7.68537238885337, 5.011802121865325, 1.1589901099581668]
      },
      {
        "species": [{ "element": "Ge", "occu": 1 }],
        "abc": [0.29604011, 0.54093234, 0.21437971],
        "properties": { "magmom": 0.0 },
        "label": "Ge",
        "xyz": [3.231970901146632, 5.9055461281346755, 1.1589901099581668]
      },
      {
        "species": [{ "element": "Ge", "occu": 1 }],
        "abc": [0.20395989, 0.95906766, 0.28562029],
        "properties": { "magmom": 0.0 },
        "label": "Ge",
        "xyz": [2.2266982638533688, 10.470473766865325, 1.5441344300418334]
      },
      {
        "species": [{ "element": "Ge", "occu": 1 }],
        "abc": [0.79604011, 0.04093234, 0.28562029],
        "properties": { "magmom": 0.0 },
        "label": "Ge",
        "xyz": [8.690645026146631, 0.4468744831346746, 1.5441344300418334]
      },
      {
        "species": [{ "element": "Ge", "occu": 1 }],
        "abc": [0.54093234, 0.70395989, 0.78562029],
        "properties": { "magmom": 0.0 },
        "label": "Ge",
        "xyz": [5.9055436481346755, 7.68537486885337, 4.247258970041833]
      },
      {
        "species": [{ "element": "Ge", "occu": 1 }],
        "abc": [0.45906766, 0.29604011, 0.78562029],
        "properties": { "magmom": 0.0 },
        "label": "Ge",
        "xyz": [5.011799641865325, 3.231973381146632, 4.247258970041833]
      },
      {
        "species": [{ "element": "Ge", "occu": 1 }],
        "abc": [0.04093234, 0.20395989, 0.71437971],
        "properties": { "magmom": 0.0 },
        "label": "Ge",
        "xyz": [0.4468720031346746, 2.226700743853369, 3.862114649958167]
      },
      {
        "species": [{ "element": "Ge", "occu": 1 }],
        "abc": [0.95906766, 0.79604011, 0.71437971],
        "properties": { "magmom": 0.0 },
        "label": "Ge",
        "xyz": [10.470471286865326, 8.69064750614663, 3.862114649958167]
      }
    ]
  },
  "task_ids": null,
  "uncorrected_energy_per_atom": null,
  "energy_per_atom": -37.85502795875,
  "formation_energy_per_atom": -0.523472021250007,
  "energy_above_hull": 0.017316758749998003,
  "is_stable": false,
  "equilibrium_reaction_energy_per_atom": null,
  "decomposes_to": null,
  "xas": null,
  "grain_boundaries": null,
  "band_gap": 0.0,
  "cbm": null,
  "vbm": null,
  "efermi": 5.32272764,
  "is_gap_direct": null,
  "is_metal": null,
  "es_source_calc_id": null,
  "bandstructure": null,
  "dos": null,
  "dos_energy_up": null,
  "dos_energy_down": null,
  "is_magnetic": null,
  "ordering": null,
  "total_magnetization": 1.3e-6,
  "total_magnetization_normalized_vol": null,
  "total_magnetization_normalized_formula_units": null,
  "num_magnetic_sites": null,
  "num_unique_magnetic_sites": null,
  "types_of_magnetic_species": null,
  "bulk_modulus": null,
  "shear_modulus": null,
  "universal_anisotropy": null,
  "homogeneous_poisson": null,
  "e_total": null,
  "e_ionic": null,
  "e_electronic": null,
  "n": null,
  "e_ij_max": null,
  "weighted_surface_energy_EV_PER_ANG2": null,
  "weighted_surface_energy": null,
  "weighted_work_function": null,
  "surface_anisotropy": null,
  "shape_factor": null,
  "has_reconstructed": null,
  "possible_species": null,
  "has_props": null,
  "theoretical": null,
  "database_IDs": null,
  "fields_not_requested": [
    "builder_meta",
    "nsites",
    "elements",
    "nelements",
    "composition",
    "composition_reduced",
    "chemsys",
    "symmetry",
    "property_name",
    "deprecated",
    "deprecation_reasons",
    "last_updated",
    "origins",
    "warnings",
    "task_ids",
    "uncorrected_energy_per_atom",
    "equilibrium_reaction_energy_per_atom",
    "decomposes_to",
    "xas",
    "grain_boundaries",
    "cbm",
    "vbm",
    "is_gap_direct",
    "is_metal",
    "es_source_calc_id",
    "bandstructure",
    "dos",
    "dos_energy_up",
    "dos_energy_down",
    "is_magnetic",
    "ordering",
    "total_magnetization_normalized_vol",
    "total_magnetization_normalized_formula_units",
    "num_magnetic_sites",
    "num_unique_magnetic_sites",
    "types_of_magnetic_species",
    "bulk_modulus",
    "shear_modulus",
    "universal_anisotropy",
    "homogeneous_poisson",
    "e_total",
    "e_ionic",
    "e_electronic",
    "n",
    "e_ij_max",
    "weighted_surface_energy_EV_PER_ANG2",
    "weighted_surface_energy",
    "weighted_work_function",
    "surface_anisotropy",
    "shape_factor",
    "has_reconstructed",
    "possible_species",
    "has_props",
    "theoretical",
    "database_IDs"
  ]
}
