{
  "builder_meta": null,
  "nsites": null,
  "elements": null,
  "nelements": null,
  "composition": null,
  "composition_reduced": null,
  "formula_pretty": "Hf3In4",
  "formula_anonymous": "A3B4",
  "chemsys": null,
  "volume": 333.77426771365714,
  "density": 9.897754931814532,
  "density_atomic": 23.84101912240408,
  "symmetry": null,
  "property_name": null,
  "material_id": "mp-1105078",
  "deprecated": null,
  "deprecation_reasons": null,
  "last_updated": null,
  "origins": null,
  "warnings": null,
  "structure": {
    "@module": "pymatgen.core.structure",
    "@class": "Structure",
    "charge": 0,
    "lattice": {
      "matrix": [
        [10.348948, 0.0, 0.0],
        [0.0, 10.348948, 0.0],
        [0.0, 0.0, 3.116451999999999]
      ],
      "pbc": [true, true, true],
      "a": 10.348948,
      "b": 10.348948,
      "c": 3.116451999999999,
      "alpha": 90.0,
      "beta": 90.0,
      "gamma": 90.0,
      "volume": 333.77426771365697
    },
    "properties": {},
    "sites": [
      {
        "species": [{ "element": "Hf", "occu": 1 }],
        "abc": [0.5, 0.0, 0.0],
        "properties": { "magmom": -0.002 },
        "label": "Hf",
        "xyz": [5.174474, 0.0, 0.0]
      },
      {
        "species": [{ "element": "Hf", "occu": 1 }],
        "abc": [0.0, 0.5, 0.0],
        "properties": { "magmom": 0.002 },
        "label": "Hf",
        "xyz": [0.0, 5.174474, 0.0]
      },
      {
        "species": [{ "element": "Hf", "occu": 1 }],
        "abc": [0.682515, 0.182514999999999, 0.5],
        "properties": { "magmom": -0.004 },
        "label": "Hf",
        "xyz": [7.06331224422, 1.8888382442199898, 1.5582259999999994]
      },
      {
        "species": [{ "element": "Hf", "occu": 1 }],
        "abc": [0.317484999999999, 0.817485, 0.5],
        "properties": { "magmom": -0.004 },
        "label": "Hf",
        "xyz": [3.28563575577999, 8.46010975578, 1.5582259999999994]
      },
      {
        "species": [{ "element": "Hf", "occu": 1 }],
        "abc": [0.182514999999999, 0.317484999999999, 0.5],
        "properties": { "magmom": 0.004 },
        "label": "Hf",
        "xyz": [1.8888382442199898, 3.28563575577999, 1.5582259999999994]
      },
      {
        "species": [{ "element": "Hf", "occu": 1 }],
        "abc": [0.817485, 0.682515, 0.5],
        "properties": { "magmom": 0.004 },
        "label": "Hf",
        "xyz": [8.46010975578, 7.06331224422, 1.5582259999999994]
      },
      {
        "species": [{ "element": "In", "occu": 1 }],
        "abc": [0.555914999999999, 0.708266, 0.0],
        "properties": { "magmom": 0.0 },
        "label": "In",
        "xyz": [5.75313542741999, 7.329808004167999, 0.0]
      },
      {
        "species": [{ "element": "In", "occu": 1 }],
        "abc": [0.444085, 0.291734, 0.0],
        "properties": { "magmom": 0.0 },
        "label": "In",
        "xyz": [4.59581257258, 3.019139995832, 0.0]
      },
      {
        "species": [{ "element": "In", "occu": 1 }],
        "abc": [0.055915, 0.791733999999999, 0.0],
        "properties": { "magmom": -0.0 },
        "label": "In",
        "xyz": [0.57866142742, 8.19361399583199, 0.0]
      },
      {
        "species": [{ "element": "In", "occu": 1 }],
        "abc": [0.944085, 0.208265999999999, 0.0],
        "properties": { "magmom": -0.0 },
        "label": "In",
        "xyz": [9.77028657258, 2.15533400416799, 0.0]
      },
      {
        "species": [{ "element": "In", "occu": 1 }],
        "abc": [0.291734, 0.555914999999999, 0.0],
        "properties": { "magmom": 0.0 },
        "label": "In",
        "xyz": [3.019139995832, 5.75313542741999, 0.0]
      },
      {
        "species": [{ "element": "In", "occu": 1 }],
        "abc": [0.708266, 0.444085, 0.0],
        "properties": { "magmom": 0.0 },
        "label": "In",
        "xyz": [7.329808004167999, 4.59581257258, 0.0]
      },
      {
        "species": [{ "element": "In", "occu": 1 }],
        "abc": [0.208265999999999, 0.055915, 0.0],
        "properties": { "magmom": -0.0 },
        "label": "In",
        "xyz": [2.15533400416799, 0.57866142742, 0.0]
      },
      {
        "species": [{ "element": "In", "occu": 1 }],
        "abc": [0.791733999999999, 0.944085, 0.0],
        "properties": { "magmom": -0.0 },
        "label": "In",
        "xyz": [8.19361399583199, 9.77028657258, 0.0]
      }
    ]
  },
  "task_ids": null,
  "uncorrected_energy_per_atom": null,
  "energy_per_atom": -32.37304630685714,
  "formation_energy_per_atom": -0.12038806542857301,
  "energy_above_hull": 0.076611915714288,
  "is_stable": false,
  "equilibrium_reaction_energy_per_atom": null,
  "decomposes_to": null,
  "xas": null,
  "grain_boundaries": null,
  "band_gap": 0.0,
  "cbm": null,
  "vbm": null,
  "efermi": 6.74477929,
  "is_gap_direct": null,
  "is_metal": null,
  "es_source_calc_id": null,
  "bandstructure": null,
  "dos": null,
  "dos_energy_up": null,
  "dos_energy_down": null,
  "is_magnetic": null,
  "ordering": null,
  "total_magnetization": 0.0007497,
  "total_magnetization_normalized_vol": null,
  "total_magnetization_normalized_formula_units": null,
  "num_magnetic_sites": null,
  "num_unique_magnetic_sites": null,
  "types_of_magnetic_species": null,
  "bulk_modulus": null,
  "shear_modulus": null,
  "universal_anisotropy": null,
  "homogeneous_poisson": null,
  "e_total": null,
  "e_ionic": null,
  "e_electronic": null,
  "n": null,
  "e_ij_max": null,
  "weighted_surface_energy_EV_PER_ANG2": null,
  "weighted_surface_energy": null,
  "weighted_work_function": null,
  "surface_anisotropy": null,
  "shape_factor": null,
  "has_reconstructed": null,
  "possible_species": null,
  "has_props": null,
  "theoretical": null,
  "database_IDs": null,
  "fields_not_requested": [
    "builder_meta",
    "nsites",
    "elements",
    "nelements",
    "composition",
    "composition_reduced",
    "chemsys",
    "symmetry",
    "property_name",
    "deprecated",
    "deprecation_reasons",
    "last_updated",
    "origins",
    "warnings",
    "task_ids",
    "uncorrected_energy_per_atom",
    "equilibrium_reaction_energy_per_atom",
    "decomposes_to",
    "xas",
    "grain_boundaries",
    "cbm",
    "vbm",
    "is_gap_direct",
    "is_metal",
    "es_source_calc_id",
    "bandstructure",
    "dos",
    "dos_energy_up",
    "dos_energy_down",
    "is_magnetic",
    "ordering",
    "total_magnetization_normalized_vol",
    "total_magnetization_normalized_formula_units",
    "num_magnetic_sites",
    "num_unique_magnetic_sites",
    "types_of_magnetic_species",
    "bulk_modulus",
    "shear_modulus",
    "universal_anisotropy",
    "homogeneous_poisson",
    "e_total",
    "e_ionic",
    "e_electronic",
    "n",
    "e_ij_max",
    "weighted_surface_energy_EV_PER_ANG2",
    "weighted_surface_energy",
    "weighted_work_function",
    "surface_anisotropy",
    "shape_factor",
    "has_reconstructed",
    "possible_species",
    "has_props",
    "theoretical",
    "database_IDs"
  ]
}
