{"builder_meta": null, "nsites": null, "elements": null, "nelements": null, "composition": null, "composition_reduced": null, "formula_pretty": "Hf3I", "formula_anonymous": "AB3", "chemsys": null, "volume": 180.44174881683156, "density": 12.191177389551784, "density_atomic": 22.555218602103945, "symmetry": null, "property_name": null, "material_id": "mp-1184661", "deprecated": null, "deprecation_reasons": null, "last_updated": null, "origins": null, "warnings": null, "structure": {"@module": "pymatgen.core.structure", "@class": "Structure", "charge": 0, "lattice": {"matrix": [[3.125329, -5.413228, 0.0], [3.125329, 5.413228, 0.0], [0.0, 0.0, 5.332796]], "pbc": [true, true, true], "a": 6.250657464477237, "b": 6.250657464477237, "c": 5.332796, "alpha": 90.0, "beta": 90.0, "gamma": 119.99999433181208, "volume": 180.44174881683156}, "properties": {}, "sites": [{"species": [{"element": "Hf", "occu": 1}], "abc": [0.838492, 0.161507999999999, 0.75], "properties": {"magmom": -0.0}, "label": "Hf", "xyz": [3.1253289999999967, -3.664668744352005, 3.999597]}, {"species": [{"element": "Hf", "occu": 1}], "abc": [0.323015999999999, 0.161507999999999, 0.75], "properties": {"magmom": -0.0}, "label": "Hf", "xyz": [1.5142969083959938, -0.874279627824, 3.999597]}, {"species": [{"element": "Hf", "occu": 1}], "abc": [0.838492, 0.676983999999999, 0.75], "properties": {"magmom": -0.0}, "label": "Hf", "xyz": [4.736361091603997, -0.8742796278240048, 3.999597]}, {"species": [{"element": "Hf", "occu": 1}], "abc": [0.161507999999999, 0.838492, 0.25], "properties": {"magmom": -0.0}, "label": "Hf", "xyz": [3.1253289999999967, 3.664668744352005, 1.333199]}, {"species": [{"element": "Hf", "occu": 1}], "abc": [0.676983999999999, 0.838492, 0.25], "properties": {"magmom": -0.0}, "label": "Hf", "xyz": [4.736361091603997, 0.8742796278240048, 1.333199]}, {"species": [{"element": "Hf", "occu": 1}], "abc": [0.161507999999999, 0.323015999999999, 0.25], "properties": {"magmom": -0.0}, "label": "Hf", "xyz": [1.5142969083959938, 0.874279627824, 1.333199]}, {"species": [{"element": "I", "occu": 1}], "abc": [0.666667, 0.333333, 0.25], "properties": {"magmom": 0.0}, "label": "I", "xyz": [3.125329, -1.804412942152, 1.333199]}, {"species": [{"element": "I", "occu": 1}], "abc": [0.333333, 0.666667, 0.75], "properties": {"magmom": 0.0}, "label": "I", "xyz": [3.125329, 1.804412942152, 3.999597]}]}, "task_ids": null, "uncorrected_energy_per_atom": null, "energy_per_atom": -7.575969431250001, "formation_energy_per_atom": 0.272925495, "energy_above_hull": 0.6610891454166681, "is_stable": false, "equilibrium_reaction_energy_per_atom": null, "decomposes_to": null, "xas": null, "grain_boundaries": null, "band_gap": 0.0, "cbm": null, "vbm": null, "efermi": 7.08562889, "is_gap_direct": null, "is_metal": null, "es_source_calc_id": null, "bandstructure": null, "dos": null, "dos_energy_up": null, "dos_energy_down": null, "is_magnetic": null, "ordering": null, "total_magnetization": 0.0007670999999990001, "total_magnetization_normalized_vol": null, "total_magnetization_normalized_formula_units": null, "num_magnetic_sites": null, "num_unique_magnetic_sites": null, "types_of_magnetic_species": null, "bulk_modulus": null, "shear_modulus": null, "universal_anisotropy": null, "homogeneous_poisson": null, "e_total": null, "e_ionic": null, "e_electronic": null, "n": null, "e_ij_max": null, "weighted_surface_energy_EV_PER_ANG2": null, "weighted_surface_energy": null, "weighted_work_function": null, "surface_anisotropy": null, "shape_factor": null, "has_reconstructed": null, "possible_species": null, "has_props": null, "theoretical": null, "database_IDs": null, "fields_not_requested": ["builder_meta", "nsites", "elements", "nelements", "composition", "composition_reduced", "chemsys", "symmetry", "property_name", "deprecated", "deprecation_reasons", "last_updated", "origins", "warnings", "task_ids", "uncorrected_energy_per_atom", "equilibrium_reaction_energy_per_atom", "decomposes_to", "xas", "grain_boundaries", "cbm", "vbm", "is_gap_direct", "is_metal", "es_source_calc_id", "bandstructure", "dos", "dos_energy_up", "dos_energy_down", "is_magnetic", "ordering", "total_magnetization_normalized_vol", "total_magnetization_normalized_formula_units", "num_magnetic_sites", "num_unique_magnetic_sites", "types_of_magnetic_species", "bulk_modulus", "shear_modulus", "universal_anisotropy", "homogeneous_poisson", "e_total", "e_ionic", "e_electronic", "n", "e_ij_max", "weighted_surface_energy_EV_PER_ANG2", "weighted_surface_energy", "weighted_work_function", "surface_anisotropy", "shape_factor", "has_reconstructed", "possible_species", "has_props", "theoretical", "database_IDs"]}