{
  "builder_meta": null,
  "nsites": null,
  "elements": null,
  "nelements": null,
  "composition": null,
  "composition_reduced": null,
  "formula_pretty": "Hf3Ni7",
  "formula_anonymous": "A3B7",
  "chemsys": null,
  "volume": 271.7298631576131,
  "density": 11.56595466757286,
  "density_atomic": 13.586493157880657,
  "symmetry": null,
  "property_name": null,
  "material_id": "mp-27166",
  "deprecated": null,
  "deprecation_reasons": null,
  "last_updated": null,
  "origins": null,
  "warnings": null,
  "structure": {
    "@module": "pymatgen.core.structure",
    "@class": "Structure",
    "charge": 0,
    "lattice": {
      "matrix": [
        [6.50386, 0.0, 0.0],
        [-2.527976, 6.066964, 0.0],
        [-1.916615, -2.623495, 6.88644]
      ],
      "pbc": [true, true, true],
      "a": 6.50386,
      "b": 6.572572923435083,
      "c": 7.61440706469322,
      "alpha": 102.78100775246365,
      "beta": 104.57866672130532,
      "gamma": 112.6204630961316,
      "volume": 271.7298631576131
    },
    "properties": {},
    "sites": [
      {
        "species": [{ "element": "Hf", "occu": 1 }],
        "abc": [0.500383, 0.727337, 0.868803],
        "properties": { "magmom": -0.0 },
        "label": "Hf",
        "xyz": [-0.24943036337699964, 2.133427068383, 5.98295973132]
      },
      {
        "species": [{ "element": "Hf", "occu": 1 }],
        "abc": [0.499617, 0.272663, 0.131196999999999],
        "properties": { "magmom": -0.0 },
        "label": "Hf",
        "xyz": [2.3086993633770025, 1.3100419316170024, 0.9034802686799932]
      },
      {
        "species": [{ "element": "Hf", "occu": 1 }],
        "abc": [0.900886, 0.544694999999999, 0.778059],
        "properties": { "magmom": -0.0 },
        "label": "Hf",
        "xyz": [2.9910209823550025, 1.263411059774994, 5.35805661996]
      },
      {
        "species": [{ "element": "Hf", "occu": 1 }],
        "abc": [0.099114, 0.455304999999999, 0.221941],
        "properties": { "magmom": -0.0 },
        "label": "Hf",
        "xyz": [-0.9317519823549973, 2.1800579402249936, 1.52838338004]
      },
      {
        "species": [{ "element": "Hf", "occu": 1 }],
        "abc": [0.842256, 0.974328, 0.624703],
        "properties": { "magmom": -0.0 },
        "label": "Hf",
        "xyz": [1.8175221676870008, 4.272307703206999, 4.30197972732]
      },
      {
        "species": [{ "element": "Hf", "occu": 1 }],
        "abc": [0.157744, 0.025672, 0.375297],
        "properties": { "magmom": -0.0 },
        "label": "Hf",
        "xyz": [0.2417468323130001, -0.8288387032069999, 2.58446027268]
      },
      {
        "species": [{ "element": "Ni", "occu": 1 }],
        "abc": [0.5, 0.5, 0.5],
        "properties": { "magmom": 0.0 },
        "label": "Ni",
        "xyz": [1.0296345000000002, 1.7217344999999997, 3.44322]
      },
      {
        "species": [{ "element": "Ni", "occu": 1 }],
        "abc": [0.0, 0.0, 0.0],
        "properties": { "magmom": 0.0 },
        "label": "Ni",
        "xyz": [0.0, 0.0, 0.0]
      },
      {
        "species": [{ "element": "Ni", "occu": 1 }],
        "abc": [0.771227, 0.063318, 0.215055],
        "properties": { "magmom": -0.0 },
        "label": "Ni",
        "xyz": [4.443708413027, -0.18004769067300008, 1.4809633542]
      },
      {
        "species": [{ "element": "Ni", "occu": 1 }],
        "abc": [0.228772999999999, 0.9366819999999991, 0.784945],
        "properties": { "magmom": -0.0 },
        "label": "Ni",
        "xyz": [-2.3844394130270037, 3.623516690672994, 5.4054766458]
      },
      {
        "species": [{ "element": "Ni", "occu": 1 }],
        "abc": [0.617475, 0.17601000000000003, 0.456740999999999],
        "properties": { "magmom": 0.0 },
        "label": "Ni",
        "xyz": [2.695625246025002, -0.1304113961549973, 3.1453194920399934]
      },
      {
        "species": [{ "element": "Ni", "occu": 1 }],
        "abc": [0.382525, 0.8239900000000001, 0.543258999999999],
        "properties": { "magmom": 0.0 },
        "label": "Ni",
        "xyz": [-0.6363562460249981, 3.5738803961550025, 3.7411205079599936]
      },
      {
        "species": [{ "element": "Ni", "occu": 1 }],
        "abc": [0.445324999999999, 0.30007, 0.734808],
        "properties": { "magmom": 0.0 },
        "label": "Ni",
        "xyz": [0.7294176612599939, -0.10725122648000007, 5.060211203520001]
      },
      {
        "species": [{ "element": "Ni", "occu": 1 }],
        "abc": [0.554675, 0.69993, 0.265192],
        "properties": { "magmom": 0.0 },
        "label": "Ni",
        "xyz": [1.3298513387400006, 3.5507202264799997, 1.82622879648]
      },
      {
        "species": [{ "element": "Ni", "occu": 1 }],
        "abc": [0.180757, 0.359365999999999, 0.906038],
        "properties": { "magmom": -0.0 },
        "label": "Ni",
        "xyz": [-1.4693764225659973, -0.19672557798600643, 6.23937632472]
      },
      {
        "species": [{ "element": "Ni", "occu": 1 }],
        "abc": [0.819242999999999, 0.640633999999999, 0.093961999999999],
        "properties": { "magmom": -0.0 },
        "label": "Ni",
        "xyz": [3.528645422565999, 3.6401945779859965, 0.6470636752799932]
      },
      {
        "species": [{ "element": "Ni", "occu": 1 }],
        "abc": [0.106402, 0.383571999999999, 0.559445],
        "properties": { "magmom": 0.0 },
        "label": "Ni",
        "xyz": [-1.3498777772269972, 0.8594163551329939, 3.8525844258]
      },
      {
        "species": [{ "element": "Ni", "occu": 1 }],
        "abc": [0.893598, 0.616428, 0.440555],
        "properties": { "magmom": 0.0 },
        "label": "Ni",
        "xyz": [3.4091467772270008, 2.5840526448669996, 3.0338555742]
      },
      {
        "species": [{ "element": "Ni", "occu": 1 }],
        "abc": [0.278313, 0.827097, 0.107457],
        "properties": { "magmom": 0.0 },
        "label": "Ni",
        "xyz": [-0.48672627554699976, 4.736054821293, 0.73999618308]
      },
      {
        "species": [{ "element": "Ni", "occu": 1 }],
        "abc": [0.721687, 0.172903, 0.892543],
        "properties": { "magmom": 0.0 },
        "label": "Ni",
        "xyz": [2.545995275547001, -1.292585821293, 6.14644381692]
      }
    ]
  },
  "task_ids": null,
  "uncorrected_energy_per_atom": null,
  "energy_per_atom": -22.4176901998,
  "formation_energy_per_atom": -0.48506357080000206,
  "energy_above_hull": 0.032368249400004004,
  "is_stable": false,
  "equilibrium_reaction_energy_per_atom": null,
  "decomposes_to": null,
  "xas": null,
  "grain_boundaries": null,
  "band_gap": 0.0,
  "cbm": null,
  "vbm": null,
  "efermi": 6.88911573,
  "is_gap_direct": null,
  "is_metal": null,
  "es_source_calc_id": null,
  "bandstructure": null,
  "dos": null,
  "dos_energy_up": null,
  "dos_energy_down": null,
  "is_magnetic": null,
  "ordering": null,
  "total_magnetization": 0.0002674,
  "total_magnetization_normalized_vol": null,
  "total_magnetization_normalized_formula_units": null,
  "num_magnetic_sites": null,
  "num_unique_magnetic_sites": null,
  "types_of_magnetic_species": null,
  "bulk_modulus": null,
  "shear_modulus": null,
  "universal_anisotropy": null,
  "homogeneous_poisson": null,
  "e_total": null,
  "e_ionic": null,
  "e_electronic": null,
  "n": null,
  "e_ij_max": null,
  "weighted_surface_energy_EV_PER_ANG2": null,
  "weighted_surface_energy": null,
  "weighted_work_function": null,
  "surface_anisotropy": null,
  "shape_factor": null,
  "has_reconstructed": null,
  "possible_species": null,
  "has_props": null,
  "theoretical": null,
  "database_IDs": null,
  "fields_not_requested": [
    "builder_meta",
    "nsites",
    "elements",
    "nelements",
    "composition",
    "composition_reduced",
    "chemsys",
    "symmetry",
    "property_name",
    "deprecated",
    "deprecation_reasons",
    "last_updated",
    "origins",
    "warnings",
    "task_ids",
    "uncorrected_energy_per_atom",
    "equilibrium_reaction_energy_per_atom",
    "decomposes_to",
    "xas",
    "grain_boundaries",
    "cbm",
    "vbm",
    "is_gap_direct",
    "is_metal",
    "es_source_calc_id",
    "bandstructure",
    "dos",
    "dos_energy_up",
    "dos_energy_down",
    "is_magnetic",
    "ordering",
    "total_magnetization_normalized_vol",
    "total_magnetization_normalized_formula_units",
    "num_magnetic_sites",
    "num_unique_magnetic_sites",
    "types_of_magnetic_species",
    "bulk_modulus",
    "shear_modulus",
    "universal_anisotropy",
    "homogeneous_poisson",
    "e_total",
    "e_ionic",
    "e_electronic",
    "n",
    "e_ij_max",
    "weighted_surface_energy_EV_PER_ANG2",
    "weighted_surface_energy",
    "weighted_work_function",
    "surface_anisotropy",
    "shape_factor",
    "has_reconstructed",
    "possible_species",
    "has_props",
    "theoretical",
    "database_IDs"
  ]
}
