{
  "builder_meta": null,
  "nsites": null,
  "elements": null,
  "nelements": null,
  "composition": null,
  "composition_reduced": null,
  "formula_pretty": "Hf3N4",
  "formula_anonymous": "A3B4",
  "chemsys": null,
  "volume": 335.4955447440837,
  "density": 11.710480923591549,
  "density_atomic": 11.981983740860132,
  "symmetry": null,
  "property_name": null,
  "material_id": "mp-776470",
  "deprecated": null,
  "deprecation_reasons": null,
  "last_updated": null,
  "origins": null,
  "warnings": null,
  "structure": {
    "@module": "pymatgen.core.structure",
    "@class": "Structure",
    "charge": 0,
    "lattice": {
      "matrix": [
        [9.75732786, 0.0, 0.0],
        [0.0, 10.65892137, 0.0],
        [0.0, 0.0, 3.22583835]
      ],
      "pbc": [true, true, true],
      "a": 9.75732786,
      "b": 10.65892137,
      "c": 3.22583835,
      "alpha": 90.0,
      "beta": 90.0,
      "gamma": 90.0,
      "volume": 335.4955447440837
    },
    "properties": {},
    "sites": [
      {
        "species": [{ "element": "Hf", "occu": 1 }],
        "abc": [0.06941974000000001, 0.1246731, 0.75299057],
        "properties": { "magmom": -0.0 },
        "label": "Hf",
        "xyz": [0.6773511631359564, 1.328880769854147, 2.4290258578943598]
      },
      {
        "species": [{ "element": "Hf", "occu": 1 }],
        "abc": [0.10602315, 0.593226199999999, 0.75303017],
        "properties": { "magmom": 0.0 },
        "label": "Hf",
        "xyz": [1.034502635299959, 6.3231514204238835, 2.4291536010930197]
      },
      {
        "species": [{ "element": "Hf", "occu": 1 }],
        "abc": [0.22710293, 0.853445999999999, 0.75299914],
        "properties": { "magmom": 0.0 },
        "label": "Hf",
        "xyz": [2.21591774597663, 9.09681380754101, 2.429053503329019]
      },
      {
        "species": [{ "element": "Hf", "occu": 1 }],
        "abc": [0.27289707, 0.353446, 0.25299914],
        "properties": { "magmom": 0.0 },
        "label": "Hf",
        "xyz": [2.6627461840233706, 3.76735312254102, 0.8161343283290191]
      },
      {
        "species": [{ "element": "Hf", "occu": 1 }],
        "abc": [0.39397685, 0.0932262, 0.25303017],
        "properties": { "magmom": 0.0 },
        "label": "Hf",
        "xyz": [3.844161294700041, 0.993690735423894, 0.8162344260930195]
      },
      {
        "species": [{ "element": "Hf", "occu": 1 }],
        "abc": [0.43058026, 0.6246731, 0.25299057],
        "properties": { "magmom": -0.0 },
        "label": "Hf",
        "xyz": [4.201312766864044, 6.658341454854146, 0.8161066828943596]
      },
      {
        "species": [{ "element": "Hf", "occu": 1 }],
        "abc": [0.5694197400000001, 0.375326899999999, 0.75299057],
        "properties": { "magmom": -0.0 },
        "label": "Hf",
        "xyz": [5.556015093135957, 4.000579915145843, 2.4290258578943598]
      },
      {
        "species": [{ "element": "Hf", "occu": 1 }],
        "abc": [0.6060231500000001, 0.9067738, 0.75303017],
        "properties": { "magmom": 0.0 },
        "label": "Hf",
        "xyz": [5.91316656529996, 9.665230634576105, 2.4291536010930197]
      },
      {
        "species": [{ "element": "Hf", "occu": 1 }],
        "abc": [0.72710293, 0.646554, 0.75299914],
        "properties": { "magmom": 0.0 },
        "label": "Hf",
        "xyz": [7.09458167597663, 6.89156824745898, 2.429053503329019]
      },
      {
        "species": [{ "element": "Hf", "occu": 1 }],
        "abc": [0.77289707, 0.146554, 0.25299914],
        "properties": { "magmom": 0.0 },
        "label": "Hf",
        "xyz": [7.54141011402337, 1.56210756245898, 0.8161343283290191]
      },
      {
        "species": [{ "element": "Hf", "occu": 1 }],
        "abc": [0.89397685, 0.406773799999999, 0.25303017],
        "properties": { "magmom": 0.0 },
        "label": "Hf",
        "xyz": [8.722825224700042, 4.335769949576095, 0.8162344260930195]
      },
      {
        "species": [{ "element": "Hf", "occu": 1 }],
        "abc": [0.93058026, 0.875326899999999, 0.25299057],
        "properties": { "magmom": -0.0 },
        "label": "Hf",
        "xyz": [9.079976696864044, 9.330040600145843, 0.8161066828943596]
      },
      {
        "species": [{ "element": "N", "occu": 1 }],
        "abc": [0.00854063, 0.77539126, 0.75298815],
        "properties": { "magmom": -0.0 },
        "label": "N",
        "xyz": [0.08333372704095181, 8.264834471325226, 2.4290180513655524]
      },
      {
        "species": [{ "element": "N", "occu": 1 }],
        "abc": [0.10346002, 0.47032329, 0.25302597],
        "properties": { "magmom": -0.0 },
        "label": "N",
        "xyz": [1.0094933355421571, 5.0131389665897075, 0.8162208775719495]
      },
      {
        "species": [{ "element": "N", "occu": 1 }],
        "abc": [0.1411965, 0.98206525, 0.25298675],
        "properties": { "magmom": -0.0 },
        "label": "N",
        "xyz": [1.37770054318449, 10.467756279959392, 0.8160943601918624]
      },
      {
        "species": [{ "element": "N", "occu": 1 }],
        "abc": [0.23856265000000001, 0.71479866, 0.25298126],
        "properties": { "magmom": -0.0 },
        "label": "N",
        "xyz": [2.327733991200429, 7.6189827123213645, 0.816076650339321]
      },
      {
        "species": [{ "element": "N", "occu": 1 }],
        "abc": [0.26143735, 0.21479866, 0.75298126],
        "properties": { "magmom": -0.0 },
        "label": "N",
        "xyz": [2.550929938799571, 2.289522027321364, 2.428995825339321]
      },
      {
        "species": [{ "element": "N", "occu": 1 }],
        "abc": [0.3588035, 0.48206525, 0.75298675],
        "properties": { "magmom": -0.0 },
        "label": "N",
        "xyz": [3.50096338681551, 5.138295594959392, 2.4290135351918627]
      },
      {
        "species": [{ "element": "N", "occu": 1 }],
        "abc": [0.39653998, 0.9703232900000001, 0.75302597],
        "properties": { "magmom": -0.0 },
        "label": "N",
        "xyz": [3.869170594457843, 10.342599651589708, 2.4291400525719498]
      },
      {
        "species": [{ "element": "N", "occu": 1 }],
        "abc": [0.49145937, 0.27539126, 0.25298815],
        "properties": { "magmom": -0.0 },
        "label": "N",
        "xyz": [4.7953302029590485, 2.9353737863252265, 0.8160988763655526]
      },
      {
        "species": [{ "element": "N", "occu": 1 }],
        "abc": [0.50854063, 0.72460874, 0.75298815],
        "properties": { "magmom": -0.0 },
        "label": "N",
        "xyz": [4.9619976570409525, 7.723547583674773, 2.4290180513655524]
      },
      {
        "species": [{ "element": "N", "occu": 1 }],
        "abc": [0.60346002, 0.029676710000000002, 0.25302597],
        "properties": { "magmom": -0.0 },
        "label": "N",
        "xyz": [5.888157265542157, 0.3163217184102927, 0.8162208775719495]
      },
      {
        "species": [{ "element": "N", "occu": 1 }],
        "abc": [0.6411965, 0.51793475, 0.25298675],
        "properties": { "magmom": -0.0 },
        "label": "N",
        "xyz": [6.256364473184489, 5.520625775040608, 0.8160943601918624]
      },
      {
        "species": [{ "element": "N", "occu": 1 }],
        "abc": [0.73856265, 0.78520134, 0.25298126],
        "properties": { "magmom": -0.0 },
        "label": "N",
        "xyz": [7.206397921200429, 8.369399342678635, 0.816076650339321]
      },
      {
        "species": [{ "element": "N", "occu": 1 }],
        "abc": [0.76143735, 0.28520134, 0.75298126],
        "properties": { "magmom": -0.0 },
        "label": "N",
        "xyz": [7.4295938687995715, 3.0399386576786362, 2.428995825339321]
      },
      {
        "species": [{ "element": "N", "occu": 1 }],
        "abc": [0.858803499999999, 0.01793475, 0.75298675],
        "properties": { "magmom": -0.0 },
        "label": "N",
        "xyz": [8.379627316815501, 0.1911650900406075, 2.4290135351918627]
      },
      {
        "species": [{ "element": "N", "occu": 1 }],
        "abc": [0.89653998, 0.52967671, 0.75302597],
        "properties": { "magmom": -0.0 },
        "label": "N",
        "xyz": [8.747834524457843, 5.645782403410293, 2.4291400525719498]
      },
      {
        "species": [{ "element": "N", "occu": 1 }],
        "abc": [0.9914593700000001, 0.22460874, 0.25298815],
        "properties": { "magmom": -0.0 },
        "label": "N",
        "xyz": [9.673994132959049, 2.394086898674774, 0.8160988763655526]
      }
    ]
  },
  "task_ids": null,
  "uncorrected_energy_per_atom": null,
  "energy_per_atom": -26.54098193607143,
  "formation_energy_per_atom": -1.9739463853571442,
  "energy_above_hull": 0.0,
  "is_stable": true,
  "equilibrium_reaction_energy_per_atom": null,
  "decomposes_to": null,
  "xas": null,
  "grain_boundaries": null,
  "band_gap": 1.2648000000000001,
  "cbm": null,
  "vbm": null,
  "efermi": 5.27134128,
  "is_gap_direct": null,
  "is_metal": null,
  "es_source_calc_id": null,
  "bandstructure": null,
  "dos": null,
  "dos_energy_up": null,
  "dos_energy_down": null,
  "is_magnetic": null,
  "ordering": null,
  "total_magnetization": 0.0,
  "total_magnetization_normalized_vol": null,
  "total_magnetization_normalized_formula_units": null,
  "num_magnetic_sites": null,
  "num_unique_magnetic_sites": null,
  "types_of_magnetic_species": null,
  "bulk_modulus": null,
  "shear_modulus": null,
  "universal_anisotropy": null,
  "homogeneous_poisson": null,
  "e_total": null,
  "e_ionic": null,
  "e_electronic": null,
  "n": null,
  "e_ij_max": null,
  "weighted_surface_energy_EV_PER_ANG2": null,
  "weighted_surface_energy": null,
  "weighted_work_function": null,
  "surface_anisotropy": null,
  "shape_factor": null,
  "has_reconstructed": null,
  "possible_species": null,
  "has_props": null,
  "theoretical": null,
  "database_IDs": null,
  "fields_not_requested": [
    "builder_meta",
    "nsites",
    "elements",
    "nelements",
    "composition",
    "composition_reduced",
    "chemsys",
    "symmetry",
    "property_name",
    "deprecated",
    "deprecation_reasons",
    "last_updated",
    "origins",
    "warnings",
    "task_ids",
    "uncorrected_energy_per_atom",
    "equilibrium_reaction_energy_per_atom",
    "decomposes_to",
    "xas",
    "grain_boundaries",
    "cbm",
    "vbm",
    "is_gap_direct",
    "is_metal",
    "es_source_calc_id",
    "bandstructure",
    "dos",
    "dos_energy_up",
    "dos_energy_down",
    "is_magnetic",
    "ordering",
    "total_magnetization_normalized_vol",
    "total_magnetization_normalized_formula_units",
    "num_magnetic_sites",
    "num_unique_magnetic_sites",
    "types_of_magnetic_species",
    "bulk_modulus",
    "shear_modulus",
    "universal_anisotropy",
    "homogeneous_poisson",
    "e_total",
    "e_ionic",
    "e_electronic",
    "n",
    "e_ij_max",
    "weighted_surface_energy_EV_PER_ANG2",
    "weighted_surface_energy",
    "weighted_work_function",
    "surface_anisotropy",
    "shape_factor",
    "has_reconstructed",
    "possible_species",
    "has_props",
    "theoretical",
    "database_IDs"
  ]
}
