{"builder_meta": null, "nsites": null, "elements": null, "nelements": null, "composition": null, "composition_reduced": null, "formula_pretty": "Hf3P2", "formula_anonymous": "A2B3", "chemsys": null, "volume": 356.256682214546, "density": 11.138431217702932, "density_atomic": 17.8128341107273, "symmetry": null, "property_name": null, "material_id": "mp-20672", "deprecated": null, "deprecation_reasons": null, "last_updated": null, "origins": null, "warnings": null, "structure": {"@module": "pymatgen.core.structure", "@class": "Structure", "charge": 0, "lattice": {"matrix": [[3.57703592, -9e-08, 2.4e-07], [-2.1e-07, 9.80707377, 0.00029633000000000003], [-3.4e-07, 0.00030471000000000003, 10.15547581]], "pbc": [true, true, true], "a": 3.577035920000009, "b": 9.807073774476947, "c": 10.155475814571343, "alpha": 89.9965496225247, "beta": 89.99999807403518, "gamma": 90.00000266835524, "volume": 356.256682214546}, "properties": {}, "sites": [{"species": [{"element": "Hf", "occu": 1}], "abc": [0.24999985, 0.79821083, 0.21603487000000002], "properties": {"magmom": 0.0}, "label": "Hf", "xyz": [0.8942582023684819, 7.828178299308181, 2.194173490216713]}, {"species": [{"element": "Hf", "occu": 1}], "abc": [0.74999987, 0.2017738, 0.78397054], "properties": {"magmom": 0.0}, "label": "Hf", "xyz": [2.6827761660628493, 1.9790493576164814, 7.96165382635276]}, {"species": [{"element": "Hf", "occu": 1}], "abc": [0.74999985, 0.29819595, 0.28390033], "properties": {"magmom": -0.0}, "label": "Hf", "xyz": [2.6827762442973504, 2.9245161193347995, 2.8832314781718447]}, {"species": [{"element": "Hf", "occu": 1}], "abc": [0.24999989, 0.70182354, 0.71610693], "properties": {"magmom": 0.0}, "label": "Hf", "xyz": [0.8942581956667492, 6.8830534127451966, 7.272614636357945]}, {"species": [{"element": "Hf", "occu": 1}], "abc": [0.24999977, 0.43423361, 0.8745602], "properties": {"magmom": 0.0}, "label": "Hf", "xyz": [0.8942577687422124, 4.2588275114219725, 8.881703691934359]}, {"species": [{"element": "Hf", "occu": 1}], "abc": [0.74999981, 0.565802599999999, 0.1254495], "properties": {"magmom": 0.0}, "label": "Hf", "xyz": [2.6827760988917992, 5.548905995674956, 1.2741672069110075]}, {"species": [{"element": "Hf", "occu": 1}], "abc": [0.74999971, 0.93421063, 0.62549468], "properties": {"magmom": -0.0}, "label": "Hf", "xyz": [2.68277549380716, 9.162063092112145, 6.352473106659609]}, {"species": [{"element": "Hf", "occu": 1}], "abc": [0.2499998, 0.06575727, 0.37450453], "properties": {"magmom": -0.0}, "label": "Hf", "xyz": [0.8942581234522491, 0.6450004905791623, 3.8032912410021904]}, {"species": [{"element": "Hf", "occu": 1}], "abc": [0.24999963, 0.3732102, 0.54543365], "properties": {"magmom": -0.0}, "label": "Hf", "xyz": [0.8942573926751267, 3.660266139703979, 5.539248891913483]}, {"species": [{"element": "Hf", "occu": 1}], "abc": [0.74999962, 0.62682705, 0.45455622], "properties": {"magmom": -0.0}, "label": "Hf", "xyz": [2.6827752945435552, 6.14747756070731, 4.616420624154674]}, {"species": [{"element": "Hf", "occu": 1}], "abc": [0.74999973, 0.87319879, 0.95459115], "properties": {"magmom": -0.0}, "label": "Hf", "xyz": [2.682775466267565, 8.56381575537408, 9.694586267262459]}, {"species": [{"element": "Hf", "occu": 1}], "abc": [0.24999967, 0.12676583, 0.04542268], "properties": {"magmom": 0.0}, "label": "Hf", "xyz": [0.8942577575136109, 1.2432156645701316, 0.4613265524836955]}, {"species": [{"element": "P", "occu": 1}], "abc": [0.24999966, 0.6778316, 0.9725583], "properties": {"magmom": -0.0}, "label": "P", "xyz": [0.8942572907933294, 6.647840830576756, 9.876993211302668]}, {"species": [{"element": "P", "occu": 1}], "abc": [0.7499996800000001, 0.32219236, 0.02744381], "properties": {"magmom": -0.0}, "label": "P", "xyz": [2.682775718357215, 3.159772537553771, 0.2788006038511981]}, {"species": [{"element": "P", "occu": 1}], "abc": [0.74999962, 0.17779917, 0.5274519400000001], "properties": {"magmom": 0.0}, "label": "P", "xyz": [2.6827753640548653, 1.7438502288154427, 5.356578284835527]}, {"species": [{"element": "P", "occu": 1}], "abc": [0.24999958, 0.82218696, 0.47253473], "properties": {"magmom": 0.0}, "label": "P", "xyz": [0.8942571443238438, 8.063392133009655, 4.799058718561638]}, {"species": [{"element": "P", "occu": 1}], "abc": [0.24999982, 0.99869755, 0.80714034], "properties": {"magmom": -0.0}, "label": "P", "xyz": [0.8942578519793334, 9.79454646800128, 8.197190202190123]}, {"species": [{"element": "P", "occu": 1}], "abc": [0.74999986, 0.0012576500000000001, 0.19285755000000002], "properties": {"magmom": -0.0}, "label": "P", "xyz": [2.6827763733792978, 0.012392564450913602, 1.9585607364802566]}, {"species": [{"element": "P", "occu": 1}], "abc": [0.74999979, 0.49873868, 0.69288689], "properties": {"magmom": 0.0}, "label": "P", "xyz": [2.6827758485057918, 4.891378088776695, 7.036744021694125]}, {"species": [{"element": "P", "occu": 1}], "abc": [0.24999979, 0.50128793, 0.30710216], "properties": {"magmom": 0.0}, "label": "P", "xyz": [0.8942580191372571, 4.916261264119789, 3.1189171637309965]}]}, "task_ids": null, "uncorrected_energy_per_atom": null, "energy_per_atom": -31.9467278995, "formation_energy_per_atom": -1.255048140690485, "energy_above_hull": 0.0, "is_stable": true, "equilibrium_reaction_energy_per_atom": null, "decomposes_to": null, "xas": null, "grain_boundaries": null, "band_gap": 0.0, "cbm": null, "vbm": null, "efermi": 6.94967927, "is_gap_direct": null, "is_metal": null, "es_source_calc_id": null, "bandstructure": null, "dos": null, "dos_energy_up": null, "dos_energy_down": null, "is_magnetic": null, "ordering": null, "total_magnetization": 2e-07, "total_magnetization_normalized_vol": null, "total_magnetization_normalized_formula_units": null, "num_magnetic_sites": null, "num_unique_magnetic_sites": null, "types_of_magnetic_species": null, "bulk_modulus": null, "shear_modulus": null, "universal_anisotropy": null, "homogeneous_poisson": null, "e_total": null, "e_ionic": null, "e_electronic": null, "n": null, "e_ij_max": null, "weighted_surface_energy_EV_PER_ANG2": null, "weighted_surface_energy": null, "weighted_work_function": null, "surface_anisotropy": null, "shape_factor": null, "has_reconstructed": null, "possible_species": null, "has_props": null, "theoretical": null, "database_IDs": null, "fields_not_requested": ["builder_meta", "nsites", "elements", "nelements", "composition", "composition_reduced", "chemsys", "symmetry", "property_name", "deprecated", "deprecation_reasons", "last_updated", "origins", "warnings", "task_ids", "uncorrected_energy_per_atom", "equilibrium_reaction_energy_per_atom", "decomposes_to", "xas", "grain_boundaries", "cbm", "vbm", "is_gap_direct", "is_metal", "es_source_calc_id", "bandstructure", "dos", "dos_energy_up", "dos_energy_down", "is_magnetic", "ordering", "total_magnetization_normalized_vol", "total_magnetization_normalized_formula_units", "num_magnetic_sites", "num_unique_magnetic_sites", "types_of_magnetic_species", "bulk_modulus", "shear_modulus", "universal_anisotropy", "homogeneous_poisson", "e_total", "e_ionic", "e_electronic", "n", "e_ij_max", "weighted_surface_energy_EV_PER_ANG2", "weighted_surface_energy", "weighted_work_function", "surface_anisotropy", "shape_factor", "has_reconstructed", "possible_species", "has_props", "theoretical", "database_IDs"]}