{
  "builder_meta": null,
  "nsites": null,
  "elements": null,
  "nelements": null,
  "composition": null,
  "composition_reduced": null,
  "formula_pretty": "Hf3P",
  "formula_anonymous": "AB3",
  "chemsys": null,
  "volume": 600.809499597148,
  "density": 12.524462365705743,
  "density_atomic": 18.775296862410876,
  "symmetry": null,
  "property_name": null,
  "material_id": "mp-504812",
  "deprecated": null,
  "deprecation_reasons": null,
  "last_updated": null,
  "origins": null,
  "warnings": null,
  "structure": {
    "@module": "pymatgen.core.structure",
    "@class": "Structure",
    "charge": 0,
    "lattice": {
      "matrix": [
        [5.2878837, -0.0, 0.0],
        [0.0, 10.65926963, -5.5610000000000005e-5],
        [-0.0, 5.5610000000000005e-5, 10.65926963]
      ],
      "pbc": [true, true, true],
      "a": 5.2878837,
      "b": 10.659269630145062,
      "c": 10.659269630145062,
      "alpha": 90.0,
      "beta": 90.0,
      "gamma": 90.0,
      "volume": 600.809499597148
    },
    "properties": {},
    "sites": [
      {
        "species": [{ "element": "Hf", "occu": 1 }],
        "abc": [0.71800056, 0.1653441, 0.64279726],
        "properties": { "magmom": -0.0 },
        "label": "Hf",
        "xyz": [3.796703457814872, 1.7624830895853116, 6.851740116979814]
      },
      {
        "species": [{ "element": "Hf", "occu": 1 }],
        "abc": [0.21800056, 0.35720274, 0.6653441],
        "properties": { "magmom": -0.0 },
        "label": "Hf",
        "xyz": [1.1527616078148721, 3.8075573180201876, 7.092062294585312]
      },
      {
        "species": [{ "element": "Hf", "occu": 1 }],
        "abc": [0.21800056, 0.14279726, 0.8346559],
        "properties": { "magmom": -0.0 },
        "label": "Hf",
        "xyz": [1.1527616078148721, 1.522160911979813, 8.89681434541469]
      },
      {
        "species": [{ "element": "Hf", "occu": 1 }],
        "abc": [0.71800056, 0.3346559, 0.85720274],
        "properties": { "magmom": -0.0 },
        "label": "Hf",
        "xyz": [3.796703457814872, 3.5672351404146885, 9.137136523020187]
      },
      {
        "species": [{ "element": "Hf", "occu": 1 }],
        "abc": [0.28199944, 0.8346559, 0.35720274],
        "properties": { "magmom": -0.0 },
        "label": "Hf",
        "xyz": [1.491180242185128, 8.89684215041469, 3.807473903020188]
      },
      {
        "species": [{ "element": "Hf", "occu": 1 }],
        "abc": [0.78199944, 0.64279726, 0.3346559],
        "properties": { "magmom": -0.0 },
        "label": "Hf",
        "xyz": [4.135122092185128, 6.851767921979813, 3.5671517254146887]
      },
      {
        "species": [{ "element": "Hf", "occu": 1 }],
        "abc": [0.78199944, 0.85720274, 0.1653441],
        "properties": { "magmom": -0.0 },
        "label": "Hf",
        "xyz": [4.135122092185128, 9.137164328020187, 1.7623996745853117]
      },
      {
        "species": [{ "element": "Hf", "occu": 1 }],
        "abc": [0.28199944, 0.6653441, 0.14279726],
        "properties": { "magmom": -0.0 },
        "label": "Hf",
        "xyz": [1.491180242185128, 7.092090099585311, 1.522077496979813]
      },
      {
        "species": [{ "element": "Hf", "occu": 1 }],
        "abc": [0.52943933, 0.11190949, 0.27749813],
        "properties": { "magmom": -0.0 },
        "label": "Hf",
        "xyz": [2.799613603245921, 1.1928888597367981, 2.9579211662040534]
      },
      {
        "species": [{ "element": "Hf", "occu": 1 }],
        "abc": [0.02943933, 0.72250187, 0.6119094900000001],
        "properties": { "magmom": -0.0 },
        "label": "Hf",
        "xyz": [0.155671753245921, 7.701376268795947, 6.522468064736799]
      },
      {
        "species": [{ "element": "Hf", "occu": 1 }],
        "abc": [0.02943933, 0.77749813, 0.88809051],
        "properties": { "magmom": -0.0 },
        "label": "Hf",
        "xyz": [0.155671753245921, 8.287611591204053, 9.466352965263203]
      },
      {
        "species": [{ "element": "Hf", "occu": 1 }],
        "abc": [0.52943933, 0.38809051, 0.22250187000000002],
        "properties": { "magmom": -0.0 },
        "label": "Hf",
        "xyz": [2.799613603245921, 4.136773760263202, 2.3716858437959476]
      },
      {
        "species": [{ "element": "Hf", "occu": 1 }],
        "abc": [0.47056067, 0.88809051, 0.72250187],
        "properties": { "magmom": -0.0 },
        "label": "Hf",
        "xyz": [2.488270096754079, 9.466436380263204, 7.701292853795947]
      },
      {
        "species": [{ "element": "Hf", "occu": 1 }],
        "abc": [0.97056067, 0.27749813, 0.38809051],
        "properties": { "magmom": -0.0 },
        "label": "Hf",
        "xyz": [5.132211946754079, 2.957948971204053, 4.136745955263202]
      },
      {
        "species": [{ "element": "Hf", "occu": 1 }],
        "abc": [0.97056067, 0.22250187000000002, 0.11190949],
        "properties": { "magmom": -0.0 },
        "label": "Hf",
        "xyz": [5.132211946754079, 2.3717136487959474, 1.1928610547367982]
      },
      {
        "species": [{ "element": "Hf", "occu": 1 }],
        "abc": [0.47056067, 0.6119094900000001, 0.77749813],
        "properties": { "magmom": -0.0 },
        "label": "Hf",
        "xyz": [2.488270096754079, 6.5225514797368, 8.287528176204052]
      },
      {
        "species": [{ "element": "Hf", "occu": 1 }],
        "abc": [0.23855933, 0.06876307, 0.53425069],
        "properties": { "magmom": -0.0 },
        "label": "Hf",
        "xyz": [1.261473992589921, 0.732993813397435, 5.694718330809223]
      },
      {
        "species": [{ "element": "Hf", "occu": 1 }],
        "abc": [0.7385593300000001, 0.46574931, 0.56876307],
        "properties": { "magmom": -0.0 },
        "label": "Hf",
        "xyz": [3.9054158425899215, 4.964579104190778, 6.062573018397435]
      },
      {
        "species": [{ "element": "Hf", "occu": 1 }],
        "abc": [0.7385593300000001, 0.03425069, 0.9312369300000001],
        "properties": { "magmom": -0.0 },
        "label": "Hf",
        "xyz": [3.9054158425899215, 0.36513912580922203, 9.926303621602566]
      },
      {
        "species": [{ "element": "Hf", "occu": 1 }],
        "abc": [0.23855933, 0.43123693, 0.96574931],
        "properties": { "magmom": -0.0 },
        "label": "Hf",
        "xyz": [1.261473992589921, 4.596724416602565, 10.29415830919078]
      },
      {
        "species": [{ "element": "Hf", "occu": 1 }],
        "abc": [0.76144067, 0.9312369300000001, 0.46574931],
        "properties": { "magmom": -0.0 },
        "label": "Hf",
        "xyz": [4.026409707410079, 9.926331426602566, 4.9644956891907785]
      },
      {
        "species": [{ "element": "Hf", "occu": 1 }],
        "abc": [0.26144067, 0.53425069, 0.43123693],
        "properties": { "magmom": -0.0 },
        "label": "Hf",
        "xyz": [1.382467857410079, 5.694746135809223, 4.596641001602565]
      },
      {
        "species": [{ "element": "Hf", "occu": 1 }],
        "abc": [0.26144067, 0.96574931, 0.06876307],
        "properties": { "magmom": -0.0 },
        "label": "Hf",
        "xyz": [1.382467857410079, 10.29418611419078, 0.732910398397435]
      },
      {
        "species": [{ "element": "Hf", "occu": 1 }],
        "abc": [0.76144067, 0.56876307, 0.03425069],
        "properties": { "magmom": -0.0 },
        "label": "Hf",
        "xyz": [4.026409707410079, 6.062600823397435, 0.36505571080922206]
      },
      {
        "species": [{ "element": "P", "occu": 1 }],
        "abc": [0.03640571, 0.04446962, 0.29054248],
        "properties": { "magmom": 0.0 },
        "label": "P",
        "xyz": [0.192509160495927, 0.4740298269909534, 3.096968160333314]
      },
      {
        "species": [{ "element": "P", "occu": 1 }],
        "abc": [0.53640571, 0.7094575200000001, 0.54446962],
        "properties": { "magmom": 0.0 },
        "label": "P",
        "xyz": [2.836451010495927, 7.562329274666688, 5.803609031990954]
      },
      {
        "species": [{ "element": "P", "occu": 1 }],
        "abc": [0.53640571, 0.79054248, 0.95553038],
        "properties": { "magmom": 0.0 },
        "label": "P",
        "xyz": [2.836451010495927, 8.426658585333316, 10.185211998009047]
      },
      {
        "species": [{ "element": "P", "occu": 1 }],
        "abc": [0.03640571, 0.45553038, 0.20945752],
        "properties": { "magmom": 0.0 },
        "label": "P",
        "xyz": [0.192509160495927, 4.855632793009047, 2.232638849666686]
      },
      {
        "species": [{ "element": "P", "occu": 1 }],
        "abc": [0.9635942900000001, 0.95553038, 0.7094575200000001],
        "properties": { "magmom": 0.0 },
        "label": "P",
        "xyz": [5.095374539504073, 10.185295413009047, 7.562245859666687]
      },
      {
        "species": [{ "element": "P", "occu": 1 }],
        "abc": [0.46359429, 0.29054248, 0.45553038],
        "properties": { "magmom": 0.0 },
        "label": "P",
        "xyz": [2.451432689504073, 3.0969959653333143, 4.8556049880090475]
      },
      {
        "species": [{ "element": "P", "occu": 1 }],
        "abc": [0.46359429, 0.20945752, 0.04446962],
        "properties": { "magmom": 0.0 },
        "label": "P",
        "xyz": [2.451432689504073, 2.2326666546666862, 0.4740020219909534]
      },
      {
        "species": [{ "element": "P", "occu": 1 }],
        "abc": [0.9635942900000001, 0.54446962, 0.79054248],
        "properties": { "magmom": 0.0 },
        "label": "P",
        "xyz": [5.095374539504073, 5.803692446990953, 8.426575170333315]
      }
    ]
  },
  "task_ids": null,
  "uncorrected_energy_per_atom": null,
  "energy_per_atom": -36.97119136375,
  "formation_energy_per_atom": -0.8571107432440571,
  "energy_above_hull": 0.0,
  "is_stable": true,
  "equilibrium_reaction_energy_per_atom": null,
  "decomposes_to": null,
  "xas": null,
  "grain_boundaries": null,
  "band_gap": 0.0,
  "cbm": null,
  "vbm": null,
  "efermi": 6.13441055,
  "is_gap_direct": null,
  "is_metal": null,
  "es_source_calc_id": null,
  "bandstructure": null,
  "dos": null,
  "dos_energy_up": null,
  "dos_energy_down": null,
  "is_magnetic": null,
  "ordering": null,
  "total_magnetization": 2e-6,
  "total_magnetization_normalized_vol": null,
  "total_magnetization_normalized_formula_units": null,
  "num_magnetic_sites": null,
  "num_unique_magnetic_sites": null,
  "types_of_magnetic_species": null,
  "bulk_modulus": null,
  "shear_modulus": null,
  "universal_anisotropy": null,
  "homogeneous_poisson": null,
  "e_total": null,
  "e_ionic": null,
  "e_electronic": null,
  "n": null,
  "e_ij_max": null,
  "weighted_surface_energy_EV_PER_ANG2": null,
  "weighted_surface_energy": null,
  "weighted_work_function": null,
  "surface_anisotropy": null,
  "shape_factor": null,
  "has_reconstructed": null,
  "possible_species": null,
  "has_props": null,
  "theoretical": null,
  "database_IDs": null,
  "fields_not_requested": [
    "builder_meta",
    "nsites",
    "elements",
    "nelements",
    "composition",
    "composition_reduced",
    "chemsys",
    "symmetry",
    "property_name",
    "deprecated",
    "deprecation_reasons",
    "last_updated",
    "origins",
    "warnings",
    "task_ids",
    "uncorrected_energy_per_atom",
    "equilibrium_reaction_energy_per_atom",
    "decomposes_to",
    "xas",
    "grain_boundaries",
    "cbm",
    "vbm",
    "is_gap_direct",
    "is_metal",
    "es_source_calc_id",
    "bandstructure",
    "dos",
    "dos_energy_up",
    "dos_energy_down",
    "is_magnetic",
    "ordering",
    "total_magnetization_normalized_vol",
    "total_magnetization_normalized_formula_units",
    "num_magnetic_sites",
    "num_unique_magnetic_sites",
    "types_of_magnetic_species",
    "bulk_modulus",
    "shear_modulus",
    "universal_anisotropy",
    "homogeneous_poisson",
    "e_total",
    "e_ionic",
    "e_electronic",
    "n",
    "e_ij_max",
    "weighted_surface_energy_EV_PER_ANG2",
    "weighted_surface_energy",
    "weighted_work_function",
    "surface_anisotropy",
    "shape_factor",
    "has_reconstructed",
    "possible_species",
    "has_props",
    "theoretical",
    "database_IDs"
  ]
}
