{"builder_meta": null, "nsites": null, "elements": null, "nelements": null, "composition": null, "composition_reduced": null, "formula_pretty": "Hf3Rh5", "formula_anonymous": "A3B5", "chemsys": null, "volume": 256.87025439214904, "density": 13.57542836330545, "density_atomic": 16.054390899509315, "symmetry": null, "property_name": null, "material_id": "mp-17045", "deprecated": null, "deprecation_reasons": null, "last_updated": null, "origins": null, "warnings": null, "structure": {"@module": "pymatgen.core.structure", "@class": "Structure", "charge": 0, "lattice": {"matrix": [[4.26238059, 0.0, 0.0], [0.0, 5.57576505, 0.0], [0.0, -0.0, 10.80829339]], "pbc": [true, true, true], "a": 4.26238059, "b": 5.57576505, "c": 10.80829339, "alpha": 90.0, "beta": 90.0, "gamma": 90.0, "volume": 256.87025439214904}, "properties": {}, "sites": [{"species": [{"element": "Hf", "occu": 1}], "abc": [0.5, 0.15599296, 0.64568186], "properties": {"magmom": 0.0}, "label": "Hf", "xyz": [2.131190295, 0.8697800944140481, 6.978718979480906]}, {"species": [{"element": "Hf", "occu": 1}], "abc": [0.5, 0.84400704, 0.35431814], "properties": {"magmom": 0.0}, "label": "Hf", "xyz": [2.131190295, 4.7059849555859525, 3.8295744105190943]}, {"species": [{"element": "Hf", "occu": 1}], "abc": [0.5, 0.65599296, 0.8543181400000001], "properties": {"magmom": 0.0}, "label": "Hf", "xyz": [2.131190295, 3.657662619414048, 9.233721105519095]}, {"species": [{"element": "Hf", "occu": 1}], "abc": [0.5, 0.34400704, 0.14568186], "properties": {"magmom": 0.0}, "label": "Hf", "xyz": [2.131190295, 1.918102430585952, 1.5745722844809054]}, {"species": [{"element": "Hf", "occu": 1}], "abc": [-0.0, 0.5, 0.5], "properties": {"magmom": -0.0}, "label": "Hf", "xyz": [0.0, 2.787882525, 5.404146695]}, {"species": [{"element": "Hf", "occu": 1}], "abc": [-0.0, 0.0, 0.0], "properties": {"magmom": -0.0}, "label": "Hf", "xyz": [0.0, 0.0, 0.0]}, {"species": [{"element": "Rh", "occu": 1}], "abc": [0.5, 0.18335525, 0.89316519], "properties": {"magmom": -0.0}, "label": "Rh", "xyz": [2.131190295, 1.0223457946840124, 9.653591419255093]}, {"species": [{"element": "Rh", "occu": 1}], "abc": [0.5, 0.81664475, 0.10683481], "properties": {"magmom": -0.0}, "label": "Rh", "xyz": [2.131190295, 4.553419255315988, 1.1547019707449058]}, {"species": [{"element": "Rh", "occu": 1}], "abc": [0.5, 0.68335525, 0.6068348100000001], "properties": {"magmom": -0.0}, "label": "Rh", "xyz": [2.131190295, 3.8102283196840125, 6.5588486657449065]}, {"species": [{"element": "Rh", "occu": 1}], "abc": [0.5, 0.31664475000000003, 0.39316519], "properties": {"magmom": -0.0}, "label": "Rh", "xyz": [2.131190295, 1.7655367303159877, 4.249444724255094]}, {"species": [{"element": "Rh", "occu": 1}], "abc": [-0.0, 0.39755186000000003, 0.74170849], "properties": {"magmom": 0.0}, "label": "Rh", "xyz": [0.0, 2.216655766550493, 8.016602969773881]}, {"species": [{"element": "Rh", "occu": 1}], "abc": [-0.0, 0.60244814, 0.25829151], "properties": {"magmom": 0.0}, "label": "Rh", "xyz": [0.0, 3.359109283449507, 2.791690420226119]}, {"species": [{"element": "Rh", "occu": 1}], "abc": [-0.0, 0.0, 0.5], "properties": {"magmom": -0.0}, "label": "Rh", "xyz": [0.0, 0.0, 5.404146695]}, {"species": [{"element": "Rh", "occu": 1}], "abc": [-0.0, 0.5, 0.0], "properties": {"magmom": -0.0}, "label": "Rh", "xyz": [0.0, 2.787882525, 0.0]}, {"species": [{"element": "Rh", "occu": 1}], "abc": [-0.0, 0.10244814000000001, 0.24170849], "properties": {"magmom": 0.0}, "label": "Rh", "xyz": [0.0, 0.5712267584495071, 2.612456274773881]}, {"species": [{"element": "Rh", "occu": 1}], "abc": [-0.0, 0.89755186, 0.7582915100000001], "properties": {"magmom": 0.0}, "label": "Rh", "xyz": [0.0, 5.004538291550493, 8.19583711522612]}]}, "task_ids": null, "uncorrected_energy_per_atom": null, "energy_per_atom": -32.993602245, "formation_energy_per_atom": -0.9766785799999981, "energy_above_hull": 0.0, "is_stable": true, "equilibrium_reaction_energy_per_atom": null, "decomposes_to": null, "xas": null, "grain_boundaries": null, "band_gap": 0.0, "cbm": null, "vbm": null, "efermi": 6.19853139, "is_gap_direct": null, "is_metal": null, "es_source_calc_id": null, "bandstructure": null, "dos": null, "dos_energy_up": null, "dos_energy_down": null, "is_magnetic": null, "ordering": null, "total_magnetization": 0.0, "total_magnetization_normalized_vol": null, "total_magnetization_normalized_formula_units": null, "num_magnetic_sites": null, "num_unique_magnetic_sites": null, "types_of_magnetic_species": null, "bulk_modulus": null, "shear_modulus": null, "universal_anisotropy": null, "homogeneous_poisson": null, "e_total": null, "e_ionic": null, "e_electronic": null, "n": null, "e_ij_max": null, "weighted_surface_energy_EV_PER_ANG2": null, "weighted_surface_energy": null, "weighted_work_function": null, "surface_anisotropy": null, "shape_factor": null, "has_reconstructed": null, "possible_species": null, "has_props": null, "theoretical": null, "database_IDs": null, "fields_not_requested": ["builder_meta", "nsites", "elements", "nelements", "composition", "composition_reduced", "chemsys", "symmetry", "property_name", "deprecated", "deprecation_reasons", "last_updated", "origins", "warnings", "task_ids", "uncorrected_energy_per_atom", "equilibrium_reaction_energy_per_atom", "decomposes_to", "xas", "grain_boundaries", "cbm", "vbm", "is_gap_direct", "is_metal", "es_source_calc_id", "bandstructure", "dos", "dos_energy_up", "dos_energy_down", "is_magnetic", "ordering", "total_magnetization_normalized_vol", "total_magnetization_normalized_formula_units", "num_magnetic_sites", "num_unique_magnetic_sites", "types_of_magnetic_species", "bulk_modulus", "shear_modulus", "universal_anisotropy", "homogeneous_poisson", "e_total", "e_ionic", "e_electronic", "n", "e_ij_max", "weighted_surface_energy_EV_PER_ANG2", "weighted_surface_energy", "weighted_work_function", "surface_anisotropy", "shape_factor", "has_reconstructed", "possible_species", "has_props", "theoretical", "database_IDs"]}