{"builder_meta": null, "nsites": null, "elements": null, "nelements": null, "composition": null, "composition_reduced": null, "formula_pretty": "Hf3Sc", "formula_anonymous": "AB3", "chemsys": null, "volume": 180.3998781767997, "density": 10.685371984545894, "density_atomic": 22.54998477209996, "symmetry": null, "property_name": null, "material_id": "mp-1184681", "deprecated": null, "deprecation_reasons": null, "last_updated": null, "origins": null, "warnings": null, "structure": {"@module": "pymatgen.core.structure", "@class": "Structure", "charge": 0, "lattice": {"matrix": [[3.21644046, -5.57103988, 0.0], [3.21644046, 5.57103988, -0.0], [-0.0, -0.0, 5.03378266]], "pbc": [true, true, true], "a": 6.432882291576259, "b": 6.432882291576259, "c": 5.03378266, "alpha": 90.0, "beta": 90.0, "gamma": 120.00001410607993, "volume": 180.3998781767997}, "properties": {}, "sites": [{"species": [{"element": "Hf", "occu": 1}], "abc": [0.16640085000000002, 0.3328007, 0.25], "properties": {"magmom": 0.0}, "label": "Hf", "xyz": [1.605652063114713, 0.927020200376018, 1.258445665]}, {"species": [{"element": "Hf", "occu": 1}], "abc": [0.667199299999999, 0.8335991500000001, 0.25], "properties": {"magmom": 0.0}, "label": "Hf", "xyz": [4.827228856885284, 0.9270202003760235, 1.258445665]}, {"species": [{"element": "Hf", "occu": 1}], "abc": [0.16640085000000002, 0.8335991500000001, 0.25], "properties": {"magmom": 0.0}, "label": "Hf", "xyz": [3.2164404600000003, 3.716988337168204, 1.258445665]}, {"species": [{"element": "Hf", "occu": 1}], "abc": [0.8335991500000001, 0.667199299999999, 0.75], "properties": {"magmom": 0.0}, "label": "Hf", "xyz": [4.827228856885284, -0.9270202003760235, 3.775336995]}, {"species": [{"element": "Hf", "occu": 1}], "abc": [0.3328007, 0.16640085000000002, 0.75], "properties": {"magmom": 0.0}, "label": "Hf", "xyz": [1.605652063114713, -0.927020200376018, 3.775336995]}, {"species": [{"element": "Hf", "occu": 1}], "abc": [0.8335991500000001, 0.16640085000000002, 0.75], "properties": {"magmom": 0.0}, "label": "Hf", "xyz": [3.2164404600000003, -3.716988337168204, 3.775336995]}, {"species": [{"element": "Sc", "occu": 1}], "abc": [0.333333, 0.666667, 0.75], "properties": {"magmom": -0.0}, "label": "Sc", "xyz": [3.2164404600000003, 1.85701700735992, 3.775336995]}, {"species": [{"element": "Sc", "occu": 1}], "abc": [0.666667, 0.333333, 0.25], "properties": {"magmom": -0.0}, "label": "Sc", "xyz": [3.2164404600000003, -1.85701700735992, 1.258445665]}]}, "task_ids": null, "uncorrected_energy_per_atom": null, "energy_per_atom": -36.69932019875, "formation_energy_per_atom": 0.013863182499989002, "energy_above_hull": 0.015776382250002, "is_stable": false, "equilibrium_reaction_energy_per_atom": null, "decomposes_to": null, "xas": null, "grain_boundaries": null, "band_gap": 0.0, "cbm": null, "vbm": null, "efermi": 4.5327821, "is_gap_direct": null, "is_metal": null, "es_source_calc_id": null, "bandstructure": null, "dos": null, "dos_energy_up": null, "dos_energy_down": null, "is_magnetic": null, "ordering": null, "total_magnetization": 0.0, "total_magnetization_normalized_vol": null, "total_magnetization_normalized_formula_units": null, "num_magnetic_sites": null, "num_unique_magnetic_sites": null, "types_of_magnetic_species": null, "bulk_modulus": null, "shear_modulus": null, "universal_anisotropy": null, "homogeneous_poisson": null, "e_total": null, "e_ionic": null, "e_electronic": null, "n": null, "e_ij_max": null, "weighted_surface_energy_EV_PER_ANG2": null, "weighted_surface_energy": null, "weighted_work_function": null, "surface_anisotropy": null, "shape_factor": null, "has_reconstructed": null, "possible_species": null, "has_props": null, "theoretical": null, "database_IDs": null, "fields_not_requested": ["builder_meta", "nsites", "elements", "nelements", "composition", "composition_reduced", "chemsys", "symmetry", "property_name", "deprecated", "deprecation_reasons", "last_updated", "origins", "warnings", "task_ids", "uncorrected_energy_per_atom", "equilibrium_reaction_energy_per_atom", "decomposes_to", "xas", "grain_boundaries", "cbm", "vbm", "is_gap_direct", "is_metal", "es_source_calc_id", "bandstructure", "dos", "dos_energy_up", "dos_energy_down", "is_magnetic", "ordering", "total_magnetization_normalized_vol", "total_magnetization_normalized_formula_units", "num_magnetic_sites", "num_unique_magnetic_sites", "types_of_magnetic_species", "bulk_modulus", "shear_modulus", "universal_anisotropy", "homogeneous_poisson", "e_total", "e_ionic", "e_electronic", "n", "e_ij_max", "weighted_surface_energy_EV_PER_ANG2", "weighted_surface_energy", "weighted_work_function", "surface_anisotropy", "shape_factor", "has_reconstructed", "possible_species", "has_props", "theoretical", "database_IDs"]}