{
  "builder_meta": null,
  "nsites": null,
  "elements": null,
  "nelements": null,
  "composition": null,
  "composition_reduced": null,
  "formula_pretty": "Hf3Si2",
  "formula_anonymous": "A2B3",
  "chemsys": null,
  "volume": 178.98083953562747,
  "density": 10.978191815965062,
  "density_atomic": 17.898083953562747,
  "symmetry": null,
  "property_name": null,
  "material_id": "mp-2105",
  "deprecated": null,
  "deprecation_reasons": null,
  "last_updated": null,
  "origins": null,
  "warnings": null,
  "structure": {
    "@module": "pymatgen.core.structure",
    "@class": "Structure",
    "charge": 0,
    "lattice": {
      "matrix": [
        [3.66328402, 0.0, 0.0],
        [0.0, 6.9898519100000005, 0.0],
        [0.0, 0.0, 6.9898519100000005]
      ],
      "pbc": [true, true, true],
      "a": 3.66328402,
      "b": 6.9898519100000005,
      "c": 6.9898519100000005,
      "alpha": 90.0,
      "beta": 90.0,
      "gamma": 90.0,
      "volume": 178.98083953562752
    },
    "properties": {},
    "sites": [
      {
        "species": [{ "element": "Hf", "occu": 1 }],
        "abc": [0.5, 0.67322933, 0.82677067],
        "properties": { "magmom": -0.0 },
        "label": "Hf",
        "xyz": [1.83164201, 4.705773318168521, 5.77900454683148]
      },
      {
        "species": [{ "element": "Hf", "occu": 1 }],
        "abc": [0.5, 0.82677067, 0.32677067],
        "properties": { "magmom": -0.0 },
        "label": "Hf",
        "xyz": [1.83164201, 5.77900454683148, 2.28407859183148]
      },
      {
        "species": [{ "element": "Hf", "occu": 1 }],
        "abc": [0.5, 0.32677067, 0.17322933000000001],
        "properties": { "magmom": -0.0 },
        "label": "Hf",
        "xyz": [1.83164201, 2.28407859183148, 1.2108473631685206]
      },
      {
        "species": [{ "element": "Hf", "occu": 1 }],
        "abc": [0.5, 0.17322933000000001, 0.67322933],
        "properties": { "magmom": -0.0 },
        "label": "Hf",
        "xyz": [1.83164201, 1.2108473631685206, 4.705773318168521]
      },
      {
        "species": [{ "element": "Hf", "occu": 1 }],
        "abc": [-0.0, 0.5, 0.5],
        "properties": { "magmom": 0.0 },
        "label": "Hf",
        "xyz": [0.0, 3.4949259550000003, 3.4949259550000003]
      },
      {
        "species": [{ "element": "Hf", "occu": 1 }],
        "abc": [-0.0, -0.0, 0.0],
        "properties": { "magmom": 0.0 },
        "label": "Hf",
        "xyz": [0.0, 0.0, 0.0]
      },
      {
        "species": [{ "element": "Si", "occu": 1 }],
        "abc": [-0.0, 0.62360275, 0.12360275],
        "properties": { "magmom": 0.0 },
        "label": "Si",
        "xyz": [0.0, 4.358890873168753, 0.8639649181687525]
      },
      {
        "species": [{ "element": "Si", "occu": 1 }],
        "abc": [0.0, 0.87639725, 0.62360275],
        "properties": { "magmom": 0.0 },
        "label": "Si",
        "xyz": [0.0, 6.125886991831248, 4.358890873168753]
      },
      {
        "species": [{ "element": "Si", "occu": 1 }],
        "abc": [-0.0, 0.12360275, 0.37639725],
        "properties": { "magmom": 0.0 },
        "label": "Si",
        "xyz": [0.0, 0.8639649181687525, 2.630961036831248]
      },
      {
        "species": [{ "element": "Si", "occu": 1 }],
        "abc": [0.0, 0.37639725, 0.87639725],
        "properties": { "magmom": 0.0 },
        "label": "Si",
        "xyz": [0.0, 2.630961036831248, 6.125886991831248]
      }
    ]
  },
  "task_ids": null,
  "uncorrected_energy_per_atom": null,
  "energy_per_atom": -31.444648972,
  "formation_energy_per_atom": -0.844293900000002,
  "energy_above_hull": 0.0,
  "is_stable": true,
  "equilibrium_reaction_energy_per_atom": null,
  "decomposes_to": null,
  "xas": null,
  "grain_boundaries": null,
  "band_gap": 0.0,
  "cbm": null,
  "vbm": null,
  "efermi": 6.47767337,
  "is_gap_direct": null,
  "is_metal": null,
  "es_source_calc_id": null,
  "bandstructure": null,
  "dos": null,
  "dos_energy_up": null,
  "dos_energy_down": null,
  "is_magnetic": null,
  "ordering": null,
  "total_magnetization": 0.0,
  "total_magnetization_normalized_vol": null,
  "total_magnetization_normalized_formula_units": null,
  "num_magnetic_sites": null,
  "num_unique_magnetic_sites": null,
  "types_of_magnetic_species": null,
  "bulk_modulus": null,
  "shear_modulus": null,
  "universal_anisotropy": null,
  "homogeneous_poisson": null,
  "e_total": null,
  "e_ionic": null,
  "e_electronic": null,
  "n": null,
  "e_ij_max": null,
  "weighted_surface_energy_EV_PER_ANG2": null,
  "weighted_surface_energy": null,
  "weighted_work_function": null,
  "surface_anisotropy": null,
  "shape_factor": null,
  "has_reconstructed": null,
  "possible_species": null,
  "has_props": null,
  "theoretical": null,
  "database_IDs": null,
  "fields_not_requested": [
    "builder_meta",
    "nsites",
    "elements",
    "nelements",
    "composition",
    "composition_reduced",
    "chemsys",
    "symmetry",
    "property_name",
    "deprecated",
    "deprecation_reasons",
    "last_updated",
    "origins",
    "warnings",
    "task_ids",
    "uncorrected_energy_per_atom",
    "equilibrium_reaction_energy_per_atom",
    "decomposes_to",
    "xas",
    "grain_boundaries",
    "cbm",
    "vbm",
    "is_gap_direct",
    "is_metal",
    "es_source_calc_id",
    "bandstructure",
    "dos",
    "dos_energy_up",
    "dos_energy_down",
    "is_magnetic",
    "ordering",
    "total_magnetization_normalized_vol",
    "total_magnetization_normalized_formula_units",
    "num_magnetic_sites",
    "num_unique_magnetic_sites",
    "types_of_magnetic_species",
    "bulk_modulus",
    "shear_modulus",
    "universal_anisotropy",
    "homogeneous_poisson",
    "e_total",
    "e_ionic",
    "e_electronic",
    "n",
    "e_ij_max",
    "weighted_surface_energy_EV_PER_ANG2",
    "weighted_surface_energy",
    "weighted_work_function",
    "surface_anisotropy",
    "shape_factor",
    "has_reconstructed",
    "possible_species",
    "has_props",
    "theoretical",
    "database_IDs"
  ]
}
