{
  "builder_meta": null,
  "nsites": null,
  "elements": null,
  "nelements": null,
  "composition": null,
  "composition_reduced": null,
  "formula_pretty": "Hf3Sb",
  "formula_anonymous": "AB3",
  "chemsys": null,
  "volume": 354.1447427944965,
  "density": 12.326667137620747,
  "density_atomic": 22.13404642465603,
  "symmetry": null,
  "property_name": null,
  "material_id": "mp-15964",
  "deprecated": null,
  "deprecation_reasons": null,
  "last_updated": null,
  "origins": null,
  "warnings": null,
  "structure": {
    "@module": "pymatgen.core.structure",
    "@class": "Structure",
    "charge": 0,
    "lattice": {
      "matrix": [
        [5.33026901, 6e-7, 1.89845846],
        [2.66526304, 7.9112781, 0.94887656],
        [0.01061842, -0.0006171999999990001, 8.4019592]
      ],
      "pbc": [true, true, true],
      "a": 5.658260531586745,
      "b": 8.401923290178688,
      "c": 8.401965932461508,
      "alpha": 83.4963054335562,
      "beta": 70.32343952415206,
      "gamma": 70.32255873080447,
      "volume": 354.1447427944965
    },
    "properties": {},
    "sites": [
      {
        "species": [{ "element": "Hf", "occu": 1 }],
        "abc": [0.32934556, 0.66924171, 0.62153524],
        "properties": { "magmom": -0.0 },
        "label": "Hf",
        "xyz": [3.545805348761615, 5.294173869986759, 6.482390364080964]
      },
      {
        "species": [{ "element": "Hf", "occu": 1 }],
        "abc": [0.049210910000000004, 0.62154389, 0.33082129],
        "properties": { "magmom": -0.0 },
        "label": "Hf",
        "xyz": [1.9223981456838866, 4.917002411772167, 3.4627402777173852]
      },
      {
        "species": [{ "element": "Hf", "occu": 1 }],
        "abc": [0.00182282, 0.37833226000000003, 0.66912726],
        "properties": { "magmom": 0.0 },
        "label": "Hf",
        "xyz": [1.025176184654608, 2.9926787388103264, 5.9844310995836745]
      },
      {
        "species": [{ "element": "Hf", "occu": 1 }],
        "abc": [0.61975347, 0.33088232, 0.37845383],
        "properties": { "magmom": 0.0 },
        "label": "Hf",
        "xyz": [4.189359714783966, 2.6174688420413985, 4.670296334546012]
      },
      {
        "species": [{ "element": "Hf", "occu": 1 }],
        "abc": [0.94740283, 0.0292931, 0.59916242],
        "properties": { "magmom": -0.0 },
        "label": "Hf",
        "xyz": [5.134347919716099, 0.23137662590718458, 6.860538660614441]
      },
      {
        "species": [{ "element": "Hf", "occu": 1 }],
        "abc": [0.45347564, 0.59931049, 0.97063964],
        "properties": { "magmom": -0.0 },
        "label": "Hf",
        "xyz": [4.024773908529375, 4.740713147936845, 9.584850994467718]
      },
      {
        "species": [{ "element": "Hf", "occu": 1 }],
        "abc": [0.02331283, 0.40077073, 0.02938655],
        "properties": { "magmom": 0.0 },
        "label": "Hf",
        "xyz": [1.1927351081974686, 3.1705905759790514, 0.6714449850998906]
      },
      {
        "species": [{ "element": "Hf", "occu": 1 }],
        "abc": [0.57598448, 0.97067483, 0.40075749],
        "properties": { "magmom": 0.0 },
        "label": "Hf",
        "xyz": [5.661511383589215, 7.679031522868083, 5.381681282528094]
      },
      {
        "species": [{ "element": "Hf", "occu": 1 }],
        "abc": [0.12122954, 0.97645055, 0.18785343000000002],
        "properties": { "magmom": -0.0 },
        "label": "Hf",
        "xyz": [3.2506783280794087, 7.724855981548683, 2.7350171391490727]
      },
      {
        "species": [{ "element": "Hf", "occu": 1 }],
        "abc": [0.69074672, 0.18792223, 0.02350166],
        "properties": { "magmom": -0.0 },
        "label": "Hf",
        "xyz": [4.182977559885104, 1.486690931925643, 1.6871289419034523]
      },
      {
        "species": [{ "element": "Hf", "occu": 1 }],
        "abc": [0.90215151, 0.81214167, 0.97650517],
        "properties": { "magmom": 0.0 },
        "label": "Hf",
        "xyz": [6.983650354399813, 6.42447645026841, 10.687875957352595]
      },
      {
        "species": [{ "element": "Hf", "occu": 1 }],
        "abc": [0.28579036, 0.02344206, 0.8120383600000001],
        "properties": { "magmom": -0.0 },
        "label": "Hf",
        "xyz": [1.5944413197267975, 0.1849556372953108, 7.387517917535472]
      },
      {
        "species": [{ "element": "Sb", "occu": 1 }],
        "abc": [0.18246528, 0.25662001, 0.32425946],
        "properties": { "magmom": 0.0 },
        "label": "Sb",
        "xyz": [1.6599919784976567, 2.029992241675237, 3.3143182199222663]
      },
      {
        "species": [{ "element": "Sb", "occu": 1 }],
        "abc": [0.49320721, 0.32428169, 0.7432404300000001],
        "properties": { "magmom": 0.0 },
        "label": "Sb",
        "xyz": [3.5011151489240206, 2.5650242002589194, 7.48871246348614]
      },
      {
        "species": [{ "element": "Sb", "occu": 1 }],
        "abc": [0.56044564, 0.67588771, 0.25683147],
        "properties": { "magmom": 0.0 },
        "label": "Sb",
        "xyz": [4.791471703752532, 5.3469774580662515, 3.863204304055216]
      },
      {
        "species": [{ "element": "Sb", "occu": 1 }],
        "abc": [0.76365121, 0.74320676, 0.67588631],
        "properties": { "magmom": -0.0 },
        "label": "Sb",
        "xyz": [6.058484732329983, 5.87929866532015, 7.833740774369835]
      }
    ]
  },
  "task_ids": null,
  "uncorrected_energy_per_atom": null,
  "energy_per_atom": -40.718621911875,
  "formation_energy_per_atom": -0.428481436875003,
  "energy_above_hull": 0.0,
  "is_stable": true,
  "equilibrium_reaction_energy_per_atom": null,
  "decomposes_to": null,
  "xas": null,
  "grain_boundaries": null,
  "band_gap": 0.0,
  "cbm": null,
  "vbm": null,
  "efermi": 6.23370809,
  "is_gap_direct": null,
  "is_metal": null,
  "es_source_calc_id": null,
  "bandstructure": null,
  "dos": null,
  "dos_energy_up": null,
  "dos_energy_down": null,
  "is_magnetic": null,
  "ordering": null,
  "total_magnetization": 0.0,
  "total_magnetization_normalized_vol": null,
  "total_magnetization_normalized_formula_units": null,
  "num_magnetic_sites": null,
  "num_unique_magnetic_sites": null,
  "types_of_magnetic_species": null,
  "bulk_modulus": null,
  "shear_modulus": null,
  "universal_anisotropy": null,
  "homogeneous_poisson": null,
  "e_total": null,
  "e_ionic": null,
  "e_electronic": null,
  "n": null,
  "e_ij_max": null,
  "weighted_surface_energy_EV_PER_ANG2": null,
  "weighted_surface_energy": null,
  "weighted_work_function": null,
  "surface_anisotropy": null,
  "shape_factor": null,
  "has_reconstructed": null,
  "possible_species": null,
  "has_props": null,
  "theoretical": null,
  "database_IDs": null,
  "fields_not_requested": [
    "builder_meta",
    "nsites",
    "elements",
    "nelements",
    "composition",
    "composition_reduced",
    "chemsys",
    "symmetry",
    "property_name",
    "deprecated",
    "deprecation_reasons",
    "last_updated",
    "origins",
    "warnings",
    "task_ids",
    "uncorrected_energy_per_atom",
    "equilibrium_reaction_energy_per_atom",
    "decomposes_to",
    "xas",
    "grain_boundaries",
    "cbm",
    "vbm",
    "is_gap_direct",
    "is_metal",
    "es_source_calc_id",
    "bandstructure",
    "dos",
    "dos_energy_up",
    "dos_energy_down",
    "is_magnetic",
    "ordering",
    "total_magnetization_normalized_vol",
    "total_magnetization_normalized_formula_units",
    "num_magnetic_sites",
    "num_unique_magnetic_sites",
    "types_of_magnetic_species",
    "bulk_modulus",
    "shear_modulus",
    "universal_anisotropy",
    "homogeneous_poisson",
    "e_total",
    "e_ionic",
    "e_electronic",
    "n",
    "e_ij_max",
    "weighted_surface_energy_EV_PER_ANG2",
    "weighted_surface_energy",
    "weighted_work_function",
    "surface_anisotropy",
    "shape_factor",
    "has_reconstructed",
    "possible_species",
    "has_props",
    "theoretical",
    "database_IDs"
  ]
}
