{
  "builder_meta": null,
  "nsites": null,
  "elements": null,
  "nelements": null,
  "composition": null,
  "composition_reduced": null,
  "formula_pretty": "Hf3Th",
  "formula_anonymous": "AB3",
  "chemsys": null,
  "volume": 202.14219508667006,
  "density": 12.609708893424598,
  "density_atomic": 25.267774385833757,
  "symmetry": null,
  "property_name": null,
  "material_id": "mp-1184698",
  "deprecated": null,
  "deprecation_reasons": null,
  "last_updated": null,
  "origins": null,
  "warnings": null,
  "structure": {
    "@module": "pymatgen.core.structure",
    "@class": "Structure",
    "charge": 0,
    "lattice": {
      "matrix": [
        [3.326457, -5.7615929999999995, 0.0],
        [3.326457, 5.7615929999999995, 0.0],
        [0.0, 0.0, 5.273543]
      ],
      "pbc": [true, true, true],
      "a": 6.652914404266599,
      "b": 6.652914404266599,
      "c": 5.273543,
      "alpha": 90.0,
      "beta": 90.0,
      "gamma": 120.00000402020244,
      "volume": 202.14219508667003
    },
    "properties": {},
    "sites": [
      {
        "species": [{ "element": "Hf", "occu": 1 }],
        "abc": [0.155283, 0.310565, 0.25],
        "properties": { "magmom": 0.0 },
        "label": "Hf",
        "xyz": [1.5496233405359998, 0.8946716842259997, 1.31838575]
      },
      {
        "species": [{ "element": "Hf", "occu": 1 }],
        "abc": [0.689435, 0.844716999999999, 0.25],
        "properties": { "magmom": -0.0 },
        "label": "Hf",
        "xyz": [5.103290659463997, 0.8946716842259943, 1.31838575]
      },
      {
        "species": [{ "element": "Hf", "occu": 1 }],
        "abc": [0.155283, 0.844716999999999, 0.25],
        "properties": { "magmom": 0.0 },
        "label": "Hf",
        "xyz": [3.326456999999997, 3.972238108361994, 1.31838575]
      },
      {
        "species": [{ "element": "Hf", "occu": 1 }],
        "abc": [0.844716999999999, 0.689435, 0.75],
        "properties": { "magmom": 0.0 },
        "label": "Hf",
        "xyz": [5.103290659463997, -0.8946716842259943, 3.95515725]
      },
      {
        "species": [{ "element": "Hf", "occu": 1 }],
        "abc": [0.310565, 0.155283, 0.75],
        "properties": { "magmom": -0.0 },
        "label": "Hf",
        "xyz": [1.5496233405359998, -0.8946716842259997, 3.95515725]
      },
      {
        "species": [{ "element": "Hf", "occu": 1 }],
        "abc": [0.844716999999999, 0.155283, 0.75],
        "properties": { "magmom": 0.0 },
        "label": "Hf",
        "xyz": [3.326456999999997, -3.972238108361994, 3.95515725]
      },
      {
        "species": [{ "element": "Th", "occu": 1 }],
        "abc": [0.333333, 0.666667, 0.75],
        "properties": { "magmom": 0.0 },
        "label": "Th",
        "xyz": [3.3264570000000004, 1.9205348410619998, 3.95515725]
      },
      {
        "species": [{ "element": "Th", "occu": 1 }],
        "abc": [0.666667, 0.333333, 0.25],
        "properties": { "magmom": 0.0 },
        "label": "Th",
        "xyz": [3.3264570000000004, -1.9205348410619998, 1.31838575]
      }
    ]
  },
  "task_ids": null,
  "uncorrected_energy_per_atom": null,
  "energy_per_atom": -52.1047289375,
  "formation_energy_per_atom": 0.127648142499992,
  "energy_above_hull": 0.127648142499992,
  "is_stable": false,
  "equilibrium_reaction_energy_per_atom": null,
  "decomposes_to": null,
  "xas": null,
  "grain_boundaries": null,
  "band_gap": 0.0,
  "cbm": null,
  "vbm": null,
  "efermi": 5.7080144,
  "is_gap_direct": null,
  "is_metal": null,
  "es_source_calc_id": null,
  "bandstructure": null,
  "dos": null,
  "dos_energy_up": null,
  "dos_energy_down": null,
  "is_magnetic": null,
  "ordering": null,
  "total_magnetization": 0.00017219999999900002,
  "total_magnetization_normalized_vol": null,
  "total_magnetization_normalized_formula_units": null,
  "num_magnetic_sites": null,
  "num_unique_magnetic_sites": null,
  "types_of_magnetic_species": null,
  "bulk_modulus": null,
  "shear_modulus": null,
  "universal_anisotropy": null,
  "homogeneous_poisson": null,
  "e_total": null,
  "e_ionic": null,
  "e_electronic": null,
  "n": null,
  "e_ij_max": null,
  "weighted_surface_energy_EV_PER_ANG2": null,
  "weighted_surface_energy": null,
  "weighted_work_function": null,
  "surface_anisotropy": null,
  "shape_factor": null,
  "has_reconstructed": null,
  "possible_species": null,
  "has_props": null,
  "theoretical": null,
  "database_IDs": null,
  "fields_not_requested": [
    "builder_meta",
    "nsites",
    "elements",
    "nelements",
    "composition",
    "composition_reduced",
    "chemsys",
    "symmetry",
    "property_name",
    "deprecated",
    "deprecation_reasons",
    "last_updated",
    "origins",
    "warnings",
    "task_ids",
    "uncorrected_energy_per_atom",
    "equilibrium_reaction_energy_per_atom",
    "decomposes_to",
    "xas",
    "grain_boundaries",
    "cbm",
    "vbm",
    "is_gap_direct",
    "is_metal",
    "es_source_calc_id",
    "bandstructure",
    "dos",
    "dos_energy_up",
    "dos_energy_down",
    "is_magnetic",
    "ordering",
    "total_magnetization_normalized_vol",
    "total_magnetization_normalized_formula_units",
    "num_magnetic_sites",
    "num_unique_magnetic_sites",
    "types_of_magnetic_species",
    "bulk_modulus",
    "shear_modulus",
    "universal_anisotropy",
    "homogeneous_poisson",
    "e_total",
    "e_ionic",
    "e_electronic",
    "n",
    "e_ij_max",
    "weighted_surface_energy_EV_PER_ANG2",
    "weighted_surface_energy",
    "weighted_work_function",
    "surface_anisotropy",
    "shape_factor",
    "has_reconstructed",
    "possible_species",
    "has_props",
    "theoretical",
    "database_IDs"
  ]
}
