{
  "builder_meta": null,
  "nsites": null,
  "elements": null,
  "nelements": null,
  "composition": null,
  "composition_reduced": null,
  "formula_pretty": "Hf3Te2",
  "formula_anonymous": "A2B3",
  "chemsys": null,
  "volume": 126.98720840968177,
  "density": 10.339139195444515,
  "density_atomic": 25.397441681936353,
  "symmetry": null,
  "property_name": null,
  "material_id": "mp-28919",
  "deprecated": null,
  "deprecation_reasons": null,
  "last_updated": null,
  "origins": null,
  "warnings": null,
  "structure": {
    "@module": "pymatgen.core.structure",
    "@class": "Structure",
    "charge": 0,
    "lattice": {
      "matrix": [
        [3.61127871, 0.00197038, -0.72660541],
        [-0.14474341000000002, 3.60837698, -0.72660631],
        [0.08138855, 0.08476207, 9.71078548]
      ],
      "pbc": [true, true, true],
      "a": 3.683652158597209,
      "b": 3.683651967038168,
      "c": 9.711496452306443,
      "alpha": 100.89541274186385,
      "beta": 100.89538045302693,
      "gamma": 89.947822415469,
      "volume": 126.98720840968178
    },
    "properties": {},
    "sites": [
      {
        "species": [{ "element": "Hf", "occu": 1 }],
        "abc": [0.40762354, 0.40762329, 0.81518912],
        "properties": { "magmom": 0.0 },
        "label": "Hf",
        "xyz": [1.4793884871593905, 1.540758786671288, 7.323763545925666]
      },
      {
        "species": [{ "element": "Hf", "occu": 1 }],
        "abc": [0.59237656, 0.592376799999999, 0.18481107],
        "properties": { "magmom": 0.0 },
        "label": "Hf",
        "xyz": [2.0685357264053983, 2.154350984384468, 0.9338119210684668]
      },
      {
        "species": [{ "element": "Hf", "occu": 1 }],
        "abc": [-2e-8, -3.0000000000000004e-8, -4e-8],
        "properties": { "magmom": 0.0 },
        "label": "Hf",
        "xyz": [-7.113881390000002e-8, -1.116811998e-7, -3.521011217e-7]
      },
      {
        "species": [{ "element": "Te", "occu": 1 }],
        "abc": [0.83779172, 0.83779102, 0.67503347],
        "properties": { "magmom": 0.0 },
        "label": "Te",
        "xyz": [2.9591746680728717, 3.0819338329044563, 5.337616981191474]
      },
      {
        "species": [{ "element": "Te", "occu": 1 }],
        "abc": [0.16220821, 0.16220892, 0.32496639],
        "properties": { "magmom": 0.0 },
        "label": "Te",
        "xyz": [0.5887489264278264, 0.6131753685883088, 2.919955513757316]
      }
    ]
  },
  "task_ids": null,
  "uncorrected_energy_per_atom": null,
  "energy_per_atom": -37.952487392,
  "formation_energy_per_atom": -0.6947484340000071,
  "energy_above_hull": 0.0,
  "is_stable": true,
  "equilibrium_reaction_energy_per_atom": null,
  "decomposes_to": null,
  "xas": null,
  "grain_boundaries": null,
  "band_gap": 0.0,
  "cbm": null,
  "vbm": null,
  "efermi": 5.63420856,
  "is_gap_direct": null,
  "is_metal": null,
  "es_source_calc_id": null,
  "bandstructure": null,
  "dos": null,
  "dos_energy_up": null,
  "dos_energy_down": null,
  "is_magnetic": null,
  "ordering": null,
  "total_magnetization": 1e-7,
  "total_magnetization_normalized_vol": null,
  "total_magnetization_normalized_formula_units": null,
  "num_magnetic_sites": null,
  "num_unique_magnetic_sites": null,
  "types_of_magnetic_species": null,
  "bulk_modulus": null,
  "shear_modulus": null,
  "universal_anisotropy": null,
  "homogeneous_poisson": null,
  "e_total": null,
  "e_ionic": null,
  "e_electronic": null,
  "n": null,
  "e_ij_max": null,
  "weighted_surface_energy_EV_PER_ANG2": null,
  "weighted_surface_energy": null,
  "weighted_work_function": null,
  "surface_anisotropy": null,
  "shape_factor": null,
  "has_reconstructed": null,
  "possible_species": null,
  "has_props": null,
  "theoretical": null,
  "database_IDs": null,
  "fields_not_requested": [
    "builder_meta",
    "nsites",
    "elements",
    "nelements",
    "composition",
    "composition_reduced",
    "chemsys",
    "symmetry",
    "property_name",
    "deprecated",
    "deprecation_reasons",
    "last_updated",
    "origins",
    "warnings",
    "task_ids",
    "uncorrected_energy_per_atom",
    "equilibrium_reaction_energy_per_atom",
    "decomposes_to",
    "xas",
    "grain_boundaries",
    "cbm",
    "vbm",
    "is_gap_direct",
    "is_metal",
    "es_source_calc_id",
    "bandstructure",
    "dos",
    "dos_energy_up",
    "dos_energy_down",
    "is_magnetic",
    "ordering",
    "total_magnetization_normalized_vol",
    "total_magnetization_normalized_formula_units",
    "num_magnetic_sites",
    "num_unique_magnetic_sites",
    "types_of_magnetic_species",
    "bulk_modulus",
    "shear_modulus",
    "universal_anisotropy",
    "homogeneous_poisson",
    "e_total",
    "e_ionic",
    "e_electronic",
    "n",
    "e_ij_max",
    "weighted_surface_energy_EV_PER_ANG2",
    "weighted_surface_energy",
    "weighted_work_function",
    "surface_anisotropy",
    "shape_factor",
    "has_reconstructed",
    "possible_species",
    "has_props",
    "theoretical",
    "database_IDs"
  ]
}
