{"builder_meta": null, "nsites": null, "elements": null, "nelements": null, "composition": null, "composition_reduced": null, "formula_pretty": "Hf4Al3", "formula_anonymous": "A3B4", "chemsys": null, "volume": 132.83095942981515, "density": 9.937217757235322, "density_atomic": 18.97585134711645, "symmetry": null, "property_name": null, "material_id": "mp-1025223", "deprecated": null, "deprecation_reasons": null, "last_updated": null, "origins": null, "warnings": null, "structure": {"@module": "pymatgen.core.structure", "@class": "Structure", "charge": 0, "lattice": {"matrix": [[-2.66341582, -4.6131722, -0.0], [-2.66341582, 4.6131722, 0.0], [-0.0, 0.0, -5.40543529]], "pbc": [true, true, true], "a": 5.326832227232158, "b": 5.326832227232158, "c": 5.40543529, "alpha": 90.0, "beta": 90.0, "gamma": 120.00000729344654, "volume": 132.83095942981515}, "properties": {}, "sites": [{"species": [{"element": "Hf", "occu": 1}], "abc": [-0.0, -0.0, 0.74031658], "properties": {"magmom": 0.1}, "label": "Hf", "xyz": [0.0, 0.0, -4.001733367304108]}, {"species": [{"element": "Hf", "occu": 1}], "abc": [0.0, 0.0, 0.25968342], "properties": {"magmom": 0.1}, "label": "Hf", "xyz": [0.0, 0.0, -1.4037019226958918]}, {"species": [{"element": "Hf", "occu": 1}], "abc": [0.666667, 0.333333, 0.5], "properties": {"magmom": 0.024}, "label": "Hf", "xyz": [-2.66341582, -1.5377271421148002, -2.702717645]}, {"species": [{"element": "Hf", "occu": 1}], "abc": [0.333333, 0.666667, 0.5], "properties": {"magmom": 0.024}, "label": "Hf", "xyz": [-2.66341582, 1.5377271421148002, -2.702717645]}, {"species": [{"element": "Al", "occu": 1}], "abc": [0.5, 0.5, 0.0], "properties": {"magmom": -0.001}, "label": "Al", "xyz": [-2.66341582, 0.0, 0.0]}, {"species": [{"element": "Al", "occu": 1}], "abc": [-0.0, 0.5, 0.0], "properties": {"magmom": -0.001}, "label": "Al", "xyz": [-1.33170791, 2.3065861, 0.0]}, {"species": [{"element": "Al", "occu": 1}], "abc": [0.5, 0.0, -0.0], "properties": {"magmom": -0.001}, "label": "Al", "xyz": [-1.33170791, -2.3065861, 0.0]}]}, "task_ids": null, "uncorrected_energy_per_atom": null, "energy_per_atom": -29.13247679142857, "formation_energy_per_atom": -0.44648299857142804, "energy_above_hull": 0.0, "is_stable": true, "equilibrium_reaction_energy_per_atom": null, "decomposes_to": null, "xas": null, "grain_boundaries": null, "band_gap": 0.0, "cbm": null, "vbm": null, "efermi": 5.91520622, "is_gap_direct": null, "is_metal": null, "es_source_calc_id": null, "bandstructure": null, "dos": null, "dos_energy_up": null, "dos_energy_down": null, "is_magnetic": null, "ordering": null, "total_magnetization": 0.325522, "total_magnetization_normalized_vol": null, "total_magnetization_normalized_formula_units": null, "num_magnetic_sites": null, "num_unique_magnetic_sites": null, "types_of_magnetic_species": null, "bulk_modulus": null, "shear_modulus": null, "universal_anisotropy": null, "homogeneous_poisson": null, "e_total": null, "e_ionic": null, "e_electronic": null, "n": null, "e_ij_max": null, "weighted_surface_energy_EV_PER_ANG2": null, "weighted_surface_energy": null, "weighted_work_function": null, "surface_anisotropy": null, "shape_factor": null, "has_reconstructed": null, "possible_species": null, "has_props": null, "theoretical": null, "database_IDs": null, "fields_not_requested": ["builder_meta", "nsites", "elements", "nelements", "composition", "composition_reduced", "chemsys", "symmetry", "property_name", "deprecated", "deprecation_reasons", "last_updated", "origins", "warnings", "task_ids", "uncorrected_energy_per_atom", "equilibrium_reaction_energy_per_atom", "decomposes_to", "xas", "grain_boundaries", "cbm", "vbm", "is_gap_direct", "is_metal", "es_source_calc_id", "bandstructure", "dos", "dos_energy_up", "dos_energy_down", "is_magnetic", "ordering", "total_magnetization_normalized_vol", "total_magnetization_normalized_formula_units", "num_magnetic_sites", "num_unique_magnetic_sites", "types_of_magnetic_species", "bulk_modulus", "shear_modulus", "universal_anisotropy", "homogeneous_poisson", "e_total", "e_ionic", "e_electronic", "n", "e_ij_max", "weighted_surface_energy_EV_PER_ANG2", "weighted_surface_energy", "weighted_work_function", "surface_anisotropy", "shape_factor", "has_reconstructed", "possible_species", "has_props", "theoretical", "database_IDs"]}