{"builder_meta": null, "nsites": null, "elements": null, "nelements": null, "composition": null, "composition_reduced": null, "formula_pretty": "Hf4Fe", "formula_anonymous": "AB4", "chemsys": null, "volume": 220.84810873238357, "density": 11.576203061018774, "density_atomic": 22.084810873238357, "symmetry": null, "property_name": null, "material_id": "mp-1212367", "deprecated": null, "deprecation_reasons": null, "last_updated": null, "origins": null, "warnings": null, "structure": {"@module": "pymatgen.core.structure", "@class": "Structure", "charge": 0, "lattice": {"matrix": [[-4.797569, -4.797569, 0.0], [-4.797569, 0.0, -4.797569], [0.0, -4.797569, -4.797569]], "pbc": [true, true, true], "a": 6.784787146220728, "b": 6.784787146220728, "c": 6.784787146220728, "alpha": 59.99999999999999, "beta": 59.99999999999999, "gamma": 59.99999999999999, "volume": 220.84810873238357}, "properties": {}, "sites": [{"species": [{"element": "Hf", "occu": 1}], "abc": [0.610692999999999, 0.610692999999999, 0.610692999999999], "properties": {"magmom": 0.002}, "label": "Hf", "xyz": [-5.859683610633991, -5.859683610633991, -5.859683610633991]}, {"species": [{"element": "Hf", "occu": 1}], "abc": [0.167921, 0.610692999999999, 0.610692999999999], "properties": {"magmom": 0.002}, "label": "Hf", "xyz": [-3.7354543893659953, -3.7354543893659953, -5.859683610633991]}, {"species": [{"element": "Hf", "occu": 1}], "abc": [0.610692999999999, 0.167921, 0.610692999999999], "properties": {"magmom": 0.002}, "label": "Hf", "xyz": [-3.7354543893659953, -5.859683610633991, -3.7354543893659953]}, {"species": [{"element": "Hf", "occu": 1}], "abc": [0.582079, 0.139307, 0.139307], "properties": {"magmom": 0.002}, "label": "Hf", "xyz": [-3.460899110634, -3.460899110634, -1.3366698893659998]}, {"species": [{"element": "Hf", "occu": 1}], "abc": [0.139307, 0.139307, 0.139307], "properties": {"magmom": 0.002}, "label": "Hf", "xyz": [-1.3366698893659998, -1.3366698893659998, -1.3366698893659998]}, {"species": [{"element": "Hf", "occu": 1}], "abc": [0.610692999999999, 0.610692999999999, 0.167921], "properties": {"magmom": 0.002}, "label": "Hf", "xyz": [-5.859683610633991, -3.7354543893659953, -3.7354543893659953]}, {"species": [{"element": "Hf", "occu": 1}], "abc": [0.139307, 0.582079, 0.139307], "properties": {"magmom": 0.002}, "label": "Hf", "xyz": [-3.460899110634, -1.3366698893659998, -3.460899110634]}, {"species": [{"element": "Hf", "occu": 1}], "abc": [0.139307, 0.139307, 0.582079], "properties": {"magmom": 0.002}, "label": "Hf", "xyz": [-1.3366698893659998, -3.460899110634, -3.460899110634]}, {"species": [{"element": "Fe", "occu": 1}], "abc": [0.0, 0.0, 0.0], "properties": {"magmom": 0.056}, "label": "Fe", "xyz": [0.0, 0.0, 0.0]}, {"species": [{"element": "Fe", "occu": 1}], "abc": [0.75, 0.75, 0.75], "properties": {"magmom": 0.056}, "label": "Fe", "xyz": [-7.196353500000001, -7.196353500000001, -7.196353500000001]}]}, "task_ids": null, "uncorrected_energy_per_atom": null, "energy_per_atom": -9.043788993, "formation_energy_per_atom": 0.6159664730000011, "energy_above_hull": 0.725455034249996, "is_stable": false, "equilibrium_reaction_energy_per_atom": null, "decomposes_to": null, "xas": null, "grain_boundaries": null, "band_gap": 0.0, "cbm": null, "vbm": null, "efermi": 4.21000516, "is_gap_direct": null, "is_metal": null, "es_source_calc_id": null, "bandstructure": null, "dos": null, "dos_energy_up": null, "dos_energy_down": null, "is_magnetic": null, "ordering": null, "total_magnetization": 0.1378086, "total_magnetization_normalized_vol": null, "total_magnetization_normalized_formula_units": null, "num_magnetic_sites": null, "num_unique_magnetic_sites": null, "types_of_magnetic_species": null, "bulk_modulus": null, "shear_modulus": null, "universal_anisotropy": null, "homogeneous_poisson": null, "e_total": null, "e_ionic": null, "e_electronic": null, "n": null, "e_ij_max": null, "weighted_surface_energy_EV_PER_ANG2": null, "weighted_surface_energy": null, "weighted_work_function": null, "surface_anisotropy": null, "shape_factor": null, "has_reconstructed": null, "possible_species": null, "has_props": null, "theoretical": null, "database_IDs": null, "fields_not_requested": ["builder_meta", "nsites", "elements", "nelements", "composition", "composition_reduced", "chemsys", "symmetry", "property_name", "deprecated", "deprecation_reasons", "last_updated", "origins", "warnings", "task_ids", "uncorrected_energy_per_atom", "equilibrium_reaction_energy_per_atom", "decomposes_to", "xas", "grain_boundaries", "cbm", "vbm", "is_gap_direct", "is_metal", "es_source_calc_id", "bandstructure", "dos", "dos_energy_up", "dos_energy_down", "is_magnetic", "ordering", "total_magnetization_normalized_vol", "total_magnetization_normalized_formula_units", "num_magnetic_sites", "num_unique_magnetic_sites", "types_of_magnetic_species", "bulk_modulus", "shear_modulus", "universal_anisotropy", "homogeneous_poisson", "e_total", "e_ionic", "e_electronic", "n", "e_ij_max", "weighted_surface_energy_EV_PER_ANG2", "weighted_surface_energy", "weighted_work_function", "surface_anisotropy", "shape_factor", "has_reconstructed", "possible_species", "has_props", "theoretical", "database_IDs"]}