{"builder_meta": null, "nsites": null, "elements": null, "nelements": null, "composition": null, "composition_reduced": null, "formula_pretty": "Hf4N3", "formula_anonymous": "A3B4", "chemsys": null, "volume": 91.95301365900714, "density": 13.651912424288552, "density_atomic": 13.136144808429592, "symmetry": null, "property_name": null, "material_id": "mp-1224391", "deprecated": null, "deprecation_reasons": null, "last_updated": null, "origins": null, "warnings": null, "structure": {"@module": "pymatgen.core.structure", "@class": "Structure", "charge": 0, "lattice": {"matrix": [[10.57571733, -1.587270709999999, 0.00360901], [10.57571733, 1.587270709999999, 0.00360901], [10.33655576, -0.0, 2.74242083]], "pbc": [true, true, true], "a": 10.694168428439838, "b": 10.694168428439838, "c": 10.694169298660231, "alpha": 17.071208577996646, "beta": 17.071208577996646, "gamma": 17.071206272886393, "volume": 91.95301365900708}, "properties": {}, "sites": [{"species": [{"element": "Hf", "occu": 1}], "abc": [0.62563396, 0.62563396, 0.62563396], "properties": {"magmom": 0.148}, "label": "Hf", "xyz": [19.699956138906664, 0.0, 1.7202674422953461]}, {"species": [{"element": "Hf", "occu": 1}], "abc": [0.37500246, 0.37500246, 0.37500246], "properties": {"magmom": 0.092}, "label": "Hf", "xyz": [11.808073867956432, 0.0, 1.031121332861571]}, {"species": [{"element": "Hf", "occu": 1}], "abc": [0.7907066500000001, 0.7907066500000001, 0.7907066500000001], "properties": {"magmom": 0.232}, "label": "Hf", "xyz": [24.897763420230298, 0.0, 2.1741577237933525]}, {"species": [{"element": "Hf", "occu": 1}], "abc": [0.206420599999999, 0.206420599999999, 0.206420599999999], "properties": {"magmom": -0.017}, "label": "Hf", "xyz": [6.49976987529062, 0.0, 0.5675821012003073]}, {"species": [{"element": "N", "occu": 1}], "abc": [0.50108312, 0.50108312, 0.50108312], "properties": {"magmom": 0.01}, "label": "N", "xyz": [15.77810048218371, 0.0, 1.377797613831212]}, {"species": [{"element": "N", "occu": 1}], "abc": [0.00193703, 0.00193703, 0.00193703], "properties": {"magmom": 0.023}, "label": "N", "xyz": [0.06099318208325259, 0.0, 0.0053261329416155]}, {"species": [{"element": "N", "occu": 1}], "abc": [0.914216199999999, 0.914216199999999, 0.914216199999999], "properties": {"magmom": 0.012}, "label": "N", "xyz": [28.786830947408774, 0.0, 2.5137643808193673]}]}, "task_ids": null, "uncorrected_energy_per_atom": null, "energy_per_atom": -31.43850699714286, "formation_energy_per_atom": -1.7253764866071442, "energy_above_hull": 0.043493647142856, "is_stable": false, "equilibrium_reaction_energy_per_atom": null, "decomposes_to": null, "xas": null, "grain_boundaries": null, "band_gap": 0.0, "cbm": null, "vbm": null, "efermi": 7.09671659, "is_gap_direct": null, "is_metal": null, "es_source_calc_id": null, "bandstructure": null, "dos": null, "dos_energy_up": null, "dos_energy_down": null, "is_magnetic": null, "ordering": null, "total_magnetization": 0.7300141, "total_magnetization_normalized_vol": null, "total_magnetization_normalized_formula_units": null, "num_magnetic_sites": null, "num_unique_magnetic_sites": null, "types_of_magnetic_species": null, "bulk_modulus": null, "shear_modulus": null, "universal_anisotropy": null, "homogeneous_poisson": null, "e_total": null, "e_ionic": null, "e_electronic": null, "n": null, "e_ij_max": null, "weighted_surface_energy_EV_PER_ANG2": null, "weighted_surface_energy": null, "weighted_work_function": null, "surface_anisotropy": null, "shape_factor": null, "has_reconstructed": null, "possible_species": null, "has_props": null, "theoretical": null, "database_IDs": null, "fields_not_requested": ["builder_meta", "nsites", "elements", "nelements", "composition", "composition_reduced", "chemsys", "symmetry", "property_name", "deprecated", "deprecation_reasons", "last_updated", "origins", "warnings", "task_ids", "uncorrected_energy_per_atom", "equilibrium_reaction_energy_per_atom", "decomposes_to", "xas", "grain_boundaries", "cbm", "vbm", "is_gap_direct", "is_metal", "es_source_calc_id", "bandstructure", "dos", "dos_energy_up", "dos_energy_down", "is_magnetic", "ordering", "total_magnetization_normalized_vol", "total_magnetization_normalized_formula_units", "num_magnetic_sites", "num_unique_magnetic_sites", "types_of_magnetic_species", "bulk_modulus", "shear_modulus", "universal_anisotropy", "homogeneous_poisson", "e_total", "e_ionic", "e_electronic", "n", "e_ij_max", "weighted_surface_energy_EV_PER_ANG2", "weighted_surface_energy", "weighted_work_function", "surface_anisotropy", "shape_factor", "has_reconstructed", "possible_species", "has_props", "theoretical", "database_IDs"]}