{
  "builder_meta": null,
  "nsites": null,
  "elements": null,
  "nelements": null,
  "composition": null,
  "composition_reduced": null,
  "formula_pretty": "Hf4V",
  "formula_anonymous": "AB4",
  "chemsys": null,
  "volume": 229.42694122796507,
  "density": 11.072359820103989,
  "density_atomic": 22.942694122796507,
  "symmetry": null,
  "property_name": null,
  "material_id": "mp-1212224",
  "deprecated": null,
  "deprecation_reasons": null,
  "last_updated": null,
  "origins": null,
  "warnings": null,
  "structure": {
    "@module": "pymatgen.core.structure",
    "@class": "Structure",
    "charge": 0,
    "lattice": {
      "matrix": [
        [-4.858902, -4.858902, 0.0],
        [-4.858902, 0.0, -4.858902],
        [0.0, -4.858902, -4.858902]
      ],
      "pbc": [true, true, true],
      "a": 6.871525106641756,
      "b": 6.871525106641756,
      "c": 6.871525106641756,
      "alpha": 60.00000000000001,
      "beta": 60.00000000000001,
      "gamma": 60.00000000000001,
      "volume": 229.42694122796507
    },
    "properties": {},
    "sites": [
      {
        "species": [{ "element": "Hf", "occu": 1 }],
        "abc": [0.6063400000000001, 0.6063400000000001, 0.6063400000000001],
        "properties": { "magmom": 0.08 },
        "label": "Hf",
        "xyz": [-5.89229327736, -5.89229327736, -5.89229327736]
      },
      {
        "species": [{ "element": "Hf", "occu": 1 }],
        "abc": [0.18098, 0.6063400000000001, 0.6063400000000001],
        "properties": { "magmom": 0.08 },
        "label": "Hf",
        "xyz": [-3.8255107226400002, -3.8255107226400002, -5.89229327736]
      },
      {
        "species": [{ "element": "Hf", "occu": 1 }],
        "abc": [0.6063400000000001, 0.18098, 0.6063400000000001],
        "properties": { "magmom": 0.08 },
        "label": "Hf",
        "xyz": [-3.8255107226400002, -5.89229327736, -3.8255107226400002]
      },
      {
        "species": [{ "element": "Hf", "occu": 1 }],
        "abc": [0.5690200000000001, 0.14366, 0.14366],
        "properties": { "magmom": 0.08 },
        "label": "Hf",
        "xyz": [-3.46284227736, -3.46284227736, -1.39605972264]
      },
      {
        "species": [{ "element": "Hf", "occu": 1 }],
        "abc": [0.14366, 0.14366, 0.14366],
        "properties": { "magmom": 0.08 },
        "label": "Hf",
        "xyz": [-1.39605972264, -1.39605972264, -1.39605972264]
      },
      {
        "species": [{ "element": "Hf", "occu": 1 }],
        "abc": [0.6063400000000001, 0.6063400000000001, 0.18098],
        "properties": { "magmom": 0.08 },
        "label": "Hf",
        "xyz": [-5.89229327736, -3.8255107226400002, -3.8255107226400002]
      },
      {
        "species": [{ "element": "Hf", "occu": 1 }],
        "abc": [0.14366, 0.5690200000000001, 0.14366],
        "properties": { "magmom": 0.08 },
        "label": "Hf",
        "xyz": [-3.46284227736, -1.39605972264, -3.46284227736]
      },
      {
        "species": [{ "element": "Hf", "occu": 1 }],
        "abc": [0.14366, 0.14366, 0.5690200000000001],
        "properties": { "magmom": 0.08 },
        "label": "Hf",
        "xyz": [-1.39605972264, -3.46284227736, -3.46284227736]
      },
      {
        "species": [{ "element": "V", "occu": 1 }],
        "abc": [0.0, 0.0, 0.0],
        "properties": { "magmom": 1.5 },
        "label": "V",
        "xyz": [0.0, 0.0, 0.0]
      },
      {
        "species": [{ "element": "V", "occu": 1 }],
        "abc": [0.75, 0.75, 0.75],
        "properties": { "magmom": 1.5 },
        "label": "V",
        "xyz": [-7.288352999999999, -7.288352999999999, -7.288352999999999]
      }
    ]
  },
  "task_ids": null,
  "uncorrected_energy_per_atom": null,
  "energy_per_atom": -37.99800938999999,
  "formation_energy_per_atom": 0.9410380680000061,
  "energy_above_hull": 0.9410380680000041,
  "is_stable": false,
  "equilibrium_reaction_energy_per_atom": null,
  "decomposes_to": null,
  "xas": null,
  "grain_boundaries": null,
  "band_gap": 0.0,
  "cbm": null,
  "vbm": null,
  "efermi": 4.2723663,
  "is_gap_direct": null,
  "is_metal": null,
  "es_source_calc_id": null,
  "bandstructure": null,
  "dos": null,
  "dos_energy_up": null,
  "dos_energy_down": null,
  "is_magnetic": null,
  "ordering": null,
  "total_magnetization": 3.7182338,
  "total_magnetization_normalized_vol": null,
  "total_magnetization_normalized_formula_units": null,
  "num_magnetic_sites": null,
  "num_unique_magnetic_sites": null,
  "types_of_magnetic_species": null,
  "bulk_modulus": null,
  "shear_modulus": null,
  "universal_anisotropy": null,
  "homogeneous_poisson": null,
  "e_total": null,
  "e_ionic": null,
  "e_electronic": null,
  "n": null,
  "e_ij_max": null,
  "weighted_surface_energy_EV_PER_ANG2": null,
  "weighted_surface_energy": null,
  "weighted_work_function": null,
  "surface_anisotropy": null,
  "shape_factor": null,
  "has_reconstructed": null,
  "possible_species": null,
  "has_props": null,
  "theoretical": null,
  "database_IDs": null,
  "fields_not_requested": [
    "builder_meta",
    "nsites",
    "elements",
    "nelements",
    "composition",
    "composition_reduced",
    "chemsys",
    "symmetry",
    "property_name",
    "deprecated",
    "deprecation_reasons",
    "last_updated",
    "origins",
    "warnings",
    "task_ids",
    "uncorrected_energy_per_atom",
    "equilibrium_reaction_energy_per_atom",
    "decomposes_to",
    "xas",
    "grain_boundaries",
    "cbm",
    "vbm",
    "is_gap_direct",
    "is_metal",
    "es_source_calc_id",
    "bandstructure",
    "dos",
    "dos_energy_up",
    "dos_energy_down",
    "is_magnetic",
    "ordering",
    "total_magnetization_normalized_vol",
    "total_magnetization_normalized_formula_units",
    "num_magnetic_sites",
    "num_unique_magnetic_sites",
    "types_of_magnetic_species",
    "bulk_modulus",
    "shear_modulus",
    "universal_anisotropy",
    "homogeneous_poisson",
    "e_total",
    "e_ionic",
    "e_electronic",
    "n",
    "e_ij_max",
    "weighted_surface_energy_EV_PER_ANG2",
    "weighted_surface_energy",
    "weighted_work_function",
    "surface_anisotropy",
    "shape_factor",
    "has_reconstructed",
    "possible_species",
    "has_props",
    "theoretical",
    "database_IDs"
  ]
}
