{"builder_meta": null, "nsites": null, "elements": null, "nelements": null, "composition": null, "composition_reduced": null, "formula_pretty": "Hf5As3", "formula_anonymous": "A3B5", "chemsys": null, "volume": 1243.1488982815517, "density": 11.938578387500865, "density_atomic": 19.424201535649246, "symmetry": null, "property_name": null, "material_id": "mp-1197748", "deprecated": null, "deprecation_reasons": null, "last_updated": null, "origins": null, "warnings": null, "structure": {"@module": "pymatgen.core.structure", "@class": "Structure", "charge": 0, "lattice": {"matrix": [[0.0, 3.619572, 0.0], [0.0, 0.0, 12.405463], [27.685537, 0.0, 0.0]], "pbc": [true, true, true], "a": 3.619572, "b": 12.405463, "c": 27.685537, "alpha": 90.0, "beta": 90.0, "gamma": 90.0, "volume": 1243.1488982815517}, "properties": {}, "sites": [{"species": [{"element": "Hf", "occu": 1}], "abc": [0.25, 0.8801200000000001, 0.726884], "properties": {"magmom": 0.0}, "label": "Hf", "xyz": [20.124173876708, 0.904893, 10.91829609556]}, {"species": [{"element": "Hf", "occu": 1}], "abc": [0.25, 0.6198800000000001, 0.226884], "properties": {"magmom": 0.0}, "label": "Hf", "xyz": [6.281405376708, 0.904893, 7.689898404440001]}, {"species": [{"element": "Hf", "occu": 1}], "abc": [0.75, 0.11988000000000001, 0.273115999999999], "properties": {"magmom": 0.0}, "label": "Hf", "xyz": [7.561363123291973, 2.714679, 1.48716690444]}, {"species": [{"element": "Hf", "occu": 1}], "abc": [0.75, 0.38012, 0.773115999999999], "properties": {"magmom": 0.0}, "label": "Hf", "xyz": [21.404131623291974, 2.714679, 4.71556459556]}, {"species": [{"element": "Hf", "occu": 1}], "abc": [0.25, 0.53942, 0.823452], "properties": {"magmom": 0.0}, "label": "Hf", "xyz": [22.797710813724, 0.904893, 6.69175485146]}, {"species": [{"element": "Hf", "occu": 1}], "abc": [0.25, 0.9605800000000001, 0.323451999999999], "properties": {"magmom": 0.0}, "label": "Hf", "xyz": [8.954942313723972, 0.904893, 11.91643964854]}, {"species": [{"element": "Hf", "occu": 1}], "abc": [0.75, 0.46058000000000004, 0.176547999999999], "properties": {"magmom": 0.0}, "label": "Hf", "xyz": [4.887826186275973, 2.714679, 5.71370814854]}, {"species": [{"element": "Hf", "occu": 1}], "abc": [0.75, 0.039420000000000004, 0.676547999999999], "properties": {"magmom": 0.0}, "label": "Hf", "xyz": [18.730594686275975, 2.714679, 0.48902335146000003]}, {"species": [{"element": "Hf", "occu": 1}], "abc": [0.25, 0.926599, 0.601366], "properties": {"magmom": 0.0}, "label": "Hf", "xyz": [16.649140643541998, 0.904893, 11.494889610337]}, {"species": [{"element": "Hf", "occu": 1}], "abc": [0.25, 0.573400999999999, 0.101366], "properties": {"magmom": 0.0}, "label": "Hf", "xyz": [2.806372143542, 0.904893, 7.113304889662988]}, {"species": [{"element": "Hf", "occu": 1}], "abc": [0.75, 0.073401, 0.398634], "properties": {"magmom": 0.0}, "label": "Hf", "xyz": [11.036396356457999, 2.714679, 0.9105733896629998]}, {"species": [{"element": "Hf", "occu": 1}], "abc": [0.75, 0.426599, 0.898633999999999], "properties": {"magmom": 0.0}, "label": "Hf", "xyz": [24.879164856457972, 2.714679, 5.292158110337]}, {"species": [{"element": "Hf", "occu": 1}], "abc": [0.25, 0.208793999999999, 0.623761], "properties": {"magmom": 0.0}, "label": "Hf", "xyz": [17.269158244657, 0.904893, 2.5901862416219874]}, {"species": [{"element": "Hf", "occu": 1}], "abc": [0.25, 0.291205999999999, 0.123761], "properties": {"magmom": 0.0}, "label": "Hf", "xyz": [3.426389744657, 0.904893, 3.612545258377988]}, {"species": [{"element": "Hf", "occu": 1}], "abc": [0.75, 0.791206, 0.376239], "properties": {"magmom": 0.0}, "label": "Hf", "xyz": [10.416378755343, 2.714679, 9.815276758378]}, {"species": [{"element": "Hf", "occu": 1}], "abc": [0.75, 0.708793999999999, 0.876239], "properties": {"magmom": 0.0}, "label": "Hf", "xyz": [24.259147255343, 2.714679, 8.792917741621988]}, {"species": [{"element": "Hf", "occu": 1}], "abc": [0.25, 0.650983, 0.637693], "properties": {"magmom": 0.0}, "label": "Hf", "xyz": [17.654873146141, 0.904893, 8.075745520128999]}, {"species": [{"element": "Hf", "occu": 1}], "abc": [0.25, 0.849016999999999, 0.137692999999999], "properties": {"magmom": 0.0}, "label": "Hf", "xyz": [3.8121046461409724, 0.904893, 10.532448979870987]}, {"species": [{"element": "Hf", "occu": 1}], "abc": [0.75, 0.349016999999999, 0.362307], "properties": {"magmom": 0.0}, "label": "Hf", "xyz": [10.030663853859, 2.714679, 4.329717479870988]}, {"species": [{"element": "Hf", "occu": 1}], "abc": [0.75, 0.150983, 0.862306999999999], "properties": {"magmom": 0.0}, "label": "Hf", "xyz": [23.873432353858973, 2.714679, 1.873014020129]}, {"species": [{"element": "Hf", "occu": 1}], "abc": [0.25, 0.159579, 0.7612949999999991], "properties": {"magmom": 0.0}, "label": "Hf", "xyz": [21.076860890414974, 0.904893, 1.979651380077]}, {"species": [{"element": "Hf", "occu": 1}], "abc": [0.25, 0.340421, 0.261295], "properties": {"magmom": 0.0}, "label": "Hf", "xyz": [7.234092390415, 0.904893, 4.223080119922999]}, {"species": [{"element": "Hf", "occu": 1}], "abc": [0.75, 0.840421, 0.238705], "properties": {"magmom": 0.0}, "label": "Hf", "xyz": [6.608676109585, 2.714679, 10.425811619923]}, {"species": [{"element": "Hf", "occu": 1}], "abc": [0.75, 0.659578999999999, 0.738705], "properties": {"magmom": 0.0}, "label": "Hf", "xyz": [20.451444609585, 2.714679, 8.182382880076988]}, {"species": [{"element": "Hf", "occu": 1}], "abc": [0.25, 0.943021999999999, 0.849212], "properties": {"magmom": 0.0}, "label": "Hf", "xyz": [23.510890246844, 0.904893, 11.698624529185988]}, {"species": [{"element": "Hf", "occu": 1}], "abc": [0.25, 0.556978, 0.349211999999999], "properties": {"magmom": 0.0}, "label": "Hf", "xyz": [9.668121746843973, 0.904893, 6.909569970813999]}, {"species": [{"element": "Hf", "occu": 1}], "abc": [0.75, 0.056978, 0.150788], "properties": {"magmom": 0.0}, "label": "Hf", "xyz": [4.174646753156, 2.714679, 0.706838470814]}, {"species": [{"element": "Hf", "occu": 1}], "abc": [0.75, 0.443021999999999, 0.650787999999999], "properties": {"magmom": 0.0}, "label": "Hf", "xyz": [18.017415253155974, 2.714679, 5.4958930291859875]}, {"species": [{"element": "Hf", "occu": 1}], "abc": [0.25, 0.803283, 0.955391], "properties": {"magmom": 0.0}, "label": "Hf", "xyz": [26.450512879967, 0.904893, 9.965097535028999]}, {"species": [{"element": "Hf", "occu": 1}], "abc": [0.25, 0.696716999999999, 0.455391], "properties": {"magmom": 0.0}, "label": "Hf", "xyz": [12.607744379967, 0.904893, 8.643096964970988]}, {"species": [{"element": "Hf", "occu": 1}], "abc": [0.75, 0.196717, 0.044608999999999004], "properties": {"magmom": 0.0}, "label": "Hf", "xyz": [1.2350241200329724, 2.714679, 2.440365464971]}, {"species": [{"element": "Hf", "occu": 1}], "abc": [0.75, 0.303282999999999, 0.544609], "properties": {"magmom": 0.0}, "label": "Hf", "xyz": [15.077792620033, 2.714679, 3.762366035028988]}, {"species": [{"element": "Hf", "occu": 1}], "abc": [0.25, 0.083878, 0.967904], "properties": {"magmom": 0.0}, "label": "Hf", "xyz": [26.796942004448, 0.904893, 1.0405454255139999]}, {"species": [{"element": "Hf", "occu": 1}], "abc": [0.25, 0.416122, 0.467904], "properties": {"magmom": 0.0}, "label": "Hf", "xyz": [12.954173504447999, 0.904893, 5.162186074486]}, {"species": [{"element": "Hf", "occu": 1}], "abc": [0.75, 0.916122, 0.032096], "properties": {"magmom": 0.0}, "label": "Hf", "xyz": [0.8885949955519999, 2.714679, 11.364917574485998]}, {"species": [{"element": "Hf", "occu": 1}], "abc": [0.75, 0.583878, 0.532096], "properties": {"magmom": 0.0}, "label": "Hf", "xyz": [14.731363495552001, 2.714679, 7.2432769255139995]}, {"species": [{"element": "Hf", "occu": 1}], "abc": [0.25, 0.388827, 0.998671], "properties": {"magmom": 0.0}, "label": "Hf", "xyz": [27.648742921327, 0.904893, 4.823578961900999]}, {"species": [{"element": "Hf", "occu": 1}], "abc": [0.25, 0.111173, 0.498671], "properties": {"magmom": 0.0}, "label": "Hf", "xyz": [13.805974421326999, 0.904893, 1.3791525380989997]}, {"species": [{"element": "Hf", "occu": 1}], "abc": [0.75, 0.611173, 0.001328999999999], "properties": {"magmom": 0.0}, "label": "Hf", "xyz": [0.03679407867297232, 2.714679, 7.581884038098999]}, {"species": [{"element": "Hf", "occu": 1}], "abc": [0.75, 0.888826999999999, 0.501329], "properties": {"magmom": 0.0}, "label": "Hf", "xyz": [13.879562578673001, 2.714679, 11.026310461900987]}, {"species": [{"element": "As", "occu": 1}], "abc": [0.25, 0.750211, 0.54884], "properties": {"magmom": -0.0}, "label": "As", "xyz": [15.19493012708, 0.904893, 9.306714802693]}, {"species": [{"element": "As", "occu": 1}], "abc": [0.25, 0.749788999999999, 0.04884], "properties": {"magmom": -0.0}, "label": "As", "xyz": [1.35216162708, 0.904893, 9.301479697306988]}, {"species": [{"element": "As", "occu": 1}], "abc": [0.75, 0.249788999999999, 0.45116000000000006], "properties": {"magmom": -0.0}, "label": "As", "xyz": [12.490606872920003, 2.714679, 3.0987481973069877]}, {"species": [{"element": "As", "occu": 1}], "abc": [0.75, 0.250210999999999, 0.9511600000000001], "properties": {"magmom": -0.0}, "label": "As", "xyz": [26.333375372920003, 2.714679, 3.1039833026929875]}, {"species": [{"element": "As", "occu": 1}], "abc": [0.25, 0.449833, 0.576674], "properties": {"magmom": -0.0}, "label": "As", "xyz": [15.965529363938, 0.904893, 5.580386637678999]}, {"species": [{"element": "As", "occu": 1}], "abc": [0.25, 0.050166999999999004, 0.076673999999999], "properties": {"magmom": -0.0}, "label": "As", "xyz": [2.1227608639379727, 0.904893, 0.6223448623209876]}, {"species": [{"element": "As", "occu": 1}], "abc": [0.75, 0.550167, 0.423326], "properties": {"magmom": -0.0}, "label": "As", "xyz": [11.720007636062, 2.714679, 6.825076362320999]}, {"species": [{"element": "As", "occu": 1}], "abc": [0.75, 0.949832999999999, 0.923326], "properties": {"magmom": -0.0}, "label": "As", "xyz": [25.562776136062, 2.714679, 11.783118137678988]}, {"species": [{"element": "As", "occu": 1}], "abc": [0.25, 0.502334, 0.720514], "properties": {"magmom": -0.0}, "label": "As", "xyz": [19.947817006018, 0.904893, 6.231685850641999]}, {"species": [{"element": "As", "occu": 1}], "abc": [0.25, 0.997665999999999, 0.220514], "properties": {"magmom": -0.0}, "label": "As", "xyz": [6.105048506018, 0.904893, 12.376508649357987]}, {"species": [{"element": "As", "occu": 1}], "abc": [0.75, 0.497666, 0.279486], "properties": {"magmom": -0.0}, "label": "As", "xyz": [7.737719993982, 2.714679, 6.173777149357999]}, {"species": [{"element": "As", "occu": 1}], "abc": [0.75, 0.002333999999999, 0.779486], "properties": {"magmom": -0.0}, "label": "As", "xyz": [21.580488493982, 2.714679, 0.028954350641987595]}, {"species": [{"element": "As", "occu": 1}], "abc": [0.25, 0.750782, 0.802603], "properties": {"magmom": -0.0}, "label": "As", "xyz": [22.220495052811, 0.904893, 9.313798322065999]}, {"species": [{"element": "As", "occu": 1}], "abc": [0.25, 0.749217999999999, 0.302603], "properties": {"magmom": -0.0}, "label": "As", "xyz": [8.377726552811, 0.904893, 9.294396177933988]}, {"species": [{"element": "As", "occu": 1}], "abc": [0.75, 0.249218, 0.197397], "properties": {"magmom": -0.0}, "label": "As", "xyz": [5.4650419471889995, 2.714679, 3.091664677934]}, {"species": [{"element": "As", "occu": 1}], "abc": [0.75, 0.250782, 0.697396999999999], "properties": {"magmom": -0.0}, "label": "As", "xyz": [19.307810447188974, 2.714679, 3.111066822066]}, {"species": [{"element": "As", "occu": 1}], "abc": [0.25, 0.311417, 0.839584], "properties": {"magmom": -0.0}, "label": "As", "xyz": [23.244333896608, 0.904893, 3.8632720710709996]}, {"species": [{"element": "As", "occu": 1}], "abc": [0.25, 0.188583, 0.339584], "properties": {"magmom": -0.0}, "label": "As", "xyz": [9.401565396608, 0.904893, 2.339459428929]}, {"species": [{"element": "As", "occu": 1}], "abc": [0.75, 0.688583, 0.160416], "properties": {"magmom": -0.0}, "label": "As", "xyz": [4.4412031033920005, 2.714679, 8.542190928929]}, {"species": [{"element": "As", "occu": 1}], "abc": [0.75, 0.8114169999999991, 0.660416], "properties": {"magmom": -0.0}, "label": "As", "xyz": [18.283971603392, 2.714679, 10.066003571070988]}, {"species": [{"element": "As", "occu": 1}], "abc": [0.25, 0.579684, 0.927435999999999], "properties": {"magmom": -0.0}, "label": "As", "xyz": [25.676563693131975, 0.904893, 7.191248413692]}, {"species": [{"element": "As", "occu": 1}], "abc": [0.25, 0.920315999999999, 0.427436], "properties": {"magmom": -0.0}, "label": "As", "xyz": [11.833795193132, 0.904893, 11.416946086307988]}, {"species": [{"element": "As", "occu": 1}], "abc": [0.75, 0.420315999999999, 0.072564], "properties": {"magmom": -0.0}, "label": "As", "xyz": [2.008973306868, 2.714679, 5.214214586307987]}, {"species": [{"element": "As", "occu": 1}], "abc": [0.75, 0.079683999999999, 0.572564], "properties": {"magmom": -0.0}, "label": "As", "xyz": [15.851741806867999, 2.714679, 0.9885169136919876]}]}, "task_ids": null, "uncorrected_energy_per_atom": null, "energy_per_atom": -8.83967936109375, "formation_energy_per_atom": -0.8651402676562491, "energy_above_hull": 0.0, "is_stable": true, "equilibrium_reaction_energy_per_atom": null, "decomposes_to": null, "xas": null, "grain_boundaries": null, "band_gap": 0.0, "cbm": null, "vbm": null, "efermi": 6.09144453, "is_gap_direct": null, "is_metal": null, "es_source_calc_id": null, "bandstructure": null, "dos": null, "dos_energy_up": null, "dos_energy_down": null, "is_magnetic": null, "ordering": null, "total_magnetization": 0.0036189, "total_magnetization_normalized_vol": null, "total_magnetization_normalized_formula_units": null, "num_magnetic_sites": null, "num_unique_magnetic_sites": null, "types_of_magnetic_species": null, "bulk_modulus": null, "shear_modulus": null, "universal_anisotropy": null, "homogeneous_poisson": null, "e_total": null, "e_ionic": null, "e_electronic": null, "n": null, "e_ij_max": null, "weighted_surface_energy_EV_PER_ANG2": null, "weighted_surface_energy": null, "weighted_work_function": null, "surface_anisotropy": null, "shape_factor": null, "has_reconstructed": null, "possible_species": null, "has_props": null, "theoretical": null, "database_IDs": null, "fields_not_requested": ["builder_meta", "nsites", "elements", "nelements", "composition", "composition_reduced", "chemsys", "symmetry", "property_name", "deprecated", "deprecation_reasons", "last_updated", "origins", "warnings", "task_ids", "uncorrected_energy_per_atom", "equilibrium_reaction_energy_per_atom", "decomposes_to", "xas", "grain_boundaries", "cbm", "vbm", "is_gap_direct", "is_metal", "es_source_calc_id", "bandstructure", "dos", "dos_energy_up", "dos_energy_down", "is_magnetic", "ordering", "total_magnetization_normalized_vol", "total_magnetization_normalized_formula_units", "num_magnetic_sites", "num_unique_magnetic_sites", "types_of_magnetic_species", "bulk_modulus", "shear_modulus", "universal_anisotropy", "homogeneous_poisson", "e_total", "e_ionic", "e_electronic", "n", "e_ij_max", "weighted_surface_energy_EV_PER_ANG2", "weighted_surface_energy", "weighted_work_function", "surface_anisotropy", "shape_factor", "has_reconstructed", "possible_species", "has_props", "theoretical", "database_IDs"]}