{"builder_meta": null, "nsites": null, "elements": null, "nelements": null, "composition": null, "composition_reduced": null, "formula_pretty": "Hf5Al3", "formula_anonymous": "A3B5", "chemsys": null, "volume": 320.57736438519476, "density": 10.084054373919146, "density_atomic": 20.036085274074672, "symmetry": null, "property_name": null, "material_id": "mp-2361", "deprecated": null, "deprecation_reasons": null, "last_updated": null, "origins": null, "warnings": null, "structure": {"@module": "pymatgen.core.structure", "@class": "Structure", "charge": 0, "lattice": {"matrix": [[8.07586084, -0.0, 0.0], [-4.03793092, 6.99390166, -0.0], [-0.0, 0.0, 5.67576631]], "pbc": [true, true, true], "a": 8.07586084, "b": 8.075861969130157, "c": 5.67576631, "alpha": 90.0, "beta": 90.0, "gamma": 119.99999947106686, "volume": 320.57736438519476}, "properties": {}, "sites": [{"species": [{"element": "Hf", "occu": 1}], "abc": [-0.0, 0.76162487, 0.75], "properties": {"magmom": -0.041}, "label": "Hf", "xyz": [-3.0753886120139806, 5.326729442590284, 4.2568247325]}, {"species": [{"element": "Hf", "occu": 1}], "abc": [0.0, 0.23837513000000002, 0.25], "properties": {"magmom": -0.041}, "label": "Hf", "xyz": [-0.9625423079860197, 1.6671722174097159, 1.4189415775]}, {"species": [{"element": "Hf", "occu": 1}], "abc": [0.76162487, 0.76162487, 0.25], "properties": {"magmom": -0.041}, "label": "Hf", "xyz": [3.0753878503891108, 5.326729442590284, 1.4189415775]}, {"species": [{"element": "Hf", "occu": 1}], "abc": [0.76162487, 0.0, 0.75], "properties": {"magmom": -0.041}, "label": "Hf", "xyz": [6.150776462403091, 0.0, 4.2568247325]}, {"species": [{"element": "Hf", "occu": 1}], "abc": [0.23837513000000002, 0.23837513000000002, 0.75], "properties": {"magmom": -0.041}, "label": "Hf", "xyz": [0.9625420696108898, 1.6671722174097159, 4.2568247325]}, {"species": [{"element": "Hf", "occu": 1}], "abc": [0.23837513000000002, -0.0, 0.25], "properties": {"magmom": -0.041}, "label": "Hf", "xyz": [1.9250843775969095, 0.0, 1.4189415775]}, {"species": [{"element": "Hf", "occu": 1}], "abc": [0.333333, 0.666667, 0.5], "properties": {"magmom": -0.166}, "label": "Hf", "xyz": [-4.3712639197224235e-06, 4.66260343796722, 2.837883155]}, {"species": [{"element": "Hf", "occu": 1}], "abc": [0.666667, 0.333333, 0.0], "properties": {"magmom": -0.166}, "label": "Hf", "xyz": [4.0379342912639204, 2.33129822203278, 0.0]}, {"species": [{"element": "Hf", "occu": 1}], "abc": [0.666667, 0.333333, 0.5], "properties": {"magmom": -0.166}, "label": "Hf", "xyz": [4.0379342912639204, 2.33129822203278, 2.837883155]}, {"species": [{"element": "Hf", "occu": 1}], "abc": [0.333333, 0.666667, 0.0], "properties": {"magmom": -0.166}, "label": "Hf", "xyz": [-4.3712639197224235e-06, 4.66260343796722, 0.0]}, {"species": [{"element": "Al", "occu": 1}], "abc": [0.39677323000000003, -0.0, 0.75], "properties": {"magmom": 0.005}, "label": "Al", "xyz": [3.2042853905173136, 0.0, 4.2568247325]}, {"species": [{"element": "Al", "occu": 1}], "abc": [0.39677323000000003, 0.39677323000000003, 0.25], "properties": {"magmom": 0.005}, "label": "Al", "xyz": [1.602142496872042, 2.774992951940562, 1.4189415775]}, {"species": [{"element": "Al", "occu": 1}], "abc": [-0.0, 0.60322677, 0.25], "properties": {"magmom": 0.005}, "label": "Al", "xyz": [-2.4357880263547287, 4.2189087080594385, 1.4189415775]}, {"species": [{"element": "Al", "occu": 1}], "abc": [0.0, 0.39677323000000003, 0.75], "properties": {"magmom": 0.005}, "label": "Al", "xyz": [-1.6021428936452717, 2.774992951940562, 4.2568247325]}, {"species": [{"element": "Al", "occu": 1}], "abc": [0.60322677, 0.60322677, 0.75], "properties": {"magmom": 0.005}, "label": "Al", "xyz": [2.435787423127959, 4.2189087080594385, 4.2568247325]}, {"species": [{"element": "Al", "occu": 1}], "abc": [0.60322677, 0.0, 0.25], "properties": {"magmom": 0.005}, "label": "Al", "xyz": [4.8715754494826875, 0.0, 1.4189415775]}]}, "task_ids": null, "uncorrected_energy_per_atom": null, "energy_per_atom": -31.084498393125, "formation_energy_per_atom": -0.34032690062499704, "energy_above_hull": 0.050345723125001005, "is_stable": false, "equilibrium_reaction_energy_per_atom": null, "decomposes_to": null, "xas": null, "grain_boundaries": null, "band_gap": 0.0, "cbm": null, "vbm": null, "efermi": 5.08852915, "is_gap_direct": null, "is_metal": null, "es_source_calc_id": null, "bandstructure": null, "dos": null, "dos_energy_up": null, "dos_energy_down": null, "is_magnetic": null, "ordering": null, "total_magnetization": 1.2428362, "total_magnetization_normalized_vol": null, "total_magnetization_normalized_formula_units": null, "num_magnetic_sites": null, "num_unique_magnetic_sites": null, "types_of_magnetic_species": null, "bulk_modulus": null, "shear_modulus": null, "universal_anisotropy": null, "homogeneous_poisson": null, "e_total": null, "e_ionic": null, "e_electronic": null, "n": null, "e_ij_max": null, "weighted_surface_energy_EV_PER_ANG2": null, "weighted_surface_energy": null, "weighted_work_function": null, "surface_anisotropy": null, "shape_factor": null, "has_reconstructed": null, "possible_species": null, "has_props": null, "theoretical": null, "database_IDs": null, "fields_not_requested": ["builder_meta", "nsites", "elements", "nelements", "composition", "composition_reduced", "chemsys", "symmetry", "property_name", "deprecated", "deprecation_reasons", "last_updated", "origins", "warnings", "task_ids", "uncorrected_energy_per_atom", "equilibrium_reaction_energy_per_atom", "decomposes_to", "xas", "grain_boundaries", "cbm", "vbm", "is_gap_direct", "is_metal", "es_source_calc_id", "bandstructure", "dos", "dos_energy_up", "dos_energy_down", "is_magnetic", "ordering", "total_magnetization_normalized_vol", "total_magnetization_normalized_formula_units", "num_magnetic_sites", "num_unique_magnetic_sites", "types_of_magnetic_species", "bulk_modulus", "shear_modulus", "universal_anisotropy", "homogeneous_poisson", "e_total", "e_ionic", "e_electronic", "n", "e_ij_max", "weighted_surface_energy_EV_PER_ANG2", "weighted_surface_energy", "weighted_work_function", "surface_anisotropy", "shape_factor", "has_reconstructed", "possible_species", "has_props", "theoretical", "database_IDs"]}