{
  "builder_meta": null,
  "nsites": null,
  "elements": null,
  "nelements": null,
  "composition": null,
  "composition_reduced": null,
  "formula_pretty": "Hf5Ge4",
  "formula_anonymous": "A4B5",
  "chemsys": null,
  "volume": 665.8365731881431,
  "density": 11.801300200572685,
  "density_atomic": 18.49546036633731,
  "symmetry": null,
  "property_name": null,
  "material_id": "mp-737",
  "deprecated": null,
  "deprecation_reasons": null,
  "last_updated": null,
  "origins": null,
  "warnings": null,
  "structure": {
    "@module": "pymatgen.core.structure",
    "@class": "Structure",
    "charge": 0,
    "lattice": {
      "matrix": [
        [7.01370133, 0.0, 0.0],
        [0.0, 7.09269166, 0.0],
        [0.0, 0.0, 13.38472024]
      ],
      "pbc": [true, true, true],
      "a": 7.01370133,
      "b": 7.09269166,
      "c": 13.38472024,
      "alpha": 90.0,
      "beta": 90.0,
      "gamma": 90.0,
      "volume": 665.8365731881431
    },
    "properties": {},
    "sites": [
      {
        "species": [{ "element": "Hf", "occu": 1 }],
        "abc": [0.01583723, 0.32293611, 0.09530653],
        "properties": { "magmom": -0.0 },
        "label": "Hf",
        "xyz": [0.11107760111451591, 2.2904862541098425, 1.2756512410951673]
      },
      {
        "species": [{ "element": "Hf", "occu": 1 }],
        "abc": [0.51583723, 0.17706389, 0.40469347],
        "properties": { "magmom": -0.0 },
        "label": "Hf",
        "xyz": [3.6179282661145162, 1.2558595758901574, 5.416708878904833]
      },
      {
        "species": [{ "element": "Hf", "occu": 1 }],
        "abc": [0.48416277, 0.82293611, 0.90469347],
        "properties": { "magmom": -0.0 },
        "label": "Hf",
        "xyz": [3.395773063885484, 5.836832084109843, 12.109068998904833]
      },
      {
        "species": [{ "element": "Hf", "occu": 1 }],
        "abc": [0.9841627700000001, 0.67706389, 0.59530653],
        "properties": { "magmom": -0.0 },
        "label": "Hf",
        "xyz": [6.902623728885485, 4.802205405890157, 7.968011361095167]
      },
      {
        "species": [{ "element": "Hf", "occu": 1 }],
        "abc": [0.01583723, 0.32293611, 0.40469347],
        "properties": { "magmom": -0.0 },
        "label": "Hf",
        "xyz": [0.11107760111451591, 2.2904862541098425, 5.416708878904833]
      },
      {
        "species": [{ "element": "Hf", "occu": 1 }],
        "abc": [0.51583723, 0.17706389, 0.09530653],
        "properties": { "magmom": -0.0 },
        "label": "Hf",
        "xyz": [3.6179282661145162, 1.2558595758901574, 1.2756512410951673]
      },
      {
        "species": [{ "element": "Hf", "occu": 1 }],
        "abc": [0.48416277, 0.82293611, 0.59530653],
        "properties": { "magmom": -0.0 },
        "label": "Hf",
        "xyz": [3.395773063885484, 5.836832084109843, 7.968011361095167]
      },
      {
        "species": [{ "element": "Hf", "occu": 1 }],
        "abc": [0.9841627700000001, 0.67706389, 0.90469347],
        "properties": { "magmom": -0.0 },
        "label": "Hf",
        "xyz": [6.902623728885485, 4.802205405890157, 12.109068998904833]
      },
      {
        "species": [{ "element": "Hf", "occu": 1 }],
        "abc": [0.85549009, 0.83440439, 0.12366015],
        "properties": { "magmom": 0.0 },
        "label": "Hf",
        "xyz": [6.0001519820348195, 5.918173058020387, 1.655156512586436]
      },
      {
        "species": [{ "element": "Hf", "occu": 1 }],
        "abc": [0.35549009, 0.66559561, 0.37633985000000003],
        "properties": { "magmom": 0.0 },
        "label": "Hf",
        "xyz": [2.4933013170348195, 4.720864431979613, 5.037203607413565]
      },
      {
        "species": [{ "element": "Hf", "occu": 1 }],
        "abc": [0.64450991, 0.33440439, 0.87633985],
        "properties": { "magmom": 0.0 },
        "label": "Hf",
        "xyz": [4.5204000129651805, 2.371827228020387, 11.729563727413565]
      },
      {
        "species": [{ "element": "Hf", "occu": 1 }],
        "abc": [0.14450991, 0.16559561, 0.62366015],
        "properties": { "magmom": 0.0 },
        "label": "Hf",
        "xyz": [1.0135493479651803, 1.1745186019796126, 8.347516632586435]
      },
      {
        "species": [{ "element": "Hf", "occu": 1 }],
        "abc": [0.14450991, 0.16559561, 0.87633985],
        "properties": { "magmom": 0.0 },
        "label": "Hf",
        "xyz": [1.0135493479651803, 1.1745186019796126, 11.729563727413565]
      },
      {
        "species": [{ "element": "Hf", "occu": 1 }],
        "abc": [0.64450991, 0.33440439, 0.62366015],
        "properties": { "magmom": 0.0 },
        "label": "Hf",
        "xyz": [4.5204000129651805, 2.371827228020387, 8.347516632586435]
      },
      {
        "species": [{ "element": "Hf", "occu": 1 }],
        "abc": [0.35549009, 0.66559561, 0.12366015],
        "properties": { "magmom": 0.0 },
        "label": "Hf",
        "xyz": [2.4933013170348195, 4.720864431979613, 1.655156512586436]
      },
      {
        "species": [{ "element": "Hf", "occu": 1 }],
        "abc": [0.85549009, 0.83440439, 0.37633985000000003],
        "properties": { "magmom": 0.0 },
        "label": "Hf",
        "xyz": [6.0001519820348195, 5.918173058020387, 5.037203607413565]
      },
      {
        "species": [{ "element": "Hf", "occu": 1 }],
        "abc": [0.1826361, 0.0025821200000000002, 0.25],
        "properties": { "magmom": -0.0 },
        "label": "Hf",
        "xyz": [1.280955057476013, 0.018314180989119203, 3.34618006]
      },
      {
        "species": [{ "element": "Hf", "occu": 1 }],
        "abc": [0.6826361, 0.49741788000000003, 0.25],
        "properties": { "magmom": -0.0 },
        "label": "Hf",
        "xyz": [4.787805722476013, 3.528031649010881, 3.34618006]
      },
      {
        "species": [{ "element": "Hf", "occu": 1 }],
        "abc": [0.3173639, 0.50258212, 0.75],
        "properties": { "magmom": -0.0 },
        "label": "Hf",
        "xyz": [2.2258956075239866, 3.5646600109891193, 10.03854018]
      },
      {
        "species": [{ "element": "Hf", "occu": 1 }],
        "abc": [0.817363899999999, 0.99741788, 0.75],
        "properties": { "magmom": -0.0 },
        "label": "Hf",
        "xyz": [5.73274627252398, 7.074377479010881, 10.03854018]
      },
      {
        "species": [{ "element": "Ge", "occu": 1 }],
        "abc": [0.69918164, 0.5351237600000001, 0.040884790000000004],
        "properties": { "magmom": 0.0 },
        "label": "Ge",
        "xyz": [4.903851198379582, 3.795467829619842, 0.5472314762211496]
      },
      {
        "species": [{ "element": "Ge", "occu": 1 }],
        "abc": [0.19918164, 0.96487624, 0.45911521],
        "properties": { "magmom": 0.0 },
        "label": "Ge",
        "xyz": [1.3970005333795812, 6.843569660380159, 6.14512864377885]
      },
      {
        "species": [{ "element": "Ge", "occu": 1 }],
        "abc": [0.8008183600000001, 0.035123760000000004, 0.95911521],
        "properties": { "magmom": 0.0 },
        "label": "Ge",
        "xyz": [5.616700796620419, 0.24912199961984163, 12.83748876377885]
      },
      {
        "species": [{ "element": "Ge", "occu": 1 }],
        "abc": [0.30081836, 0.46487624, 0.54088479],
        "properties": { "magmom": 0.0 },
        "label": "Ge",
        "xyz": [2.109850131620419, 3.297223830380158, 7.23959159622115]
      },
      {
        "species": [{ "element": "Ge", "occu": 1 }],
        "abc": [0.30081836, 0.46487624, 0.95911521],
        "properties": { "magmom": 0.0 },
        "label": "Ge",
        "xyz": [2.109850131620419, 3.297223830380158, 12.83748876377885]
      },
      {
        "species": [{ "element": "Ge", "occu": 1 }],
        "abc": [0.8008183600000001, 0.035123760000000004, 0.54088479],
        "properties": { "magmom": 0.0 },
        "label": "Ge",
        "xyz": [5.616700796620419, 0.24912199961984163, 7.23959159622115]
      },
      {
        "species": [{ "element": "Ge", "occu": 1 }],
        "abc": [0.19918164, 0.96487624, 0.040884790000000004],
        "properties": { "magmom": 0.0 },
        "label": "Ge",
        "xyz": [1.3970005333795812, 6.843569660380159, 0.5472314762211496]
      },
      {
        "species": [{ "element": "Ge", "occu": 1 }],
        "abc": [0.69918164, 0.5351237600000001, 0.45911521],
        "properties": { "magmom": 0.0 },
        "label": "Ge",
        "xyz": [4.903851198379582, 3.795467829619842, 6.14512864377885]
      },
      {
        "species": [{ "element": "Ge", "occu": 1 }],
        "abc": [0.32160936, 0.35390415000000003, 0.25],
        "properties": { "magmom": 0.0 },
        "label": "Ge",
        "xyz": [2.255671995972449, 2.5101330131443893, 3.34618006]
      },
      {
        "species": [{ "element": "Ge", "occu": 1 }],
        "abc": [0.8216093600000001, 0.14609585, 0.25],
        "properties": { "magmom": 0.0 },
        "label": "Ge",
        "xyz": [5.762522660972449, 1.036212816855611, 3.34618006]
      },
      {
        "species": [{ "element": "Ge", "occu": 1 }],
        "abc": [0.17839064000000002, 0.85390415, 0.75],
        "properties": { "magmom": 0.0 },
        "label": "Ge",
        "xyz": [1.2511786690275513, 6.056478843144388, 10.03854018]
      },
      {
        "species": [{ "element": "Ge", "occu": 1 }],
        "abc": [0.67839064, 0.64609585, 0.75],
        "properties": { "magmom": 0.0 },
        "label": "Ge",
        "xyz": [4.758029334027552, 4.582558646855611, 10.03854018]
      },
      {
        "species": [{ "element": "Ge", "occu": 1 }],
        "abc": [0.05427048, 0.61262923, 0.25],
        "properties": { "magmom": -0.0 },
        "label": "Ge",
        "xyz": [0.3806369377557384, 4.3451902302932215, 3.34618006]
      },
      {
        "species": [{ "element": "Ge", "occu": 1 }],
        "abc": [0.55427048, 0.88737077, 0.25],
        "properties": { "magmom": -0.0 },
        "label": "Ge",
        "xyz": [3.8874876027557383, 6.293847259706778, 3.34618006]
      },
      {
        "species": [{ "element": "Ge", "occu": 1 }],
        "abc": [0.44572952, 0.11262923, 0.75],
        "properties": { "magmom": -0.0 },
        "label": "Ge",
        "xyz": [3.1262137272442616, 0.7988444002932218, 10.03854018]
      },
      {
        "species": [{ "element": "Ge", "occu": 1 }],
        "abc": [0.94572952, 0.38737077000000003, 0.75],
        "properties": { "magmom": -0.0 },
        "label": "Ge",
        "xyz": [6.633064392244261, 2.7475014297067784, 10.03854018]
      }
    ]
  },
  "task_ids": null,
  "uncorrected_energy_per_atom": null,
  "energy_per_atom": -32.018163434444446,
  "formation_energy_per_atom": -0.768720404444441,
  "energy_above_hull": 0.0,
  "is_stable": true,
  "equilibrium_reaction_energy_per_atom": null,
  "decomposes_to": null,
  "xas": null,
  "grain_boundaries": null,
  "band_gap": 0.0,
  "cbm": null,
  "vbm": null,
  "efermi": 5.28391874,
  "is_gap_direct": null,
  "is_metal": null,
  "es_source_calc_id": null,
  "bandstructure": null,
  "dos": null,
  "dos_energy_up": null,
  "dos_energy_down": null,
  "is_magnetic": null,
  "ordering": null,
  "total_magnetization": 6e-7,
  "total_magnetization_normalized_vol": null,
  "total_magnetization_normalized_formula_units": null,
  "num_magnetic_sites": null,
  "num_unique_magnetic_sites": null,
  "types_of_magnetic_species": null,
  "bulk_modulus": null,
  "shear_modulus": null,
  "universal_anisotropy": null,
  "homogeneous_poisson": null,
  "e_total": null,
  "e_ionic": null,
  "e_electronic": null,
  "n": null,
  "e_ij_max": null,
  "weighted_surface_energy_EV_PER_ANG2": null,
  "weighted_surface_energy": null,
  "weighted_work_function": null,
  "surface_anisotropy": null,
  "shape_factor": null,
  "has_reconstructed": null,
  "possible_species": null,
  "has_props": null,
  "theoretical": null,
  "database_IDs": null,
  "fields_not_requested": [
    "builder_meta",
    "nsites",
    "elements",
    "nelements",
    "composition",
    "composition_reduced",
    "chemsys",
    "symmetry",
    "property_name",
    "deprecated",
    "deprecation_reasons",
    "last_updated",
    "origins",
    "warnings",
    "task_ids",
    "uncorrected_energy_per_atom",
    "equilibrium_reaction_energy_per_atom",
    "decomposes_to",
    "xas",
    "grain_boundaries",
    "cbm",
    "vbm",
    "is_gap_direct",
    "is_metal",
    "es_source_calc_id",
    "bandstructure",
    "dos",
    "dos_energy_up",
    "dos_energy_down",
    "is_magnetic",
    "ordering",
    "total_magnetization_normalized_vol",
    "total_magnetization_normalized_formula_units",
    "num_magnetic_sites",
    "num_unique_magnetic_sites",
    "types_of_magnetic_species",
    "bulk_modulus",
    "shear_modulus",
    "universal_anisotropy",
    "homogeneous_poisson",
    "e_total",
    "e_ionic",
    "e_electronic",
    "n",
    "e_ij_max",
    "weighted_surface_energy_EV_PER_ANG2",
    "weighted_surface_energy",
    "weighted_work_function",
    "surface_anisotropy",
    "shape_factor",
    "has_reconstructed",
    "possible_species",
    "has_props",
    "theoretical",
    "database_IDs"
  ]
}
