{
  "builder_meta": null,
  "nsites": null,
  "elements": null,
  "nelements": null,
  "composition": null,
  "composition_reduced": null,
  "formula_pretty": "Hf5Ga3",
  "formula_anonymous": "A3B5",
  "chemsys": null,
  "volume": 310.153386106443,
  "density": 11.795978815340264,
  "density_atomic": 19.384586631652688,
  "symmetry": null,
  "property_name": null,
  "material_id": "mp-22337",
  "deprecated": null,
  "deprecation_reasons": null,
  "last_updated": null,
  "origins": null,
  "warnings": null,
  "structure": {
    "@module": "pymatgen.core.structure",
    "@class": "Structure",
    "charge": 0,
    "lattice": {
      "matrix": [
        [7.95337136, 1e-8, -0.0],
        [-3.97668416, 6.88782109, 0.0],
        [-0.0, 0.0, 5.66165508]
      ],
      "pbc": [true, true, true],
      "a": 7.95337136,
      "b": 7.95337012066229,
      "c": 5.66165508,
      "alpha": 90.0,
      "beta": 90.0,
      "gamma": 119.9999924386287,
      "volume": 310.153386106443
    },
    "properties": {},
    "sites": [
      {
        "species": [{ "element": "Hf", "occu": 1 }],
        "abc": [0.333333, 0.666667, 0.0],
        "properties": { "magmom": -0.23700000000000002 },
        "label": "Hf",
        "xyz": [-2.96335184035712e-6, 4.59188302594036, 0.0]
      },
      {
        "species": [{ "element": "Hf", "occu": 1 }],
        "abc": [0.666667, 0.333333, 0.5],
        "properties": { "magmom": -0.23700000000000002 },
        "label": "Hf",
        "xyz": [3.97669016335184, 2.29593807405964, 2.83082754]
      },
      {
        "species": [{ "element": "Hf", "occu": 1 }],
        "abc": [0.666667, 0.333333, 0.0],
        "properties": { "magmom": -0.23700000000000002 },
        "label": "Hf",
        "xyz": [3.97669016335184, 2.29593807405964, 0.0]
      },
      {
        "species": [{ "element": "Hf", "occu": 1 }],
        "abc": [0.333333, 0.666667, 0.5],
        "properties": { "magmom": -0.23700000000000002 },
        "label": "Hf",
        "xyz": [-2.96335184035712e-6, 4.59188302594036, 2.83082754]
      },
      {
        "species": [{ "element": "Hf", "occu": 1 }],
        "abc": [0.24203489, 0.0, 0.25],
        "properties": { "magmom": -0.093 },
        "label": "Hf",
        "xyz": [1.9249933622467506, 2.4203489e-9, 1.41541377]
      },
      {
        "species": [{ "element": "Hf", "occu": 1 }],
        "abc": [0.24203489, 0.24203489, 0.75],
        "properties": { "magmom": -0.093 },
        "label": "Hf",
        "xyz": [0.9624970490164081, 1.667093022278179, 4.24624131]
      },
      {
        "species": [{ "element": "Hf", "occu": 1 }],
        "abc": [-0.0, 0.75796511, 0.75],
        "properties": { "magmom": -0.093 },
        "label": "Hf",
        "xyz": [-3.0141878467696577, 5.22072807014217, 4.24624131]
      },
      {
        "species": [{ "element": "Hf", "occu": 1 }],
        "abc": [0.0, 0.24203489, 0.25],
        "properties": { "magmom": -0.093 },
        "label": "Hf",
        "xyz": [-0.9624963132303425, 1.6670930198578302, 1.41541377]
      },
      {
        "species": [{ "element": "Hf", "occu": 1 }],
        "abc": [0.75796511, 0.75796511, 0.25],
        "properties": { "magmom": -0.093 },
        "label": "Hf",
        "xyz": [3.014190150983592, 5.22072807772182, 1.41541377]
      },
      {
        "species": [{ "element": "Hf", "occu": 1 }],
        "abc": [0.75796511, -0.0, 0.75],
        "properties": { "magmom": -0.093 },
        "label": "Hf",
        "xyz": [6.02837799775325, 7.5796511e-9, 4.24624131]
      },
      {
        "species": [{ "element": "Ga", "occu": 1 }],
        "abc": [0.6071476, 0.0, 0.25],
        "properties": { "magmom": 0.012 },
        "label": "Ga",
        "xyz": [4.828870333132736, 6.071476000000001e-9, 1.41541377]
      },
      {
        "species": [{ "element": "Ga", "occu": 1 }],
        "abc": [0.6071476, 0.6071476, 0.75],
        "properties": { "magmom": 0.012 },
        "label": "Ga",
        "xyz": [2.41443608943072, 4.18192405009436, 4.24624131]
      },
      {
        "species": [{ "element": "Ga", "occu": 1 }],
        "abc": [-0.0, 0.3928524, 0.75],
        "properties": { "magmom": 0.012 },
        "label": "Ga",
        "xyz": [-1.562249916297984, 2.705897045977116, 4.24624131]
      },
      {
        "species": [{ "element": "Ga", "occu": 1 }],
        "abc": [0.0, 0.6071476, 0.25],
        "properties": { "magmom": 0.012 },
        "label": "Ga",
        "xyz": [-2.414434243702016, 4.181924044022884, 1.41541377]
      },
      {
        "species": [{ "element": "Ga", "occu": 1 }],
        "abc": [0.3928524, 0.3928524, 0.25],
        "properties": { "magmom": 0.012 },
        "label": "Ga",
        "xyz": [1.56225111056928, 2.7058970499056403, 1.41541377]
      },
      {
        "species": [{ "element": "Ga", "occu": 1 }],
        "abc": [0.3928524, -0.0, 0.75],
        "properties": { "magmom": 0.012 },
        "label": "Ga",
        "xyz": [3.124501026867264, 3.928524e-9, 4.24624131]
      }
    ]
  },
  "task_ids": null,
  "uncorrected_energy_per_atom": null,
  "energy_per_atom": -33.02877513,
  "formation_energy_per_atom": -0.5180995300000001,
  "energy_above_hull": 0.0,
  "is_stable": true,
  "equilibrium_reaction_energy_per_atom": null,
  "decomposes_to": null,
  "xas": null,
  "grain_boundaries": null,
  "band_gap": 0.0,
  "cbm": null,
  "vbm": null,
  "efermi": 4.32805207,
  "is_gap_direct": null,
  "is_metal": null,
  "es_source_calc_id": null,
  "bandstructure": null,
  "dos": null,
  "dos_energy_up": null,
  "dos_energy_down": null,
  "is_magnetic": null,
  "ordering": null,
  "total_magnetization": 2.0251138,
  "total_magnetization_normalized_vol": null,
  "total_magnetization_normalized_formula_units": null,
  "num_magnetic_sites": null,
  "num_unique_magnetic_sites": null,
  "types_of_magnetic_species": null,
  "bulk_modulus": null,
  "shear_modulus": null,
  "universal_anisotropy": null,
  "homogeneous_poisson": null,
  "e_total": null,
  "e_ionic": null,
  "e_electronic": null,
  "n": null,
  "e_ij_max": null,
  "weighted_surface_energy_EV_PER_ANG2": null,
  "weighted_surface_energy": null,
  "weighted_work_function": null,
  "surface_anisotropy": null,
  "shape_factor": null,
  "has_reconstructed": null,
  "possible_species": null,
  "has_props": null,
  "theoretical": null,
  "database_IDs": null,
  "fields_not_requested": [
    "builder_meta",
    "nsites",
    "elements",
    "nelements",
    "composition",
    "composition_reduced",
    "chemsys",
    "symmetry",
    "property_name",
    "deprecated",
    "deprecation_reasons",
    "last_updated",
    "origins",
    "warnings",
    "task_ids",
    "uncorrected_energy_per_atom",
    "equilibrium_reaction_energy_per_atom",
    "decomposes_to",
    "xas",
    "grain_boundaries",
    "cbm",
    "vbm",
    "is_gap_direct",
    "is_metal",
    "es_source_calc_id",
    "bandstructure",
    "dos",
    "dos_energy_up",
    "dos_energy_down",
    "is_magnetic",
    "ordering",
    "total_magnetization_normalized_vol",
    "total_magnetization_normalized_formula_units",
    "num_magnetic_sites",
    "num_unique_magnetic_sites",
    "types_of_magnetic_species",
    "bulk_modulus",
    "shear_modulus",
    "universal_anisotropy",
    "homogeneous_poisson",
    "e_total",
    "e_ionic",
    "e_electronic",
    "n",
    "e_ij_max",
    "weighted_surface_energy_EV_PER_ANG2",
    "weighted_surface_energy",
    "weighted_work_function",
    "surface_anisotropy",
    "shape_factor",
    "has_reconstructed",
    "possible_species",
    "has_props",
    "theoretical",
    "database_IDs"
  ]
}
