{"builder_meta": null, "nsites": null, "elements": null, "nelements": null, "composition": null, "composition_reduced": null, "formula_pretty": "Hf5Ge3", "formula_anonymous": "A3B5", "chemsys": null, "volume": 301.8482736390369, "density": 12.21681834487185, "density_atomic": 18.865517102439807, "symmetry": null, "property_name": null, "material_id": "mp-1739", "deprecated": null, "deprecation_reasons": null, "last_updated": null, "origins": null, "warnings": null, "structure": {"@module": "pymatgen.core.structure", "@class": "Structure", "charge": 0, "lattice": {"matrix": [[7.94168585, -0.0, 0.0], [-3.97084343, 6.87770184, -0.0], [0.0, -0.0, 5.5262769800000004]], "pbc": [true, true, true], "a": 7.94168585, "b": 7.941686228094985, "c": 5.5262769800000004, "alpha": 90.0, "beta": 90.0, "gamma": 120.00000263209215, "volume": 301.84827363903696}, "properties": {}, "sites": [{"species": [{"element": "Hf", "occu": 1}], "abc": [0.333333, 0.666667, -0.0], "properties": {"magmom": 0.0}, "label": "Hf", "xyz": [-4.307509759993167e-06, 4.58513685256728, 0.0]}, {"species": [{"element": "Hf", "occu": 1}], "abc": [0.666667, 0.333333, 0.5], "properties": {"magmom": -0.0}, "label": "Hf", "xyz": [3.9708467275097603, 2.29256498743272, 2.7631384900000002]}, {"species": [{"element": "Hf", "occu": 1}], "abc": [0.666667, 0.333333, 0.0], "properties": {"magmom": -0.0}, "label": "Hf", "xyz": [3.9708467275097603, 2.29256498743272, 0.0]}, {"species": [{"element": "Hf", "occu": 1}], "abc": [0.333333, 0.666667, 0.5], "properties": {"magmom": 0.0}, "label": "Hf", "xyz": [-4.307509759993167e-06, 4.58513685256728, 2.7631384900000002]}, {"species": [{"element": "Hf", "occu": 1}], "abc": [0.25307005, -6.83e-06, 0.25], "properties": {"magmom": 0.0}, "label": "Hf", "xyz": [2.0098299560044195, -4.69747035672e-05, 1.3815692450000001]}, {"species": [{"element": "Hf", "occu": 1}], "abc": [0.25307005, 0.25307688, 0.75], "properties": {"magmom": 0.0}, "label": "Hf", "xyz": [1.004874168910894, 1.7405873232374593, 4.144707735000001]}, {"species": [{"element": "Hf", "occu": 1}], "abc": [6.83e-06, 0.7469299500000001, 0.75], "properties": {"magmom": 0.0}, "label": "Hf", "xyz": [-2.965887642913373, 5.137161491466109, 4.144707735000001]}, {"species": [{"element": "Hf", "occu": 1}], "abc": [6.83e-06, 0.25307688, 0.25], "properties": {"magmom": 0.0}, "label": "Hf", "xyz": [-1.004874424518543, 1.7405873232374593, 1.3815692450000001]}, {"species": [{"element": "Hf", "occu": 1}], "abc": [0.74692312, 0.7469299500000001, 0.25], "properties": {"magmom": 0.0}, "label": "Hf", "xyz": [2.9658868885141234, 5.137161491466109, 1.3815692450000001]}, {"species": [{"element": "Hf", "occu": 1}], "abc": [0.74692312, -6.83e-06, 0.75], "properties": {"magmom": 0.0}, "label": "Hf", "xyz": [5.931855894002479, -4.69747035672e-05, 4.144707735000001]}, {"species": [{"element": "Ge", "occu": 1}], "abc": [0.61076633, -3.719999999999998e-06, 0.25], "properties": {"magmom": -0.0}, "label": "Ge", "xyz": [4.85052909215499, -2.5585050844799985e-05, 1.3815692450000001]}, {"species": [{"element": "Ge", "occu": 1}], "abc": [0.61076633, 0.61076904, 0.75], "properties": {"magmom": -0.0}, "label": "Ge", "xyz": [2.4252460908860236, 4.200687350223034, 4.144707735000001]}, {"species": [{"element": "Ge", "occu": 1}], "abc": [3.719999999999998e-06, 0.38923367000000003, 0.75], "properties": {"magmom": -0.0}, "label": "Ge", "xyz": [-1.5455564181829262, 2.677033128348953, 4.144707735000001]}, {"species": [{"element": "Ge", "occu": 1}], "abc": [3.719999999999998e-06, 0.61076904, 0.25], "properties": {"magmom": -0.0}, "label": "Ge", "xyz": [-2.425238686660045, 4.200687350223034, 1.3815692450000001]}, {"species": [{"element": "Ge", "occu": 1}], "abc": [0.38923096, 0.38923367000000003, 0.25], "properties": {"magmom": -0.0}, "label": "Ge", "xyz": [1.5455640461596278, 2.677033128348953, 1.3815692450000001]}, {"species": [{"element": "Ge", "occu": 1}], "abc": [0.38923096, -3.719999999999998e-06, 0.75], "properties": {"magmom": -0.0}, "label": "Ge", "xyz": [3.091164778951476, -2.5585050844799985e-05, 4.144707735000001]}]}, "task_ids": null, "uncorrected_energy_per_atom": null, "energy_per_atom": -34.161708483125, "formation_energy_per_atom": -0.7400822718749961, "energy_above_hull": 0.008970859374997, "is_stable": false, "equilibrium_reaction_energy_per_atom": null, "decomposes_to": null, "xas": null, "grain_boundaries": null, "band_gap": 0.0, "cbm": null, "vbm": null, "efermi": 6.19170967, "is_gap_direct": null, "is_metal": null, "es_source_calc_id": null, "bandstructure": null, "dos": null, "dos_energy_up": null, "dos_energy_down": null, "is_magnetic": null, "ordering": null, "total_magnetization": 1e-07, "total_magnetization_normalized_vol": null, "total_magnetization_normalized_formula_units": null, "num_magnetic_sites": null, "num_unique_magnetic_sites": null, "types_of_magnetic_species": null, "bulk_modulus": null, "shear_modulus": null, "universal_anisotropy": null, "homogeneous_poisson": null, "e_total": null, "e_ionic": null, "e_electronic": null, "n": null, "e_ij_max": null, "weighted_surface_energy_EV_PER_ANG2": null, "weighted_surface_energy": null, "weighted_work_function": null, "surface_anisotropy": null, "shape_factor": null, "has_reconstructed": null, "possible_species": null, "has_props": null, "theoretical": null, "database_IDs": null, "fields_not_requested": ["builder_meta", "nsites", "elements", "nelements", "composition", "composition_reduced", "chemsys", "symmetry", "property_name", "deprecated", "deprecation_reasons", "last_updated", "origins", "warnings", "task_ids", "uncorrected_energy_per_atom", "equilibrium_reaction_energy_per_atom", "decomposes_to", "xas", "grain_boundaries", "cbm", "vbm", "is_gap_direct", "is_metal", "es_source_calc_id", "bandstructure", "dos", "dos_energy_up", "dos_energy_down", "is_magnetic", "ordering", "total_magnetization_normalized_vol", "total_magnetization_normalized_formula_units", "num_magnetic_sites", "num_unique_magnetic_sites", "types_of_magnetic_species", "bulk_modulus", "shear_modulus", "universal_anisotropy", "homogeneous_poisson", "e_total", "e_ionic", "e_electronic", "n", "e_ij_max", "weighted_surface_energy_EV_PER_ANG2", "weighted_surface_energy", "weighted_work_function", "surface_anisotropy", "shape_factor", "has_reconstructed", "possible_species", "has_props", "theoretical", "database_IDs"]}