{"builder_meta": null, "nsites": null, "elements": null, "nelements": null, "composition": null, "composition_reduced": null, "formula_pretty": "Hf5Ir3", "formula_anonymous": "A3B5", "chemsys": null, "volume": 906.2061131042822, "density": 16.15195197651729, "density_atomic": 18.87929402300588, "symmetry": null, "property_name": null, "material_id": "mp-1212499", "deprecated": null, "deprecation_reasons": null, "last_updated": null, "origins": null, "warnings": null, "structure": {"@module": "pymatgen.core.structure", "@class": "Structure", "charge": 0, "lattice": {"matrix": [[-3.93392785, -6.81376348, -0.0], [-3.93392785, 6.81376348, 0.0], [0.0, 0.0, -16.90376892]], "pbc": [true, true, true], "a": 7.8678561940586675, "b": 7.8678561940586675, "c": 16.90376892, "alpha": 90.0, "beta": 90.0, "gamma": 120.00000415445545, "volume": 906.2061131042822}, "properties": {}, "sites": [{"species": [{"element": "Hf", "occu": 1}], "abc": [0.76256376, 0.77221538, 0.65889648], "properties": {"magmom": 0.0}, "label": "Hf", "xyz": [-6.0377104024450485, 0.0657638558788376, -11.137833840121402]}, {"species": [{"element": "Hf", "occu": 1}], "abc": [0.00965362, 0.23743624, 0.32556348], "properties": {"magmom": 0.0}, "label": "Hf", "xyz": [-0.972033681706601, 1.5520568975347178, -5.503249834711042]}, {"species": [{"element": "Hf", "occu": 1}], "abc": [0.23743624, 0.22778462, 0.15889648], "properties": {"magmom": 0.0}, "label": "Hf", "xyz": [-1.8301452975549508, -0.0657638558788376, -2.685949380121402]}, {"species": [{"element": "Hf", "occu": 1}], "abc": [0.99034638, 0.22778462, 0.00777052], "properties": {"magmom": 0.0}, "label": "Hf", "xyz": [-4.792039465848349, -5.195915471532524, -0.1313510744682384]}, {"species": [{"element": "Hf", "occu": 1}], "abc": [0.22778462, 0.99034638, 0.99222948], "properties": {"magmom": 0.0}, "label": "Hf", "xyz": [-4.792039465848349, 5.195915471532524, -16.772417845531763]}, {"species": [{"element": "Hf", "occu": 1}], "abc": [0.99034638, 0.76256376, 0.82556348], "properties": {"magmom": 0.0}, "label": "Hf", "xyz": [-6.895822018293399, -1.552056897534717, -13.955134294711042]}, {"species": [{"element": "Hf", "occu": 1}], "abc": [0.77221538, 0.76256376, 0.34110352], "properties": {"magmom": 0.0}, "label": "Hf", "xyz": [-6.0377104024450485, -0.0657638558788376, -5.765935079878599]}, {"species": [{"element": "Hf", "occu": 1}], "abc": [0.00965362, 0.77221538, 0.50777052], "properties": {"magmom": 0.0}, "label": "Hf", "xyz": [-3.0758162341516497, 5.195915471532525, -8.583235534468239]}, {"species": [{"element": "Hf", "occu": 1}], "abc": [0.77221538, 0.00965362, 0.49222948], "properties": {"magmom": 0.0}, "label": "Hf", "xyz": [-3.0758162341516497, -5.195915471532525, -8.320533385531762]}, {"species": [{"element": "Hf", "occu": 1}], "abc": [0.22778462, 0.23743624, 0.84110352], "properties": {"magmom": 0.0}, "label": "Hf", "xyz": [-1.8301452975549508, 0.0657638558788376, -14.2178195398786]}, {"species": [{"element": "Hf", "occu": 1}], "abc": [0.23743624, 0.00965362, 0.67443652], "properties": {"magmom": 0.0}, "label": "Hf", "xyz": [-0.972033681706601, -1.5520568975347178, -11.400519085288959]}, {"species": [{"element": "Hf", "occu": 1}], "abc": [0.76256376, 0.99034638, 0.17443652], "properties": {"magmom": 0.0}, "label": "Hf", "xyz": [-6.895822018293399, 1.552056897534717, -2.9486346252889586]}, {"species": [{"element": "Hf", "occu": 1}], "abc": [0.34420126, 0.65579874, 0.75], "properties": {"magmom": -0.0}, "label": "Hf", "xyz": [-3.93392785, 2.123151529684031, -12.67782669]}, {"species": [{"element": "Hf", "occu": 1}], "abc": [0.31159848, 0.65579874, 0.416666999999999], "properties": {"magmom": -0.0}, "label": "Hf", "xyz": [-3.805670865770577, 2.3452991613945056, -7.043242684589623]}, {"species": [{"element": "Hf", "occu": 1}], "abc": [0.65579874, 0.34420126, 0.25], "properties": {"magmom": -0.0}, "label": "Hf", "xyz": [-3.93392785, -2.123151529684031, -4.22594223]}, {"species": [{"element": "Hf", "occu": 1}], "abc": [0.68840152, 0.34420126, 0.916667], "properties": {"magmom": -0.0}, "label": "Hf", "xyz": [-4.062184834229423, -2.3452991613945047, -15.495127144589642]}, {"species": [{"element": "Hf", "occu": 1}], "abc": [0.34420126, 0.68840152, 0.083332999999999], "properties": {"magmom": -0.0}, "label": "Hf", "xyz": [-4.062184834229423, 2.3452991613945047, -1.4086417754103433]}, {"species": [{"element": "Hf", "occu": 1}], "abc": [0.65579874, 0.31159848, 0.583333], "properties": {"magmom": -0.0}, "label": "Hf", "xyz": [-3.805670865770577, -2.3452991613945056, -9.86052623541036]}, {"species": [{"element": "Hf", "occu": 1}], "abc": [0.62150774, 0.37849226, 0.75], "properties": {"magmom": 0.0}, "label": "Hf", "xyz": [-3.93392785, -1.6558500026986702, -12.67782669]}, {"species": [{"element": "Hf", "occu": 1}], "abc": [0.7569835300000001, 0.37849226, 0.416666999999999], "properties": {"magmom": 0.0}, "label": "Hf", "xyz": [-4.466879833281752, -2.57894999302482, -7.043242684589623]}, {"species": [{"element": "Hf", "occu": 1}], "abc": [0.37849226, 0.62150774, 0.25], "properties": {"magmom": 0.0}, "label": "Hf", "xyz": [-3.93392785, 1.6558500026986702, -4.22594223]}, {"species": [{"element": "Hf", "occu": 1}], "abc": [0.24301647, 0.62150774, 0.916667], "properties": {"magmom": 0.0}, "label": "Hf", "xyz": [-3.400975866718248, 2.57894999302482, -15.495127144589642]}, {"species": [{"element": "Hf", "occu": 1}], "abc": [0.62150774, 0.24301647, 0.083332999999999], "properties": {"magmom": 0.0}, "label": "Hf", "xyz": [-3.400975866718248, -2.57894999302482, -1.4086417754103433]}, {"species": [{"element": "Hf", "occu": 1}], "abc": [0.37849226, 0.7569835300000001, 0.583333], "properties": {"magmom": 0.0}, "label": "Hf", "xyz": [-4.466879833281752, 2.57894999302482, -9.86052623541036]}, {"species": [{"element": "Hf", "occu": 1}], "abc": [0.75063662, 0.75063662, 0.0], "properties": {"magmom": 0.0}, "label": "Hf", "xyz": [-5.905900609295734, 0.0, 0.0]}, {"species": [{"element": "Hf", "occu": 1}], "abc": [0.0, 0.24936338, 0.666667], "properties": {"magmom": 0.0}, "label": "Hf", "xyz": [-0.980977545352133, 1.6991030918933625, -11.26918491458964]}, {"species": [{"element": "Hf", "occu": 1}], "abc": [0.24936338, 0.24936338, 0.5], "properties": {"magmom": 0.0}, "label": "Hf", "xyz": [-1.961955090704266, 0.0, -8.45188446]}, {"species": [{"element": "Hf", "occu": 1}], "abc": [0.24936338, 0.0, 0.333333], "properties": {"magmom": 0.0}, "label": "Hf", "xyz": [-0.980977545352133, -1.6991030918933625, -5.63458400541036]}, {"species": [{"element": "Hf", "occu": 1}], "abc": [-0.0, 0.75063662, 0.166666999999999], "properties": {"magmom": 0.0}, "label": "Hf", "xyz": [-2.952950304647867, 5.114660388106638, -2.8173004545896236]}, {"species": [{"element": "Hf", "occu": 1}], "abc": [0.75063662, -0.0, 0.833333], "properties": {"magmom": 0.0}, "label": "Hf", "xyz": [-2.952950304647867, -5.114660388106638, -14.086468465410361]}, {"species": [{"element": "Ir", "occu": 1}], "abc": [0.58214596, 0.6082434, 0.85708472], "properties": {"magmom": -0.0}, "label": "Ir", "xyz": [-4.682905855647675, 0.17782178359349166, -14.487962051742903]}, {"species": [{"element": "Ir", "occu": 1}], "abc": [0.02609843, 0.41785404, 0.52375172], "properties": {"magmom": -0.0}, "label": "Ir", "xyz": [-1.7464769858092895, 2.669330068503123, -8.853378046332544]}, {"species": [{"element": "Ir", "occu": 1}], "abc": [0.41785404, 0.391756599999999, 0.35708472], "properties": {"magmom": -0.0}, "label": "Ir", "xyz": [-3.18494984435232, -0.17782178359349787, -6.036077591742903]}, {"species": [{"element": "Ir", "occu": 1}], "abc": [0.97390157, 0.391756599999999, 0.80958228], "properties": {"magmom": -0.0}, "label": "Ir", "xyz": [-5.37240070854303, -3.9665981366517022, -13.684991782846739]}, {"species": [{"element": "Ir", "occu": 1}], "abc": [0.391756599999999, 0.97390157, 0.19041772], "properties": {"magmom": -0.0}, "label": "Ir", "xyz": [-5.37240070854303, 3.9665981366517022, -3.2187771371532627]}, {"species": [{"element": "Ir", "occu": 1}], "abc": [0.97390157, 0.58214596, 0.02375172], "properties": {"magmom": -0.0}, "label": "Ir", "xyz": [-6.12137871419071, -2.669330068503123, -0.40149358633254245]}, {"species": [{"element": "Ir", "occu": 1}], "abc": [0.6082434, 0.58214596, 0.14291528], "properties": {"magmom": -0.0}, "label": "Ir", "xyz": [-4.682905855647675, -0.17782178359349166, -2.4158068682570977]}, {"species": [{"element": "Ir", "occu": 1}], "abc": [0.02609843, 0.6082434, 0.30958228], "properties": {"magmom": -0.0}, "label": "Ir", "xyz": [-2.4954549914569655, 3.966598136651696, -5.233107322846737]}, {"species": [{"element": "Ir", "occu": 1}], "abc": [0.6082434, 0.02609843, 0.69041772], "properties": {"magmom": -0.0}, "label": "Ir", "xyz": [-2.4954549914569655, -3.966598136651696, -11.670661597153263]}, {"species": [{"element": "Ir", "occu": 1}], "abc": [0.391756599999999, 0.41785404, 0.64291528], "properties": {"magmom": -0.0}, "label": "Ir", "xyz": [-3.18494984435232, 0.17782178359349787, -10.867691328257099]}, {"species": [{"element": "Ir", "occu": 1}], "abc": [0.41785404, 0.02609843, 0.47624828], "properties": {"magmom": -0.0}, "label": "Ir", "xyz": [-1.7464769858092895, -2.669330068503123, -8.050390873667459]}, {"species": [{"element": "Ir", "occu": 1}], "abc": [0.58214596, 0.97390157, 0.97624828], "properties": {"magmom": -0.0}, "label": "Ir", "xyz": [-6.12137871419071, 2.669330068503123, -16.50227533366746]}, {"species": [{"element": "Ir", "occu": 1}], "abc": [0.37951623, 0.37951623, 0.0], "properties": {"magmom": -0.0}, "label": "Ir", "xyz": [-2.985978933448011, 0.0, 0.0]}, {"species": [{"element": "Ir", "occu": 1}], "abc": [-0.0, 0.62048377, 0.666667], "properties": {"magmom": -0.0}, "label": "Ir", "xyz": [-2.4409383832759945, 4.22782965195872, -11.26918491458964]}, {"species": [{"element": "Ir", "occu": 1}], "abc": [0.62048377, 0.62048377, 0.5], "properties": {"magmom": -0.0}, "label": "Ir", "xyz": [-4.881876766551989, 0.0, -8.45188446]}, {"species": [{"element": "Ir", "occu": 1}], "abc": [0.62048377, -0.0, 0.333333], "properties": {"magmom": -0.0}, "label": "Ir", "xyz": [-2.4409383832759945, -4.22782965195872, -5.63458400541036]}, {"species": [{"element": "Ir", "occu": 1}], "abc": [0.0, 0.37951623, 0.166666999999999], "properties": {"magmom": -0.0}, "label": "Ir", "xyz": [-1.4929894667240056, 2.5859338280412807, -2.8173004545896236]}, {"species": [{"element": "Ir", "occu": 1}], "abc": [0.37951623, 0.0, 0.833333], "properties": {"magmom": -0.0}, "label": "Ir", "xyz": [-1.4929894667240056, -2.5859338280412807, -14.086468465410361]}]}, "task_ids": null, "uncorrected_energy_per_atom": null, "energy_per_atom": -10.36175261291667, "formation_energy_per_atom": -0.824096651666668, "energy_above_hull": 0.0, "is_stable": true, "equilibrium_reaction_energy_per_atom": null, "decomposes_to": null, "xas": null, "grain_boundaries": null, "band_gap": 0.0, "cbm": null, "vbm": null, "efermi": 6.23907042, "is_gap_direct": null, "is_metal": null, "es_source_calc_id": null, "bandstructure": null, "dos": null, "dos_energy_up": null, "dos_energy_down": null, "is_magnetic": null, "ordering": null, "total_magnetization": 6e-07, "total_magnetization_normalized_vol": null, "total_magnetization_normalized_formula_units": null, "num_magnetic_sites": null, "num_unique_magnetic_sites": null, "types_of_magnetic_species": null, "bulk_modulus": null, "shear_modulus": null, "universal_anisotropy": null, "homogeneous_poisson": null, "e_total": null, "e_ionic": null, "e_electronic": null, "n": null, "e_ij_max": null, "weighted_surface_energy_EV_PER_ANG2": null, "weighted_surface_energy": null, "weighted_work_function": null, "surface_anisotropy": null, "shape_factor": null, "has_reconstructed": null, "possible_species": null, "has_props": null, "theoretical": null, "database_IDs": null, "fields_not_requested": ["builder_meta", "nsites", "elements", "nelements", "composition", "composition_reduced", "chemsys", "symmetry", "property_name", "deprecated", "deprecation_reasons", "last_updated", "origins", "warnings", "task_ids", "uncorrected_energy_per_atom", "equilibrium_reaction_energy_per_atom", "decomposes_to", "xas", "grain_boundaries", "cbm", "vbm", "is_gap_direct", "is_metal", "es_source_calc_id", "bandstructure", "dos", "dos_energy_up", "dos_energy_down", "is_magnetic", "ordering", "total_magnetization_normalized_vol", "total_magnetization_normalized_formula_units", "num_magnetic_sites", "num_unique_magnetic_sites", "types_of_magnetic_species", "bulk_modulus", "shear_modulus", "universal_anisotropy", "homogeneous_poisson", "e_total", "e_ionic", "e_electronic", "n", "e_ij_max", "weighted_surface_energy_EV_PER_ANG2", "weighted_surface_energy", "weighted_work_function", "surface_anisotropy", "shape_factor", "has_reconstructed", "possible_species", "has_props", "theoretical", "database_IDs"]}