{
  "builder_meta": null,
  "nsites": null,
  "elements": null,
  "nelements": null,
  "composition": null,
  "composition_reduced": null,
  "formula_pretty": "Hf5Si3",
  "formula_anonymous": "A3B5",
  "chemsys": null,
  "volume": 292.2846388050121,
  "density": 11.097807305118911,
  "density_atomic": 18.267789925313256,
  "symmetry": null,
  "property_name": null,
  "material_id": "mp-15965",
  "deprecated": null,
  "deprecation_reasons": null,
  "last_updated": null,
  "origins": null,
  "warnings": null,
  "structure": {
    "@module": "pymatgen.core.structure",
    "@class": "Structure",
    "charge": 0,
    "lattice": {
      "matrix": [
        [7.85042359, 6.9e-7, -0.0],
        [-3.92521156, 6.79866633, -0.0],
        [0.0, -0.0, 5.47632421]
      ],
      "pbc": [true, true, true],
      "a": 7.85042359000003,
      "b": 7.850423533633921,
      "c": 5.47632421,
      "alpha": 90.0,
      "beta": 90.0,
      "gamma": 119.99999322113169,
      "volume": 292.2846388050121
    },
    "properties": {},
    "sites": [
      {
        "species": [{ "element": "Hf", "occu": 1 }],
        "abc": [2.513e-5, 0.74698281, 0.75],
        "properties": { "magmom": -0.0 },
        "label": "Hf",
        "xyz": [-2.9318682797884668, 5.078486879453127, 4.107243157499999]
      },
      {
        "species": [{ "element": "Hf", "occu": 1 }],
        "abc": [2.513e-5, 0.25304203000000003, 0.25],
        "properties": { "magmom": -0.0 },
        "label": "Hf",
        "xyz": [-0.9930462201770504, 1.7203483294531896, 1.3690810525]
      },
      {
        "species": [{ "element": "Hf", "occu": 1 }],
        "abc": [0.746957499999999, 0.74698237, 0.25],
        "properties": { "magmom": -0.0 },
        "label": "Hf",
        "xyz": [2.9318689448872206, 5.078484403423277, 1.3690810525]
      },
      {
        "species": [{ "element": "Hf", "occu": 1 }],
        "abc": [0.74695797, -2.513e-5, 0.75],
        "properties": { "magmom": -0.0 },
        "label": "Hf",
        "xyz": [5.864035108993015, -0.0001703350838736, 4.107243157499999]
      },
      {
        "species": [{ "element": "Hf", "occu": 1 }],
        "abc": [0.25301763, 0.2530425, 0.75],
        "properties": { "magmom": -0.0 },
        "label": "Hf",
        "xyz": [0.9930502250665916, 1.7203516993911896, 4.107243157499999]
      },
      {
        "species": [{ "element": "Hf", "occu": 1 }],
        "abc": [0.25301719, -2.513e-5, 0.25],
        "properties": { "magmom": -0.0 },
        "label": "Hf",
        "xyz": [1.986390757618015, -0.0001706759030118, 1.3690810525]
      },
      {
        "species": [{ "element": "Hf", "occu": 1 }],
        "abc": [0.33333336, 0.66666664, 0.5],
        "properties": { "magmom": 0.0 },
        "label": "Hf",
        "xyz": [4.706836040924145e-7, 4.532444268702249, 2.738162105]
      },
      {
        "species": [{ "element": "Hf", "occu": 1 }],
        "abc": [0.66666669, 0.33333331, 0.0],
        "properties": { "magmom": -0.0 },
        "label": "Hf",
        "xyz": [3.9252121480981534, 2.2662224113644682, 0.0]
      },
      {
        "species": [{ "element": "Hf", "occu": 1 }],
        "abc": [0.66666669, 0.33333331, 0.5],
        "properties": { "magmom": -0.0 },
        "label": "Hf",
        "xyz": [3.9252121480981534, 2.2662224113644682, 2.738162105]
      },
      {
        "species": [{ "element": "Hf", "occu": 1 }],
        "abc": [0.33333336, 0.66666664, -0.0],
        "properties": { "magmom": 0.0 },
        "label": "Hf",
        "xyz": [4.706836040924145e-7, 4.532444268702249, 0.0]
      },
      {
        "species": [{ "element": "Si", "occu": 1 }],
        "abc": [0.39068681, -4.66e-6, 0.75],
        "properties": { "magmom": 0.0 },
        "label": "Si",
        "xyz": [3.0670752410117172, -3.14122111989e-5, 4.107243157499999]
      },
      {
        "species": [{ "element": "Si", "occu": 1 }],
        "abc": [0.39068693, 0.39069153, 0.25],
        "properties": { "magmom": 0.0 },
        "label": "Si",
        "xyz": [1.533510981626592, 2.6561816200011665, 1.3690810525]
      },
      {
        "species": [{ "element": "Si", "occu": 1 }],
        "abc": [4.66e-6, 0.6093131900000001, 0.25],
        "properties": { "magmom": 0.0 },
        "label": "Si",
        "xyz": [-2.3916465940745475, 4.142517069281108, 1.3690810525]
      },
      {
        "species": [{ "element": "Si", "occu": 1 }],
        "abc": [4.8e-6, 0.39069132, 0.75],
        "properties": { "magmom": -0.0 },
        "label": "Si",
        "xyz": [-1.5335084036224274, 2.6561799227105674, 4.107243157499999]
      },
      {
        "species": [{ "element": "Si", "occu": 1 }],
        "abc": [0.60930847, 0.60931307, 0.75],
        "properties": { "magmom": 0.0 },
        "label": "Si",
        "xyz": [2.3916468804517184, 4.1425166738607775, 4.107243157499999]
      },
      {
        "species": [{ "element": "Si", "occu": 1 }],
        "abc": [0.60930868, -4.8e-6, 0.25],
        "properties": { "magmom": -0.0 },
        "label": "Si",
        "xyz": [4.78335007607925, -3.2213175394799993e-5, 1.3690810525]
      }
    ]
  },
  "task_ids": null,
  "uncorrected_energy_per_atom": null,
  "energy_per_atom": -32.2959468,
  "formation_energy_per_atom": -0.7861504581250031,
  "energy_above_hull": 0.038171665624993,
  "is_stable": false,
  "equilibrium_reaction_energy_per_atom": null,
  "decomposes_to": null,
  "xas": null,
  "grain_boundaries": null,
  "band_gap": 0.0,
  "cbm": null,
  "vbm": null,
  "efermi": 6.43407582,
  "is_gap_direct": null,
  "is_metal": null,
  "es_source_calc_id": null,
  "bandstructure": null,
  "dos": null,
  "dos_energy_up": null,
  "dos_energy_down": null,
  "is_magnetic": null,
  "ordering": null,
  "total_magnetization": 6e-7,
  "total_magnetization_normalized_vol": null,
  "total_magnetization_normalized_formula_units": null,
  "num_magnetic_sites": null,
  "num_unique_magnetic_sites": null,
  "types_of_magnetic_species": null,
  "bulk_modulus": null,
  "shear_modulus": null,
  "universal_anisotropy": null,
  "homogeneous_poisson": null,
  "e_total": null,
  "e_ionic": null,
  "e_electronic": null,
  "n": null,
  "e_ij_max": null,
  "weighted_surface_energy_EV_PER_ANG2": null,
  "weighted_surface_energy": null,
  "weighted_work_function": null,
  "surface_anisotropy": null,
  "shape_factor": null,
  "has_reconstructed": null,
  "possible_species": null,
  "has_props": null,
  "theoretical": null,
  "database_IDs": null,
  "fields_not_requested": [
    "builder_meta",
    "nsites",
    "elements",
    "nelements",
    "composition",
    "composition_reduced",
    "chemsys",
    "symmetry",
    "property_name",
    "deprecated",
    "deprecation_reasons",
    "last_updated",
    "origins",
    "warnings",
    "task_ids",
    "uncorrected_energy_per_atom",
    "equilibrium_reaction_energy_per_atom",
    "decomposes_to",
    "xas",
    "grain_boundaries",
    "cbm",
    "vbm",
    "is_gap_direct",
    "is_metal",
    "es_source_calc_id",
    "bandstructure",
    "dos",
    "dos_energy_up",
    "dos_energy_down",
    "is_magnetic",
    "ordering",
    "total_magnetization_normalized_vol",
    "total_magnetization_normalized_formula_units",
    "num_magnetic_sites",
    "num_unique_magnetic_sites",
    "types_of_magnetic_species",
    "bulk_modulus",
    "shear_modulus",
    "universal_anisotropy",
    "homogeneous_poisson",
    "e_total",
    "e_ionic",
    "e_electronic",
    "n",
    "e_ij_max",
    "weighted_surface_energy_EV_PER_ANG2",
    "weighted_surface_energy",
    "weighted_work_function",
    "surface_anisotropy",
    "shape_factor",
    "has_reconstructed",
    "possible_species",
    "has_props",
    "theoretical",
    "database_IDs"
  ]
}
