{
  "builder_meta": null,
  "nsites": null,
  "elements": null,
  "nelements": null,
  "composition": null,
  "composition_reduced": null,
  "formula_pretty": "Hf5Si4",
  "formula_anonymous": "A4B5",
  "chemsys": null,
  "volume": 634.2473089776806,
  "density": 10.522686316140836,
  "density_atomic": 17.617980804935574,
  "symmetry": null,
  "property_name": null,
  "material_id": "mp-17216",
  "deprecated": null,
  "deprecation_reasons": null,
  "last_updated": null,
  "origins": null,
  "warnings": null,
  "structure": {
    "@module": "pymatgen.core.structure",
    "@class": "Structure",
    "charge": 0,
    "lattice": {
      "matrix": [
        [7.03351426, 0.0, 0.0],
        [0.0, 7.03351426, 0.0],
        [0.0, 0.0, 12.820763490000001]
      ],
      "pbc": [true, true, true],
      "a": 7.03351426,
      "b": 7.03351426,
      "c": 12.820763490000001,
      "alpha": 90.0,
      "beta": 90.0,
      "gamma": 90.0,
      "volume": 634.2473089776807
    },
    "properties": {},
    "sites": [
      {
        "species": [{ "element": "Hf", "occu": 1 }],
        "abc": [0.50080239, 0.64620579, 0.62639464],
        "properties": { "magmom": -0.0 },
        "label": "Hf",
        "xyz": [3.5224007515070817, 4.545097638859565, 8.030857530843694]
      },
      {
        "species": [{ "element": "Hf", "occu": 1 }],
        "abc": [0.00080239, 0.85379421, 0.12360536],
        "properties": { "magmom": -0.0 },
        "label": "Hf",
        "xyz": [0.0056436215070814, 6.005173751140434, 1.5847150866563064]
      },
      {
        "species": [{ "element": "Hf", "occu": 1 }],
        "abc": [0.14620579, 0.9991976100000001, 0.37639464],
        "properties": { "magmom": -0.0 },
        "label": "Hf",
        "xyz": [1.0283405088595654, 7.027870638492919, 4.825666658343694]
      },
      {
        "species": [{ "element": "Hf", "occu": 1 }],
        "abc": [0.85379421, 0.00080239, 0.87639464],
        "properties": { "magmom": -0.0 },
        "label": "Hf",
        "xyz": [6.005173751140434, 0.0056436215070814, 11.236048403343695]
      },
      {
        "species": [{ "element": "Hf", "occu": 1 }],
        "abc": [0.49919761, 0.35379421, 0.12639464],
        "properties": { "magmom": -0.0 },
        "label": "Hf",
        "xyz": [3.5111135084929184, 2.4884166211404346, 1.6204757858436938]
      },
      {
        "species": [{ "element": "Hf", "occu": 1 }],
        "abc": [0.64620579, 0.50080239, 0.37360536],
        "properties": { "magmom": -0.0 },
        "label": "Hf",
        "xyz": [4.545097638859565, 3.5224007515070817, 4.7899059591563065]
      },
      {
        "species": [{ "element": "Hf", "occu": 1 }],
        "abc": [0.35379421, 0.49919761, 0.87360536],
        "properties": { "magmom": -0.0 },
        "label": "Hf",
        "xyz": [2.4884166211404346, 3.5111135084929184, 11.200287704156308]
      },
      {
        "species": [{ "element": "Hf", "occu": 1 }],
        "abc": [0.9991976100000001, 0.14620579, 0.62360536],
        "properties": { "magmom": -0.0 },
        "label": "Hf",
        "xyz": [7.027870638492919, 1.0283405088595654, 7.995096831656307]
      },
      {
        "species": [{ "element": "Hf", "occu": 1 }],
        "abc": [0.65211976, 0.00230204, 0.28340669],
        "properties": { "magmom": -0.0 },
        "label": "Hf",
        "xyz": [4.586693631187778, 0.0161914311670904, 3.6334901439737486]
      },
      {
        "species": [{ "element": "Hf", "occu": 1 }],
        "abc": [0.34788024, 0.99769796, 0.78340669],
        "properties": { "magmom": -0.0 },
        "label": "Hf",
        "xyz": [2.4468206288122225, 7.017322828832909, 10.043871888973749]
      },
      {
        "species": [{ "element": "Hf", "occu": 1 }],
        "abc": [0.00230204, 0.65211976, 0.71659331],
        "properties": { "magmom": -0.0 },
        "label": "Hf",
        "xyz": [0.0161914311670904, 4.586693631187778, 9.187273346026252]
      },
      {
        "species": [{ "element": "Hf", "occu": 1 }],
        "abc": [0.50230204, 0.8478802400000001, 0.03340669],
        "properties": { "magmom": -0.0 },
        "label": "Hf",
        "xyz": [3.5329485611670903, 5.963577758812223, 0.4282992714737482]
      },
      {
        "species": [{ "element": "Hf", "occu": 1 }],
        "abc": [0.49769796, 0.15211976, 0.53340669],
        "properties": { "magmom": -0.0 },
        "label": "Hf",
        "xyz": [3.5005656988329092, 1.0699365011877775, 6.838681016473748]
      },
      {
        "species": [{ "element": "Hf", "occu": 1 }],
        "abc": [0.8478802400000001, 0.50230204, 0.96659331],
        "properties": { "magmom": -0.0 },
        "label": "Hf",
        "xyz": [5.963577758812223, 3.5329485611670903, 12.392464218526253]
      },
      {
        "species": [{ "element": "Hf", "occu": 1 }],
        "abc": [0.15211976, 0.49769796, 0.46659331],
        "properties": { "magmom": -0.0 },
        "label": "Hf",
        "xyz": [1.0699365011877775, 3.5005656988329092, 5.982082473526252]
      },
      {
        "species": [{ "element": "Hf", "occu": 1 }],
        "abc": [0.99769796, 0.34788024, 0.21659331],
        "properties": { "magmom": -0.0 },
        "label": "Hf",
        "xyz": [7.017322828832909, 2.4468206288122225, 2.7768916010262523]
      },
      {
        "species": [{ "element": "Hf", "occu": 1 }],
        "abc": [0.82529449, 0.82529449, 0.5],
        "properties": { "magmom": 0.0 },
        "label": "Hf",
        "xyz": [5.804720564114427, 5.804720564114427, 6.4103817450000005]
      },
      {
        "species": [{ "element": "Hf", "occu": 1 }],
        "abc": [0.67470551, 0.32529449, 0.75],
        "properties": { "magmom": 0.0 },
        "label": "Hf",
        "xyz": [4.745550825885572, 2.287963434114427, 9.6155726175]
      },
      {
        "species": [{ "element": "Hf", "occu": 1 }],
        "abc": [0.32529449, 0.67470551, 0.25],
        "properties": { "magmom": 0.0 },
        "label": "Hf",
        "xyz": [2.287963434114427, 4.745550825885572, 3.2051908725000002]
      },
      {
        "species": [{ "element": "Hf", "occu": 1 }],
        "abc": [0.17470551, 0.17470551, -0.0],
        "properties": { "magmom": 0.0 },
        "label": "Hf",
        "xyz": [1.2287936958855725, 1.2287936958855725, 0.0]
      },
      {
        "species": [{ "element": "Si", "occu": 1 }],
        "abc": [0.6468637700000001, 0.70417168, 0.82279939],
        "properties": { "magmom": 0.0 },
        "label": "Si",
        "xyz": [4.549725550572361, 4.952801552768157, 10.548916378906272]
      },
      {
        "species": [{ "element": "Si", "occu": 1 }],
        "abc": [0.35313623, 0.29582832000000003, 0.32279939],
        "properties": { "magmom": 0.0 },
        "label": "Si",
        "xyz": [2.4837887094276394, 2.0807127072318434, 4.138534633906271]
      },
      {
        "species": [{ "element": "Si", "occu": 1 }],
        "abc": [0.70417168, 0.6468637700000001, 0.17720061],
        "properties": { "magmom": 0.0 },
        "label": "Si",
        "xyz": [4.952801552768157, 4.549725550572361, 2.271847111093729]
      },
      {
        "species": [{ "element": "Si", "occu": 1 }],
        "abc": [0.20417168, 0.85313623, 0.57279939],
        "properties": { "magmom": 0.0 },
        "label": "Si",
        "xyz": [1.4360444227681566, 6.00054583942764, 7.343725506406272]
      },
      {
        "species": [{ "element": "Si", "occu": 1 }],
        "abc": [0.79582832, 0.14686377, 0.07279939],
        "properties": { "magmom": 0.0 },
        "label": "Si",
        "xyz": [5.597469837231843, 1.0329684205723602, 0.9333437614062713]
      },
      {
        "species": [{ "element": "Si", "occu": 1 }],
        "abc": [0.85313623, 0.20417168, 0.42720061000000004],
        "properties": { "magmom": 0.0 },
        "label": "Si",
        "xyz": [6.00054583942764, 1.4360444227681566, 5.47703798359373]
      },
      {
        "species": [{ "element": "Si", "occu": 1 }],
        "abc": [0.14686377, 0.79582832, 0.92720061],
        "properties": { "magmom": 0.0 },
        "label": "Si",
        "xyz": [1.0329684205723602, 5.597469837231843, 11.887419728593729]
      },
      {
        "species": [{ "element": "Si", "occu": 1 }],
        "abc": [0.29582832000000003, 0.35313623, 0.67720061],
        "properties": { "magmom": 0.0 },
        "label": "Si",
        "xyz": [2.0807127072318434, 2.4837887094276394, 8.68222885609373]
      },
      {
        "species": [{ "element": "Si", "occu": 1 }],
        "abc": [0.69797243, 0.95138637, 0.68662075],
        "properties": { "magmom": -0.0 },
        "label": "Si",
        "xyz": [4.909199039491852, 6.691589600164636, 8.803002243076419]
      },
      {
        "species": [{ "element": "Si", "occu": 1 }],
        "abc": [0.30202757, 0.04861363, 0.18662075],
        "properties": { "magmom": -0.0 },
        "label": "Si",
        "xyz": [2.1243152205081484, 0.34192465983536374, 2.392620498076418]
      },
      {
        "species": [{ "element": "Si", "occu": 1 }],
        "abc": [0.95138637, 0.69797243, 0.31337925],
        "properties": { "magmom": -0.0 },
        "label": "Si",
        "xyz": [6.691589600164636, 4.909199039491852, 4.017761246923583]
      },
      {
        "species": [{ "element": "Si", "occu": 1 }],
        "abc": [0.45138637000000004, 0.80202757, 0.43662075],
        "properties": { "magmom": -0.0 },
        "label": "Si",
        "xyz": [3.1748324701646364, 5.641072350508148, 5.597811370576418]
      },
      {
        "species": [{ "element": "Si", "occu": 1 }],
        "abc": [0.54861363, 0.19797243, 0.93662075],
        "properties": { "magmom": -0.0 },
        "label": "Si",
        "xyz": [3.858681789835363, 1.3924419094918516, 12.008193115576418]
      },
      {
        "species": [{ "element": "Si", "occu": 1 }],
        "abc": [0.80202757, 0.45138637000000004, 0.56337925],
        "properties": { "magmom": -0.0 },
        "label": "Si",
        "xyz": [5.641072350508148, 3.1748324701646364, 7.222952119423583]
      },
      {
        "species": [{ "element": "Si", "occu": 1 }],
        "abc": [0.19797243, 0.54861363, 0.06337925],
        "properties": { "magmom": -0.0 },
        "label": "Si",
        "xyz": [1.3924419094918516, 3.858681789835363, 0.8125703744235825]
      },
      {
        "species": [{ "element": "Si", "occu": 1 }],
        "abc": [0.04861363, 0.30202757, 0.81337925],
        "properties": { "magmom": -0.0 },
        "label": "Si",
        "xyz": [0.34192465983536374, 2.1243152205081484, 10.428142991923583]
      }
    ]
  },
  "task_ids": null,
  "uncorrected_energy_per_atom": null,
  "energy_per_atom": -29.825153164444444,
  "formation_energy_per_atom": -0.8415825722222191,
  "energy_above_hull": 0.007586177222226001,
  "is_stable": false,
  "equilibrium_reaction_energy_per_atom": null,
  "decomposes_to": null,
  "xas": null,
  "grain_boundaries": null,
  "band_gap": 0.0,
  "cbm": null,
  "vbm": null,
  "efermi": 6.62109491,
  "is_gap_direct": null,
  "is_metal": null,
  "es_source_calc_id": null,
  "bandstructure": null,
  "dos": null,
  "dos_energy_up": null,
  "dos_energy_down": null,
  "is_magnetic": null,
  "ordering": null,
  "total_magnetization": 5.9600000000000005e-5,
  "total_magnetization_normalized_vol": null,
  "total_magnetization_normalized_formula_units": null,
  "num_magnetic_sites": null,
  "num_unique_magnetic_sites": null,
  "types_of_magnetic_species": null,
  "bulk_modulus": null,
  "shear_modulus": null,
  "universal_anisotropy": null,
  "homogeneous_poisson": null,
  "e_total": null,
  "e_ionic": null,
  "e_electronic": null,
  "n": null,
  "e_ij_max": null,
  "weighted_surface_energy_EV_PER_ANG2": null,
  "weighted_surface_energy": null,
  "weighted_work_function": null,
  "surface_anisotropy": null,
  "shape_factor": null,
  "has_reconstructed": null,
  "possible_species": null,
  "has_props": null,
  "theoretical": null,
  "database_IDs": null,
  "fields_not_requested": [
    "builder_meta",
    "nsites",
    "elements",
    "nelements",
    "composition",
    "composition_reduced",
    "chemsys",
    "symmetry",
    "property_name",
    "deprecated",
    "deprecation_reasons",
    "last_updated",
    "origins",
    "warnings",
    "task_ids",
    "uncorrected_energy_per_atom",
    "equilibrium_reaction_energy_per_atom",
    "decomposes_to",
    "xas",
    "grain_boundaries",
    "cbm",
    "vbm",
    "is_gap_direct",
    "is_metal",
    "es_source_calc_id",
    "bandstructure",
    "dos",
    "dos_energy_up",
    "dos_energy_down",
    "is_magnetic",
    "ordering",
    "total_magnetization_normalized_vol",
    "total_magnetization_normalized_formula_units",
    "num_magnetic_sites",
    "num_unique_magnetic_sites",
    "types_of_magnetic_species",
    "bulk_modulus",
    "shear_modulus",
    "universal_anisotropy",
    "homogeneous_poisson",
    "e_total",
    "e_ionic",
    "e_electronic",
    "n",
    "e_ij_max",
    "weighted_surface_energy_EV_PER_ANG2",
    "weighted_surface_energy",
    "weighted_work_function",
    "surface_anisotropy",
    "shape_factor",
    "has_reconstructed",
    "possible_species",
    "has_props",
    "theoretical",
    "database_IDs"
  ]
}
