{"builder_meta": null, "nsites": null, "elements": null, "nelements": null, "composition": null, "composition_reduced": null, "formula_pretty": "Hf5Sn3", "formula_anonymous": "A3B5", "chemsys": null, "volume": 348.2197208166353, "density": 11.90808988596708, "density_atomic": 21.763732551039705, "symmetry": null, "property_name": null, "material_id": "mp-21104", "deprecated": null, "deprecation_reasons": null, "last_updated": null, "origins": null, "warnings": null, "structure": {"@module": "pymatgen.core.structure", "@class": "Structure", "charge": 0, "lattice": {"matrix": [[8.39460577, -7.9e-06, 0.0], [-4.19730808, 7.26993318, 0.0], [0.0, 0.0, 5.70588316]], "pbc": [true, true, true], "a": 8.394605770003718, "b": 8.394600857700036, "c": 5.70588316, "alpha": 90.0, "beta": 90.0, "gamma": 120.00011422014836, "volume": 348.2197208166353}, "properties": {}, "sites": [{"species": [{"element": "Hf", "occu": 1}], "abc": [0.33333639, 0.6666694400000001, -4e-08], "properties": {"magmom": 0.0}, "label": "Hf", "xyz": [1.0555643894960554e-05, 4.846639648590538, -2.282353264e-07]}, {"species": [{"element": "Hf", "occu": 1}], "abc": [0.6666679, 0.33333439, 0.50000005], "properties": {"magmom": 0.0}, "label": "Hf", "xyz": [4.197307071524912, 2.4233134752196497, 2.852941865294158]}, {"species": [{"element": "Hf", "occu": 1}], "abc": [0.6666679, 0.33333439, -5e-08], "properties": {"magmom": 0.0}, "label": "Hf", "xyz": [4.197307071524912, 2.4233134752196497, -2.85294158e-07]}, {"species": [{"element": "Hf", "occu": 1}], "abc": [0.33333639, 0.6666694400000001, 0.50000004], "properties": {"magmom": 0.0}, "label": "Hf", "xyz": [1.0555643894960554e-05, 4.846639648590538, 2.852941808235326]}, {"species": [{"element": "Hf", "occu": 1}], "abc": [0.75413247, -0.00012256, 0.75], "properties": {"magmom": 0.0}, "label": "Hf", "xyz": [6.331159206084638, -0.0008969606570538, 4.27941237]}, {"species": [{"element": "Hf", "occu": 1}], "abc": [0.75413332, 0.7542531, 0.25], "properties": {"magmom": 0.0}, "label": "Hf", "xyz": [3.164819288426208, 5.48336368015463, 1.42647079]}, {"species": [{"element": "Hf", "occu": 1}], "abc": [0.00012101000000000001, 0.24586711, 0.25], "properties": {"magmom": 0.0}, "label": "Hf", "xyz": [-1.0309641761650212, 1.7874374599037306, 1.42647079]}, {"species": [{"element": "Hf", "occu": 1}], "abc": [0.00011826, 0.75425164, 0.75], "properties": {"magmom": 0.0}, "label": "Hf", "xyz": [-3.164833756846891, 5.483359022771161, 4.27941237]}, {"species": [{"element": "Hf", "occu": 1}], "abc": [0.24574487, 0.24586774, 0.75], "properties": {"magmom": 0.0}, "label": "Hf", "xyz": [1.0309486519365605, 1.78744009953314, 4.27941237]}, {"species": [{"element": "Hf", "occu": 1}], "abc": [0.24574463, -0.00012289, 0.25], "properties": {"magmom": 0.0}, "label": "Hf", "xyz": [2.0634450961344664, -0.0008953434710672001, 1.42647079]}, {"species": [{"element": "Sn", "occu": 1}], "abc": [0.39267758, 4.0540000000000015e-05, 0.75], "properties": {"magmom": -0.0}, "label": "Sn", "xyz": [3.2962033199480736, 0.00029162093823520007, 4.27941237]}, {"species": [{"element": "Sn", "occu": 1}], "abc": [0.39267917, 0.39263823000000003, 0.25], "properties": {"magmom": -0.0}, "label": "Sn", "xyz": [1.6483632109449124, 2.8544505938480285, 1.42647079]}, {"species": [{"element": "Sn", "occu": 1}], "abc": [-3.9e-05, 0.60731886, 0.25], "properties": {"magmom": -0.0}, "label": "Sn", "xyz": [-2.549431747839419, 4.415167531461875, 1.42647079]}, {"species": [{"element": "Sn", "occu": 1}], "abc": [-4.0860000000000005e-05, 0.39264033, 0.75], "properties": {"magmom": -0.0}, "label": "Sn", "xyz": [-1.6483754332346285, 2.854468963195943, 4.27941237]}, {"species": [{"element": "Sn", "occu": 1}], "abc": [0.60735891, 0.60731831, 0.75], "properties": {"magmom": -0.0}, "label": "Sn", "xyz": [2.5494365606519653, 4.4151587345551375, 4.27941237]}, {"species": [{"element": "Sn", "occu": 1}], "abc": [0.60736106, 4.194e-05, 0.25], "properties": {"magmom": -0.0}, "label": "Sn", "xyz": [5.098380623648442, 0.0003001028451952, 1.42647079]}]}, "task_ids": null, "uncorrected_energy_per_atom": null, "energy_per_atom": -37.92651837, "formation_energy_per_atom": -0.42706483374999404, "energy_above_hull": 0.0, "is_stable": true, "equilibrium_reaction_energy_per_atom": null, "decomposes_to": null, "xas": null, "grain_boundaries": null, "band_gap": 0.0, "cbm": null, "vbm": null, "efermi": 7.07866277, "is_gap_direct": null, "is_metal": null, "es_source_calc_id": null, "bandstructure": null, "dos": null, "dos_energy_up": null, "dos_energy_down": null, "is_magnetic": null, "ordering": null, "total_magnetization": 0.0006226, "total_magnetization_normalized_vol": null, "total_magnetization_normalized_formula_units": null, "num_magnetic_sites": null, "num_unique_magnetic_sites": null, "types_of_magnetic_species": null, "bulk_modulus": null, "shear_modulus": null, "universal_anisotropy": null, "homogeneous_poisson": null, "e_total": null, "e_ionic": null, "e_electronic": null, "n": null, "e_ij_max": null, "weighted_surface_energy_EV_PER_ANG2": null, "weighted_surface_energy": null, "weighted_work_function": null, "surface_anisotropy": null, "shape_factor": null, "has_reconstructed": null, "possible_species": null, "has_props": null, "theoretical": null, "database_IDs": null, "fields_not_requested": ["builder_meta", "nsites", "elements", "nelements", "composition", "composition_reduced", "chemsys", "symmetry", "property_name", "deprecated", "deprecation_reasons", "last_updated", "origins", "warnings", "task_ids", "uncorrected_energy_per_atom", "equilibrium_reaction_energy_per_atom", "decomposes_to", "xas", "grain_boundaries", "cbm", "vbm", "is_gap_direct", "is_metal", "es_source_calc_id", "bandstructure", "dos", "dos_energy_up", "dos_energy_down", "is_magnetic", "ordering", "total_magnetization_normalized_vol", "total_magnetization_normalized_formula_units", "num_magnetic_sites", "num_unique_magnetic_sites", "types_of_magnetic_species", "bulk_modulus", "shear_modulus", "universal_anisotropy", "homogeneous_poisson", "e_total", "e_ionic", "e_electronic", "n", "e_ij_max", "weighted_surface_energy_EV_PER_ANG2", "weighted_surface_energy", "weighted_work_function", "surface_anisotropy", "shape_factor", "has_reconstructed", "possible_species", "has_props", "theoretical", "database_IDs"]}