{
  "builder_meta": null,
  "nsites": null,
  "elements": null,
  "nelements": null,
  "composition": null,
  "composition_reduced": null,
  "formula_pretty": "Hf5Sn4",
  "formula_anonymous": "A4B5",
  "chemsys": null,
  "volume": 386.9672967465473,
  "density": 11.734523715364956,
  "density_atomic": 21.49818315258596,
  "symmetry": null,
  "property_name": null,
  "material_id": "mp-510691",
  "deprecated": null,
  "deprecation_reasons": null,
  "last_updated": null,
  "origins": null,
  "warnings": null,
  "structure": {
    "@module": "pymatgen.core.structure",
    "@class": "Structure",
    "charge": 0,
    "lattice": {
      "matrix": [
        [8.72536216, -0.0, -0.0],
        [-4.36268159, 7.55638582, 0.0],
        [-0.0, -0.0, 5.86916984]
      ],
      "pbc": [true, true, true],
      "a": 8.72536216,
      "b": 8.725362875916508,
      "c": 5.86916984,
      "alpha": 90.0,
      "beta": 90.0,
      "gamma": 120.00000115284615,
      "volume": 386.9672967465473
    },
    "properties": {},
    "sites": [
      {
        "species": [{ "element": "Hf", "occu": 1 }],
        "abc": [0.333333, 0.666667, 0.0],
        "properties": { "magmom": 0.0 },
        "label": "Hf",
        "xyz": [-4.702681250634555e-6, 5.03759306546194, 0.0]
      },
      {
        "species": [{ "element": "Hf", "occu": 1 }],
        "abc": [0.666667, 0.333333, 0.5],
        "properties": { "magmom": 0.0 },
        "label": "Hf",
        "xyz": [4.36268527268125, 2.51879275453806, 2.93458492]
      },
      {
        "species": [{ "element": "Hf", "occu": 1 }],
        "abc": [0.666667, 0.333333, 0.0],
        "properties": { "magmom": 0.0 },
        "label": "Hf",
        "xyz": [4.36268527268125, 2.51879275453806, 0.0]
      },
      {
        "species": [{ "element": "Hf", "occu": 1 }],
        "abc": [0.333333, 0.666667, 0.5],
        "properties": { "magmom": 0.0 },
        "label": "Hf",
        "xyz": [-4.702681250634555e-6, 5.03759306546194, 2.93458492]
      },
      {
        "species": [{ "element": "Hf", "occu": 1 }],
        "abc": [0.28160531, 0.0, 0.25],
        "properties": { "magmom": 0.0 },
        "label": "Hf",
        "xyz": [2.4571083159290694, 0.0, 1.46729246]
      },
      {
        "species": [{ "element": "Hf", "occu": 1 }],
        "abc": [0.28160531, 0.28160531, 0.75],
        "properties": { "magmom": 0.0 },
        "label": "Hf",
        "xyz": [1.2285540143458265, 2.127918371320704, 4.40187738]
      },
      {
        "species": [{ "element": "Hf", "occu": 1 }],
        "abc": [0.0, 0.71839469, 0.75],
        "properties": { "magmom": 0.0 },
        "label": "Hf",
        "xyz": [-3.1341272884167575, 5.428467448679296, 4.40187738]
      },
      {
        "species": [{ "element": "Hf", "occu": 1 }],
        "abc": [-0.0, 0.28160531, 0.25],
        "properties": { "magmom": 0.0 },
        "label": "Hf",
        "xyz": [-1.228554301583243, 2.127918371320704, 1.46729246]
      },
      {
        "species": [{ "element": "Hf", "occu": 1 }],
        "abc": [0.71839469, 0.71839469, 0.25],
        "properties": { "magmom": 0.0 },
        "label": "Hf",
        "xyz": [3.1341265556541726, 5.428467448679296, 1.46729246]
      },
      {
        "species": [{ "element": "Hf", "occu": 1 }],
        "abc": [0.71839469, -0.0, 0.75],
        "properties": { "magmom": 0.0 },
        "label": "Hf",
        "xyz": [6.26825384407093, 0.0, 4.40187738]
      },
      {
        "species": [{ "element": "Sn", "occu": 1 }],
        "abc": [-0.0, 0.0, 0.0],
        "properties": { "magmom": -0.0 },
        "label": "Sn",
        "xyz": [0.0, 0.0, 0.0]
      },
      {
        "species": [{ "element": "Sn", "occu": 1 }],
        "abc": [-0.0, 0.0, 0.5],
        "properties": { "magmom": -0.0 },
        "label": "Sn",
        "xyz": [0.0, 0.0, 2.93458492]
      },
      {
        "species": [{ "element": "Sn", "occu": 1 }],
        "abc": [0.61263654, 0.0, 0.25],
        "properties": { "magmom": 0.0 },
        "label": "Sn",
        "xyz": [5.345475683949326, 0.0, 1.46729246]
      },
      {
        "species": [{ "element": "Sn", "occu": 1 }],
        "abc": [0.61263654, 0.61263654, 0.75],
        "properties": { "magmom": 0.0 },
        "label": "Sn",
        "xyz": [2.672737529530027, 4.629318063669863, 4.40187738]
      },
      {
        "species": [{ "element": "Sn", "occu": 1 }],
        "abc": [0.0, 0.38736346, 0.75],
        "properties": { "magmom": 0.0 },
        "label": "Sn",
        "xyz": [-1.6899434355807015, 2.9270677563301373, 4.40187738]
      },
      {
        "species": [{ "element": "Sn", "occu": 1 }],
        "abc": [-0.0, 0.61263654, 0.25],
        "properties": { "magmom": 0.0 },
        "label": "Sn",
        "xyz": [-2.672738154419299, 4.629318063669863, 1.46729246]
      },
      {
        "species": [{ "element": "Sn", "occu": 1 }],
        "abc": [0.38736346, 0.38736346, 0.25],
        "properties": { "magmom": 0.0 },
        "label": "Sn",
        "xyz": [1.689943040469972, 2.9270677563301373, 1.46729246]
      },
      {
        "species": [{ "element": "Sn", "occu": 1 }],
        "abc": [0.38736346, -0.0, 0.75],
        "properties": { "magmom": 0.0 },
        "label": "Sn",
        "xyz": [3.3798864760506735, 0.0, 4.40187738]
      }
    ]
  },
  "task_ids": null,
  "uncorrected_energy_per_atom": null,
  "energy_per_atom": -36.519753563888884,
  "formation_energy_per_atom": -0.43733000055555504,
  "energy_above_hull": 0.0,
  "is_stable": true,
  "equilibrium_reaction_energy_per_atom": null,
  "decomposes_to": null,
  "xas": null,
  "grain_boundaries": null,
  "band_gap": 0.0,
  "cbm": null,
  "vbm": null,
  "efermi": 7.40771583,
  "is_gap_direct": null,
  "is_metal": null,
  "es_source_calc_id": null,
  "bandstructure": null,
  "dos": null,
  "dos_energy_up": null,
  "dos_energy_down": null,
  "is_magnetic": null,
  "ordering": null,
  "total_magnetization": 1e-7,
  "total_magnetization_normalized_vol": null,
  "total_magnetization_normalized_formula_units": null,
  "num_magnetic_sites": null,
  "num_unique_magnetic_sites": null,
  "types_of_magnetic_species": null,
  "bulk_modulus": null,
  "shear_modulus": null,
  "universal_anisotropy": null,
  "homogeneous_poisson": null,
  "e_total": null,
  "e_ionic": null,
  "e_electronic": null,
  "n": null,
  "e_ij_max": null,
  "weighted_surface_energy_EV_PER_ANG2": null,
  "weighted_surface_energy": null,
  "weighted_work_function": null,
  "surface_anisotropy": null,
  "shape_factor": null,
  "has_reconstructed": null,
  "possible_species": null,
  "has_props": null,
  "theoretical": null,
  "database_IDs": null,
  "fields_not_requested": [
    "builder_meta",
    "nsites",
    "elements",
    "nelements",
    "composition",
    "composition_reduced",
    "chemsys",
    "symmetry",
    "property_name",
    "deprecated",
    "deprecation_reasons",
    "last_updated",
    "origins",
    "warnings",
    "task_ids",
    "uncorrected_energy_per_atom",
    "equilibrium_reaction_energy_per_atom",
    "decomposes_to",
    "xas",
    "grain_boundaries",
    "cbm",
    "vbm",
    "is_gap_direct",
    "is_metal",
    "es_source_calc_id",
    "bandstructure",
    "dos",
    "dos_energy_up",
    "dos_energy_down",
    "is_magnetic",
    "ordering",
    "total_magnetization_normalized_vol",
    "total_magnetization_normalized_formula_units",
    "num_magnetic_sites",
    "num_unique_magnetic_sites",
    "types_of_magnetic_species",
    "bulk_modulus",
    "shear_modulus",
    "universal_anisotropy",
    "homogeneous_poisson",
    "e_total",
    "e_ionic",
    "e_electronic",
    "n",
    "e_ij_max",
    "weighted_surface_energy_EV_PER_ANG2",
    "weighted_surface_energy",
    "weighted_work_function",
    "surface_anisotropy",
    "shape_factor",
    "has_reconstructed",
    "possible_species",
    "has_props",
    "theoretical",
    "database_IDs"
  ]
}
