{"builder_meta": null, "nsites": null, "elements": null, "nelements": null, "composition": null, "composition_reduced": null, "formula_pretty": "Hf5Te4", "formula_anonymous": "A4B5", "chemsys": null, "volume": 217.04320241723266, "density": 10.73282739858272, "density_atomic": 24.11591137969252, "symmetry": null, "property_name": null, "material_id": "mp-12884", "deprecated": null, "deprecation_reasons": null, "last_updated": null, "origins": null, "warnings": null, "structure": {"@module": "pymatgen.core.structure", "@class": "Structure", "charge": 0, "lattice": {"matrix": [[3.67650342, 0.0, 0.91429568], [1.837986599999999, 7.56903203, 0.45821438000000003], [0.01157407, -0.00109899, 7.80245194]], "pbc": [true, true, true], "a": 3.788484391909033, "b": 7.8024612162435165, "c": 7.802460601815632, "alpha": 86.6210494700722, "beta": 75.94963370879599, "gamma": 75.94962037397977, "volume": 217.04320241723266}, "properties": {}, "sites": [{"species": [{"element": "Hf", "occu": 1}], "abc": [0.68984895, 0.94201216, 0.67828893], "properties": {"magmom": 0.0}, "label": "Hf", "xyz": [4.275488314631509, 7.1293747789383035, 6.354686210443422]}, {"species": [{"element": "Hf", "occu": 1}], "abc": [0.36813889, 0.32171107, 0.94201216], "properties": {"magmom": 0.0}, "label": "Hf", "xyz": [1.9556674385323565, 2.4340061312918535, 7.834005040541773]}, {"species": [{"element": "Hf", "occu": 1}], "abc": [0.63186111, 0.67828893, 0.05798784], "properties": {"magmom": 0.0}, "label": "Hf", "xyz": [3.5703966514676417, 5.133926908708146, 1.3409569594582278]}, {"species": [{"element": "Hf", "occu": 1}], "abc": [0.31015005, 0.05798784, 0.32171107], "properties": {"magmom": 0.0}, "label": "Hf", "xyz": [1.2505720988650697, 0.4385582610616959, 2.820274875260899]}, {"species": [{"element": "Hf", "occu": 1}], "abc": [-0.0, 0.0, 0.0], "properties": {"magmom": -0.0}, "label": "Hf", "xyz": [0.0, 0.0, 0.0]}, {"species": [{"element": "Te", "occu": 1}], "abc": [0.94838773, 0.76763325, 0.33558929], "properties": {"magmom": -0.0}, "label": "Te", "xyz": [4.901534493979196, 5.809871847269181, 3.8372667050238642]}, {"species": [{"element": "Te", "occu": 1}], "abc": [0.28397802, 0.66441071, 0.76763325], "properties": {"magmom": -0.0}, "label": "Te", "xyz": [2.2741087845811414, 5.028102323799623, 6.553503959119969]}, {"species": [{"element": "Te", "occu": 1}], "abc": [0.7160219800000001, 0.33558929, 0.23236675], "properties": {"magmom": -0.0}, "label": "Te", "xyz": [3.251955305418858, 2.539830716200376, 2.621458040880032]}, {"species": [{"element": "Te", "occu": 1}], "abc": [0.05161227, 0.23236675, 0.66441071], "properties": {"magmom": -0.0}, "label": "Te", "xyz": [0.6245295960208028, 1.7580611927308196, 5.337695294976135]}]}, "task_ids": null, "uncorrected_energy_per_atom": null, "energy_per_atom": -37.09843443222222, "formation_energy_per_atom": -0.717770633333335, "energy_above_hull": 0.02672030888889, "is_stable": false, "equilibrium_reaction_energy_per_atom": null, "decomposes_to": null, "xas": null, "grain_boundaries": null, "band_gap": 0.0, "cbm": null, "vbm": null, "efermi": 6.98486233, "is_gap_direct": null, "is_metal": null, "es_source_calc_id": null, "bandstructure": null, "dos": null, "dos_energy_up": null, "dos_energy_down": null, "is_magnetic": null, "ordering": null, "total_magnetization": 0.0, "total_magnetization_normalized_vol": null, "total_magnetization_normalized_formula_units": null, "num_magnetic_sites": null, "num_unique_magnetic_sites": null, "types_of_magnetic_species": null, "bulk_modulus": null, "shear_modulus": null, "universal_anisotropy": null, "homogeneous_poisson": null, "e_total": null, "e_ionic": null, "e_electronic": null, "n": null, "e_ij_max": null, "weighted_surface_energy_EV_PER_ANG2": null, "weighted_surface_energy": null, "weighted_work_function": null, "surface_anisotropy": null, "shape_factor": null, "has_reconstructed": null, "possible_species": null, "has_props": null, "theoretical": null, "database_IDs": null, "fields_not_requested": ["builder_meta", "nsites", "elements", "nelements", "composition", "composition_reduced", "chemsys", "symmetry", "property_name", "deprecated", "deprecation_reasons", "last_updated", "origins", "warnings", "task_ids", "uncorrected_energy_per_atom", "equilibrium_reaction_energy_per_atom", "decomposes_to", "xas", "grain_boundaries", "cbm", "vbm", "is_gap_direct", "is_metal", "es_source_calc_id", "bandstructure", "dos", "dos_energy_up", "dos_energy_down", "is_magnetic", "ordering", "total_magnetization_normalized_vol", "total_magnetization_normalized_formula_units", "num_magnetic_sites", "num_unique_magnetic_sites", "types_of_magnetic_species", "bulk_modulus", "shear_modulus", "universal_anisotropy", "homogeneous_poisson", "e_total", "e_ionic", "e_electronic", "n", "e_ij_max", "weighted_surface_energy_EV_PER_ANG2", "weighted_surface_energy", "weighted_work_function", "surface_anisotropy", "shape_factor", "has_reconstructed", "possible_species", "has_props", "theoretical", "database_IDs"]}