{
  "builder_meta": null,
  "nsites": null,
  "elements": null,
  "nelements": null,
  "composition": null,
  "composition_reduced": null,
  "formula_pretty": "Hf7As4",
  "formula_anonymous": "A4B7",
  "chemsys": null,
  "volume": 426.6779742669086,
  "density": 12.0576568562295,
  "density_atomic": 19.394453375768574,
  "symmetry": null,
  "property_name": null,
  "material_id": "mp-1192251",
  "deprecated": null,
  "deprecation_reasons": null,
  "last_updated": null,
  "origins": null,
  "warnings": null,
  "structure": {
    "@module": "pymatgen.core.structure",
    "@class": "Structure",
    "charge": 0,
    "lattice": {
      "matrix": [
        [0.0, -3.612351, 0.0],
        [-8.122952, 1.806175, 0.0],
        [3.735508, 0.0, -14.541071]
      ],
      "pbc": [true, true, true],
      "a": 3.612351,
      "b": 8.321335068661098,
      "c": 15.013219702818747,
      "alpha": 104.05674648982645,
      "beta": 90.0,
      "gamma": 102.53603027556905,
      "volume": 426.6779742669086
    },
    "properties": {},
    "sites": [
      {
        "species": [{ "element": "Hf", "occu": 1 }],
        "abc": [0.0, 0.0, 0.0],
        "properties": { "magmom": 0.0 },
        "label": "Hf",
        "xyz": [0.0, 0.0, 0.0]
      },
      {
        "species": [{ "element": "Hf", "occu": 1 }],
        "abc": [0.5, 0.0, 0.5],
        "properties": { "magmom": -0.004 },
        "label": "Hf",
        "xyz": [1.867754, -1.8061755, -7.2705355]
      },
      {
        "species": [{ "element": "Hf", "occu": 1 }],
        "abc": [0.430820999999999, 0.861641, 0.829245],
        "properties": { "magmom": 0.008 },
        "label": "Hf",
        "xyz": [-3.901417152772, -2.2369959964407826e-6, -12.058110421395]
      },
      {
        "species": [{ "element": "Hf", "occu": 1 }],
        "abc": [0.569179, 0.138358999999999, 0.170755],
        "properties": { "magmom": 0.008 },
        "label": "Hf",
        "xyz": [-0.48602684722799194, -1.8061737630040016, -2.4829605786049997]
      },
      {
        "species": [{ "element": "Hf", "occu": 1 }],
        "abc": [0.196299, 0.392599, 0.309998999999999],
        "properties": { "magmom": 0.001 },
        "label": "Hf",
        "xyz": [-2.0310590877560033, 1.60987599995277e-6, -4.507717468928986]
      },
      {
        "species": [{ "element": "Hf", "occu": 1 }],
        "abc": [0.803701, 0.607401, 0.690001],
        "properties": { "magmom": 0.001 },
        "label": "Hf",
        "xyz": [-2.3563849122439997, -1.8061776098759998, -10.033353531071]
      },
      {
        "species": [{ "element": "Hf", "occu": 1 }],
        "abc": [0.207428, 0.414855, 0.797365],
        "properties": { "magmom": 0.008 },
        "label": "Hf",
        "xyz": [-0.39128391553999986, -2.013603000006192e-6, -11.594541077915]
      },
      {
        "species": [{ "element": "Hf", "occu": 1 }],
        "abc": [0.792571999999999, 0.585145, 0.202634999999999],
        "properties": { "magmom": 0.008 },
        "label": "Hf",
        "xyz": [-3.996160084460004, -1.8061739863969966, -2.9465299220849857]
      },
      {
        "species": [{ "element": "Hf", "occu": 1 }],
        "abc": [0.337356999999999, 0.674713999999999, 0.029081],
        "properties": { "magmom": 0.004 },
        "label": "Hf",
        "xyz": [-5.3720371275799925, -3.3735699811465736e-7, -0.422868885751]
      },
      {
        "species": [{ "element": "Hf", "occu": 1 }],
        "abc": [0.662643, 0.325285999999999, 0.970919],
        "properties": { "magmom": 0.004 },
        "label": "Hf",
        "xyz": [0.9845931275800077, -1.8061756626430014, -14.118202114249]
      },
      {
        "species": [{ "element": "Hf", "occu": 1 }],
        "abc": [0.002856, 0.005712, 0.665898],
        "properties": { "magmom": 0.006 },
        "label": "Hf",
        "xyz": [2.44106900436, -2.855999998996328e-9, -9.682870096758]
      },
      {
        "species": [{ "element": "Hf", "occu": 1 }],
        "abc": [0.997143999999999, 0.994288, 0.334102],
        "properties": { "magmom": 0.006 },
        "label": "Hf",
        "xyz": [-6.8285130043599995, -1.8061759971439963, -4.858200903242]
      },
      {
        "species": [{ "element": "Hf", "occu": 1 }],
        "abc": [0.178561, 0.357122, 0.542253],
        "properties": { "magmom": -0.003 },
        "label": "Hf",
        "xyz": [-0.8752944446200002, -1.785609999860327e-7, -7.884939372963]
      },
      {
        "species": [{ "element": "Hf", "occu": 1 }],
        "abc": [0.821438999999999, 0.642878, 0.457746999999999],
        "properties": { "magmom": -0.003 },
        "label": "Hf",
        "xyz": [-3.5121495553800033, -1.8061758214389967, -6.656131627036986]
      },
      {
        "species": [{ "element": "As", "occu": 1 }],
        "abc": [0.174213999999999, 0.348427999999999, 0.111079],
        "properties": { "magmom": -0.001 },
        "label": "As",
        "xyz": [-2.4153274263239917, -1.742139982274793e-7, -1.615207625609]
      },
      {
        "species": [{ "element": "As", "occu": 1 }],
        "abc": [0.825785999999999, 0.651571999999999, 0.888921],
        "properties": { "magmom": -0.001 },
        "label": "As",
        "xyz": [-1.9721165736759922, -1.806175825785998, -12.925863374391]
      },
      {
        "species": [{ "element": "As", "occu": 1 }],
        "abc": [0.374436, 0.748873, 0.599835999999999],
        "properties": { "magmom": -0.0 },
        "label": "As",
        "xyz": [-3.842367256408003, 1.4317390002460684e-6, -8.722257864355987]
      },
      {
        "species": [{ "element": "As", "occu": 1 }],
        "abc": [0.625564, 0.251127, 0.400163999999999],
        "properties": { "magmom": -0.0 },
        "label": "As",
        "xyz": [-0.5450767435920034, -1.8061774317389998, -5.818813135643986]
      },
      {
        "species": [{ "element": "As", "occu": 1 }],
        "abc": [0.370320999999999, 0.740642999999999, 0.337904],
        "properties": { "magmom": -0.0 },
        "label": "As",
        "xyz": [-4.7539644429039924, 1.4358540019188126e-6, -4.913486055184]
      },
      {
        "species": [{ "element": "As", "occu": 1 }],
        "abc": [0.629679, 0.259357, 0.662096],
        "properties": { "magmom": -0.0 },
        "label": "As",
        "xyz": [0.3665204429040001, -1.806177435854, -9.627584944816]
      },
      {
        "species": [{ "element": "As", "occu": 1 }],
        "abc": [0.064008, 0.128017, 0.851140999999999],
        "properties": { "magmom": -0.001 },
        "label": "As",
        "xyz": [2.1395680684439964, 1.742167000023942e-6, -12.376501712010986]
      },
      {
        "species": [{ "element": "As", "occu": 1 }],
        "abc": [0.935991999999999, 0.871983, 0.148859],
        "properties": { "magmom": -0.001 },
        "label": "As",
        "xyz": [-6.527012068444, -1.8061777421669964, -2.164569287989]
      }
    ]
  },
  "task_ids": null,
  "uncorrected_energy_per_atom": null,
  "energy_per_atom": -8.881280250454545,
  "formation_energy_per_atom": -0.846660855909089,
  "energy_above_hull": 0.0007765067803040001,
  "is_stable": false,
  "equilibrium_reaction_energy_per_atom": null,
  "decomposes_to": null,
  "xas": null,
  "grain_boundaries": null,
  "band_gap": 0.0,
  "cbm": null,
  "vbm": null,
  "efermi": 6.05564274,
  "is_gap_direct": null,
  "is_metal": null,
  "es_source_calc_id": null,
  "bandstructure": null,
  "dos": null,
  "dos_energy_up": null,
  "dos_energy_down": null,
  "is_magnetic": null,
  "ordering": null,
  "total_magnetization": 0.0984234,
  "total_magnetization_normalized_vol": null,
  "total_magnetization_normalized_formula_units": null,
  "num_magnetic_sites": null,
  "num_unique_magnetic_sites": null,
  "types_of_magnetic_species": null,
  "bulk_modulus": null,
  "shear_modulus": null,
  "universal_anisotropy": null,
  "homogeneous_poisson": null,
  "e_total": null,
  "e_ionic": null,
  "e_electronic": null,
  "n": null,
  "e_ij_max": null,
  "weighted_surface_energy_EV_PER_ANG2": null,
  "weighted_surface_energy": null,
  "weighted_work_function": null,
  "surface_anisotropy": null,
  "shape_factor": null,
  "has_reconstructed": null,
  "possible_species": null,
  "has_props": null,
  "theoretical": null,
  "database_IDs": null,
  "fields_not_requested": [
    "builder_meta",
    "nsites",
    "elements",
    "nelements",
    "composition",
    "composition_reduced",
    "chemsys",
    "symmetry",
    "property_name",
    "deprecated",
    "deprecation_reasons",
    "last_updated",
    "origins",
    "warnings",
    "task_ids",
    "uncorrected_energy_per_atom",
    "equilibrium_reaction_energy_per_atom",
    "decomposes_to",
    "xas",
    "grain_boundaries",
    "cbm",
    "vbm",
    "is_gap_direct",
    "is_metal",
    "es_source_calc_id",
    "bandstructure",
    "dos",
    "dos_energy_up",
    "dos_energy_down",
    "is_magnetic",
    "ordering",
    "total_magnetization_normalized_vol",
    "total_magnetization_normalized_formula_units",
    "num_magnetic_sites",
    "num_unique_magnetic_sites",
    "types_of_magnetic_species",
    "bulk_modulus",
    "shear_modulus",
    "universal_anisotropy",
    "homogeneous_poisson",
    "e_total",
    "e_ionic",
    "e_electronic",
    "n",
    "e_ij_max",
    "weighted_surface_energy_EV_PER_ANG2",
    "weighted_surface_energy",
    "weighted_work_function",
    "surface_anisotropy",
    "shape_factor",
    "has_reconstructed",
    "possible_species",
    "has_props",
    "theoretical",
    "database_IDs"
  ]
}
