{
  "builder_meta": null,
  "nsites": null,
  "elements": null,
  "nelements": null,
  "composition": null,
  "composition_reduced": null,
  "formula_pretty": "Hf7P4",
  "formula_anonymous": "A4B7",
  "chemsys": null,
  "volume": 390.4625789430402,
  "density": 11.68081151088739,
  "density_atomic": 17.748299042865465,
  "symmetry": null,
  "property_name": null,
  "material_id": "mp-18622",
  "deprecated": null,
  "deprecation_reasons": null,
  "last_updated": null,
  "origins": null,
  "warnings": null,
  "structure": {
    "@module": "pymatgen.core.structure",
    "@class": "Structure",
    "charge": 0,
    "lattice": {
      "matrix": [
        [3.51971113, -0.0, -0.0],
        [-1.75985557, 7.5683656500000005, -1.95685032],
        [-0.0, 0.00589834, 14.65632555]
      ],
      "pbc": [true, true, true],
      "a": 3.51971113,
      "b": 8.012896693096952,
      "c": 14.656326736873655,
      "alpha": 104.1128463310138,
      "beta": 90.0,
      "gamma": 102.68717795922511,
      "volume": 390.46257894304034
    },
    "properties": {},
    "sites": [
      {
        "species": [{ "element": "Hf", "occu": 1 }],
        "abc": [0.33906413, 0.67812627, 0.02970129],
        "properties": { "magmom": -0.0 },
        "label": "Hf",
        "xyz": [3.4987219430515637e-6, 5.132482756537485, -0.8916798329549469]
      },
      {
        "species": [{ "element": "Hf", "occu": 1 }],
        "abc": [0.66093587, 0.32187373, 0.97029871],
        "properties": { "magmom": -0.0 },
        "label": "Hf",
        "xyz": [1.7598520612780568, 2.441781233462516, 13.591155062954947]
      },
      {
        "species": [{ "element": "Hf", "occu": 1 }],
        "abc": [0.00309044, 0.00618188, 0.66905689],
        "properties": { "magmom": -0.001 },
        "label": "Hf",
        "xyz": [-1.7598864743995773e-6, 0.0507330532609846, 9.793818577454337]
      },
      {
        "species": [{ "element": "Hf", "occu": 1 }],
        "abc": [0.99690956, 0.99381812, 0.33094311],
        "properties": { "magmom": -0.001 },
        "label": "Hf",
        "xyz": [1.7598573198864742, 7.523530936739016, 2.9056566525456615]
      },
      {
        "species": [{ "element": "Hf", "occu": 1 }],
        "abc": [0.17693348, 0.35386695, 0.541430899999999],
        "properties": { "magmom": -0.0 },
        "label": "Hf",
        "xyz": [1.5829220934016064e-8, 2.681388012584974, 7.242922878884557]
      },
      {
        "species": [{ "element": "Hf", "occu": 1 }],
        "abc": [0.82306652, 0.64613305, 0.458569099999999],
        "properties": { "magmom": -0.0 },
        "label": "Hf",
        "xyz": [1.7598555441707793, 4.892875977415027, 5.456552351115414]
      },
      {
        "species": [{ "element": "Hf", "occu": 1 }],
        "abc": [0.79519851, 0.59039903, 0.20295897000000002],
        "properties": { "magmom": -0.001 },
        "label": "Hf",
        "xyz": [1.7598520247383191, 4.46955285945643, 1.8193102068294937]
      },
      {
        "species": [{ "element": "Hf", "occu": 1 }],
        "abc": [0.20480149, 0.40960097, 0.79704103],
        "properties": { "magmom": -0.001 },
        "label": "Hf",
        "xyz": [3.5352616808426163e-6, 3.104711130543571, 10.880165023170505]
      },
      {
        "species": [{ "element": "Hf", "occu": 1 }],
        "abc": [0.80348218, 0.60696636, 0.68879483],
        "properties": { "magmom": -0.0 },
        "label": "Hf",
        "xyz": [1.7598520422540387, 4.597806095827117, 8.90745894984167]
      },
      {
        "species": [{ "element": "Hf", "occu": 1 }],
        "abc": [0.19651782, 0.39303364, 0.31120517000000003],
        "properties": { "magmom": -0.0 },
        "label": "Hf",
        "xyz": [3.517745961856278e-6, 2.976457894172884, 3.7920162801583297]
      },
      {
        "species": [{ "element": "Hf", "occu": 1 }],
        "abc": [0.57014273, 0.14028446, 0.16738583],
        "properties": { "magmom": -0.001 },
        "label": "Hf",
        "xyz": [1.759857324154143, 1.0627113868293212, 2.1787455264949296]
      },
      {
        "species": [{ "element": "Hf", "occu": 1 }],
        "abc": [0.42985727, 0.8597155400000001, 0.83261417],
        "properties": { "magmom": -0.001 },
        "label": "Hf",
        "xyz": [-1.7641541427693141e-6, 6.51155260317068, 10.52072970350507]
      },
      {
        "species": [{ "element": "Hf", "occu": 1 }],
        "abc": [0.5, 0.0, 0.5],
        "properties": { "magmom": 0.0 },
        "label": "Hf",
        "xyz": [1.759855565, 0.00294917, 7.328162775]
      },
      {
        "species": [{ "element": "Hf", "occu": 1 }],
        "abc": [0.0, 0.0, 0.0],
        "properties": { "magmom": -0.0 },
        "label": "Hf",
        "xyz": [0.0, 0.0, 0.0]
      },
      {
        "species": [{ "element": "P", "occu": 1 }],
        "abc": [0.9374703600000001, 0.87493871, 0.14748932],
        "properties": { "magmom": 0.0 },
        "label": "P",
        "xyz": [1.7598590979349922, 6.622726020775041, 0.44952739442423884]
      },
      {
        "species": [{ "element": "P", "occu": 1 }],
        "abc": [0.06252964, 0.12506129, 0.85251068],
        "properties": { "magmom": 0.0 },
        "label": "P",
        "xyz": [-3.5379349920816594e-6, 0.9515379692249597, 12.24994783557576]
      },
      {
        "species": [{ "element": "P", "occu": 1 }],
        "abc": [0.62956299, 0.25912397, 0.66065335],
        "properties": { "magmom": -0.0 },
        "label": "P",
        "xyz": [1.759859101014066, 1.9650417117200696, 9.175683749683921]
      },
      {
        "species": [{ "element": "P", "occu": 1 }],
        "abc": [0.37043701, 0.74087603, 0.33934665],
        "properties": { "magmom": -0.0 },
        "label": "P",
        "xyz": [-3.5410140657443634e-6, 5.6092222782799315, 3.5237914803160786]
      },
      {
        "species": [{ "element": "P", "occu": 1 }],
        "abc": [0.62527352, 0.25054505, 0.40066711],
        "properties": { "magmom": 0.0 },
        "label": "P",
        "xyz": [1.7598590658598492, 1.89857982103913, 5.382028440070744]
      },
      {
        "species": [{ "element": "P", "occu": 1 }],
        "abc": [0.37472648000000003, 0.7494549500000001, 0.59933289],
        "properties": { "magmom": 0.0 },
        "label": "P",
        "xyz": [-3.5058598490955717e-6, 5.6756841689608715, 7.317446789929257]
      },
      {
        "species": [{ "element": "P", "occu": 1 }],
        "abc": [0.82216413, 0.6443292700000001, 0.88934041],
        "properties": { "magmom": 0.0 },
        "label": "P",
        "xyz": [1.759853784324233, 4.881765146471496, 11.773606635545608]
      },
      {
        "species": [{ "element": "P", "occu": 1 }],
        "abc": [0.17783587, 0.35567073, 0.11065959],
        "properties": { "magmom": 0.0 },
        "label": "P",
        "xyz": [1.7756757670905898e-6, 2.6924988435285053, 0.9258685944543908]
      }
    ]
  },
  "task_ids": null,
  "uncorrected_energy_per_atom": null,
  "energy_per_atom": -33.161995522272726,
  "formation_energy_per_atom": -1.155794342445894,
  "energy_above_hull": 0.010405044015151,
  "is_stable": false,
  "equilibrium_reaction_energy_per_atom": null,
  "decomposes_to": null,
  "xas": null,
  "grain_boundaries": null,
  "band_gap": 0.0,
  "cbm": null,
  "vbm": null,
  "efermi": 6.7776294,
  "is_gap_direct": null,
  "is_metal": null,
  "es_source_calc_id": null,
  "bandstructure": null,
  "dos": null,
  "dos_energy_up": null,
  "dos_energy_down": null,
  "is_magnetic": null,
  "ordering": null,
  "total_magnetization": 0.0135213,
  "total_magnetization_normalized_vol": null,
  "total_magnetization_normalized_formula_units": null,
  "num_magnetic_sites": null,
  "num_unique_magnetic_sites": null,
  "types_of_magnetic_species": null,
  "bulk_modulus": null,
  "shear_modulus": null,
  "universal_anisotropy": null,
  "homogeneous_poisson": null,
  "e_total": null,
  "e_ionic": null,
  "e_electronic": null,
  "n": null,
  "e_ij_max": null,
  "weighted_surface_energy_EV_PER_ANG2": null,
  "weighted_surface_energy": null,
  "weighted_work_function": null,
  "surface_anisotropy": null,
  "shape_factor": null,
  "has_reconstructed": null,
  "possible_species": null,
  "has_props": null,
  "theoretical": null,
  "database_IDs": null,
  "fields_not_requested": [
    "builder_meta",
    "nsites",
    "elements",
    "nelements",
    "composition",
    "composition_reduced",
    "chemsys",
    "symmetry",
    "property_name",
    "deprecated",
    "deprecation_reasons",
    "last_updated",
    "origins",
    "warnings",
    "task_ids",
    "uncorrected_energy_per_atom",
    "equilibrium_reaction_energy_per_atom",
    "decomposes_to",
    "xas",
    "grain_boundaries",
    "cbm",
    "vbm",
    "is_gap_direct",
    "is_metal",
    "es_source_calc_id",
    "bandstructure",
    "dos",
    "dos_energy_up",
    "dos_energy_down",
    "is_magnetic",
    "ordering",
    "total_magnetization_normalized_vol",
    "total_magnetization_normalized_formula_units",
    "num_magnetic_sites",
    "num_unique_magnetic_sites",
    "types_of_magnetic_species",
    "bulk_modulus",
    "shear_modulus",
    "universal_anisotropy",
    "homogeneous_poisson",
    "e_total",
    "e_ionic",
    "e_electronic",
    "n",
    "e_ij_max",
    "weighted_surface_energy_EV_PER_ANG2",
    "weighted_surface_energy",
    "weighted_work_function",
    "surface_anisotropy",
    "shape_factor",
    "has_reconstructed",
    "possible_species",
    "has_props",
    "theoretical",
    "database_IDs"
  ]
}
