{"builder_meta": null, "nsites": null, "elements": null, "nelements": null, "composition": null, "composition_reduced": null, "formula_pretty": "HfAl", "formula_anonymous": "AB", "chemsys": null, "volume": 74.8439790320463, "density": 9.117460651674316, "density_atomic": 18.710994758011577, "symmetry": null, "property_name": null, "material_id": "mp-249", "deprecated": null, "deprecation_reasons": null, "last_updated": null, "origins": null, "warnings": null, "structure": {"@module": "pymatgen.core.structure", "@class": "Structure", "charge": 0, "lattice": {"matrix": [[3.12501636, 0.0, -0.9385730600000001], [0.0, 4.24826328, 0.0], [-0.00940424, 0.0, 5.64041009]], "pbc": [true, true, true], "a": 3.262919955994234, "b": 4.24826328, "c": 5.640417929826103, "alpha": 90.0, "beta": 106.81273860304805, "gamma": 90.0, "volume": 74.8439790320463}, "properties": {}, "sites": [{"species": [{"element": "Hf", "occu": 1}], "abc": [0.83676677, 0.25, 0.67353354], "properties": {"magmom": -0.0}, "label": "Hf", "xyz": [2.6085757746961478, 1.06206582, 3.013638627144202]}, {"species": [{"element": "Hf", "occu": 1}], "abc": [0.16323323, 0.75, 0.32646646], "properties": {"magmom": -0.0}, "label": "Hf", "xyz": [0.5070363453038524, 3.18619746, 1.6881984028557977]}, {"species": [{"element": "Al", "occu": 1}], "abc": [0.57037648, 0.25, 0.14075397], "properties": {"magmom": -0.0}, "label": "Al", "xyz": [1.78111214724438, 1.06206582, 0.2585701144099285]}, {"species": [{"element": "Al", "occu": 1}], "abc": [0.42962352000000004, 0.75, 0.85924603], "properties": {"magmom": -0.0}, "label": "Al", "xyz": [1.3344999727556202, 3.18619746, 4.443266915590071]}]}, "task_ids": null, "uncorrected_energy_per_atom": null, "energy_per_atom": -26.392284025, "formation_energy_per_atom": -0.45052716500000006, "energy_above_hull": 0.016356159999997, "is_stable": false, "equilibrium_reaction_energy_per_atom": null, "decomposes_to": null, "xas": null, "grain_boundaries": null, "band_gap": 0.0, "cbm": null, "vbm": null, "efermi": 6.1295378, "is_gap_direct": null, "is_metal": null, "es_source_calc_id": null, "bandstructure": null, "dos": null, "dos_energy_up": null, "dos_energy_down": null, "is_magnetic": null, "ordering": null, "total_magnetization": 6e-07, "total_magnetization_normalized_vol": null, "total_magnetization_normalized_formula_units": null, "num_magnetic_sites": null, "num_unique_magnetic_sites": null, "types_of_magnetic_species": null, "bulk_modulus": null, "shear_modulus": null, "universal_anisotropy": null, "homogeneous_poisson": null, "e_total": null, "e_ionic": null, "e_electronic": null, "n": null, "e_ij_max": null, "weighted_surface_energy_EV_PER_ANG2": null, "weighted_surface_energy": null, "weighted_work_function": null, "surface_anisotropy": null, "shape_factor": null, "has_reconstructed": null, "possible_species": null, "has_props": null, "theoretical": null, "database_IDs": null, "fields_not_requested": ["builder_meta", "nsites", "elements", "nelements", "composition", "composition_reduced", "chemsys", "symmetry", "property_name", "deprecated", "deprecation_reasons", "last_updated", "origins", "warnings", "task_ids", "uncorrected_energy_per_atom", "equilibrium_reaction_energy_per_atom", "decomposes_to", "xas", "grain_boundaries", "cbm", "vbm", "is_gap_direct", "is_metal", "es_source_calc_id", "bandstructure", "dos", "dos_energy_up", "dos_energy_down", "is_magnetic", "ordering", "total_magnetization_normalized_vol", "total_magnetization_normalized_formula_units", "num_magnetic_sites", "num_unique_magnetic_sites", "types_of_magnetic_species", "bulk_modulus", "shear_modulus", "universal_anisotropy", "homogeneous_poisson", "e_total", "e_ionic", "e_electronic", "n", "e_ij_max", "weighted_surface_energy_EV_PER_ANG2", "weighted_surface_energy", "weighted_work_function", "surface_anisotropy", "shape_factor", "has_reconstructed", "possible_species", "has_props", "theoretical", "database_IDs"]}