{"builder_meta": null, "nsites": null, "elements": null, "nelements": null, "composition": null, "composition_reduced": null, "formula_pretty": "HfAl2", "formula_anonymous": "AB2", "chemsys": null, "volume": 204.3665729649558, "density": 7.555001001228815, "density_atomic": 17.03054774707965, "symmetry": null, "property_name": null, "material_id": "mp-12657", "deprecated": null, "deprecation_reasons": null, "last_updated": null, "origins": null, "warnings": null, "structure": {"@module": "pymatgen.core.structure", "@class": "Structure", "charge": 0, "lattice": {"matrix": [[5.22138211, 0.0, -0.0], [-2.61069055, 4.52184916, -0.0], [0.0, 0.0, 8.65582195]], "pbc": [true, true, true], "a": 5.22138211, "b": 5.22138151964133, "c": 8.65582195, "alpha": 90.0, "beta": 90.0, "gamma": 119.99999734138885, "volume": 204.3665729649558}, "properties": {}, "sites": [{"species": [{"element": "Hf", "occu": 1}], "abc": [0.333333, 0.666667, 0.43522079], "properties": {"magmom": -0.0}, "label": "Hf", "xyz": [-2.2740242200391947e-06, 3.0145676139497204, 3.767193667178341]}, {"species": [{"element": "Hf", "occu": 1}], "abc": [0.666667, 0.333333, 0.93524467], "properties": {"magmom": -0.0}, "label": "Hf", "xyz": [2.6106938340242207, 1.50728154605028, 8.095311343206507]}, {"species": [{"element": "Hf", "occu": 1}], "abc": [0.666667, 0.333333, 0.56477921], "properties": {"magmom": -0.0}, "label": "Hf", "xyz": [2.6106938340242207, 1.50728154605028, 4.888628282821659]}, {"species": [{"element": "Hf", "occu": 1}], "abc": [0.333333, 0.666667, 0.06475533], "properties": {"magmom": -0.0}, "label": "Hf", "xyz": [-2.2740242200391947e-06, 3.0145676139497204, 0.5605106067934935]}, {"species": [{"element": "Al", "occu": 1}], "abc": [0.1706985, 0.341398, 0.75001385], "properties": {"magmom": 0.0}, "label": "Al", "xyz": [-2.438285064965129e-06, 1.54375025952568, 6.4919863456340074]}, {"species": [{"element": "Al", "occu": 1}], "abc": [0.829301499999999, 0.1706985, 0.24998615000000002], "properties": {"magmom": 0.0}, "label": "Al", "xyz": [3.8844590550469857, 0.7718728688382601, 2.1638356043659925]}, {"species": [{"element": "Al", "occu": 1}], "abc": [0.341398, 0.1706985, 0.24998615000000002], "properties": {"magmom": 0.0}, "label": "Al", "xyz": [1.336928448740605, 0.7718728688382601, 2.1638356043659925]}, {"species": [{"element": "Al", "occu": 1}], "abc": [0.658602, 0.829301499999999, 0.75001385], "properties": {"magmom": 0.0}, "label": "Al", "xyz": [1.273763111259398, 3.749976291161736, 6.4919863456340074]}, {"species": [{"element": "Al", "occu": 1}], "abc": [-0.0, 0.0, -0.0], "properties": {"magmom": 0.0}, "label": "Al", "xyz": [0.0, 0.0, 0.0]}, {"species": [{"element": "Al", "occu": 1}], "abc": [0.0, -0.0, 0.5], "properties": {"magmom": 0.0}, "label": "Al", "xyz": [0.0, 0.0, 4.327910975]}, {"species": [{"element": "Al", "occu": 1}], "abc": [0.829301499999999, 0.658602, 0.24998615000000002], "properties": {"magmom": 0.0}, "label": "Al", "xyz": [2.6106939982850603, 2.97809890047432, 2.1638356043659925]}, {"species": [{"element": "Al", "occu": 1}], "abc": [0.1706985, 0.829301499999999, 0.75001385], "properties": {"magmom": 0.0}, "label": "Al", "xyz": [-1.2737674950469875, 3.749976291161736, 6.4919863456340074]}]}, "task_ids": null, "uncorrected_energy_per_atom": null, "energy_per_atom": -20.053021436666665, "formation_energy_per_atom": -0.514484086666667, "energy_above_hull": 0.0, "is_stable": true, "equilibrium_reaction_energy_per_atom": null, "decomposes_to": null, "xas": null, "grain_boundaries": null, "band_gap": 0.0, "cbm": null, "vbm": null, "efermi": 7.21439226, "is_gap_direct": null, "is_metal": null, "es_source_calc_id": null, "bandstructure": null, "dos": null, "dos_energy_up": null, "dos_energy_down": null, "is_magnetic": null, "ordering": null, "total_magnetization": 3.72e-05, "total_magnetization_normalized_vol": null, "total_magnetization_normalized_formula_units": null, "num_magnetic_sites": null, "num_unique_magnetic_sites": null, "types_of_magnetic_species": null, "bulk_modulus": null, "shear_modulus": null, "universal_anisotropy": null, "homogeneous_poisson": null, "e_total": null, "e_ionic": null, "e_electronic": null, "n": null, "e_ij_max": null, "weighted_surface_energy_EV_PER_ANG2": null, "weighted_surface_energy": null, "weighted_work_function": null, "surface_anisotropy": null, "shape_factor": null, "has_reconstructed": null, "possible_species": null, "has_props": null, "theoretical": null, "database_IDs": null, "fields_not_requested": ["builder_meta", "nsites", "elements", "nelements", "composition", "composition_reduced", "chemsys", "symmetry", "property_name", "deprecated", "deprecation_reasons", "last_updated", "origins", "warnings", "task_ids", "uncorrected_energy_per_atom", "equilibrium_reaction_energy_per_atom", "decomposes_to", "xas", "grain_boundaries", "cbm", "vbm", "is_gap_direct", "is_metal", "es_source_calc_id", "bandstructure", "dos", "dos_energy_up", "dos_energy_down", "is_magnetic", "ordering", "total_magnetization_normalized_vol", "total_magnetization_normalized_formula_units", "num_magnetic_sites", "num_unique_magnetic_sites", "types_of_magnetic_species", "bulk_modulus", "shear_modulus", "universal_anisotropy", "homogeneous_poisson", "e_total", "e_ionic", "e_electronic", "n", "e_ij_max", "weighted_surface_energy_EV_PER_ANG2", "weighted_surface_energy", "weighted_work_function", "surface_anisotropy", "shape_factor", "has_reconstructed", "possible_species", "has_props", "theoretical", "database_IDs"]}