{"builder_meta": null, "nsites": null, "elements": null, "nelements": null, "composition": null, "composition_reduced": null, "formula_pretty": "HfAl3", "formula_anonymous": "AB3", "chemsys": null, "volume": 134.660482764212, "density": 6.398333140073273, "density_atomic": 16.8325603455265, "symmetry": null, "property_name": null, "material_id": "mp-568718", "deprecated": null, "deprecation_reasons": null, "last_updated": null, "origins": null, "warnings": null, "structure": {"@module": "pymatgen.core.structure", "@class": "Structure", "charge": 0, "lattice": {"matrix": [[3.87225083, -0.00062267, -0.876458499999999], [-0.19925073000000001, 3.8671209600000003, -0.8764584400000001], [0.00230261, 0.0024235800000000003, 8.99165132]], "pbc": [true, true, true], "a": 3.9702023097539834, "b": 3.970202106911447, "c": 8.991651941451615, "alpha": 102.7389570521783, "beta": 102.73895514870165, "gamma": 90.0210001282762, "volume": 134.66048276421202}, "properties": {}, "sites": [{"species": [{"element": "Hf", "occu": 1}], "abc": [0.11943371, 0.119433699999999, 0.23893839], "properties": {"magmom": 0.0}, "label": "Hf", "xyz": [0.43923021269207635, 0.4623692831153787, 1.939093325140713]}, {"species": [{"element": "Hf", "occu": 1}], "abc": [0.88056628, 0.88056627, 0.76106161], "properties": {"magmom": 0.0}, "label": "Hf", "xyz": [3.2360724645629375, 3.4065524708772155, 5.299641089917628]}, {"species": [{"element": "Al", "occu": 1}], "abc": [0.37514248, 0.37514247, 0.7502943200000001], "properties": {"magmom": -0.0}, "label": "Al", "xyz": [1.3796260037509305, 1.4523061170632152, 6.088791313475477]}, {"species": [{"element": "Al", "occu": 1}], "abc": [0.0, 0.50000001, 2e-08], "properties": {"magmom": -0.0}, "label": "Al", "xyz": [-0.09962536694645512, 1.9335605187196816, -0.43822904893155806]}, {"species": [{"element": "Al", "occu": 1}], "abc": [0.62485754, 0.62485754, 0.24970568], "properties": {"magmom": -0.0}, "label": "Al", "xyz": [2.295676781701579, 2.4166157915955417, 1.1499430402307709]}, {"species": [{"element": "Al", "occu": 1}], "abc": [0.2500091, 0.74999088, 0.49999998], "properties": {"magmom": 0.0}, "label": "Al", "xyz": [0.8198130196031583, 2.9013615686420766, 3.619367042695597]}, {"species": [{"element": "Al", "occu": 1}], "abc": [0.74999087, 0.25000911, 0.49999998], "properties": {"magmom": -0.0}, "label": "Al", "xyz": [2.85548957612972, 0.9675602626084511, 3.6193670126966913]}, {"species": [{"element": "Al", "occu": 1}], "abc": [0.50000001, 1e-08, 2e-08], "properties": {"magmom": 0.0}, "label": "Al", "xyz": [1.9361254517760536, -0.0003112962865455, -0.43822908769614255]}]}, "task_ids": null, "uncorrected_energy_per_atom": null, "energy_per_atom": -16.774210365000002, "formation_energy_per_atom": -0.43728276999999904, "energy_above_hull": 0.0, "is_stable": true, "equilibrium_reaction_energy_per_atom": null, "decomposes_to": null, "xas": null, "grain_boundaries": null, "band_gap": 0.0, "cbm": null, "vbm": null, "efermi": 7.42962835, "is_gap_direct": null, "is_metal": null, "es_source_calc_id": null, "bandstructure": null, "dos": null, "dos_energy_up": null, "dos_energy_down": null, "is_magnetic": null, "ordering": null, "total_magnetization": 0.0, "total_magnetization_normalized_vol": null, "total_magnetization_normalized_formula_units": null, "num_magnetic_sites": null, "num_unique_magnetic_sites": null, "types_of_magnetic_species": null, "bulk_modulus": null, "shear_modulus": null, "universal_anisotropy": null, "homogeneous_poisson": null, "e_total": null, "e_ionic": null, "e_electronic": null, "n": null, "e_ij_max": null, "weighted_surface_energy_EV_PER_ANG2": null, "weighted_surface_energy": null, "weighted_work_function": null, "surface_anisotropy": null, "shape_factor": null, "has_reconstructed": null, "possible_species": null, "has_props": null, "theoretical": null, "database_IDs": null, "fields_not_requested": ["builder_meta", "nsites", "elements", "nelements", "composition", "composition_reduced", "chemsys", "symmetry", "property_name", "deprecated", "deprecation_reasons", "last_updated", "origins", "warnings", "task_ids", "uncorrected_energy_per_atom", "equilibrium_reaction_energy_per_atom", "decomposes_to", "xas", "grain_boundaries", "cbm", "vbm", "is_gap_direct", "is_metal", "es_source_calc_id", "bandstructure", "dos", "dos_energy_up", "dos_energy_down", "is_magnetic", "ordering", "total_magnetization_normalized_vol", "total_magnetization_normalized_formula_units", "num_magnetic_sites", "num_unique_magnetic_sites", "types_of_magnetic_species", "bulk_modulus", "shear_modulus", "universal_anisotropy", "homogeneous_poisson", "e_total", "e_ionic", "e_electronic", "n", "e_ij_max", "weighted_surface_energy_EV_PER_ANG2", "weighted_surface_energy", "weighted_work_function", "surface_anisotropy", "shape_factor", "has_reconstructed", "possible_species", "has_props", "theoretical", "database_IDs"]}