{"builder_meta": null, "nsites": null, "elements": null, "nelements": null, "composition": null, "composition_reduced": null, "formula_pretty": "HfAs", "formula_anonymous": "AB", "chemsys": null, "volume": 157.48892890898404, "density": 10.687731884259652, "density_atomic": 19.686116113623005, "symmetry": null, "property_name": null, "material_id": "mp-9954", "deprecated": null, "deprecation_reasons": null, "last_updated": null, "origins": null, "warnings": null, "structure": {"@module": "pymatgen.core.structure", "@class": "Structure", "charge": 0, "lattice": {"matrix": [[3.78670151, -0.0, -0.0], [-1.89335126, 3.27937952, 0.0], [-0.0, -0.0, 12.68227822]], "pbc": [true, true, true], "a": 3.78670151, "b": 3.7867016029704557, "c": 12.68227822, "alpha": 90.0, "beta": 90.0, "gamma": 120.00000801095455, "volume": 157.48892890898404}, "properties": {}, "sites": [{"species": [{"element": "Hf", "occu": 1}], "abc": [0.333333, 0.666667, 0.38307015], "properties": {"magmom": -0.0}, "label": "Hf", "xyz": [-2.2300175899214736e-06, 2.18625410645984, 4.858202220077133]}, {"species": [{"element": "Hf", "occu": 1}], "abc": [0.666667, 0.333333, 0.88307015], "properties": {"magmom": -0.0}, "label": "Hf", "xyz": [1.8933524800175903, 1.09312541354016, 11.199341330077134]}, {"species": [{"element": "Hf", "occu": 1}], "abc": [0.666667, 0.333333, 0.61692985], "properties": {"magmom": -0.0}, "label": "Hf", "xyz": [1.8933524800175903, 1.09312541354016, 7.824075999922868]}, {"species": [{"element": "Hf", "occu": 1}], "abc": [0.333333, 0.666667, 0.11692985], "properties": {"magmom": -0.0}, "label": "Hf", "xyz": [-2.2300175899214736e-06, 2.18625410645984, 1.482936889922867]}, {"species": [{"element": "As", "occu": 1}], "abc": [0.666667, 0.333333, 0.25], "properties": {"magmom": 0.0}, "label": "As", "xyz": [1.8933524800175903, 1.09312541354016, 3.170569555]}, {"species": [{"element": "As", "occu": 1}], "abc": [0.333333, 0.666667, 0.75], "properties": {"magmom": 0.0}, "label": "As", "xyz": [-2.2300175899214736e-06, 2.18625410645984, 9.511708665]}, {"species": [{"element": "As", "occu": 1}], "abc": [0.0, -0.0, 0.5], "properties": {"magmom": 0.0}, "label": "As", "xyz": [0.0, 0.0, 6.34113911]}, {"species": [{"element": "As", "occu": 1}], "abc": [0.0, -0.0, -0.0], "properties": {"magmom": 0.0}, "label": "As", "xyz": [0.0, 0.0, 0.0]}]}, "task_ids": null, "uncorrected_energy_per_atom": null, "energy_per_atom": -8.30569607375, "formation_energy_per_atom": -0.992040292499998, "energy_above_hull": 0.0, "is_stable": true, "equilibrium_reaction_energy_per_atom": null, "decomposes_to": null, "xas": null, "grain_boundaries": null, "band_gap": 0.0, "cbm": null, "vbm": null, "efermi": 6.24794496, "is_gap_direct": null, "is_metal": null, "es_source_calc_id": null, "bandstructure": null, "dos": null, "dos_energy_up": null, "dos_energy_down": null, "is_magnetic": null, "ordering": null, "total_magnetization": 0.0, "total_magnetization_normalized_vol": null, "total_magnetization_normalized_formula_units": null, "num_magnetic_sites": null, "num_unique_magnetic_sites": null, "types_of_magnetic_species": null, "bulk_modulus": null, "shear_modulus": null, "universal_anisotropy": null, "homogeneous_poisson": null, "e_total": null, "e_ionic": null, "e_electronic": null, "n": null, "e_ij_max": null, "weighted_surface_energy_EV_PER_ANG2": null, "weighted_surface_energy": null, "weighted_work_function": null, "surface_anisotropy": null, "shape_factor": null, "has_reconstructed": null, "possible_species": null, "has_props": null, "theoretical": null, "database_IDs": null, "fields_not_requested": ["builder_meta", "nsites", "elements", "nelements", "composition", "composition_reduced", "chemsys", "symmetry", "property_name", "deprecated", "deprecation_reasons", "last_updated", "origins", "warnings", "task_ids", "uncorrected_energy_per_atom", "equilibrium_reaction_energy_per_atom", "decomposes_to", "xas", "grain_boundaries", "cbm", "vbm", "is_gap_direct", "is_metal", "es_source_calc_id", "bandstructure", "dos", "dos_energy_up", "dos_energy_down", "is_magnetic", "ordering", "total_magnetization_normalized_vol", "total_magnetization_normalized_formula_units", "num_magnetic_sites", "num_unique_magnetic_sites", "types_of_magnetic_species", "bulk_modulus", "shear_modulus", "universal_anisotropy", "homogeneous_poisson", "e_total", "e_ionic", "e_electronic", "n", "e_ij_max", "weighted_surface_energy_EV_PER_ANG2", "weighted_surface_energy", "weighted_work_function", "surface_anisotropy", "shape_factor", "has_reconstructed", "possible_species", "has_props", "theoretical", "database_IDs"]}