{"builder_meta": null, "nsites": null, "elements": null, "nelements": null, "composition": null, "composition_reduced": null, "formula_pretty": "HfAs2", "formula_anonymous": "AB2", "chemsys": null, "volume": 224.55203370671956, "density": 9.711960234105439, "density_atomic": 18.712669475559963, "symmetry": null, "property_name": null, "material_id": "mp-29646", "deprecated": null, "deprecation_reasons": null, "last_updated": null, "origins": null, "warnings": null, "structure": {"@module": "pymatgen.core.structure", "@class": "Structure", "charge": 0, "lattice": {"matrix": [[3.68828633, -0.0, 0.0], [-0.0, 6.79474407, 0.0], [0.0, 0.0, 8.96023212]], "pbc": [true, true, true], "a": 3.68828633, "b": 6.79474407, "c": 8.96023212, "alpha": 90.0, "beta": 90.0, "gamma": 90.0, "volume": 224.55203370671956}, "properties": {}, "sites": [{"species": [{"element": "Hf", "occu": 1}], "abc": [0.25, 0.27349994, 0.66205082], "properties": {"magmom": 0.0}, "label": "Hf", "xyz": [0.9220715825, 1.858362095460356, 5.932129022436339]}, {"species": [{"element": "Hf", "occu": 1}], "abc": [0.75, 0.72650006, 0.33794918], "properties": {"magmom": 0.0}, "label": "Hf", "xyz": [2.7662147475, 4.9363819745396444, 3.028103097563662]}, {"species": [{"element": "Hf", "occu": 1}], "abc": [0.25, 0.77349994, 0.8379491800000001], "properties": {"magmom": 0.0}, "label": "Hf", "xyz": [0.9220715825, 5.255734130460356, 7.508219157563663]}, {"species": [{"element": "Hf", "occu": 1}], "abc": [0.75, 0.22650006, 0.16205082], "properties": {"magmom": 0.0}, "label": "Hf", "xyz": [2.7662147475, 1.5390099395396442, 1.4520129624363387]}, {"species": [{"element": "As", "occu": 1}], "abc": [0.25, 0.41849283, 0.35229697], "properties": {"magmom": -0.0}, "label": "As", "xyz": [0.9220715825, 2.843551674980018, 3.1566626263726767]}, {"species": [{"element": "As", "occu": 1}], "abc": [0.75, 0.58150717, 0.6477030300000001], "properties": {"magmom": -0.0}, "label": "As", "xyz": [2.7662147475, 3.951192395019982, 5.803569493627324]}, {"species": [{"element": "As", "occu": 1}], "abc": [0.25, 0.91849283, 0.14770303], "properties": {"magmom": -0.0}, "label": "As", "xyz": [0.9220715825, 6.240923709980018, 1.3234534336273238]}, {"species": [{"element": "As", "occu": 1}], "abc": [0.75, 0.08150717, 0.85229697], "properties": {"magmom": -0.0}, "label": "As", "xyz": [2.7662147475, 0.5538203600199819, 7.636778686372677]}, {"species": [{"element": "As", "occu": 1}], "abc": [0.75, 0.11827166, 0.45760686], "properties": {"magmom": -0.0}, "label": "As", "xyz": [2.7662147475, 0.8036256604340563, 4.100263685304344]}, {"species": [{"element": "As", "occu": 1}], "abc": [0.25, 0.88172834, 0.54239314], "properties": {"magmom": -0.0}, "label": "As", "xyz": [0.9220715825, 5.991118409565944, 4.8599684346956575]}, {"species": [{"element": "As", "occu": 1}], "abc": [0.75, 0.61827166, 0.04239314], "properties": {"magmom": -0.0}, "label": "As", "xyz": [2.7662147475, 4.200997695434056, 0.37985237469565686]}, {"species": [{"element": "As", "occu": 1}], "abc": [0.25, 0.38172834, 0.9576068600000001], "properties": {"magmom": -0.0}, "label": "As", "xyz": [0.9220715825, 2.593746374565944, 8.580379745304345]}]}, "task_ids": null, "uncorrected_energy_per_atom": null, "energy_per_atom": -7.177922880833333, "formation_energy_per_atom": -0.7454448491666661, "energy_above_hull": 0.0, "is_stable": true, "equilibrium_reaction_energy_per_atom": null, "decomposes_to": null, "xas": null, "grain_boundaries": null, "band_gap": 0.0, "cbm": null, "vbm": null, "efermi": 6.5136519, "is_gap_direct": null, "is_metal": null, "es_source_calc_id": null, "bandstructure": null, "dos": null, "dos_energy_up": null, "dos_energy_down": null, "is_magnetic": null, "ordering": null, "total_magnetization": 0.0, "total_magnetization_normalized_vol": null, "total_magnetization_normalized_formula_units": null, "num_magnetic_sites": null, "num_unique_magnetic_sites": null, "types_of_magnetic_species": null, "bulk_modulus": null, "shear_modulus": null, "universal_anisotropy": null, "homogeneous_poisson": null, "e_total": null, "e_ionic": null, "e_electronic": null, "n": null, "e_ij_max": null, "weighted_surface_energy_EV_PER_ANG2": null, "weighted_surface_energy": null, "weighted_work_function": null, "surface_anisotropy": null, "shape_factor": null, "has_reconstructed": null, "possible_species": null, "has_props": null, "theoretical": null, "database_IDs": null, "fields_not_requested": ["builder_meta", "nsites", "elements", "nelements", "composition", "composition_reduced", "chemsys", "symmetry", "property_name", "deprecated", "deprecation_reasons", "last_updated", "origins", "warnings", "task_ids", "uncorrected_energy_per_atom", "equilibrium_reaction_energy_per_atom", "decomposes_to", "xas", "grain_boundaries", "cbm", "vbm", "is_gap_direct", "is_metal", "es_source_calc_id", "bandstructure", "dos", "dos_energy_up", "dos_energy_down", "is_magnetic", "ordering", "total_magnetization_normalized_vol", "total_magnetization_normalized_formula_units", "num_magnetic_sites", "num_unique_magnetic_sites", "types_of_magnetic_species", "bulk_modulus", "shear_modulus", "universal_anisotropy", "homogeneous_poisson", "e_total", "e_ionic", "e_electronic", "n", "e_ij_max", "weighted_surface_energy_EV_PER_ANG2", "weighted_surface_energy", "weighted_work_function", "surface_anisotropy", "shape_factor", "has_reconstructed", "possible_species", "has_props", "theoretical", "database_IDs"]}