{"builder_meta": null, "nsites": null, "elements": null, "nelements": null, "composition": null, "composition_reduced": null, "formula_pretty": "HfAu", "formula_anonymous": "AB", "chemsys": null, "volume": 76.71406261585653, "density": 16.25413331993791, "density_atomic": 19.178515653964133, "symmetry": null, "property_name": null, "material_id": "mp-1007755", "deprecated": null, "deprecation_reasons": null, "last_updated": null, "origins": null, "warnings": null, "structure": {"@module": "pymatgen.core.structure", "@class": "Structure", "charge": 0, "lattice": {"matrix": [[3.48386256, 0.0, 0.0], [-0.0, 3.48386256, 0.0], [0.0, -0.0, 6.32052212]], "pbc": [true, true, true], "a": 3.48386256, "b": 3.48386256, "c": 6.32052212, "alpha": 90.0, "beta": 90.0, "gamma": 90.0, "volume": 76.71406261585653}, "properties": {}, "sites": [{"species": [{"element": "Hf", "occu": 1}], "abc": [0.75, 0.75, 0.8515796800000001], "properties": {"magmom": -0.0}, "label": "Hf", "xyz": [2.61289692, 2.61289692, 5.382428204382522]}, {"species": [{"element": "Hf", "occu": 1}], "abc": [0.25, 0.25, 0.14842032], "properties": {"magmom": -0.0}, "label": "Hf", "xyz": [0.87096564, 0.87096564, 0.9380939156174783]}, {"species": [{"element": "Au", "occu": 1}], "abc": [0.75, 0.75, 0.37143359], "properties": {"magmom": 0.0}, "label": "Au", "xyz": [2.61289692, 2.61289692, 2.3476542217060103]}, {"species": [{"element": "Au", "occu": 1}], "abc": [0.25, 0.25, 0.62856641], "properties": {"magmom": 0.0}, "label": "Au", "xyz": [0.87096564, 0.87096564, 3.9728678982939893]}]}, "task_ids": null, "uncorrected_energy_per_atom": null, "energy_per_atom": -48.4739664225, "formation_energy_per_atom": -0.6057786524999991, "energy_above_hull": 0.0, "is_stable": true, "equilibrium_reaction_energy_per_atom": null, "decomposes_to": null, "xas": null, "grain_boundaries": null, "band_gap": 0.0, "cbm": null, "vbm": null, "efermi": 5.65308304, "is_gap_direct": null, "is_metal": null, "es_source_calc_id": null, "bandstructure": null, "dos": null, "dos_energy_up": null, "dos_energy_down": null, "is_magnetic": null, "ordering": null, "total_magnetization": 4e-07, "total_magnetization_normalized_vol": null, "total_magnetization_normalized_formula_units": null, "num_magnetic_sites": null, "num_unique_magnetic_sites": null, "types_of_magnetic_species": null, "bulk_modulus": null, "shear_modulus": null, "universal_anisotropy": null, "homogeneous_poisson": null, "e_total": null, "e_ionic": null, "e_electronic": null, "n": null, "e_ij_max": null, "weighted_surface_energy_EV_PER_ANG2": null, "weighted_surface_energy": null, "weighted_work_function": null, "surface_anisotropy": null, "shape_factor": null, "has_reconstructed": null, "possible_species": null, "has_props": null, "theoretical": null, "database_IDs": null, "fields_not_requested": ["builder_meta", "nsites", "elements", "nelements", "composition", "composition_reduced", "chemsys", "symmetry", "property_name", "deprecated", "deprecation_reasons", "last_updated", "origins", "warnings", "task_ids", "uncorrected_energy_per_atom", "equilibrium_reaction_energy_per_atom", "decomposes_to", "xas", "grain_boundaries", "cbm", "vbm", "is_gap_direct", "is_metal", "es_source_calc_id", "bandstructure", "dos", "dos_energy_up", "dos_energy_down", "is_magnetic", "ordering", "total_magnetization_normalized_vol", "total_magnetization_normalized_formula_units", "num_magnetic_sites", "num_unique_magnetic_sites", "types_of_magnetic_species", "bulk_modulus", "shear_modulus", "universal_anisotropy", "homogeneous_poisson", "e_total", "e_ionic", "e_electronic", "n", "e_ij_max", "weighted_surface_energy_EV_PER_ANG2", "weighted_surface_energy", "weighted_work_function", "surface_anisotropy", "shape_factor", "has_reconstructed", "possible_species", "has_props", "theoretical", "database_IDs"]}