{"builder_meta": null, "nsites": null, "elements": null, "nelements": null, "composition": null, "composition_reduced": null, "formula_pretty": "HfBi2", "formula_anonymous": "AB2", "chemsys": null, "volume": 643.9880580098746, "density": 12.303704609250829, "density_atomic": 26.832835750411444, "symmetry": null, "property_name": null, "material_id": "mp-1192314", "deprecated": null, "deprecation_reasons": null, "last_updated": null, "origins": null, "warnings": null, "structure": {"@module": "pymatgen.core.structure", "@class": "Structure", "charge": 0, "lattice": {"matrix": [[4.02520905, 0.0, 0.0], [0.0, 10.23329234, 0.0], [0.0, 0.0, 15.63413985]], "pbc": [true, true, true], "a": 4.02520905, "b": 10.23329234, "c": 15.63413985, "alpha": 90.0, "beta": 90.0, "gamma": 90.0, "volume": 643.9880580098746}, "properties": {}, "sites": [{"species": [{"element": "Hf", "occu": 1}], "abc": [-0.0, 0.8388561, 0.49476232000000003], "properties": {"magmom": -0.0}, "label": "Hf", "xyz": [0.0, 8.584259702492274, 7.7351833033904525]}, {"species": [{"element": "Hf", "occu": 1}], "abc": [-0.0, 0.16114142, 0.50519912], "properties": {"magmom": -0.0}, "label": "Hf", "xyz": [0.0, 1.649007258942723, 7.898353694176932]}, {"species": [{"element": "Hf", "occu": 1}], "abc": [0.5, 0.66114142, 0.99480088], "properties": {"magmom": -0.0}, "label": "Hf", "xyz": [2.012604525, 6.765653428942723, 15.552856080823068]}, {"species": [{"element": "Hf", "occu": 1}], "abc": [0.5, 0.3388561, 0.00523768], "properties": {"magmom": -0.0}, "label": "Hf", "xyz": [2.012604525, 3.467613532492274, 0.081886621609548]}, {"species": [{"element": "Hf", "occu": 1}], "abc": [0.5, 0.52226388, 0.25386597], "properties": {"magmom": -0.0}, "label": "Hf", "xyz": [2.012604525, 5.34447896266268, 3.9689760781359045]}, {"species": [{"element": "Hf", "occu": 1}], "abc": [0.5, 0.47774477, 0.7461294900000001], "properties": {"magmom": 0.0}, "label": "Hf", "xyz": [2.012604525, 4.888901895316062, 11.665092792869178]}, {"species": [{"element": "Hf", "occu": 1}], "abc": [0.0, 0.97774477, 0.75387051], "properties": {"magmom": 0.0}, "label": "Hf", "xyz": [0.0, 10.005548065316063, 11.786116982130824]}, {"species": [{"element": "Hf", "occu": 1}], "abc": [0.0, 0.02226388, 0.24613403], "properties": {"magmom": -0.0}, "label": "Hf", "xyz": [0.0, 0.2278327926626792, 3.8480938468640957]}, {"species": [{"element": "Bi", "occu": 1}], "abc": [0.5, 0.62500541, 0.44346977], "properties": {"magmom": -0.0}, "label": "Bi", "xyz": [2.012604525, 6.395863074611559, 6.933268403427334]}, {"species": [{"element": "Bi", "occu": 1}], "abc": [0.5, 0.37498979, 0.5565147500000001], "properties": {"magmom": -0.0}, "label": "Bi", "xyz": [2.012604525, 3.837380145585209, 8.700629430087789]}, {"species": [{"element": "Bi", "occu": 1}], "abc": [-0.0, 0.87498979, 0.94348525], "properties": {"magmom": -0.0}, "label": "Bi", "xyz": [0.0, 8.954026315585208, 14.750580344912214]}, {"species": [{"element": "Bi", "occu": 1}], "abc": [-0.0, 0.12500541, 0.05653023], "properties": {"magmom": -0.0}, "label": "Bi", "xyz": [0.0, 1.2792169046115596, 0.8838015215726656]}, {"species": [{"element": "Bi", "occu": 1}], "abc": [0.5, 0.84597682, 0.15028082], "properties": {"magmom": 0.0}, "label": "Bi", "xyz": [2.012604525, 8.657128111923559, 2.3495113566526773]}, {"species": [{"element": "Bi", "occu": 1}], "abc": [0.5, 0.15401858000000002, 0.8497234100000001], "properties": {"magmom": 0.0}, "label": "Bi", "xyz": [2.012604525, 1.5761171549316775, 13.28469462575889]}, {"species": [{"element": "Bi", "occu": 1}], "abc": [-0.0, 0.65401858, 0.65027659], "properties": {"magmom": 0.0}, "label": "Bi", "xyz": [0.0, 6.692763324931677, 10.166515149241112]}, {"species": [{"element": "Bi", "occu": 1}], "abc": [-0.0, 0.34597682, 0.34971918], "properties": {"magmom": 0.0}, "label": "Bi", "xyz": [0.0, 3.540481941923559, 5.467558568347323]}, {"species": [{"element": "Bi", "occu": 1}], "abc": [-0.0, 0.73515621, 0.30030017000000003], "properties": {"magmom": 0.0}, "label": "Bi", "xyz": [0.0, 7.523068412496431, 4.694934854758775]}, {"species": [{"element": "Bi", "occu": 1}], "abc": [0.0, 0.2648454, 0.69968957], "properties": {"magmom": -0.0}, "label": "Bi", "xyz": [0.0, 2.710240403104236, 10.939044588966365]}, {"species": [{"element": "Bi", "occu": 1}], "abc": [0.5, 0.7648454, 0.80031043], "properties": {"magmom": -0.0}, "label": "Bi", "xyz": [2.012604525, 7.826886573104236, 12.512165186033636]}, {"species": [{"element": "Bi", "occu": 1}], "abc": [0.5, 0.23515621, 0.19969983], "properties": {"magmom": 0.0}, "label": "Bi", "xyz": [2.012604525, 2.4064222424964314, 3.1221350702412254]}, {"species": [{"element": "Bi", "occu": 1}], "abc": [-0.0, 0.5140604, 0.10720322], "properties": {"magmom": 0.0}, "label": "Bi", "xyz": [0.0, 5.260530353617336, 1.676030133850317]}, {"species": [{"element": "Bi", "occu": 1}], "abc": [-0.0, 0.48594022000000003, 0.8928145200000001], "properties": {"magmom": 0.0}, "label": "Bi", "xyz": [0.0, 4.972768331023915, 13.958387065790623]}, {"species": [{"element": "Bi", "occu": 1}], "abc": [0.5, 0.98594022, 0.60718548], "properties": {"magmom": 0.0}, "label": "Bi", "xyz": [2.012604525, 10.089414501023915, 9.49282270920938]}, {"species": [{"element": "Bi", "occu": 1}], "abc": [0.5, 0.014060399999999001, 0.39279678], "properties": {"magmom": 0.0}, "label": "Bi", "xyz": [2.012604525, 0.14388418361732577, 6.141039791149684]}]}, "task_ids": null, "uncorrected_energy_per_atom": null, "energy_per_atom": -54.19572164375, "formation_energy_per_atom": -0.143734017083327, "energy_above_hull": 0.007061927916666001, "is_stable": false, "equilibrium_reaction_energy_per_atom": null, "decomposes_to": null, "xas": null, "grain_boundaries": null, "band_gap": 0.0, "cbm": null, "vbm": null, "efermi": 6.64057039, "is_gap_direct": null, "is_metal": null, "es_source_calc_id": null, "bandstructure": null, "dos": null, "dos_energy_up": null, "dos_energy_down": null, "is_magnetic": null, "ordering": null, "total_magnetization": 6e-07, "total_magnetization_normalized_vol": null, "total_magnetization_normalized_formula_units": null, "num_magnetic_sites": null, "num_unique_magnetic_sites": null, "types_of_magnetic_species": null, "bulk_modulus": null, "shear_modulus": null, "universal_anisotropy": null, "homogeneous_poisson": null, "e_total": null, "e_ionic": null, "e_electronic": null, "n": null, "e_ij_max": null, "weighted_surface_energy_EV_PER_ANG2": null, "weighted_surface_energy": null, "weighted_work_function": null, "surface_anisotropy": null, "shape_factor": null, "has_reconstructed": null, "possible_species": null, "has_props": null, "theoretical": null, "database_IDs": null, "fields_not_requested": ["builder_meta", "nsites", "elements", "nelements", "composition", "composition_reduced", "chemsys", "symmetry", "property_name", "deprecated", "deprecation_reasons", "last_updated", "origins", "warnings", "task_ids", "uncorrected_energy_per_atom", "equilibrium_reaction_energy_per_atom", "decomposes_to", "xas", "grain_boundaries", "cbm", "vbm", "is_gap_direct", "is_metal", "es_source_calc_id", "bandstructure", "dos", "dos_energy_up", "dos_energy_down", "is_magnetic", "ordering", "total_magnetization_normalized_vol", "total_magnetization_normalized_formula_units", "num_magnetic_sites", "num_unique_magnetic_sites", "types_of_magnetic_species", "bulk_modulus", "shear_modulus", "universal_anisotropy", "homogeneous_poisson", "e_total", "e_ionic", "e_electronic", "n", "e_ij_max", "weighted_surface_energy_EV_PER_ANG2", "weighted_surface_energy", "weighted_work_function", "surface_anisotropy", "shape_factor", "has_reconstructed", "possible_species", "has_props", "theoretical", "database_IDs"]}