{"builder_meta": null, "nsites": null, "elements": null, "nelements": null, "composition": null, "composition_reduced": null, "formula_pretty": "HfBi", "formula_anonymous": "AB", "chemsys": null, "volume": 294.81922968022786, "density": 13.09432367181059, "density_atomic": 24.568269140018987, "symmetry": null, "property_name": null, "material_id": "mp-1212407", "deprecated": null, "deprecation_reasons": null, "last_updated": null, "origins": null, "warnings": null, "structure": {"@module": "pymatgen.core.structure", "@class": "Structure", "charge": 0, "lattice": {"matrix": [[3.8151423700000002, -2.2370000000000004e-05, -1.1030000000000001e-05], [-1.90760205, 5.40140352, -2.3500000000000002e-05], [-4.231e-05, -7.619e-05, 14.30669551]], "pbc": [true, true, true], "a": 3.815142370081528, "b": 5.728359762408855, "c": 14.306695510265438, "alpha": 90.00046633514043, "beta": 90.00033509071832, "gamma": 109.45191861511871, "volume": 294.8192296802279}, "properties": {}, "sites": [{"species": [{"element": "Hf", "occu": 1}], "abc": [0.40046284, 0.80067174, 0.24999312], "properties": {"magmom": 0.0}, "label": "Hf", "xyz": [0.00044911868455675165, 4.324723149470981, 3.5765522145438764]}, {"species": [{"element": "Hf", "occu": 1}], "abc": [0.59953979, 0.19933228, 0.74998862], "properties": {"magmom": -0.0}, "label": "Hf", "xyz": [1.9070512573522163, 1.0766035255035655, 10.729847525072634]}, {"species": [{"element": "Hf", "occu": 1}], "abc": [0.07149854, 0.14298066, 0.11019297], "properties": {"magmom": 0.0}, "label": "Hf", "xyz": [2.224695622615265e-05, 0.7722862451911991, 1.5764931204581585]}, {"species": [{"element": "Hf", "occu": 1}], "abc": [0.92849748, 0.85703333, 0.88982892], "properties": {"magmom": -0.0}, "label": "Hf", "xyz": [1.9074338904982961, 4.629094278865279, 12.730481032821691]}, {"species": [{"element": "Hf", "occu": 1}], "abc": [0.92849903, 0.85701783, 0.6101719800000001], "properties": {"magmom": -0.0}, "label": "Hf", "xyz": [1.9074812040858764, 4.6290318641383035, 8.729514345330506]}, {"species": [{"element": "Hf", "occu": 1}], "abc": [0.07149805000000001, 0.14296013, 0.38980988], "properties": {"magmom": 0.0}, "label": "Hf", "xyz": [4.771001508928456e-05, 0.7721540503755219, 5.576887111763093]}, {"species": [{"element": "Bi", "occu": 1}], "abc": [0.684336899999999, 0.36831287, 0.25000622], "properties": {"magmom": -0.0}, "label": "Bi", "xyz": [1.908237738927898, 1.9893720758889477, 3.5767466615576207]}, {"species": [{"element": "Bi", "occu": 1}], "abc": [0.31567898, 0.63169813, 0.75000546], "properties": {"magmom": 0.0}, "label": "Bi", "xyz": [-0.0007001285837961543, 3.4119922983046376, 10.730081420212281]}, {"species": [{"element": "Bi", "occu": 1}], "abc": [0.35920416, 0.71810386, 0.05007171], "properties": {"magmom": -0.0}, "label": "Bi", "xyz": [0.000556496313296106, 3.878756866768943, 0.7163398711724273]}, {"species": [{"element": "Bi", "occu": 1}], "abc": [0.64077368, 0.28189474000000003, 0.94992573], "properties": {"magmom": -0.0}, "label": "Bi", "xyz": [1.9068596408829686, 1.5225405319568945, 13.590284483964394]}, {"species": [{"element": "Bi", "occu": 1}], "abc": [0.64079319, 0.28189602, 0.55008016], "properties": {"magmom": -0.0}, "label": "Bi", "xyz": [1.9069485500460501, 1.5225779095509397, 7.869815662706728]}, {"species": [{"element": "Bi", "occu": 1}], "abc": [0.35921836, 0.71809741, 0.44992624000000003], "properties": {"magmom": -0.0}, "label": "Bi", "xyz": [0.000606057523008362, 3.8786915624819445, 6.436936880171538]}]}, "task_ids": null, "uncorrected_energy_per_atom": null, "energy_per_atom": -52.053038485, "formation_energy_per_atom": -0.226193917500002, "energy_above_hull": 0.0, "is_stable": true, "equilibrium_reaction_energy_per_atom": null, "decomposes_to": null, "xas": null, "grain_boundaries": null, "band_gap": 0.0, "cbm": null, "vbm": null, "efermi": 6.4377336, "is_gap_direct": null, "is_metal": null, "es_source_calc_id": null, "bandstructure": null, "dos": null, "dos_energy_up": null, "dos_energy_down": null, "is_magnetic": null, "ordering": null, "total_magnetization": 1e-07, "total_magnetization_normalized_vol": null, "total_magnetization_normalized_formula_units": null, "num_magnetic_sites": null, "num_unique_magnetic_sites": null, "types_of_magnetic_species": null, "bulk_modulus": null, "shear_modulus": null, "universal_anisotropy": null, "homogeneous_poisson": null, "e_total": null, "e_ionic": null, "e_electronic": null, "n": null, "e_ij_max": null, "weighted_surface_energy_EV_PER_ANG2": null, "weighted_surface_energy": null, "weighted_work_function": null, "surface_anisotropy": null, "shape_factor": null, "has_reconstructed": null, "possible_species": null, "has_props": null, "theoretical": null, "database_IDs": null, "fields_not_requested": ["builder_meta", "nsites", "elements", "nelements", "composition", "composition_reduced", "chemsys", "symmetry", "property_name", "deprecated", "deprecation_reasons", "last_updated", "origins", "warnings", "task_ids", "uncorrected_energy_per_atom", "equilibrium_reaction_energy_per_atom", "decomposes_to", "xas", "grain_boundaries", "cbm", "vbm", "is_gap_direct", "is_metal", "es_source_calc_id", "bandstructure", "dos", "dos_energy_up", "dos_energy_down", "is_magnetic", "ordering", "total_magnetization_normalized_vol", "total_magnetization_normalized_formula_units", "num_magnetic_sites", "num_unique_magnetic_sites", "types_of_magnetic_species", "bulk_modulus", "shear_modulus", "universal_anisotropy", "homogeneous_poisson", "e_total", "e_ionic", "e_electronic", "n", "e_ij_max", "weighted_surface_energy_EV_PER_ANG2", "weighted_surface_energy", "weighted_work_function", "surface_anisotropy", "shape_factor", "has_reconstructed", "possible_species", "has_props", "theoretical", "database_IDs"]}