{
  "builder_meta": null,
  "nsites": null,
  "elements": null,
  "nelements": null,
  "composition": null,
  "composition_reduced": null,
  "formula_pretty": "HfBr3",
  "formula_anonymous": "AB3",
  "chemsys": null,
  "volume": 292.6582795298006,
  "density": 4.745744831453095,
  "density_atomic": 36.582284941225076,
  "symmetry": null,
  "property_name": null,
  "material_id": "mp-864915",
  "deprecated": null,
  "deprecation_reasons": null,
  "last_updated": null,
  "origins": null,
  "warnings": null,
  "structure": {
    "@module": "pymatgen.core.structure",
    "@class": "Structure",
    "charge": 0,
    "lattice": {
      "matrix": [
        [4.99352272, -8.64903621, 0.0],
        [4.99352272, 8.64903621, -0.0],
        [0.0, 0.0, 3.38809886]
      ],
      "pbc": [true, true, true],
      "a": 9.987046436111497,
      "b": 9.987046436111497,
      "c": 3.38809886,
      "alpha": 90.0,
      "beta": 90.0,
      "gamma": 120.0000065987683,
      "volume": 292.6582795298006
    },
    "properties": {},
    "sites": [
      {
        "species": [{ "element": "Hf", "occu": 1 }],
        "abc": [0.333333, 0.666667, 0.75],
        "properties": { "magmom": 0.183 },
        "label": "Hf",
        "xyz": [4.99352272, 2.88301783602414, 2.541074145]
      },
      {
        "species": [{ "element": "Hf", "occu": 1 }],
        "abc": [0.666667, 0.333333, 0.25],
        "properties": { "magmom": 0.183 },
        "label": "Hf",
        "xyz": [4.99352272, -2.88301783602414, 0.847024715]
      },
      {
        "species": [{ "element": "Br", "occu": 1 }],
        "abc": [0.21463174000000002, 0.42926249, 0.25],
        "properties": { "magmom": 0.002 },
        "label": "Br",
        "xyz": [3.2153004667819056, 1.8563491285294573, 0.847024715]
      },
      {
        "species": [{ "element": "Br", "occu": 1 }],
        "abc": [0.5707375100000001, 0.78536826, 0.25],
        "properties": { "magmom": 0.002 },
        "label": "Br",
        "xyz": [6.7717449732180945, 1.856349128529457, 0.847024715]
      },
      {
        "species": [{ "element": "Br", "occu": 1 }],
        "abc": [0.21463174000000002, 0.78536826, 0.25],
        "properties": { "magmom": 0.002 },
        "label": "Br",
        "xyz": [4.99352272, 4.936320827849389, 0.847024715]
      },
      {
        "species": [{ "element": "Br", "occu": 1 }],
        "abc": [0.78535661, 0.57071422, 0.75],
        "properties": { "magmom": 0.002 },
        "label": "Br",
        "xyz": [6.771570499534258, -1.8564498033109418, 2.541074145]
      },
      {
        "species": [{ "element": "Br", "occu": 1 }],
        "abc": [0.42928578, 0.21464339000000002, 0.75],
        "properties": { "magmom": 0.002 },
        "label": "Br",
        "xyz": [3.215474940465742, -1.8564498033109418, 2.541074145]
      },
      {
        "species": [{ "element": "Br", "occu": 1 }],
        "abc": [0.78535661, 0.21464339000000002, 0.75],
        "properties": { "magmom": 0.002 },
        "label": "Br",
        "xyz": [4.99352272, -4.936119305305697, 2.541074145]
      }
    ]
  },
  "task_ids": null,
  "uncorrected_energy_per_atom": null,
  "energy_per_atom": -5.356742324999999,
  "formation_energy_per_atom": -1.6397351662499982,
  "energy_above_hull": 0.062032246874998004,
  "is_stable": false,
  "equilibrium_reaction_energy_per_atom": null,
  "decomposes_to": null,
  "xas": null,
  "grain_boundaries": null,
  "band_gap": 0.0,
  "cbm": null,
  "vbm": null,
  "efermi": 2.09823624,
  "is_gap_direct": null,
  "is_metal": null,
  "es_source_calc_id": null,
  "bandstructure": null,
  "dos": null,
  "dos_energy_up": null,
  "dos_energy_down": null,
  "is_magnetic": null,
  "ordering": null,
  "total_magnetization": 0.548289399999999,
  "total_magnetization_normalized_vol": null,
  "total_magnetization_normalized_formula_units": null,
  "num_magnetic_sites": null,
  "num_unique_magnetic_sites": null,
  "types_of_magnetic_species": null,
  "bulk_modulus": null,
  "shear_modulus": null,
  "universal_anisotropy": null,
  "homogeneous_poisson": null,
  "e_total": null,
  "e_ionic": null,
  "e_electronic": null,
  "n": null,
  "e_ij_max": null,
  "weighted_surface_energy_EV_PER_ANG2": null,
  "weighted_surface_energy": null,
  "weighted_work_function": null,
  "surface_anisotropy": null,
  "shape_factor": null,
  "has_reconstructed": null,
  "possible_species": null,
  "has_props": null,
  "theoretical": null,
  "database_IDs": null,
  "fields_not_requested": [
    "builder_meta",
    "nsites",
    "elements",
    "nelements",
    "composition",
    "composition_reduced",
    "chemsys",
    "symmetry",
    "property_name",
    "deprecated",
    "deprecation_reasons",
    "last_updated",
    "origins",
    "warnings",
    "task_ids",
    "uncorrected_energy_per_atom",
    "equilibrium_reaction_energy_per_atom",
    "decomposes_to",
    "xas",
    "grain_boundaries",
    "cbm",
    "vbm",
    "is_gap_direct",
    "is_metal",
    "es_source_calc_id",
    "bandstructure",
    "dos",
    "dos_energy_up",
    "dos_energy_down",
    "is_magnetic",
    "ordering",
    "total_magnetization_normalized_vol",
    "total_magnetization_normalized_formula_units",
    "num_magnetic_sites",
    "num_unique_magnetic_sites",
    "types_of_magnetic_species",
    "bulk_modulus",
    "shear_modulus",
    "universal_anisotropy",
    "homogeneous_poisson",
    "e_total",
    "e_ionic",
    "e_electronic",
    "n",
    "e_ij_max",
    "weighted_surface_energy_EV_PER_ANG2",
    "weighted_surface_energy",
    "weighted_work_function",
    "surface_anisotropy",
    "shape_factor",
    "has_reconstructed",
    "possible_species",
    "has_props",
    "theoretical",
    "database_IDs"
  ]
}
