{
  "builder_meta": null,
  "nsites": null,
  "elements": null,
  "nelements": null,
  "composition": null,
  "composition_reduced": null,
  "formula_pretty": "HfCd",
  "formula_anonymous": "AB",
  "chemsys": null,
  "volume": 85.08095310738265,
  "density": 11.355126085701809,
  "density_atomic": 21.270238276845664,
  "symmetry": null,
  "property_name": null,
  "material_id": "mp-1007758",
  "deprecated": null,
  "deprecation_reasons": null,
  "last_updated": null,
  "origins": null,
  "warnings": null,
  "structure": {
    "@module": "pymatgen.core.structure",
    "@class": "Structure",
    "charge": 0,
    "lattice": {
      "matrix": [
        [3.0472637, 0.0, -0.0],
        [0.0, 3.0472637, 0.0],
        [0.0, 0.0, 9.16246376]
      ],
      "pbc": [true, true, true],
      "a": 3.0472637,
      "b": 3.0472637,
      "c": 9.16246376,
      "alpha": 90.0,
      "beta": 90.0,
      "gamma": 90.0,
      "volume": 85.08095310738265
    },
    "properties": {},
    "sites": [
      {
        "species": [{ "element": "Hf", "occu": 1 }],
        "abc": [0.75, 0.75, 0.88164167],
        "properties": { "magmom": -0.0 },
        "label": "Hf",
        "xyz": [2.2854477749999997, 2.2854477749999997, 8.078009850680878]
      },
      {
        "species": [{ "element": "Hf", "occu": 1 }],
        "abc": [0.25, 0.25, 0.11835833],
        "properties": { "magmom": -0.0 },
        "label": "Hf",
        "xyz": [0.761815925, 0.761815925, 1.0844539093191208]
      },
      {
        "species": [{ "element": "Cd", "occu": 1 }],
        "abc": [0.75, 0.75, 0.37747433],
        "properties": { "magmom": 0.0 },
        "label": "Cd",
        "xyz": [2.2854477749999997, 2.2854477749999997, 3.458594868955281]
      },
      {
        "species": [{ "element": "Cd", "occu": 1 }],
        "abc": [0.25, 0.25, 0.62252567],
        "properties": { "magmom": 0.0 },
        "label": "Cd",
        "xyz": [0.761815925, 0.761815925, 5.703868891044719]
      }
    ]
  },
  "task_ids": null,
  "uncorrected_energy_per_atom": null,
  "energy_per_atom": -32.72411032,
  "formation_energy_per_atom": -0.09590878000000201,
  "energy_above_hull": 0.0,
  "is_stable": true,
  "equilibrium_reaction_energy_per_atom": null,
  "decomposes_to": null,
  "xas": null,
  "grain_boundaries": null,
  "band_gap": 0.0,
  "cbm": null,
  "vbm": null,
  "efermi": 4.02397319,
  "is_gap_direct": null,
  "is_metal": null,
  "es_source_calc_id": null,
  "bandstructure": null,
  "dos": null,
  "dos_energy_up": null,
  "dos_energy_down": null,
  "is_magnetic": null,
  "ordering": null,
  "total_magnetization": 2e-7,
  "total_magnetization_normalized_vol": null,
  "total_magnetization_normalized_formula_units": null,
  "num_magnetic_sites": null,
  "num_unique_magnetic_sites": null,
  "types_of_magnetic_species": null,
  "bulk_modulus": null,
  "shear_modulus": null,
  "universal_anisotropy": null,
  "homogeneous_poisson": null,
  "e_total": null,
  "e_ionic": null,
  "e_electronic": null,
  "n": null,
  "e_ij_max": null,
  "weighted_surface_energy_EV_PER_ANG2": null,
  "weighted_surface_energy": null,
  "weighted_work_function": null,
  "surface_anisotropy": null,
  "shape_factor": null,
  "has_reconstructed": null,
  "possible_species": null,
  "has_props": null,
  "theoretical": null,
  "database_IDs": null,
  "fields_not_requested": [
    "builder_meta",
    "nsites",
    "elements",
    "nelements",
    "composition",
    "composition_reduced",
    "chemsys",
    "symmetry",
    "property_name",
    "deprecated",
    "deprecation_reasons",
    "last_updated",
    "origins",
    "warnings",
    "task_ids",
    "uncorrected_energy_per_atom",
    "equilibrium_reaction_energy_per_atom",
    "decomposes_to",
    "xas",
    "grain_boundaries",
    "cbm",
    "vbm",
    "is_gap_direct",
    "is_metal",
    "es_source_calc_id",
    "bandstructure",
    "dos",
    "dos_energy_up",
    "dos_energy_down",
    "is_magnetic",
    "ordering",
    "total_magnetization_normalized_vol",
    "total_magnetization_normalized_formula_units",
    "num_magnetic_sites",
    "num_unique_magnetic_sites",
    "types_of_magnetic_species",
    "bulk_modulus",
    "shear_modulus",
    "universal_anisotropy",
    "homogeneous_poisson",
    "e_total",
    "e_ionic",
    "e_electronic",
    "n",
    "e_ij_max",
    "weighted_surface_energy_EV_PER_ANG2",
    "weighted_surface_energy",
    "weighted_work_function",
    "surface_anisotropy",
    "shape_factor",
    "has_reconstructed",
    "possible_species",
    "has_props",
    "theoretical",
    "database_IDs"
  ]
}
