{"builder_meta": null, "nsites": null, "elements": null, "nelements": null, "composition": null, "composition_reduced": null, "formula_pretty": "HfCl4", "formula_anonymous": "AB4", "chemsys": null, "volume": 288.51177936586976, "density": 3.687017460979498, "density_atomic": 28.851177936586975, "symmetry": null, "property_name": null, "material_id": "mp-29422", "deprecated": null, "deprecation_reasons": null, "last_updated": null, "origins": null, "warnings": null, "structure": {"@module": "pymatgen.core.structure", "@class": "Structure", "charge": 0, "lattice": {"matrix": [[6.22801477, 0.02018342, 0.0], [-2.04064435, 6.12424608, 0.0], [0.0, 0.0, 7.55601074]], "pbc": [true, true, true], "a": 6.228047474592743, "b": 6.455278414722504, "c": 7.55601074, "alpha": 90.0, "beta": 90.0, "gamma": 108.24277619344511, "volume": 288.51177936586976}, "properties": {}, "sites": [{"species": [{"element": "Hf", "occu": 1}], "abc": [0.75, 0.5, 0.65922914], "properties": {"magmom": -0.0}, "label": "Hf", "xyz": [3.6506889024999993, 3.0772606049999998, 4.981142461960963]}, {"species": [{"element": "Hf", "occu": 1}], "abc": [0.25, 0.5, 0.34077086], "properties": {"magmom": -0.0}, "label": "Hf", "xyz": [0.5366815174999999, 3.067168895, 2.574868278039036]}, {"species": [{"element": "Cl", "occu": 1}], "abc": [0.50436275, 0.27919246000000003, 0.39518353], "properties": {"magmom": 0.0}, "label": "Cl", "xyz": [2.571446140376216, 1.720023093936162, 2.986010996951112]}, {"species": [{"element": "Cl", "occu": 1}], "abc": [0.99563725, 0.72080754, 0.39518353], "properties": {"magmom": 0.0}, "label": "Cl", "xyz": [4.729931664623783, 4.434498116063838, 2.986010996951112]}, {"species": [{"element": "Cl", "occu": 1}], "abc": [0.02626575, 0.25217946, 0.14475849], "properties": {"magmom": 0.0}, "label": "Cl", "xyz": [-0.35102511128992353, 1.5449392020253818, 1.0937967051461825]}, {"species": [{"element": "Cl", "occu": 1}], "abc": [0.47373425, 0.74782054, 0.14475849], "properties": {"magmom": 0.0}, "label": "Cl", "xyz": [1.4243881462899237, 4.589398587974618, 1.0937967051461825]}, {"species": [{"element": "Cl", "occu": 1}], "abc": [0.97373425, 0.74782054, 0.85524151], "properties": {"magmom": 0.0}, "label": "Cl", "xyz": [4.538395531289924, 4.599490297974619, 6.462214034853817]}, {"species": [{"element": "Cl", "occu": 1}], "abc": [0.52626575, 0.25217946, 0.85524151], "properties": {"magmom": 0.0}, "label": "Cl", "xyz": [2.762982273710076, 1.5550309120253818, 6.462214034853817]}, {"species": [{"element": "Cl", "occu": 1}], "abc": [0.00436275, 0.27919246000000003, 0.60481647], "properties": {"magmom": 0.0}, "label": "Cl", "xyz": [-0.5425612446237835, 1.709931383936162, 4.569999743048888]}, {"species": [{"element": "Cl", "occu": 1}], "abc": [0.49563725000000003, 0.72080754, 0.60481647], "properties": {"magmom": 0.0}, "label": "Cl", "xyz": [1.6159242796237836, 4.424406406063838, 4.569999743048888]}]}, "task_ids": null, "uncorrected_energy_per_atom": null, "energy_per_atom": -15.980669591, "formation_energy_per_atom": -2.028435395, "energy_above_hull": 0.0, "is_stable": true, "equilibrium_reaction_energy_per_atom": null, "decomposes_to": null, "xas": null, "grain_boundaries": null, "band_gap": 4.1668, "cbm": null, "vbm": null, "efermi": -1.74210667, "is_gap_direct": null, "is_metal": null, "es_source_calc_id": null, "bandstructure": null, "dos": null, "dos_energy_up": null, "dos_energy_down": null, "is_magnetic": null, "ordering": null, "total_magnetization": 0.0, "total_magnetization_normalized_vol": null, "total_magnetization_normalized_formula_units": null, "num_magnetic_sites": null, "num_unique_magnetic_sites": null, "types_of_magnetic_species": null, "bulk_modulus": null, "shear_modulus": null, "universal_anisotropy": null, "homogeneous_poisson": null, "e_total": null, "e_ionic": null, "e_electronic": null, "n": null, "e_ij_max": null, "weighted_surface_energy_EV_PER_ANG2": null, "weighted_surface_energy": null, "weighted_work_function": null, "surface_anisotropy": null, "shape_factor": null, "has_reconstructed": null, "possible_species": null, "has_props": null, "theoretical": null, "database_IDs": null, "fields_not_requested": ["builder_meta", "nsites", "elements", "nelements", "composition", "composition_reduced", "chemsys", "symmetry", "property_name", "deprecated", "deprecation_reasons", "last_updated", "origins", "warnings", "task_ids", "uncorrected_energy_per_atom", "equilibrium_reaction_energy_per_atom", "decomposes_to", "xas", "grain_boundaries", "cbm", "vbm", "is_gap_direct", "is_metal", "es_source_calc_id", "bandstructure", "dos", "dos_energy_up", "dos_energy_down", "is_magnetic", "ordering", "total_magnetization_normalized_vol", "total_magnetization_normalized_formula_units", "num_magnetic_sites", "num_unique_magnetic_sites", "types_of_magnetic_species", "bulk_modulus", "shear_modulus", "universal_anisotropy", "homogeneous_poisson", "e_total", "e_ionic", "e_electronic", "n", "e_ij_max", "weighted_surface_energy_EV_PER_ANG2", "weighted_surface_energy", "weighted_work_function", "surface_anisotropy", "shape_factor", "has_reconstructed", "possible_species", "has_props", "theoretical", "database_IDs"]}