{
  "builder_meta": null,
  "nsites": null,
  "elements": null,
  "nelements": null,
  "composition": null,
  "composition_reduced": null,
  "formula_pretty": "HfCo2",
  "formula_anonymous": "AB2",
  "chemsys": null,
  "volume": 81.46300404458574,
  "density": 12.081836878055878,
  "density_atomic": 13.57716734076429,
  "symmetry": null,
  "property_name": null,
  "material_id": "mp-2337",
  "deprecated": null,
  "deprecation_reasons": null,
  "last_updated": null,
  "origins": null,
  "warnings": null,
  "structure": {
    "@module": "pymatgen.core.structure",
    "@class": "Structure",
    "charge": 0,
    "lattice": {
      "matrix": [
        [4.213941, -1e-8, 2.4329208700000002],
        [1.4046477, 3.97295266, 2.43291878],
        [-2.109999999999999e-6, -3.18e-6, 4.86584595]
      ],
      "pbc": [true, true, true],
      "a": 4.865840391048864,
      "b": 4.865848516938547,
      "c": 4.865845950001496,
      "alpha": 60.00011807415154,
      "beta": 60.00001567479366,
      "gamma": 60.0000552058638,
      "volume": 81.46300404458574
    },
    "properties": {},
    "sites": [
      {
        "species": [{ "element": "Hf", "occu": 1 }],
        "abc": [0.875000999999999, 0.874999, 0.874999],
        "properties": { "magmom": 0.361 },
        "label": "Hf",
        "xyz": [4.916266075545407, 3.4763268133005094, 8.515220034156137]
      },
      {
        "species": [{ "element": "Hf", "occu": 1 }],
        "abc": [0.124999, 0.125001, 0.125001],
        "properties": { "magmom": 0.361 },
        "label": "Hf",
        "xyz": [0.70232051445459, 0.49662265669949, 1.2164655658438601]
      },
      {
        "species": [{ "element": "Co", "occu": 1 }],
        "abc": [0.5, 0.5, 0.5],
        "properties": { "magmom": -1.292 },
        "label": "Co",
        "xyz": [2.8092932950000002, 1.9864747349999998, 4.865842799999999]
      },
      {
        "species": [{ "element": "Co", "occu": 1 }],
        "abc": [0.5, 0.5, -0.0],
        "properties": { "magmom": -1.292 },
        "label": "Co",
        "xyz": [2.80929435, 1.986476325, 2.432919825]
      },
      {
        "species": [{ "element": "Co", "occu": 1 }],
        "abc": [0.0, 0.5, 0.5],
        "properties": { "magmom": -1.292 },
        "label": "Co",
        "xyz": [0.7023227949999999, 1.9864747399999998, 3.649382365]
      },
      {
        "species": [{ "element": "Co", "occu": 1 }],
        "abc": [0.5, -0.0, 0.5],
        "properties": { "magmom": -1.292 },
        "label": "Co",
        "xyz": [2.1069694450000003, -1.595e-6, 3.64938341]
      }
    ]
  },
  "task_ids": null,
  "uncorrected_energy_per_atom": null,
  "energy_per_atom": -24.161655023333335,
  "formation_energy_per_atom": -0.28836247333333603,
  "energy_above_hull": 0.023811755294115,
  "is_stable": false,
  "equilibrium_reaction_energy_per_atom": null,
  "decomposes_to": null,
  "xas": null,
  "grain_boundaries": null,
  "band_gap": 0.0,
  "cbm": null,
  "vbm": null,
  "efermi": 5.62151957,
  "is_gap_direct": null,
  "is_metal": null,
  "es_source_calc_id": null,
  "bandstructure": null,
  "dos": null,
  "dos_energy_up": null,
  "dos_energy_down": null,
  "is_magnetic": null,
  "ordering": null,
  "total_magnetization": 4.0638174,
  "total_magnetization_normalized_vol": null,
  "total_magnetization_normalized_formula_units": null,
  "num_magnetic_sites": null,
  "num_unique_magnetic_sites": null,
  "types_of_magnetic_species": null,
  "bulk_modulus": null,
  "shear_modulus": null,
  "universal_anisotropy": null,
  "homogeneous_poisson": null,
  "e_total": null,
  "e_ionic": null,
  "e_electronic": null,
  "n": null,
  "e_ij_max": null,
  "weighted_surface_energy_EV_PER_ANG2": null,
  "weighted_surface_energy": null,
  "weighted_work_function": null,
  "surface_anisotropy": null,
  "shape_factor": null,
  "has_reconstructed": null,
  "possible_species": null,
  "has_props": null,
  "theoretical": null,
  "database_IDs": null,
  "fields_not_requested": [
    "builder_meta",
    "nsites",
    "elements",
    "nelements",
    "composition",
    "composition_reduced",
    "chemsys",
    "symmetry",
    "property_name",
    "deprecated",
    "deprecation_reasons",
    "last_updated",
    "origins",
    "warnings",
    "task_ids",
    "uncorrected_energy_per_atom",
    "equilibrium_reaction_energy_per_atom",
    "decomposes_to",
    "xas",
    "grain_boundaries",
    "cbm",
    "vbm",
    "is_gap_direct",
    "is_metal",
    "es_source_calc_id",
    "bandstructure",
    "dos",
    "dos_energy_up",
    "dos_energy_down",
    "is_magnetic",
    "ordering",
    "total_magnetization_normalized_vol",
    "total_magnetization_normalized_formula_units",
    "num_magnetic_sites",
    "num_unique_magnetic_sites",
    "types_of_magnetic_species",
    "bulk_modulus",
    "shear_modulus",
    "universal_anisotropy",
    "homogeneous_poisson",
    "e_total",
    "e_ionic",
    "e_electronic",
    "n",
    "e_ij_max",
    "weighted_surface_energy_EV_PER_ANG2",
    "weighted_surface_energy",
    "weighted_work_function",
    "surface_anisotropy",
    "shape_factor",
    "has_reconstructed",
    "possible_species",
    "has_props",
    "theoretical",
    "database_IDs"
  ]
}
