{
  "builder_meta": null,
  "nsites": null,
  "elements": null,
  "nelements": null,
  "composition": null,
  "composition_reduced": null,
  "formula_pretty": "HfF4",
  "formula_anonymous": "AB4",
  "chemsys": null,
  "volume": 354.47343423278807,
  "density": 7.1528065020476514,
  "density_atomic": 11.815781141092936,
  "symmetry": null,
  "property_name": null,
  "material_id": "mp-31033",
  "deprecated": null,
  "deprecation_reasons": null,
  "last_updated": null,
  "origins": null,
  "warnings": null,
  "structure": {
    "@module": "pymatgen.core.structure",
    "@class": "Structure",
    "charge": 0,
    "lattice": {
      "matrix": [
        [6.81273007, -0.0072948200000000005, 3.43766761],
        [3.21078218, 6.80936352, 1.2951962],
        [0.00243942, -0.01046861, 7.63897603]
      ],
      "pbc": [true, true, true],
      "a": 7.630917560681949,
      "b": 7.6389846806631825,
      "c": 7.638983592696075,
      "alpha": 80.30151597283627,
      "beta": 63.20638930461846,
      "gamma": 63.20637437438821,
      "volume": 354.47343423278807
    },
    "properties": {},
    "sites": [
      {
        "species": [{ "element": "Hf", "occu": 1 }],
        "abc": [0.25, 0.21412777, 0.7858722300000001],
        "properties": { "magmom": -0.0 },
        "label": "Hf",
        "xyz": [2.392617218094445, 1.4480231307712499, 7.1400135041311215]
      },
      {
        "species": [{ "element": "Hf", "occu": 1 }],
        "abc": [0.75, 0.7858722300000001, 0.21412777],
        "properties": { "magmom": -0.0 },
        "label": "Hf",
        "xyz": [7.633334451905554, 5.34357695922875, 5.231826335868879]
      },
      {
        "species": [{ "element": "Hf", "occu": 1 }],
        "abc": [0.16647173, 0.7768553500000001, 0.63424177],
        "properties": { "magmom": -0.0 },
        "label": "Hf",
        "xyz": [3.6299874570521578, 5.282036469565554, 6.423412249726109]
      },
      {
        "species": [{ "element": "Hf", "occu": 1 }],
        "abc": [0.33352827, 0.36575823, 0.22314465],
        "properties": { "magmom": -0.0 },
        "label": "Hf",
        "xyz": [3.4471524248185235, 2.4858117054927718, 3.3248846329858006]
      },
      {
        "species": [{ "element": "Hf", "occu": 1 }],
        "abc": [0.8335282700000001, 0.22314465, 0.36575723],
        "properties": { "magmom": -0.0 },
        "label": "Hf",
        "xyz": [6.395964210508423, 1.5095636309030562, 5.948419951297861]
      },
      {
        "species": [{ "element": "Hf", "occu": 1 }],
        "abc": [0.66647173, 0.63424177, 0.7768553500000001],
        "properties": { "magmom": -0.0 },
        "label": "Hf",
        "xyz": [6.578799245181477, 4.305788384507228, 9.0469552070142]
      },
      {
        "species": [{ "element": "F", "occu": 1 }],
        "abc": [0.39335676, 0.68279756, 0.7419376400000001],
        "properties": { "magmom": 0.0 },
        "label": "F",
        "xyz": [4.873957562803024, 4.638780274051547, 7.904230445822585]
      },
      {
        "species": [{ "element": "F", "occu": 1 }],
        "abc": [0.10664324, 0.25806236, 0.31720344],
        "properties": { "magmom": 0.0 },
        "label": "F",
        "xyz": [1.5558874271425762, 1.753141797725072, 3.1239548748020316]
      },
      {
        "species": [{ "element": "F", "occu": 1 }],
        "abc": [0.60664324, 0.31720344, 0.25806236],
        "properties": { "magmom": 0.0 },
        "label": "F",
        "xyz": [5.1519973179791565, 2.1528266253119726, 4.467610689373616]
      },
      {
        "species": [{ "element": "F", "occu": 1 }],
        "abc": [0.89335676, 0.7419376400000001, 0.68279756],
        "properties": { "magmom": 0.0 },
        "label": "F",
        "xyz": [8.470064245296843, 5.038458281806318, 9.247892604173998]
      },
      {
        "species": [{ "element": "F", "occu": 1 }],
        "abc": [0.57532738, 0.18313963, 0.59852471],
        "properties": { "magmom": 0.0 },
        "label": "F",
        "xyz": [4.509031655424178, 1.2366016841457728, 6.787101965270269]
      },
      {
        "species": [{ "element": "F", "occu": 1 }],
        "abc": [0.9246726200000001, 0.40147529, 0.81686037],
        "properties": { "magmom": 0.0 },
        "label": "F",
        "xyz": [7.5905873355458, 2.718494480947606, 9.938683171916669]
      },
      {
        "species": [{ "element": "F", "occu": 1 }],
        "abc": [0.75, 0.39330375, 0.60669625],
        "properties": { "magmom": 0.0 },
        "label": "F",
        "xyz": [6.373840211293349, 2.666325826099487, 7.722194341186638]
      },
      {
        "species": [{ "element": "F", "occu": 1 }],
        "abc": [0.25, 0.60669625, 0.39330375],
        "properties": { "magmom": 0.0 },
        "label": "F",
        "xyz": [3.65211145870665, 4.125274263900513, 4.649645498813363]
      },
      {
        "species": [{ "element": "F", "occu": 1 }],
        "abc": [0.71691332, 0.73938819, 0.49792343],
        "properties": { "magmom": -0.0 },
        "label": "F",
        "xyz": [7.259366001675597, 5.024320648281294, 7.225787619899826]
      },
      {
        "species": [{ "element": "F", "occu": 1 }],
        "abc": [0.78308668, 0.50207657, 0.26061181],
        "properties": { "magmom": -0.0 },
        "label": "F",
        "xyz": [6.94765241786554, 3.410381160229445, 5.333086750956383]
      },
      {
        "species": [{ "element": "F", "occu": 1 }],
        "abc": [0.28308668, 0.26061181, 0.50207657],
        "properties": { "magmom": -0.0 },
        "label": "F",
        "xyz": [2.7665856683244026, 1.7672794417187057, 5.146052220100174]
      },
      {
        "species": [{ "element": "F", "occu": 1 }],
        "abc": [0.21691332, 0.49792343, 0.73938819],
        "properties": { "magmom": -0.0 },
        "label": "F",
        "xyz": [3.078299252134459, 3.3812189297705553, 7.038753089043618]
      },
      {
        "species": [{ "element": "F", "occu": 1 }],
        "abc": [0.85039534, 0.9697053600000001, 0.2763615],
        "properties": { "magmom": -0.0 },
        "label": "F",
        "xyz": [8.90770075571469, 6.5939797018358135, 6.290454087519414]
      },
      {
        "species": [{ "element": "F", "occu": 1 }],
        "abc": [0.6496046600000001, 0.7236385, 0.03029464],
        "properties": { "magmom": -0.0 },
        "label": "F",
        "xyz": [6.749100702706765, 4.922461711730407, 3.401798763158242]
      },
      {
        "species": [{ "element": "F", "occu": 1 }],
        "abc": [0.14960466, 0.03029464, 0.7236385],
        "properties": { "magmom": -0.0 },
        "label": "F",
        "xyz": [1.1182509142853114, 0.19762038816418662, 6.081385752480585]
      },
      {
        "species": [{ "element": "F", "occu": 1 }],
        "abc": [0.35039534, 0.2763615, 0.9697053600000001],
        "properties": { "magmom": -0.0 },
        "label": "F",
        "xyz": [3.276850967293235, 1.8691383782695916, 8.970041076841758]
      },
      {
        "species": [{ "element": "F", "occu": 1 }],
        "abc": [-0.0, 0.0, 0.5],
        "properties": { "magmom": -0.0 },
        "label": "F",
        "xyz": [0.00121971, -0.005234305, 3.819488015]
      },
      {
        "species": [{ "element": "F", "occu": 1 }],
        "abc": [0.5, 0.5, 0.0],
        "properties": { "magmom": -0.0 },
        "label": "F",
        "xyz": [5.011756125, 3.4010343499999998, 2.366431905]
      },
      {
        "species": [{ "element": "F", "occu": 1 }],
        "abc": [0.955694199999999, 0.82875857, 0.93686031],
        "properties": { "magmom": 0.0 },
        "label": "F",
        "xyz": [9.17413525792029, 5.6265391310714525, 11.515417398534662]
      },
      {
        "species": [{ "element": "F", "occu": 1 }],
        "abc": [0.5443058, 0.06313969, 0.17124143],
        "properties": { "magmom": 0.0 },
        "label": "F",
        "xyz": [3.9113540122073003, 0.42417782916764046, 3.2610298842652385]
      },
      {
        "species": [{ "element": "F", "occu": 1 }],
        "abc": [0.0443058, 0.17124143, 0.06313969],
        "properties": { "magmom": 0.0 },
        "label": "F",
        "xyz": [0.8518164120797032, 1.1650609589285466, 0.8564224414653347]
      },
      {
        "species": [{ "element": "F", "occu": 1 }],
        "abc": [0.4556942, 0.93686031, 0.82875857],
        "properties": { "magmom": 0.0 },
        "label": "F",
        "xyz": [6.114597657792698, 6.36742226083236, 9.11080995573476]
      },
      {
        "species": [{ "element": "F", "occu": 1 }],
        "abc": [0.07532738, 0.59852471, 0.18313963],
        "properties": { "magmom": 0.0 },
        "label": "F",
        "xyz": [2.435364334454199, 4.073105609052393, 2.433156668083333]
      },
      {
        "species": [{ "element": "F", "occu": 1 }],
        "abc": [0.42467262, 0.81686037, 0.40147529],
        "properties": { "magmom": 0.0 },
        "label": "F",
        "xyz": [5.516920014575821, 5.554998405854227, 5.584737874729731]
      }
    ]
  },
  "task_ids": null,
  "uncorrected_energy_per_atom": null,
  "energy_per_atom": -15.632619994333334,
  "formation_energy_per_atom": -4.101514556333337,
  "energy_above_hull": 0.0,
  "is_stable": true,
  "equilibrium_reaction_energy_per_atom": null,
  "decomposes_to": null,
  "xas": null,
  "grain_boundaries": null,
  "band_gap": 5.4058,
  "cbm": null,
  "vbm": null,
  "efermi": -1.15649829,
  "is_gap_direct": null,
  "is_metal": null,
  "es_source_calc_id": null,
  "bandstructure": null,
  "dos": null,
  "dos_energy_up": null,
  "dos_energy_down": null,
  "is_magnetic": null,
  "ordering": null,
  "total_magnetization": 0.0,
  "total_magnetization_normalized_vol": null,
  "total_magnetization_normalized_formula_units": null,
  "num_magnetic_sites": null,
  "num_unique_magnetic_sites": null,
  "types_of_magnetic_species": null,
  "bulk_modulus": null,
  "shear_modulus": null,
  "universal_anisotropy": null,
  "homogeneous_poisson": null,
  "e_total": null,
  "e_ionic": null,
  "e_electronic": null,
  "n": null,
  "e_ij_max": null,
  "weighted_surface_energy_EV_PER_ANG2": null,
  "weighted_surface_energy": null,
  "weighted_work_function": null,
  "surface_anisotropy": null,
  "shape_factor": null,
  "has_reconstructed": null,
  "possible_species": null,
  "has_props": null,
  "theoretical": null,
  "database_IDs": null,
  "fields_not_requested": [
    "builder_meta",
    "nsites",
    "elements",
    "nelements",
    "composition",
    "composition_reduced",
    "chemsys",
    "symmetry",
    "property_name",
    "deprecated",
    "deprecation_reasons",
    "last_updated",
    "origins",
    "warnings",
    "task_ids",
    "uncorrected_energy_per_atom",
    "equilibrium_reaction_energy_per_atom",
    "decomposes_to",
    "xas",
    "grain_boundaries",
    "cbm",
    "vbm",
    "is_gap_direct",
    "is_metal",
    "es_source_calc_id",
    "bandstructure",
    "dos",
    "dos_energy_up",
    "dos_energy_down",
    "is_magnetic",
    "ordering",
    "total_magnetization_normalized_vol",
    "total_magnetization_normalized_formula_units",
    "num_magnetic_sites",
    "num_unique_magnetic_sites",
    "types_of_magnetic_species",
    "bulk_modulus",
    "shear_modulus",
    "universal_anisotropy",
    "homogeneous_poisson",
    "e_total",
    "e_ionic",
    "e_electronic",
    "n",
    "e_ij_max",
    "weighted_surface_energy_EV_PER_ANG2",
    "weighted_surface_energy",
    "weighted_work_function",
    "surface_anisotropy",
    "shape_factor",
    "has_reconstructed",
    "possible_species",
    "has_props",
    "theoretical",
    "database_IDs"
  ]
}
