{"builder_meta": null, "nsites": null, "elements": null, "nelements": null, "composition": null, "composition_reduced": null, "formula_pretty": "HfFe2", "formula_anonymous": "AB2", "chemsys": null, "volume": 86.44357371147333, "density": 11.148433727515666, "density_atomic": 14.407262285245556, "symmetry": null, "property_name": null, "material_id": "mp-333", "deprecated": null, "deprecation_reasons": null, "last_updated": null, "origins": null, "warnings": null, "structure": {"@module": "pymatgen.core.structure", "@class": "Structure", "charge": 0, "lattice": {"matrix": [[4.29813819, -6.4e-06, 2.48152484], [1.4327067, 4.05232081, 2.48152379], [2.109999999999999e-06, 1.029999999999998e-06, 4.96304752]], "pbc": [true, true, true], "a": 4.963059281523289, "b": 4.9630547806487, "c": 4.963047520000556, "alpha": 60.00002866337042, "beta": 60.00003963713314, "gamma": 60.0001589352562, "volume": 86.44357371147333}, "properties": {}, "sites": [{"species": [{"element": "Hf", "occu": 1}], "abc": [0.875, 0.875, 0.875000999999999], "properties": {"magmom": -0.763}, "label": "Hf", "xyz": [5.0144911250021105, 3.54577601000103, 8.685339094297515]}, {"species": [{"element": "Hf", "occu": 1}], "abc": [0.125, 0.125, 0.124999], "properties": {"magmom": -0.763}, "label": "Hf", "xyz": [0.71635587499789, 0.5065394299989701, 1.2407570557024798]}, {"species": [{"element": "Fe", "occu": 1}], "abc": [0.5, 0.5, 0.5], "properties": {"magmom": 2.421}, "label": "Fe", "xyz": [2.8654235, 2.02615772, 4.963048075]}, {"species": [{"element": "Fe", "occu": 1}], "abc": [0.5, 0.5, -0.0], "properties": {"magmom": 2.421}, "label": "Fe", "xyz": [2.865422445, 2.026157205, 2.4815243149999997]}, {"species": [{"element": "Fe", "occu": 1}], "abc": [0.0, 0.499998999999999, 0.5], "properties": {"magmom": 2.421}, "label": "Fe", "xyz": [0.7163529722932986, 2.026156867679186, 3.7222831734762076]}, {"species": [{"element": "Fe", "occu": 1}], "abc": [0.5, 1e-06, 0.5], "properties": {"magmom": 2.421}, "label": "Fe", "xyz": [2.1490715827067, 1.367320809999999e-06, 3.7222886615237902]}]}, "task_ids": null, "uncorrected_energy_per_atom": null, "energy_per_atom": -9.31186941, "formation_energy_per_atom": -0.34612559333333204, "energy_above_hull": 0.0, "is_stable": true, "equilibrium_reaction_energy_per_atom": null, "decomposes_to": null, "xas": null, "grain_boundaries": null, "band_gap": 0.0, "cbm": null, "vbm": null, "efermi": 5.25069184, "is_gap_direct": null, "is_metal": null, "es_source_calc_id": null, "bandstructure": null, "dos": null, "dos_energy_up": null, "dos_energy_down": null, "is_magnetic": null, "ordering": null, "total_magnetization": 7.3378263, "total_magnetization_normalized_vol": null, "total_magnetization_normalized_formula_units": null, "num_magnetic_sites": null, "num_unique_magnetic_sites": null, "types_of_magnetic_species": null, "bulk_modulus": null, "shear_modulus": null, "universal_anisotropy": null, "homogeneous_poisson": null, "e_total": null, "e_ionic": null, "e_electronic": null, "n": null, "e_ij_max": null, "weighted_surface_energy_EV_PER_ANG2": null, "weighted_surface_energy": null, "weighted_work_function": null, "surface_anisotropy": null, "shape_factor": null, "has_reconstructed": null, "possible_species": null, "has_props": null, "theoretical": null, "database_IDs": null, "fields_not_requested": ["builder_meta", "nsites", "elements", "nelements", "composition", "composition_reduced", "chemsys", "symmetry", "property_name", "deprecated", "deprecation_reasons", "last_updated", "origins", "warnings", "task_ids", "uncorrected_energy_per_atom", "equilibrium_reaction_energy_per_atom", "decomposes_to", "xas", "grain_boundaries", "cbm", "vbm", "is_gap_direct", "is_metal", "es_source_calc_id", "bandstructure", "dos", "dos_energy_up", "dos_energy_down", "is_magnetic", "ordering", "total_magnetization_normalized_vol", "total_magnetization_normalized_formula_units", "num_magnetic_sites", "num_unique_magnetic_sites", "types_of_magnetic_species", "bulk_modulus", "shear_modulus", "universal_anisotropy", "homogeneous_poisson", "e_total", "e_ionic", "e_electronic", "n", "e_ij_max", "weighted_surface_energy_EV_PER_ANG2", "weighted_surface_energy", "weighted_work_function", "surface_anisotropy", "shape_factor", "has_reconstructed", "possible_species", "has_props", "theoretical", "database_IDs"]}