{"builder_meta": null, "nsites": null, "elements": null, "nelements": null, "composition": null, "composition_reduced": null, "formula_pretty": "HfGa", "formula_anonymous": "AB", "chemsys": null, "volume": 436.3787912755811, "density": 11.33420940462786, "density_atomic": 18.182449636482545, "symmetry": null, "property_name": null, "material_id": "mp-510188", "deprecated": null, "deprecation_reasons": null, "last_updated": null, "origins": null, "warnings": null, "structure": {"@module": "pymatgen.core.structure", "@class": "Structure", "charge": 0, "lattice": {"matrix": [[5.62642034, -0.0, 0.0], [0.0, 8.4841508, 0.0], [0.0, 0.0, 9.14161825]], "pbc": [true, true, true], "a": 5.62642034, "b": 8.4841508, "c": 9.14161825, "alpha": 90.0, "beta": 90.0, "gamma": 90.0, "volume": 436.3787912755811}, "properties": {}, "sites": [{"species": [{"element": "Hf", "occu": 1}], "abc": [-0.0, 0.75, 0.88827364], "properties": {"magmom": -0.0}, "label": "Hf", "xyz": [0.0, 6.3631131, 8.12025851841793]}, {"species": [{"element": "Hf", "occu": 1}], "abc": [0.5, 0.25, 0.11172636], "properties": {"magmom": -0.0}, "label": "Hf", "xyz": [2.81321017, 2.1210377, 1.02135973158207]}, {"species": [{"element": "Hf", "occu": 1}], "abc": [-0.0, 0.25, 0.11172636], "properties": {"magmom": -0.0}, "label": "Hf", "xyz": [0.0, 2.1210377, 1.02135973158207]}, {"species": [{"element": "Hf", "occu": 1}], "abc": [0.5, 0.75, 0.88827364], "properties": {"magmom": -0.0}, "label": "Hf", "xyz": [2.81321017, 6.3631131, 8.12025851841793]}, {"species": [{"element": "Hf", "occu": 1}], "abc": [0.75, 0.47392151, 0.38313058], "properties": {"magmom": -0.0}, "label": "Hf", "xyz": [4.219815255, 4.020821558203708, 3.502433502261085]}, {"species": [{"element": "Hf", "occu": 1}], "abc": [0.25, 0.5260784900000001, 0.61686942], "properties": {"magmom": -0.0}, "label": "Hf", "xyz": [1.406605085, 4.463329241796292, 5.639184747738915]}, {"species": [{"element": "Hf", "occu": 1}], "abc": [0.75, 0.97392151, 0.61686942], "properties": {"magmom": -0.0}, "label": "Hf", "xyz": [4.219815255, 8.262896958203708, 5.639184747738915]}, {"species": [{"element": "Hf", "occu": 1}], "abc": [0.25, 0.02607849, 0.38313058], "properties": {"magmom": -0.0}, "label": "Hf", "xyz": [1.406605085, 0.22125384179629198, 3.502433502261085]}, {"species": [{"element": "Hf", "occu": 1}], "abc": [0.75, 0.36563596, 0.80606064], "properties": {"magmom": -0.0}, "label": "Hf", "xyz": [4.219815255, 3.1021106225427677, 7.368698657230681]}, {"species": [{"element": "Hf", "occu": 1}], "abc": [0.25, 0.63436404, 0.19393936], "properties": {"magmom": -0.0}, "label": "Hf", "xyz": [1.406605085, 5.382040177457232, 1.7729195927693202]}, {"species": [{"element": "Hf", "occu": 1}], "abc": [0.75, 0.86563596, 0.19393936], "properties": {"magmom": -0.0}, "label": "Hf", "xyz": [4.219815255, 7.344186022542768, 1.7729195927693202]}, {"species": [{"element": "Hf", "occu": 1}], "abc": [0.25, 0.13436404, 0.80606064], "properties": {"magmom": -0.0}, "label": "Hf", "xyz": [1.406605085, 1.139964777457232, 7.368698657230681]}, {"species": [{"element": "Ga", "occu": 1}], "abc": [-0.0, 0.75, 0.43501083], "properties": {"magmom": 0.0}, "label": "Ga", "xyz": [0.0, 6.3631131, 3.9767029424756477]}, {"species": [{"element": "Ga", "occu": 1}], "abc": [0.5, 0.25, 0.56498917], "properties": {"magmom": 0.0}, "label": "Ga", "xyz": [2.81321017, 2.1210377, 5.164915307524353]}, {"species": [{"element": "Ga", "occu": 1}], "abc": [-0.0, 0.25, 0.56498917], "properties": {"magmom": 0.0}, "label": "Ga", "xyz": [0.0, 2.1210377, 5.164915307524353]}, {"species": [{"element": "Ga", "occu": 1}], "abc": [0.5, 0.75, 0.43501083], "properties": {"magmom": 0.0}, "label": "Ga", "xyz": [2.81321017, 6.3631131, 3.9767029424756477]}, {"species": [{"element": "Ga", "occu": 1}], "abc": [0.75, 0.04963861, 0.91314438], "properties": {"magmom": 0.0}, "label": "Ga", "xyz": [4.219815255, 0.421141452742388, 8.347617329092936]}, {"species": [{"element": "Ga", "occu": 1}], "abc": [0.25, 0.95036139, 0.08685562000000001], "properties": {"magmom": 0.0}, "label": "Ga", "xyz": [1.406605085, 8.063009347257612, 0.7940009209070651]}, {"species": [{"element": "Ga", "occu": 1}], "abc": [0.75, 0.54963861, 0.08685562000000001], "properties": {"magmom": 0.0}, "label": "Ga", "xyz": [4.219815255, 4.663216852742388, 0.7940009209070651]}, {"species": [{"element": "Ga", "occu": 1}], "abc": [0.25, 0.45036139000000003, 0.91314438], "properties": {"magmom": 0.0}, "label": "Ga", "xyz": [1.406605085, 3.8209339472576125, 8.347617329092936]}, {"species": [{"element": "Ga", "occu": 1}], "abc": [0.75, 0.13437201000000001, 0.34965835], "properties": {"magmom": -0.0}, "label": "Ga", "xyz": [4.219815255, 1.1400323961391081, 3.196443153624888]}, {"species": [{"element": "Ga", "occu": 1}], "abc": [0.25, 0.86562799, 0.65034165], "properties": {"magmom": -0.0}, "label": "Ga", "xyz": [1.406605085, 7.344118403860892, 5.945175096375113]}, {"species": [{"element": "Ga", "occu": 1}], "abc": [0.75, 0.63437201, 0.65034165], "properties": {"magmom": -0.0}, "label": "Ga", "xyz": [4.219815255, 5.382107796139108, 5.945175096375113]}, {"species": [{"element": "Ga", "occu": 1}], "abc": [0.25, 0.36562799, 0.34965835], "properties": {"magmom": -0.0}, "label": "Ga", "xyz": [1.406605085, 3.102043003860892, 3.196443153624888]}]}, "task_ids": null, "uncorrected_energy_per_atom": null, "energy_per_atom": -28.87522907125, "formation_energy_per_atom": -0.578133401250004, "energy_above_hull": 0.0, "is_stable": true, "equilibrium_reaction_energy_per_atom": null, "decomposes_to": null, "xas": null, "grain_boundaries": null, "band_gap": 0.0, "cbm": null, "vbm": null, "efermi": 4.6847031999999995, "is_gap_direct": null, "is_metal": null, "es_source_calc_id": null, "bandstructure": null, "dos": null, "dos_energy_up": null, "dos_energy_down": null, "is_magnetic": null, "ordering": null, "total_magnetization": 4e-07, "total_magnetization_normalized_vol": null, "total_magnetization_normalized_formula_units": null, "num_magnetic_sites": null, "num_unique_magnetic_sites": null, "types_of_magnetic_species": null, "bulk_modulus": null, "shear_modulus": null, "universal_anisotropy": null, "homogeneous_poisson": null, "e_total": null, "e_ionic": null, "e_electronic": null, "n": null, "e_ij_max": null, "weighted_surface_energy_EV_PER_ANG2": null, "weighted_surface_energy": null, "weighted_work_function": null, "surface_anisotropy": null, "shape_factor": null, "has_reconstructed": null, "possible_species": null, "has_props": null, "theoretical": null, "database_IDs": null, "fields_not_requested": ["builder_meta", "nsites", "elements", "nelements", "composition", "composition_reduced", "chemsys", "symmetry", "property_name", "deprecated", "deprecation_reasons", "last_updated", "origins", "warnings", "task_ids", "uncorrected_energy_per_atom", "equilibrium_reaction_energy_per_atom", "decomposes_to", "xas", "grain_boundaries", "cbm", "vbm", "is_gap_direct", "is_metal", "es_source_calc_id", "bandstructure", "dos", "dos_energy_up", "dos_energy_down", "is_magnetic", "ordering", "total_magnetization_normalized_vol", "total_magnetization_normalized_formula_units", "num_magnetic_sites", "num_unique_magnetic_sites", "types_of_magnetic_species", "bulk_modulus", "shear_modulus", "universal_anisotropy", "homogeneous_poisson", "e_total", "e_ionic", "e_electronic", "n", "e_ij_max", "weighted_surface_energy_EV_PER_ANG2", "weighted_surface_energy", "weighted_work_function", "surface_anisotropy", "shape_factor", "has_reconstructed", "possible_species", "has_props", "theoretical", "database_IDs"]}