{"builder_meta": null, "nsites": null, "elements": null, "nelements": null, "composition": null, "composition_reduced": null, "formula_pretty": "HfGa2", "formula_anonymous": "AB2", "chemsys": null, "volume": 205.51304794971176, "density": 10.275652158255639, "density_atomic": 17.126087329142646, "symmetry": null, "property_name": null, "material_id": "mp-11440", "deprecated": null, "deprecation_reasons": null, "last_updated": null, "origins": null, "warnings": null, "structure": {"@module": "pymatgen.core.structure", "@class": "Structure", "charge": 0, "lattice": {"matrix": [[3.9787073900000003, 0.0003542, -0.62567757], [-0.09775586, 3.97745989, -0.62568067], [-0.00196649, -0.00202502, 12.98709136]], "pbc": [true, true, true], "a": 4.027602890343009, "b": 4.027557533485376, "c": 12.987091666758019, "alpha": 98.9458079174438, "beta": 98.94562023927287, "gamma": 89.98607919482477, "volume": 205.5130479497118}, "properties": {}, "sites": [{"species": [{"element": "Hf", "occu": 1}], "abc": [0.20040035, 0.45029757000000004, 0.9007064100000001], "properties": {"magmom": 0.0}, "label": "Hf", "xyz": [0.7515438971441255, 1.7892875565490591, 11.290427945895498]}, {"species": [{"element": "Hf", "occu": 1}], "abc": [0.95023906, 0.7003417, 0.40058835], "properties": {"magmom": -0.0}, "label": "Hf", "xyz": [3.7114729121269003, 2.7851063962989477, 4.1697439691368325]}, {"species": [{"element": "Hf", "occu": 1}], "abc": [0.7996426600000001, 0.54974442, 0.09937686], "properties": {"magmom": 0.0}, "label": "Hf", "xyz": [3.1276079985425356, 2.1866683736024486, 0.446333426478432]}, {"species": [{"element": "Hf", "occu": 1}], "abc": [0.049718280000000004, 0.29961598, 0.5993257], "properties": {"magmom": 0.0}, "label": "Hf", "xyz": [0.16734670226365342, 1.190514506538804, 7.564926080571865]}, {"species": [{"element": "Ga", "occu": 1}], "abc": [0.3757165, 0.62565647, 0.251364], "properties": {"magmom": -0.0}, "label": "Ga", "xyz": [1.433210124013161, 2.4881475760010083, 2.6379486865467]}, {"species": [{"element": "Ga", "occu": 1}], "abc": [0.12567669, 0.87572878, 0.7514009500000001], "properties": {"magmom": -0.0}, "label": "Ga", "xyz": [0.4129455327839229, 3.481699009700463, 9.131953129827266]}, {"species": [{"element": "Ga", "occu": 1}], "abc": [0.62428248, 0.37434199, 0.74862978], "properties": {"magmom": 0.0}, "label": "Ga", "xyz": [2.4457710204808936, 1.4876353809451017, 9.097705255484396]}, {"species": [{"element": "Ga", "occu": 1}], "abc": [0.874326899999999, 0.12427477, 0.24860249], "properties": {"magmom": -0.0}, "label": "Ga", "xyz": [3.466053436977575, 0.4941041745876555, 2.603820198418158]}, {"species": [{"element": "Ga", "occu": 1}], "abc": [0.5364275, 0.7864111300000001, 0.57327837], "properties": {"magmom": 0.0}, "label": "Ga", "xyz": [2.0562844159406817, 3.1269478290802586, 6.617545668506852]}, {"species": [{"element": "Ga", "occu": 1}], "abc": [0.28644311, 0.03646223, 0.07334563], "properties": {"magmom": -0.0}, "label": "Ga", "xyz": [1.1359646884724766, 0.14497998910685408, 0.75051165616262]}, {"species": [{"element": "Ga", "occu": 1}], "abc": [0.46351418, 0.21353413000000002, 0.42662111], "properties": {"magmom": -0.0}, "label": "Ga", "xyz": [1.8224741346716846, 0.8486236976634295, 5.116952728345401]}, {"species": [{"element": "Ga", "occu": 1}], "abc": [0.7136132900000001, 0.963592799999999, 0.92676033], "properties": {"magmom": -0.0}, "label": "Ga", "xyz": [2.743239162750064, 3.8310277659166494, 10.98652785661567]}]}, "task_ids": null, "uncorrected_energy_per_atom": null, "energy_per_atom": -23.182612819166668, "formation_energy_per_atom": -0.5036237225000041, "energy_above_hull": 0.0, "is_stable": true, "equilibrium_reaction_energy_per_atom": null, "decomposes_to": null, "xas": null, "grain_boundaries": null, "band_gap": 0.0, "cbm": null, "vbm": null, "efermi": 4.75776202, "is_gap_direct": null, "is_metal": null, "es_source_calc_id": null, "bandstructure": null, "dos": null, "dos_energy_up": null, "dos_energy_down": null, "is_magnetic": null, "ordering": null, "total_magnetization": 0.0, "total_magnetization_normalized_vol": null, "total_magnetization_normalized_formula_units": null, "num_magnetic_sites": null, "num_unique_magnetic_sites": null, "types_of_magnetic_species": null, "bulk_modulus": null, "shear_modulus": null, "universal_anisotropy": null, "homogeneous_poisson": null, "e_total": null, "e_ionic": null, "e_electronic": null, "n": null, "e_ij_max": null, "weighted_surface_energy_EV_PER_ANG2": null, "weighted_surface_energy": null, "weighted_work_function": null, "surface_anisotropy": null, "shape_factor": null, "has_reconstructed": null, "possible_species": null, "has_props": null, "theoretical": null, "database_IDs": null, "fields_not_requested": ["builder_meta", "nsites", "elements", "nelements", "composition", "composition_reduced", "chemsys", "symmetry", "property_name", "deprecated", "deprecation_reasons", "last_updated", "origins", "warnings", "task_ids", "uncorrected_energy_per_atom", "equilibrium_reaction_energy_per_atom", "decomposes_to", "xas", "grain_boundaries", "cbm", "vbm", "is_gap_direct", "is_metal", "es_source_calc_id", "bandstructure", "dos", "dos_energy_up", "dos_energy_down", "is_magnetic", "ordering", "total_magnetization_normalized_vol", "total_magnetization_normalized_formula_units", "num_magnetic_sites", "num_unique_magnetic_sites", "types_of_magnetic_species", "bulk_modulus", "shear_modulus", "universal_anisotropy", "homogeneous_poisson", "e_total", "e_ionic", "e_electronic", "n", "e_ij_max", "weighted_surface_energy_EV_PER_ANG2", "weighted_surface_energy", "weighted_work_function", "surface_anisotropy", "shape_factor", "has_reconstructed", "possible_species", "has_props", "theoretical", "database_IDs"]}