{
  "builder_meta": null,
  "nsites": null,
  "elements": null,
  "nelements": null,
  "composition": null,
  "composition_reduced": null,
  "formula_pretty": "HfGe2",
  "formula_anonymous": "AB2",
  "chemsys": null,
  "volume": 106.39076898008027,
  "density": 10.106755289901963,
  "density_atomic": 17.731794830013378,
  "symmetry": null,
  "property_name": null,
  "material_id": "mp-13683",
  "deprecated": null,
  "deprecation_reasons": null,
  "last_updated": null,
  "origins": null,
  "warnings": null,
  "structure": {
    "@module": "pymatgen.core.structure",
    "@class": "Structure",
    "charge": 0,
    "lattice": {
      "matrix": [
        [3.75280289, 0.0, -0.0],
        [0.0, 3.6693178, -0.93307934],
        [-0.0, 0.01070926, 7.72342192]
      ],
      "pbc": [true, true, true],
      "a": 3.75280289,
      "b": 3.7860969575714347,
      "c": 7.723429344700852,
      "alpha": 104.18802797331082,
      "beta": 90.0,
      "gamma": 90.0,
      "volume": 106.39076898008028
    },
    "properties": {},
    "sites": [
      {
        "species": [{ "element": "Hf", "occu": 1 }],
        "abc": [0.25, 0.8938702, 0.78774139],
        "properties": { "magmom": -0.0 },
        "label": "Hf",
        "xyz": [0.9382007225, 3.2883299631078313, 5.250007302555601]
      },
      {
        "species": [{ "element": "Hf", "occu": 1 }],
        "abc": [0.75, 0.1061298, 0.21225861000000001],
        "properties": { "magmom": -0.0 },
        "label": "Hf",
        "xyz": [2.8146021675, 0.3916970968921686, 1.5403352774443992]
      },
      {
        "species": [{ "element": "Ge", "occu": 1 }],
        "abc": [0.25, 0.55957757, 0.11915514],
        "properties": { "magmom": 0.0 },
        "label": "Ge",
        "xyz": [0.9382007225, 2.0545440014563425, 0.398155150462265]
      },
      {
        "species": [{ "element": "Ge", "occu": 1 }],
        "abc": [0.75, 0.44042243000000003, 0.8808448600000001],
        "properties": { "magmom": 0.0 },
        "label": "Ge",
        "xyz": [2.8146021675, 1.6254830585436577, 6.392187429537735]
      },
      {
        "species": [{ "element": "Ge", "occu": 1 }],
        "abc": [0.75, 0.74984946, 0.49969793],
        "properties": { "magmom": 0.0 },
        "label": "Ge",
        "xyz": [2.8146021675, 2.7567873659522197, 3.159708906704469]
      },
      {
        "species": [{ "element": "Ge", "occu": 1 }],
        "abc": [0.25, 0.25015054000000003, 0.50030207],
        "properties": { "magmom": 0.0 },
        "label": "Ge",
        "xyz": [0.9382007225, 0.9232396940477803, 3.630633673295531]
      }
    ]
  },
  "task_ids": null,
  "uncorrected_energy_per_atom": null,
  "energy_per_atom": -24.783578766666665,
  "formation_energy_per_atom": -0.48512191666666604,
  "energy_above_hull": 0.0,
  "is_stable": true,
  "equilibrium_reaction_energy_per_atom": null,
  "decomposes_to": null,
  "xas": null,
  "grain_boundaries": null,
  "band_gap": 0.0,
  "cbm": null,
  "vbm": null,
  "efermi": 7.19005926,
  "is_gap_direct": null,
  "is_metal": null,
  "es_source_calc_id": null,
  "bandstructure": null,
  "dos": null,
  "dos_energy_up": null,
  "dos_energy_down": null,
  "is_magnetic": null,
  "ordering": null,
  "total_magnetization": 0.0,
  "total_magnetization_normalized_vol": null,
  "total_magnetization_normalized_formula_units": null,
  "num_magnetic_sites": null,
  "num_unique_magnetic_sites": null,
  "types_of_magnetic_species": null,
  "bulk_modulus": null,
  "shear_modulus": null,
  "universal_anisotropy": null,
  "homogeneous_poisson": null,
  "e_total": null,
  "e_ionic": null,
  "e_electronic": null,
  "n": null,
  "e_ij_max": null,
  "weighted_surface_energy_EV_PER_ANG2": null,
  "weighted_surface_energy": null,
  "weighted_work_function": null,
  "surface_anisotropy": null,
  "shape_factor": null,
  "has_reconstructed": null,
  "possible_species": null,
  "has_props": null,
  "theoretical": null,
  "database_IDs": null,
  "fields_not_requested": [
    "builder_meta",
    "nsites",
    "elements",
    "nelements",
    "composition",
    "composition_reduced",
    "chemsys",
    "symmetry",
    "property_name",
    "deprecated",
    "deprecation_reasons",
    "last_updated",
    "origins",
    "warnings",
    "task_ids",
    "uncorrected_energy_per_atom",
    "equilibrium_reaction_energy_per_atom",
    "decomposes_to",
    "xas",
    "grain_boundaries",
    "cbm",
    "vbm",
    "is_gap_direct",
    "is_metal",
    "es_source_calc_id",
    "bandstructure",
    "dos",
    "dos_energy_up",
    "dos_energy_down",
    "is_magnetic",
    "ordering",
    "total_magnetization_normalized_vol",
    "total_magnetization_normalized_formula_units",
    "num_magnetic_sites",
    "num_unique_magnetic_sites",
    "types_of_magnetic_species",
    "bulk_modulus",
    "shear_modulus",
    "universal_anisotropy",
    "homogeneous_poisson",
    "e_total",
    "e_ionic",
    "e_electronic",
    "n",
    "e_ij_max",
    "weighted_surface_energy_EV_PER_ANG2",
    "weighted_surface_energy",
    "weighted_work_function",
    "surface_anisotropy",
    "shape_factor",
    "has_reconstructed",
    "possible_species",
    "has_props",
    "theoretical",
    "database_IDs"
  ]
}
