{"builder_meta": null, "nsites": null, "elements": null, "nelements": null, "composition": null, "composition_reduced": null, "formula_pretty": "HfI4", "formula_anonymous": "AB4", "chemsys": null, "volume": 869.1178930023002, "density": 5.243518504521639, "density_atomic": 43.45589465011501, "symmetry": null, "property_name": null, "material_id": "mp-569059", "deprecated": null, "deprecation_reasons": null, "last_updated": null, "origins": null, "warnings": null, "structure": {"@module": "pymatgen.core.structure", "@class": "Structure", "charge": 0, "lattice": {"matrix": [[8.15558856, 0.00238702, -2.73739973], [-0.8948392900000001, 8.10634882, -2.73739973], [0.09815842, 0.10962172, 13.07169668]], "pbc": [true, true, true], "a": 8.602731411573386, "b": 8.602731300479352, "c": 13.07252485523878, "alpha": 108.12314206643275, "beta": 108.12313889368002, "gamma": 89.83372900439903, "volume": 869.1178930023002}, "properties": {}, "sites": [{"species": [{"element": "Hf", "occu": 1}], "abc": [0.21291228, 0.93922288, 0.62420929], "properties": {"magmom": -0.0}, "label": "Hf", "xyz": [0.9572428176162835, 7.682603406885385, 5.005620027810652]}, {"species": [{"element": "Hf", "occu": 1}], "abc": [0.93922288, 0.21291228, 0.12420929], "properties": {"magmom": -0.0}, "label": "Hf", "xyz": [7.481585289606493, 1.7417991895503058, -1.5302283121893494]}, {"species": [{"element": "Hf", "occu": 1}], "abc": [0.78708772, 0.060777120000000004, 0.37579071000000003], "properties": {"magmom": -0.0}, "label": "Hf", "xyz": [6.4016648723837175, 0.5357541531146139, 2.59127719218935]}, {"species": [{"element": "Hf", "occu": 1}], "abc": [0.060777120000000004, 0.78708772, 0.87579071], "properties": {"magmom": -0.0}, "label": "Hf", "xyz": [-0.12267759960649344, 6.476558370449693, 9.12712553218935]}, {"species": [{"element": "I", "occu": 1}], "abc": [0.17175279000000002, 0.94801994, 0.1173828], "properties": {"magmom": -0.0}, "label": "I", "xyz": [0.5639417094398158, 7.698258003734671, -1.5308732117142587]}, {"species": [{"element": "I", "occu": 1}], "abc": [0.7155867100000001, 0.95101617, 0.13374441], "properties": {"magmom": -0.0}, "label": "I", "xyz": [4.9981522913921514, 7.725638219533509, -2.8138919135636637]}, {"species": [{"element": "I", "occu": 1}], "abc": [0.04898383, 0.28441329, 0.36625559], "properties": {"magmom": -0.0}, "label": "I", "xyz": [0.18093884711338848, 2.3458198309011187, 3.874940793563664]}, {"species": [{"element": "I", "occu": 1}], "abc": [0.18104368, 0.42403941, 0.13737461], "properties": {"magmom": 0.0}, "label": "I", "xyz": [1.110555115557598, 3.4529027668045584, 0.13936494625972928]}, {"species": [{"element": "I", "occu": 1}], "abc": [0.57596059, 0.8189563200000001, 0.36262539], "properties": {"magmom": 0.0}, "label": "I", "xyz": [4.000058042219321, 6.679872046678555, 0.9216839337402707]}, {"species": [{"element": "I", "occu": 1}], "abc": [0.28441329, 0.04898383, 0.86625659], "properties": {"magmom": -0.0}, "label": "I", "xyz": [2.360755496766269, 0.49271945008821116, 10.410802205260344]}, {"species": [{"element": "I", "occu": 1}], "abc": [0.58981293, 0.30478998, 0.38943727], "properties": {"magmom": 0.0}, "label": "I", "xyz": [4.57576008225808, 2.514832573350496, 2.6417201050360495]}, {"species": [{"element": "I", "occu": 1}], "abc": [0.05198006, 0.82824721, 0.3826172], "properties": {"magmom": -0.0}, "label": "I", "xyz": [-0.2796630628399433, 6.756128026460197, 2.5919220917142587]}, {"species": [{"element": "I", "occu": 1}], "abc": [0.8189563200000001, 0.57596059, 0.86262539], "properties": {"magmom": 0.0}, "label": "I", "xyz": [6.248352574442403, 4.765454793195441, 7.457532273740272]}, {"species": [{"element": "I", "occu": 1}], "abc": [0.42403941, 0.18104368, 0.6373746100000001], "properties": {"magmom": 0.0}, "label": "I", "xyz": [3.358849647780678, 1.538485513321445, 6.67521328625973]}, {"species": [{"element": "I", "occu": 1}], "abc": [0.30478998, 0.58981293, 0.8894372700000001], "properties": {"magmom": 0.0}, "label": "I", "xyz": [2.0452596476889227, 4.879458532273807, 9.177568445036052]}, {"species": [{"element": "I", "occu": 1}], "abc": [0.69521002, 0.41018707, 0.11056273], "properties": {"magmom": 0.0}, "label": "I", "xyz": [5.313648042311078, 3.338899027726193, -1.5806712250360493]}, {"species": [{"element": "I", "occu": 1}], "abc": [0.82824721, 0.05198006, 0.8826172], "properties": {"magmom": -0.0}, "label": "I", "xyz": [6.794965980560184, 0.5200995562653274, 9.12777043171426]}, {"species": [{"element": "I", "occu": 1}], "abc": [0.41018707, 0.69521002, 0.61056273], "properties": {"magmom": 0.0}, "label": "I", "xyz": [2.78314760774192, 5.703524986649502, 4.955177114963952]}, {"species": [{"element": "I", "occu": 1}], "abc": [0.94801994, 0.17175279000000002, 0.6173828], "properties": {"magmom": -0.0}, "label": "I", "xyz": [7.638570752839944, 1.4622295335398026, 5.004975128285742]}, {"species": [{"element": "I", "occu": 1}], "abc": [0.95101617, 0.7155867100000001, 0.63374341], "properties": {"magmom": -0.0}, "label": "I", "xyz": [7.177968744728192, 5.8725376194771615, 3.721943354739656]}]}, "task_ids": null, "uncorrected_energy_per_atom": null, "energy_per_atom": -4.427257389000002, "formation_energy_per_atom": -1.216609491000001, "energy_above_hull": 0.0, "is_stable": true, "equilibrium_reaction_energy_per_atom": null, "decomposes_to": null, "xas": null, "grain_boundaries": null, "band_gap": 2.3487, "cbm": null, "vbm": null, "efermi": 0.83311872, "is_gap_direct": null, "is_metal": null, "es_source_calc_id": null, "bandstructure": null, "dos": null, "dos_energy_up": null, "dos_energy_down": null, "is_magnetic": null, "ordering": null, "total_magnetization": 0.0, "total_magnetization_normalized_vol": null, "total_magnetization_normalized_formula_units": null, "num_magnetic_sites": null, "num_unique_magnetic_sites": null, "types_of_magnetic_species": null, "bulk_modulus": null, "shear_modulus": null, "universal_anisotropy": null, "homogeneous_poisson": null, "e_total": null, "e_ionic": null, "e_electronic": null, "n": null, "e_ij_max": null, "weighted_surface_energy_EV_PER_ANG2": null, "weighted_surface_energy": null, "weighted_work_function": null, "surface_anisotropy": null, "shape_factor": null, "has_reconstructed": null, "possible_species": null, "has_props": null, "theoretical": null, "database_IDs": null, "fields_not_requested": ["builder_meta", "nsites", "elements", "nelements", "composition", "composition_reduced", "chemsys", "symmetry", "property_name", "deprecated", "deprecation_reasons", "last_updated", "origins", "warnings", "task_ids", "uncorrected_energy_per_atom", "equilibrium_reaction_energy_per_atom", "decomposes_to", "xas", "grain_boundaries", "cbm", "vbm", "is_gap_direct", "is_metal", "es_source_calc_id", "bandstructure", "dos", "dos_energy_up", "dos_energy_down", "is_magnetic", "ordering", "total_magnetization_normalized_vol", "total_magnetization_normalized_formula_units", "num_magnetic_sites", "num_unique_magnetic_sites", "types_of_magnetic_species", "bulk_modulus", "shear_modulus", "universal_anisotropy", "homogeneous_poisson", "e_total", "e_ionic", "e_electronic", "n", "e_ij_max", "weighted_surface_energy_EV_PER_ANG2", "weighted_surface_energy", "weighted_work_function", "surface_anisotropy", "shape_factor", "has_reconstructed", "possible_species", "has_props", "theoretical", "database_IDs"]}