{"builder_meta": null, "nsites": null, "elements": null, "nelements": null, "composition": null, "composition_reduced": null, "formula_pretty": "HfMn2", "formula_anonymous": "AB2", "chemsys": null, "volume": 170.202831090667, "density": 11.253471046497738, "density_atomic": 14.183569257555583, "symmetry": null, "property_name": null, "material_id": "mp-11449", "deprecated": null, "deprecation_reasons": null, "last_updated": null, "origins": null, "warnings": null, "structure": {"@module": "pymatgen.core.structure", "@class": "Structure", "charge": 0, "lattice": {"matrix": [[4.88131737, -5.8460000000000006e-05, 1.42e-06], [-2.44070861, 4.22647655, 1.12e-06], [1.46e-06, 2.67e-06, 8.25000619]], "pbc": [true, true, true], "a": 4.881317370350273, "b": 4.880590389146511, "c": 8.250006190000562, "alpha": 89.999975864615, "beta": 89.99997319297987, "gamma": 120.0062904539775, "volume": 170.202831090667}, "properties": {}, "sites": [{"species": [{"element": "Hf", "occu": 1}], "abc": [0.3333259, 0.66665258, 0.4334751], "properties": {"magmom": -0.543}, "label": "Hf", "xyz": [-3.455347018503958e-05, 2.817573167513402, 3.5761734781845367]}, {"species": [{"element": "Hf", "occu": 1}], "abc": [0.6666709, 0.33334515000000003, 0.93346923], "properties": {"magmom": -0.543}, "label": "Hf", "xyz": [2.4406352294018667, 1.4088389783132629, 7.701128245693781]}, {"species": [{"element": "Hf", "occu": 1}], "abc": [0.66667097, 0.33334524, 0.56652928], "properties": {"magmom": -0.544}, "label": "Hf", "xyz": [2.440634815697981, 1.4088383789623933, 4.673871386835691]}, {"species": [{"element": "Hf", "occu": 1}], "abc": [0.33332597, 0.66665264, 0.0665255], "properties": {"magmom": -0.543}, "label": "Hf", "xyz": [-3.489396690174217e-05, 2.8175724413424708, 0.5488370067666792]}, {"species": [{"element": "Mn", "occu": 1}], "abc": [0.17075213, 0.34150085, 0.75000427], "properties": {"magmom": 1.045}, "label": "Mn", "xyz": [-7.631777586378454e-06, 1.4433373546719488, 6.187540494975409]}, {"species": [{"element": "Mn", "occu": 1}], "abc": [0.8292397300000001, 0.17078575000000001, 0.2499962], "properties": {"magmom": 1.063}, "label": "Mn", "xyz": [3.6309444124472545, 0.7217741575844008, 2.0624715662769346]}, {"species": [{"element": "Mn", "occu": 1}], "abc": [0.34155062, 0.17079047, 0.24999576], "properties": {"magmom": 1.06}, "label": "Mn", "xyz": [1.2503675684991322, 0.7218226168579125, 2.0624672437609615]}, {"species": [{"element": "Mn", "occu": 1}], "abc": [0.65851211, 0.82924306, 0.75000454], "properties": {"magmom": 1.061}, "label": "Mn", "xyz": [1.190467019580232, 3.5047398532344145, 6.187543961367527]}, {"species": [{"element": "Mn", "occu": 1}], "abc": [2.32e-06, 2.87e-06, 3.461e-05], "properties": {"magmom": 2.447}, "label": "Mn", "xyz": [4.319873118299998e-06, 1.2129944480000001e-05, 0.00028553272074470005]}, {"species": [{"element": "Mn", "occu": 1}], "abc": [2.339999999999998e-06, 2.88e-06, 0.49996482000000003], "properties": {"magmom": 2.448}, "label": "Mn", "xyz": [5.122990486199989e-06, 1.3507021737000002e-05, 4.124712859788785]}, {"species": [{"element": "Mn", "occu": 1}], "abc": [0.82921468, 0.65843368, 0.24999615], "properties": {"magmom": 1.044}, "label": "Mn", "xyz": [2.440615634047385, 2.782806699849732, 2.0624716999067356]}, {"species": [{"element": "Mn", "occu": 1}], "abc": [0.17073233000000002, 0.82924483, 0.75000455], "properties": {"magmom": 1.062}, "label": "Mn", "xyz": [-1.1905452133227716, 3.5047758497038735, 6.187543351222283]}]}, "task_ids": null, "uncorrected_energy_per_atom": null, "energy_per_atom": -24.969363588333334, "formation_energy_per_atom": -0.130002007988503, "energy_above_hull": 0.0, "is_stable": true, "equilibrium_reaction_energy_per_atom": null, "decomposes_to": null, "xas": null, "grain_boundaries": null, "band_gap": 0.0, "cbm": null, "vbm": null, "efermi": 5.89308897, "is_gap_direct": null, "is_metal": null, "es_source_calc_id": null, "bandstructure": null, "dos": null, "dos_energy_up": null, "dos_energy_down": null, "is_magnetic": null, "ordering": null, "total_magnetization": 8.2317134, "total_magnetization_normalized_vol": null, "total_magnetization_normalized_formula_units": null, "num_magnetic_sites": null, "num_unique_magnetic_sites": null, "types_of_magnetic_species": null, "bulk_modulus": null, "shear_modulus": null, "universal_anisotropy": null, "homogeneous_poisson": null, "e_total": null, "e_ionic": null, "e_electronic": null, "n": null, "e_ij_max": null, "weighted_surface_energy_EV_PER_ANG2": null, "weighted_surface_energy": null, "weighted_work_function": null, "surface_anisotropy": null, "shape_factor": null, "has_reconstructed": null, "possible_species": null, "has_props": null, "theoretical": null, "database_IDs": null, "fields_not_requested": ["builder_meta", "nsites", "elements", "nelements", "composition", "composition_reduced", "chemsys", "symmetry", "property_name", "deprecated", "deprecation_reasons", "last_updated", "origins", "warnings", "task_ids", "uncorrected_energy_per_atom", "equilibrium_reaction_energy_per_atom", "decomposes_to", "xas", "grain_boundaries", "cbm", "vbm", "is_gap_direct", "is_metal", "es_source_calc_id", "bandstructure", "dos", "dos_energy_up", "dos_energy_down", "is_magnetic", "ordering", "total_magnetization_normalized_vol", "total_magnetization_normalized_formula_units", "num_magnetic_sites", "num_unique_magnetic_sites", "types_of_magnetic_species", "bulk_modulus", "shear_modulus", "universal_anisotropy", "homogeneous_poisson", "e_total", "e_ionic", "e_electronic", "n", "e_ij_max", "weighted_surface_energy_EV_PER_ANG2", "weighted_surface_energy", "weighted_work_function", "surface_anisotropy", "shape_factor", "has_reconstructed", "possible_species", "has_props", "theoretical", "database_IDs"]}