{
  "builder_meta": null,
  "nsites": null,
  "elements": null,
  "nelements": null,
  "composition": null,
  "composition_reduced": null,
  "formula_pretty": "HfMn",
  "formula_anonymous": "AB",
  "chemsys": null,
  "volume": 413.01481729888076,
  "density": 11.262057584207062,
  "density_atomic": 17.2089507207867,
  "symmetry": null,
  "property_name": null,
  "material_id": "mp-1974638",
  "deprecated": null,
  "deprecation_reasons": null,
  "last_updated": null,
  "origins": null,
  "warnings": null,
  "structure": {
    "@module": "pymatgen.core.structure",
    "@class": "Structure",
    "charge": 0,
    "lattice": {
      "matrix": [
        [-5.98037053, -5.77405084, 0.00010165],
        [-5.98028586, 3.909e-5, -5.98024538],
        [9.144e-5, -5.77404614, -5.98031992]
      ],
      "pbc": [true, true, true],
      "a": 8.312911330534563,
      "b": 8.457372746536322,
      "c": 8.312871656699567,
      "alpha": 59.423834249064086,
      "beta": 61.155241185889466,
      "gamma": 59.42353796262189,
      "volume": 413.01481729888076
    },
    "properties": {},
    "sites": [
      {
        "species": [{ "element": "Hf", "occu": 1 }],
        "abc": [0.43238482, 0.81761085, 0.81758155],
        "properties": { "magmom": 0.0 },
        "label": "Hf",
        "xyz": [-7.475293280728004, -7.21733356562884, -9.778868786122896]
      },
      {
        "species": [{ "element": "Hf", "occu": 1 }],
        "abc": [0.81758966, 0.43242431000000003, 0.43238591],
        "properties": { "magmom": 0.0 },
        "label": "Hf",
        "xyz": [-7.475470557542367, -7.217403554257924, -5.171726444788576]
      },
      {
        "species": [{ "element": "Hf", "occu": 1 }],
        "abc": [0.8277852800000001, 0.42221318, 0.8277885500000001],
        "properties": { "magmom": 0.10300000000000001 },
        "label": "Hf",
        "xyz": [-7.475342510954421, -9.559347068874128, -7.475294629809313]
      },
      {
        "species": [{ "element": "Hf", "occu": 1 }],
        "abc": [0.42224385000000003, 0.82776054, 0.42224291],
        "properties": { "magmom": -0.10300000000000001 },
        "label": "Hf",
        "xyz": [-7.4753807199500155, -4.876075144245693, -7.475315909745721]
      },
      {
        "species": [{ "element": "Hf", "occu": 1 }],
        "abc": [0.81758221, 0.817608599999999, 0.43238506],
        "properties": { "magmom": 0.0 },
        "label": "Hf",
        "xyz": [-9.778938166840774, -7.21734057278605, -7.475217932995012]
      },
      {
        "species": [{ "element": "Hf", "occu": 1 }],
        "abc": [0.43238821, 0.43242303, 0.8175868900000001],
        "properties": { "magmom": 0.0 },
        "label": "Hf",
        "xyz": [-5.171780280305585, -7.217399030059459, -7.4753830396994045]
      },
      {
        "species": [{ "element": "Hf", "occu": 1 }],
        "abc": [0.56761518, 0.18238915, 0.18241845],
        "properties": { "magmom": 0.0 },
        "label": "Hf",
        "xyz": [-4.485271669271997, -4.330724324371161, -2.1815948638771046]
      },
      {
        "species": [{ "element": "Hf", "occu": 1 }],
        "abc": [0.18241034, 0.56757569, 0.56761409],
        "properties": { "magmom": 0.0 },
        "label": "Hf",
        "xyz": [-4.4850943924576345, -4.330654335742076, -6.788737205211424]
      },
      {
        "species": [{ "element": "Hf", "occu": 1 }],
        "abc": [0.17221472000000002, 0.57778682, 0.17221145000000002],
        "properties": { "magmom": 0.10300000000000001 },
        "label": "Hf",
        "xyz": [-4.485222439045579, -1.9887108211258742, -4.485169020190688]
      },
      {
        "species": [{ "element": "Hf", "occu": 1 }],
        "abc": [0.57775615, 0.17223946, 0.57775709],
        "properties": { "magmom": -0.10300000000000001 },
        "label": "Hf",
        "xyz": [-4.4851842300499865, -6.671982745754308, -4.4851477402542805]
      },
      {
        "species": [{ "element": "Hf", "occu": 1 }],
        "abc": [0.18241779, 0.182391399999999, 0.56761494],
        "properties": { "magmom": 0.0 },
        "label": "Hf",
        "xyz": [-2.1816267831592127, -4.330717317213949, -4.485245717004978]
      },
      {
        "species": [{ "element": "Hf", "occu": 1 }],
        "abc": [0.5676117900000001, 0.56757697, 0.18241311000000002],
        "properties": { "magmom": 0.0 },
        "label": "Hf",
        "xyz": [-6.788784669694415, -4.3306588599405424, -4.485080610300597]
      },
      {
        "species": [{ "element": "Mn", "occu": 1 }],
        "abc": [-0.0, 0.0, 0.5],
        "properties": { "magmom": 2.949 },
        "label": "Mn",
        "xyz": [4.572e-5, -2.88702307, -2.99015996]
      },
      {
        "species": [{ "element": "Mn", "occu": 1 }],
        "abc": [-0.0, 0.5, 0.0],
        "properties": { "magmom": -2.943 },
        "label": "Mn",
        "xyz": [-2.99014293, 1.9545e-5, -2.99012269]
      },
      {
        "species": [{ "element": "Mn", "occu": 1 }],
        "abc": [0.5, 0.0, 0.0],
        "properties": { "magmom": 2.949 },
        "label": "Mn",
        "xyz": [-2.990185265, -2.88702542, 5.0825e-5]
      },
      {
        "species": [{ "element": "Mn", "occu": 1 }],
        "abc": [-0.0, 0.0, 0.0],
        "properties": { "magmom": -2.943 },
        "label": "Mn",
        "xyz": [0.0, 0.0, 0.0]
      },
      {
        "species": [{ "element": "Mn", "occu": 1 }],
        "abc": [0.20662291, 0.20584447, 0.8816829700000001],
        "properties": { "magmom": -2.868 },
        "label": "Mn",
        "xyz": [-2.4666097139962595, -6.283921290220649, -6.50372566611301]
      },
      {
        "species": [{ "element": "Mn", "occu": 1 }],
        "abc": [0.20571593, 0.88170862, 0.20571824],
        "properties": { "magmom": 2.871 },
        "label": "Mn",
        "xyz": [-6.503108267273791, -2.3756063820275193, -6.503073878816233]
      },
      {
        "species": [{ "element": "Mn", "occu": 1 }],
        "abc": [0.8816831700000001, 0.20584287, 0.20662479],
        "properties": { "magmom": -2.868 },
        "label": "Mn",
        "xyz": [-6.5037723577370015, -6.2839364730823855, -2.4665835968320273]
      },
      {
        "species": [{ "element": "Mn", "occu": 1 }],
        "abc": [0.20572102, 0.20684545000000001, 0.20572232000000001],
        "properties": { "magmom": 2.871 },
        "label": "Mn",
        "xyz": [-2.4672640340009373, -2.3756857104558615, -2.467250923479453]
      },
      {
        "species": [{ "element": "Mn", "occu": 1 }],
        "abc": [0.79337709, 0.79415553, 0.11831703],
        "properties": { "magmom": -2.868 },
        "label": "Mn",
        "xyz": [-9.49395523600374, -5.264136599779352, -5.456737983886991]
      },
      {
        "species": [{ "element": "Mn", "occu": 1 }],
        "abc": [0.79428407, 0.11829138, 0.7942817600000001],
        "properties": { "magmom": 2.871 },
        "label": "Mn",
        "xyz": [-5.457456682726209, -9.172451507972482, -5.457389771183769]
      },
      {
        "species": [{ "element": "Mn", "occu": 1 }],
        "abc": [0.11831683, 0.79415713, 0.79337521],
        "properties": { "magmom": -2.868 },
        "label": "Mn",
        "xyz": [-5.456792592263, -5.264121416917615, -9.493880053167974]
      },
      {
        "species": [{ "element": "Mn", "occu": 1 }],
        "abc": [0.79427898, 0.79315455, 0.79427768],
        "properties": { "magmom": 2.871 },
        "label": "Mn",
        "xyz": [-9.493300915999063, -9.172372179544139, -9.493212726520548]
      }
    ]
  },
  "task_ids": null,
  "uncorrected_energy_per_atom": null,
  "energy_per_atom": -30.072987170416667,
  "formation_energy_per_atom": -0.15561213765804802,
  "energy_above_hull": 0.0,
  "is_stable": true,
  "equilibrium_reaction_energy_per_atom": null,
  "decomposes_to": null,
  "xas": null,
  "grain_boundaries": null,
  "band_gap": 0.0,
  "cbm": null,
  "vbm": null,
  "efermi": 6.2013289,
  "is_gap_direct": null,
  "is_metal": null,
  "es_source_calc_id": null,
  "bandstructure": null,
  "dos": null,
  "dos_energy_up": null,
  "dos_energy_down": null,
  "is_magnetic": null,
  "ordering": null,
  "total_magnetization": 0.0288755,
  "total_magnetization_normalized_vol": null,
  "total_magnetization_normalized_formula_units": null,
  "num_magnetic_sites": null,
  "num_unique_magnetic_sites": null,
  "types_of_magnetic_species": null,
  "bulk_modulus": null,
  "shear_modulus": null,
  "universal_anisotropy": null,
  "homogeneous_poisson": null,
  "e_total": null,
  "e_ionic": null,
  "e_electronic": null,
  "n": null,
  "e_ij_max": null,
  "weighted_surface_energy_EV_PER_ANG2": null,
  "weighted_surface_energy": null,
  "weighted_work_function": null,
  "surface_anisotropy": null,
  "shape_factor": null,
  "has_reconstructed": null,
  "possible_species": null,
  "has_props": null,
  "theoretical": null,
  "database_IDs": null,
  "fields_not_requested": [
    "builder_meta",
    "nsites",
    "elements",
    "nelements",
    "composition",
    "composition_reduced",
    "chemsys",
    "symmetry",
    "property_name",
    "deprecated",
    "deprecation_reasons",
    "last_updated",
    "origins",
    "warnings",
    "task_ids",
    "uncorrected_energy_per_atom",
    "equilibrium_reaction_energy_per_atom",
    "decomposes_to",
    "xas",
    "grain_boundaries",
    "cbm",
    "vbm",
    "is_gap_direct",
    "is_metal",
    "es_source_calc_id",
    "bandstructure",
    "dos",
    "dos_energy_up",
    "dos_energy_down",
    "is_magnetic",
    "ordering",
    "total_magnetization_normalized_vol",
    "total_magnetization_normalized_formula_units",
    "num_magnetic_sites",
    "num_unique_magnetic_sites",
    "types_of_magnetic_species",
    "bulk_modulus",
    "shear_modulus",
    "universal_anisotropy",
    "homogeneous_poisson",
    "e_total",
    "e_ionic",
    "e_electronic",
    "n",
    "e_ij_max",
    "weighted_surface_energy_EV_PER_ANG2",
    "weighted_surface_energy",
    "weighted_work_function",
    "surface_anisotropy",
    "shape_factor",
    "has_reconstructed",
    "possible_species",
    "has_props",
    "theoretical",
    "database_IDs"
  ]
}
