{"builder_meta": null, "nsites": null, "elements": null, "nelements": null, "composition": null, "composition_reduced": null, "formula_pretty": "HfN2", "formula_anonymous": "AB2", "chemsys": null, "volume": 134.8627677512666, "density": 10.170545030431674, "density_atomic": 11.238563979272216, "symmetry": null, "property_name": null, "material_id": "mp-1102429", "deprecated": null, "deprecation_reasons": null, "last_updated": null, "origins": null, "warnings": null, "structure": {"@module": "pymatgen.core.structure", "@class": "Structure", "charge": 0, "lattice": {"matrix": [[5.128189, 0.0, 0.0], [0.0, 5.128189, 0.0], [0.0, 0.0, 5.128189]], "pbc": [true, true, true], "a": 5.128189, "b": 5.128189, "c": 5.128189, "alpha": 90.0, "beta": 90.0, "gamma": 90.0, "volume": 134.8627677512666}, "properties": {}, "sites": [{"species": [{"element": "Hf", "occu": 1}], "abc": [0.5, 0.5, 0.0], "properties": {"magmom": -0.0}, "label": "Hf", "xyz": [2.5640945, 2.5640945, 0.0]}, {"species": [{"element": "Hf", "occu": 1}], "abc": [0.5, 0.0, 0.5], "properties": {"magmom": -0.0}, "label": "Hf", "xyz": [2.5640945, 0.0, 2.5640945]}, {"species": [{"element": "Hf", "occu": 1}], "abc": [0.0, 0.5, 0.5], "properties": {"magmom": -0.0}, "label": "Hf", "xyz": [0.0, 2.5640945, 2.5640945]}, {"species": [{"element": "Hf", "occu": 1}], "abc": [0.0, 0.0, 0.0], "properties": {"magmom": -0.0}, "label": "Hf", "xyz": [0.0, 0.0, 0.0]}, {"species": [{"element": "N", "occu": 1}], "abc": [0.085252, 0.914748, 0.414748], "properties": {"magmom": 0.0}, "label": "N", "xyz": [0.437188368628, 4.691000631372, 2.126906131372]}, {"species": [{"element": "N", "occu": 1}], "abc": [0.914748, 0.414748, 0.085252], "properties": {"magmom": 0.0}, "label": "N", "xyz": [4.691000631372, 2.126906131372, 0.437188368628]}, {"species": [{"element": "N", "occu": 1}], "abc": [0.414748, 0.085252, 0.914748], "properties": {"magmom": 0.0}, "label": "N", "xyz": [2.126906131372, 0.437188368628, 4.691000631372]}, {"species": [{"element": "N", "occu": 1}], "abc": [0.585252, 0.585252, 0.585252], "properties": {"magmom": 0.0}, "label": "N", "xyz": [3.001282868628, 3.001282868628, 3.001282868628]}, {"species": [{"element": "N", "occu": 1}], "abc": [0.914748, 0.085252, 0.585252], "properties": {"magmom": 0.0}, "label": "N", "xyz": [4.691000631372, 0.437188368628, 3.001282868628]}, {"species": [{"element": "N", "occu": 1}], "abc": [0.085252, 0.585252, 0.914748], "properties": {"magmom": 0.0}, "label": "N", "xyz": [0.437188368628, 3.001282868628, 4.691000631372]}, {"species": [{"element": "N", "occu": 1}], "abc": [0.585252, 0.914748, 0.085252], "properties": {"magmom": 0.0}, "label": "N", "xyz": [3.001282868628, 4.691000631372, 0.437188368628]}, {"species": [{"element": "N", "occu": 1}], "abc": [0.414748, 0.414748, 0.414748], "properties": {"magmom": 0.0}, "label": "N", "xyz": [2.126906131372, 2.126906131372, 2.126906131372]}]}, "task_ids": null, "uncorrected_energy_per_atom": null, "energy_per_atom": -22.25657484833333, "formation_energy_per_atom": -1.12026927083333, "energy_above_hull": 0.41502236222222405, "is_stable": false, "equilibrium_reaction_energy_per_atom": null, "decomposes_to": null, "xas": null, "grain_boundaries": null, "band_gap": 1.188099999999999, "cbm": null, "vbm": null, "efermi": 6.20178859, "is_gap_direct": null, "is_metal": null, "es_source_calc_id": null, "bandstructure": null, "dos": null, "dos_energy_up": null, "dos_energy_down": null, "is_magnetic": null, "ordering": null, "total_magnetization": 0.0004168, "total_magnetization_normalized_vol": null, "total_magnetization_normalized_formula_units": null, "num_magnetic_sites": null, "num_unique_magnetic_sites": null, "types_of_magnetic_species": null, "bulk_modulus": null, "shear_modulus": null, "universal_anisotropy": null, "homogeneous_poisson": null, "e_total": null, "e_ionic": null, "e_electronic": null, "n": null, "e_ij_max": null, "weighted_surface_energy_EV_PER_ANG2": null, "weighted_surface_energy": null, "weighted_work_function": null, "surface_anisotropy": null, "shape_factor": null, "has_reconstructed": null, "possible_species": null, "has_props": null, "theoretical": null, "database_IDs": null, "fields_not_requested": ["builder_meta", "nsites", "elements", "nelements", "composition", "composition_reduced", "chemsys", "symmetry", "property_name", "deprecated", "deprecation_reasons", "last_updated", "origins", "warnings", "task_ids", "uncorrected_energy_per_atom", "equilibrium_reaction_energy_per_atom", "decomposes_to", "xas", "grain_boundaries", "cbm", "vbm", "is_gap_direct", "is_metal", "es_source_calc_id", "bandstructure", "dos", "dos_energy_up", "dos_energy_down", "is_magnetic", "ordering", "total_magnetization_normalized_vol", "total_magnetization_normalized_formula_units", "num_magnetic_sites", "num_unique_magnetic_sites", "types_of_magnetic_species", "bulk_modulus", "shear_modulus", "universal_anisotropy", "homogeneous_poisson", "e_total", "e_ionic", "e_electronic", "n", "e_ij_max", "weighted_surface_energy_EV_PER_ANG2", "weighted_surface_energy", "weighted_work_function", "surface_anisotropy", "shape_factor", "has_reconstructed", "possible_species", "has_props", "theoretical", "database_IDs"]}