{
  "builder_meta": null,
  "nsites": null,
  "elements": null,
  "nelements": null,
  "composition": null,
  "composition_reduced": null,
  "formula_pretty": "HfNi5",
  "formula_anonymous": "AB5",
  "chemsys": null,
  "volume": 71.74507955378395,
  "density": 10.923439504556272,
  "density_atomic": 11.957513258963992,
  "symmetry": null,
  "property_name": null,
  "material_id": "mp-569516",
  "deprecated": null,
  "deprecation_reasons": null,
  "last_updated": null,
  "origins": null,
  "warnings": null,
  "structure": {
    "@module": "pymatgen.core.structure",
    "@class": "Structure",
    "charge": 0,
    "lattice": {
      "matrix": [
        [-3.02e-6, 3.29803682, 3.29803682],
        [3.29802273, 9.06e-6, 3.29802374],
        [3.29802373, 3.29802474, 8.050000000000001e-6]
      ],
      "pbc": [true, true, true],
      "a": 4.664128400050812,
      "b": 4.664109187967443,
      "c": 4.664110602179153,
      "alpha": 59.99983851423988,
      "beta": 59.9999444829467,
      "gamma": 59.99993435245593,
      "volume": 71.74507955378395
    },
    "properties": {},
    "sites": [
      {
        "species": [{ "element": "Hf", "occu": 1 }],
        "abc": [1e-6, 0.0, 0.0],
        "properties": { "magmom": 0.029 },
        "label": "Hf",
        "xyz": [
          -3.0199999999999997e-12, 3.2980368199999998e-6, 3.2980368199999998e-6
        ]
      },
      {
        "species": [{ "element": "Ni", "occu": 1 }],
        "abc": [0.12802958, 0.62399047, 0.62399047],
        "properties": { "magmom": -0.001 },
        "label": "Ni",
        "xyz": [4.115869744067904, 2.4801879298270215, 2.480186675606177]
      },
      {
        "species": [{ "element": "Ni", "occu": 1 }],
        "abc": [0.62399047, 0.12802958, 0.62399047],
        "properties": { "magmom": -0.001 },
        "label": "Ni",
        "xyz": [2.480177957854987, 4.115880712921328, 2.480193162774618]
      },
      {
        "species": [{ "element": "Ni", "occu": 1 }],
        "abc": [0.249999, 0.25, 0.25],
        "properties": { "magmom": -0.377 },
        "label": "Ni",
        "xyz": [1.64901086000302, 1.64901435696318, 1.64901385446318]
      },
      {
        "species": [{ "element": "Ni", "occu": 1 }],
        "abc": [0.62399047, 0.62399047, 0.12802958],
        "properties": { "magmom": -0.001 },
        "label": "Ni",
        "xyz": [2.480177461894097, 2.4801939210345725, 4.115879959620981]
      },
      {
        "species": [{ "element": "Ni", "occu": 1 }],
        "abc": [0.62399047, 0.62399047, 0.62399047],
        "properties": { "magmom": -0.001 },
        "label": "Ni",
        "xyz": [4.115868246266016, 4.1158852063269915, 4.115883952106146]
      }
    ]
  },
  "task_ids": null,
  "uncorrected_energy_per_atom": null,
  "energy_per_atom": -17.827401273333333,
  "formation_energy_per_atom": -0.31740107499999903,
  "energy_above_hull": 0.027677731833332,
  "is_stable": false,
  "equilibrium_reaction_energy_per_atom": null,
  "decomposes_to": null,
  "xas": null,
  "grain_boundaries": null,
  "band_gap": 0.0,
  "cbm": null,
  "vbm": null,
  "efermi": 7.24036863,
  "is_gap_direct": null,
  "is_metal": null,
  "es_source_calc_id": null,
  "bandstructure": null,
  "dos": null,
  "dos_energy_up": null,
  "dos_energy_down": null,
  "is_magnetic": null,
  "ordering": null,
  "total_magnetization": 0.294769699999999,
  "total_magnetization_normalized_vol": null,
  "total_magnetization_normalized_formula_units": null,
  "num_magnetic_sites": null,
  "num_unique_magnetic_sites": null,
  "types_of_magnetic_species": null,
  "bulk_modulus": null,
  "shear_modulus": null,
  "universal_anisotropy": null,
  "homogeneous_poisson": null,
  "e_total": null,
  "e_ionic": null,
  "e_electronic": null,
  "n": null,
  "e_ij_max": null,
  "weighted_surface_energy_EV_PER_ANG2": null,
  "weighted_surface_energy": null,
  "weighted_work_function": null,
  "surface_anisotropy": null,
  "shape_factor": null,
  "has_reconstructed": null,
  "possible_species": null,
  "has_props": null,
  "theoretical": null,
  "database_IDs": null,
  "fields_not_requested": [
    "builder_meta",
    "nsites",
    "elements",
    "nelements",
    "composition",
    "composition_reduced",
    "chemsys",
    "symmetry",
    "property_name",
    "deprecated",
    "deprecation_reasons",
    "last_updated",
    "origins",
    "warnings",
    "task_ids",
    "uncorrected_energy_per_atom",
    "equilibrium_reaction_energy_per_atom",
    "decomposes_to",
    "xas",
    "grain_boundaries",
    "cbm",
    "vbm",
    "is_gap_direct",
    "is_metal",
    "es_source_calc_id",
    "bandstructure",
    "dos",
    "dos_energy_up",
    "dos_energy_down",
    "is_magnetic",
    "ordering",
    "total_magnetization_normalized_vol",
    "total_magnetization_normalized_formula_units",
    "num_magnetic_sites",
    "num_unique_magnetic_sites",
    "types_of_magnetic_species",
    "bulk_modulus",
    "shear_modulus",
    "universal_anisotropy",
    "homogeneous_poisson",
    "e_total",
    "e_ionic",
    "e_electronic",
    "n",
    "e_ij_max",
    "weighted_surface_energy_EV_PER_ANG2",
    "weighted_surface_energy",
    "weighted_work_function",
    "surface_anisotropy",
    "shape_factor",
    "has_reconstructed",
    "possible_species",
    "has_props",
    "theoretical",
    "database_IDs"
  ]
}
