{"builder_meta": null, "nsites": null, "elements": null, "nelements": null, "composition": null, "composition_reduced": null, "formula_pretty": "HfNi3", "formula_anonymous": "AB3", "chemsys": null, "volume": 500.08114417968267, "density": 11.77364265389345, "density_atomic": 12.502028604492066, "symmetry": null, "property_name": null, "material_id": "mp-12174", "deprecated": null, "deprecation_reasons": null, "last_updated": null, "origins": null, "warnings": null, "structure": {"@module": "pymatgen.core.structure", "@class": "Structure", "charge": 0, "lattice": {"matrix": [[5.22005629, 0.0, -0.0], [-2.61002814, 4.5207013, 0.0], [-0.0, -0.0, 21.19139179]], "pbc": [true, true, true], "a": 5.22005629, "b": 5.2200562387213365, "c": 21.19139179, "alpha": 90.0, "beta": 90.0, "gamma": 120.00000026158477, "volume": 500.08114417968267}, "properties": {}, "sites": [{"species": [{"element": "Hf", "occu": 1}], "abc": [0.333333, 0.666667, 0.95387856], "properties": {"magmom": 0.0}, "label": "Hf", "xyz": [-2.606694810225463e-06, 3.0138023735671, 20.214014285041024]}, {"species": [{"element": "Hf", "occu": 1}], "abc": [0.666667, 0.333333, 0.45387856], "properties": {"magmom": 0.0}, "label": "Hf", "xyz": [2.61003075669481, 1.5068989264328998, 9.618318390041022]}, {"species": [{"element": "Hf", "occu": 1}], "abc": [0.666667, 0.333333, 0.04612144], "properties": {"magmom": 0.0}, "label": "Hf", "xyz": [2.61003075669481, 1.5068989264328998, 0.9773775049589777]}, {"species": [{"element": "Hf", "occu": 1}], "abc": [0.333333, 0.666667, 0.54612144], "properties": {"magmom": 0.0}, "label": "Hf", "xyz": [-2.606694810225463e-06, 3.0138023735671, 11.573073399958977]}, {"species": [{"element": "Hf", "occu": 1}], "abc": [0.333333, 0.666667, 0.15104011], "properties": {"magmom": 0.0}, "label": "Hf", "xyz": [-2.606694810225463e-06, 3.0138023735671, 3.200750147014697]}, {"species": [{"element": "Hf", "occu": 1}], "abc": [0.666667, 0.333333, 0.6510401100000001], "properties": {"magmom": 0.0}, "label": "Hf", "xyz": [2.61003075669481, 1.5068989264328998, 13.796446042014699]}, {"species": [{"element": "Hf", "occu": 1}], "abc": [0.666667, 0.333333, 0.84895989], "properties": {"magmom": 0.0}, "label": "Hf", "xyz": [2.61003075669481, 1.5068989264328998, 17.990641642985306]}, {"species": [{"element": "Hf", "occu": 1}], "abc": [0.333333, 0.666667, 0.34895989], "properties": {"magmom": 0.0}, "label": "Hf", "xyz": [-2.606694810225463e-06, 3.0138023735671, 7.394945747985303]}, {"species": [{"element": "Hf", "occu": 1}], "abc": [0.0, 0.0, 0.75], "properties": {"magmom": 0.0}, "label": "Hf", "xyz": [0.0, 0.0, 15.893543842500002]}, {"species": [{"element": "Hf", "occu": 1}], "abc": [0.0, 0.0, 0.25], "properties": {"magmom": 0.0}, "label": "Hf", "xyz": [0.0, 0.0, 5.2978479475]}, {"species": [{"element": "Ni", "occu": 1}], "abc": [0.83241195, 0.16758905000000002, 0.35048797], "properties": {"magmom": -0.0}, "label": "Ni", "xyz": [3.907825099012798, 0.757620036200765, 7.4273278899517665]}, {"species": [{"element": "Ni", "occu": 1}], "abc": [0.83241195, 0.66482291, 0.35048797], "properties": {"magmom": -0.0}, "label": "Ni", "xyz": [2.6100307322519773, 3.005465793506783, 7.4273278899517665]}, {"species": [{"element": "Ni", "occu": 1}], "abc": [0.33517709, 0.16758905000000002, 0.35048797], "properties": {"magmom": -0.0}, "label": "Ni", "xyz": [1.312231140462529, 0.757620036200765, 7.4273278899517665]}, {"species": [{"element": "Ni", "occu": 1}], "abc": [0.66482291, 0.83241195, 0.85048797], "properties": {"magmom": -0.0}, "label": "Ni", "xyz": [1.297794399509331, 3.763085784500535, 18.023023784951768]}, {"species": [{"element": "Ni", "occu": 1}], "abc": [0.16758905000000002, 0.33517709, 0.64951203], "properties": {"magmom": -0.0}, "label": "Ni", "xyz": [2.6378043119779093e-06, 1.515235506493217, 13.764063900048235]}, {"species": [{"element": "Ni", "occu": 1}], "abc": [0.16758905000000002, 0.83241195, 0.85048797], "properties": {"magmom": -0.0}, "label": "Ni", "xyz": [-1.2977943389846485, 3.763085784500535, 18.023023784951768]}, {"species": [{"element": "Ni", "occu": 1}], "abc": [0.16758905000000002, 0.33517709, 0.85048797], "properties": {"magmom": -0.0}, "label": "Ni", "xyz": [2.6378043119779093e-06, 1.515235506493217, 18.023023784951768]}, {"species": [{"element": "Ni", "occu": 1}], "abc": [0.83241195, 0.16758905000000002, 0.14951203], "properties": {"magmom": -0.0}, "label": "Ni", "xyz": [3.907825099012798, 0.757620036200765, 3.1683680050482335]}, {"species": [{"element": "Ni", "occu": 1}], "abc": [0.33517709, 0.16758905000000002, 0.14951203], "properties": {"magmom": -0.0}, "label": "Ni", "xyz": [1.312231140462529, 0.757620036200765, 3.1683680050482335]}, {"species": [{"element": "Ni", "occu": 1}], "abc": [0.66482291, 0.83241195, 0.64951203], "properties": {"magmom": -0.0}, "label": "Ni", "xyz": [1.297794399509331, 3.763085784500535, 13.764063900048235]}, {"species": [{"element": "Ni", "occu": 1}], "abc": [0.51118163, 0.022362260000000002, 0.25], "properties": {"magmom": 0.0}, "label": "Ni", "xyz": [2.6100307551399564, 0.101093097852938, 5.2978479475]}, {"species": [{"element": "Ni", "occu": 1}], "abc": [0.48881837, 0.51118163, 0.75], "properties": {"magmom": 0.0}, "label": "Ni", "xyz": [1.2174609680349788, 2.310899459277119, 15.893543842500002]}, {"species": [{"element": "Ni", "occu": 1}], "abc": [0.022362260000000002, 0.51118163, 0.75], "properties": {"magmom": 0.0}, "label": "Ni", "xyz": [-1.2174661829794529, 2.310899459277119, 15.893543842500002]}, {"species": [{"element": "Ni", "occu": 1}], "abc": [0.97763774, 0.48881837, 0.25], "properties": {"magmom": 0.0}, "label": "Ni", "xyz": [3.8274943329794526, 2.2098018407228808, 5.2978479475]}, {"species": [{"element": "Ni", "occu": 1}], "abc": [0.51118163, 0.48881837, 0.25], "properties": {"magmom": 0.0}, "label": "Ni", "xyz": [1.392567181965021, 2.2098018407228808, 5.2978479475]}, {"species": [{"element": "Ni", "occu": 1}], "abc": [0.48881837, 0.97763774, 0.75], "properties": {"magmom": 0.0}, "label": "Ni", "xyz": [-2.6051399566462408e-06, 4.419608202147062, 15.893543842500002]}, {"species": [{"element": "Ni", "occu": 1}], "abc": [0.15577787, 0.31155574, 0.0512259], "properties": {"magmom": -0.0}, "label": "Ni", "xyz": [1.5577786838250063e-09, 1.408450438840462, 1.0855481166953609]}, {"species": [{"element": "Ni", "occu": 1}], "abc": [0.84422213, 0.15577787, 0.551225899999999], "properties": {"magmom": -0.0}, "label": "Ni", "xyz": [4.000302415574436, 0.704225219420231, 11.681244011695341]}, {"species": [{"element": "Ni", "occu": 1}], "abc": [0.31155574, 0.15577787, 0.551225899999999], "properties": {"magmom": -0.0}, "label": "Ni", "xyz": [1.2197538759833426, 0.704225219420231, 11.681244011695341]}, {"species": [{"element": "Ni", "occu": 1}], "abc": [0.68844426, 0.84422213, 0.0512259], "properties": {"magmom": -0.0}, "label": "Ni", "xyz": [1.3902742740166572, 3.816476080579769, 1.0855481166953609]}, {"species": [{"element": "Ni", "occu": 1}], "abc": [0.15577787, 0.84422213, 0.0512259], "properties": {"magmom": -0.0}, "label": "Ni", "xyz": [-1.390274265574436, 3.816476080579769, 1.0855481166953609]}, {"species": [{"element": "Ni", "occu": 1}], "abc": [0.84422213, 0.68844426, 0.9487741], "properties": {"magmom": -0.0}, "label": "Ni", "xyz": [2.610028148442221, 3.112250861159538, 20.105843673304637]}, {"species": [{"element": "Ni", "occu": 1}], "abc": [0.84422213, 0.15577787, 0.9487741], "properties": {"magmom": -0.0}, "label": "Ni", "xyz": [4.000302415574436, 0.704225219420231, 20.105843673304637]}, {"species": [{"element": "Ni", "occu": 1}], "abc": [0.84422213, 0.68844426, 0.551225899999999], "properties": {"magmom": -0.0}, "label": "Ni", "xyz": [2.610028148442221, 3.112250861159538, 11.681244011695341]}, {"species": [{"element": "Ni", "occu": 1}], "abc": [0.31155574, 0.15577787, 0.9487741], "properties": {"magmom": -0.0}, "label": "Ni", "xyz": [1.2197538759833426, 0.704225219420231, 20.105843673304637]}, {"species": [{"element": "Ni", "occu": 1}], "abc": [0.68844426, 0.84422213, 0.448774099999999], "properties": {"magmom": -0.0}, "label": "Ni", "xyz": [1.3902742740166572, 3.816476080579769, 9.510147778304619]}, {"species": [{"element": "Ni", "occu": 1}], "abc": [0.15577787, 0.31155574, 0.448774099999999], "properties": {"magmom": -0.0}, "label": "Ni", "xyz": [1.5577786838250063e-09, 1.408450438840462, 9.510147778304619]}, {"species": [{"element": "Ni", "occu": 1}], "abc": [0.15577787, 0.84422213, 0.448774099999999], "properties": {"magmom": -0.0}, "label": "Ni", "xyz": [-1.390274265574436, 3.816476080579769, 9.510147778304619]}, {"species": [{"element": "Ni", "occu": 1}], "abc": [0.83241195, 0.66482291, 0.14951203], "properties": {"magmom": -0.0}, "label": "Ni", "xyz": [2.6100307322519773, 3.005465793506783, 3.1683680050482335]}, {"species": [{"element": "Ni", "occu": 1}], "abc": [0.16758905000000002, 0.83241195, 0.64951203], "properties": {"magmom": -0.0}, "label": "Ni", "xyz": [-1.2977943389846485, 3.763085784500535, 13.764063900048235]}]}, "task_ids": null, "uncorrected_energy_per_atom": null, "energy_per_atom": -20.79175992775, "formation_energy_per_atom": -0.517618210249997, "energy_above_hull": 0.0, "is_stable": true, "equilibrium_reaction_energy_per_atom": null, "decomposes_to": null, "xas": null, "grain_boundaries": null, "band_gap": 0.0, "cbm": null, "vbm": null, "efermi": 7.44119567, "is_gap_direct": null, "is_metal": null, "es_source_calc_id": null, "bandstructure": null, "dos": null, "dos_energy_up": null, "dos_energy_down": null, "is_magnetic": null, "ordering": null, "total_magnetization": 4e-07, "total_magnetization_normalized_vol": null, "total_magnetization_normalized_formula_units": null, "num_magnetic_sites": null, "num_unique_magnetic_sites": null, "types_of_magnetic_species": null, "bulk_modulus": null, "shear_modulus": null, "universal_anisotropy": null, "homogeneous_poisson": null, "e_total": null, "e_ionic": null, "e_electronic": null, "n": null, "e_ij_max": null, "weighted_surface_energy_EV_PER_ANG2": null, "weighted_surface_energy": null, "weighted_work_function": null, "surface_anisotropy": null, "shape_factor": null, "has_reconstructed": null, "possible_species": null, "has_props": null, "theoretical": null, "database_IDs": null, "fields_not_requested": ["builder_meta", "nsites", "elements", "nelements", "composition", "composition_reduced", "chemsys", "symmetry", "property_name", "deprecated", "deprecation_reasons", "last_updated", "origins", "warnings", "task_ids", "uncorrected_energy_per_atom", "equilibrium_reaction_energy_per_atom", "decomposes_to", "xas", "grain_boundaries", "cbm", "vbm", "is_gap_direct", "is_metal", "es_source_calc_id", "bandstructure", "dos", "dos_energy_up", "dos_energy_down", "is_magnetic", "ordering", "total_magnetization_normalized_vol", "total_magnetization_normalized_formula_units", "num_magnetic_sites", "num_unique_magnetic_sites", "types_of_magnetic_species", "bulk_modulus", "shear_modulus", "universal_anisotropy", "homogeneous_poisson", "e_total", "e_ionic", "e_electronic", "n", "e_ij_max", "weighted_surface_energy_EV_PER_ANG2", "weighted_surface_energy", "weighted_work_function", "surface_anisotropy", "shape_factor", "has_reconstructed", "possible_species", "has_props", "theoretical", "database_IDs"]}