{
  "builder_meta": null,
  "nsites": null,
  "elements": null,
  "nelements": null,
  "composition": null,
  "composition_reduced": null,
  "formula_pretty": "HfO2",
  "formula_anonymous": "AB2",
  "chemsys": null,
  "volume": 136.51657937039403,
  "density": 10.24124328616322,
  "density_atomic": 11.376381614199502,
  "symmetry": null,
  "property_name": null,
  "material_id": "mp-352",
  "deprecated": null,
  "deprecation_reasons": null,
  "last_updated": null,
  "origins": null,
  "warnings": null,
  "structure": {
    "@module": "pymatgen.core.structure",
    "@class": "Structure",
    "charge": 0,
    "lattice": {
      "matrix": [
        [5.02792259, 0.0, -0.81890993],
        [0.0, 5.1506447, 0.0],
        [-0.02837742, 0.0, 5.27613418]
      ],
      "pbc": [true, true, true],
      "a": 5.0941750111755,
      "b": 5.1506447,
      "c": 5.27621049270498,
      "alpha": 90.0,
      "beta": 99.5588337332641,
      "gamma": 90.0,
      "volume": 136.51657937039403
    },
    "properties": {},
    "sites": [
      {
        "species": [{ "element": "Hf", "occu": 1 }],
        "abc": [0.27613578, 0.45806468, 0.7079073300000001],
        "properties": { "magmom": -0.0 },
        "label": "Hf",
        "xyz": [1.3683007425447815, 2.359328416299196, 3.508883727815244]
      },
      {
        "species": [{ "element": "Hf", "occu": 1 }],
        "abc": [0.7238642200000001, 0.95806468, 0.79209267],
        "properties": { "magmom": -0.0 },
        "label": "Hf",
        "xyz": [3.617055717455219, 4.934650766299196, 3.586407612184756]
      },
      {
        "species": [{ "element": "Hf", "occu": 1 }],
        "abc": [0.7238642200000001, 0.54193532, 0.29209267],
        "properties": { "magmom": -0.0 },
        "label": "Hf",
        "xyz": [3.631244427455219, 2.791316283700804, 0.9483405221847557]
      },
      {
        "species": [{ "element": "Hf", "occu": 1 }],
        "abc": [0.27613578, 0.04193532, 0.20790733],
        "properties": { "magmom": -0.0 },
        "label": "Hf",
        "xyz": [1.3824894525447815, 0.215993933700804, 0.870816637815244]
      },
      {
        "species": [{ "element": "O", "occu": 1 }],
        "abc": [0.44799782, 0.74252595, 0.97857799],
        "properties": { "magmom": 0.0 },
        "label": "O",
        "xyz": [2.224728840823768, 3.824487348979965, 4.796238917418345]
      },
      {
        "species": [{ "element": "O", "occu": 1 }],
        "abc": [0.55200218, 0.24252595000000002, 0.52142201],
        "properties": { "magmom": 0.0 },
        "label": "O",
        "xyz": [2.760627619176232, 1.2491649989799651, 2.299052422581654]
      },
      {
        "species": [{ "element": "O", "occu": 1 }],
        "abc": [0.55200218, 0.25747405, 0.021422010000000002],
        "properties": { "magmom": 0.0 },
        "label": "O",
        "xyz": [2.774816329176232, 1.326157351020035, -0.3390146674183456]
      },
      {
        "species": [{ "element": "O", "occu": 1 }],
        "abc": [0.44799782, 0.75747405, 0.47857799],
        "properties": { "magmom": 0.0 },
        "label": "O",
        "xyz": [2.238917550823768, 3.901479701020035, 2.1581718274183457]
      },
      {
        "species": [{ "element": "O", "occu": 1 }],
        "abc": [0.06836078, 0.33075888000000003, 0.34625278],
        "properties": { "magmom": 0.0 },
        "label": "O",
        "xyz": [0.33388694946779257, 1.703621472249936, 1.7708948059134746]
      },
      {
        "species": [{ "element": "O", "occu": 1 }],
        "abc": [0.93163922, 0.83075888, 0.15374722],
        "properties": { "magmom": 0.0 },
        "label": "O",
        "xyz": [4.679846930532208, 4.278943822249936, 0.048262354086524906]
      },
      {
        "species": [{ "element": "O", "occu": 1 }],
        "abc": [0.93163922, 0.66924112, 0.65374722],
        "properties": { "magmom": 0.0 },
        "label": "O",
        "xyz": [4.665658220532208, 3.4470232277500643, 2.6863294440865246]
      },
      {
        "species": [{ "element": "O", "occu": 1 }],
        "abc": [0.06836078, 0.16924112, 0.84625278],
        "properties": { "magmom": 0.0 },
        "label": "O",
        "xyz": [0.3196982394677926, 0.871700877750064, 4.408961895913475]
      }
    ]
  },
  "task_ids": null,
  "uncorrected_energy_per_atom": null,
  "energy_per_atom": -10.637514720833332,
  "formation_energy_per_atom": -4.019811040833332,
  "energy_above_hull": 0.0,
  "is_stable": true,
  "equilibrium_reaction_energy_per_atom": null,
  "decomposes_to": null,
  "xas": null,
  "grain_boundaries": null,
  "band_gap": 4.0165,
  "cbm": null,
  "vbm": null,
  "efermi": 3.14741998,
  "is_gap_direct": null,
  "is_metal": null,
  "es_source_calc_id": null,
  "bandstructure": null,
  "dos": null,
  "dos_energy_up": null,
  "dos_energy_down": null,
  "is_magnetic": null,
  "ordering": null,
  "total_magnetization": 0.0,
  "total_magnetization_normalized_vol": null,
  "total_magnetization_normalized_formula_units": null,
  "num_magnetic_sites": null,
  "num_unique_magnetic_sites": null,
  "types_of_magnetic_species": null,
  "bulk_modulus": null,
  "shear_modulus": null,
  "universal_anisotropy": null,
  "homogeneous_poisson": null,
  "e_total": null,
  "e_ionic": null,
  "e_electronic": null,
  "n": null,
  "e_ij_max": null,
  "weighted_surface_energy_EV_PER_ANG2": null,
  "weighted_surface_energy": null,
  "weighted_work_function": null,
  "surface_anisotropy": null,
  "shape_factor": null,
  "has_reconstructed": null,
  "possible_species": null,
  "has_props": null,
  "theoretical": null,
  "database_IDs": null,
  "fields_not_requested": [
    "builder_meta",
    "nsites",
    "elements",
    "nelements",
    "composition",
    "composition_reduced",
    "chemsys",
    "symmetry",
    "property_name",
    "deprecated",
    "deprecation_reasons",
    "last_updated",
    "origins",
    "warnings",
    "task_ids",
    "uncorrected_energy_per_atom",
    "equilibrium_reaction_energy_per_atom",
    "decomposes_to",
    "xas",
    "grain_boundaries",
    "cbm",
    "vbm",
    "is_gap_direct",
    "is_metal",
    "es_source_calc_id",
    "bandstructure",
    "dos",
    "dos_energy_up",
    "dos_energy_down",
    "is_magnetic",
    "ordering",
    "total_magnetization_normalized_vol",
    "total_magnetization_normalized_formula_units",
    "num_magnetic_sites",
    "num_unique_magnetic_sites",
    "types_of_magnetic_species",
    "bulk_modulus",
    "shear_modulus",
    "universal_anisotropy",
    "homogeneous_poisson",
    "e_total",
    "e_ionic",
    "e_electronic",
    "n",
    "e_ij_max",
    "weighted_surface_energy_EV_PER_ANG2",
    "weighted_surface_energy",
    "weighted_work_function",
    "surface_anisotropy",
    "shape_factor",
    "has_reconstructed",
    "possible_species",
    "has_props",
    "theoretical",
    "database_IDs"
  ]
}
