{
  "builder_meta": null,
  "nsites": null,
  "elements": null,
  "nelements": null,
  "composition": null,
  "composition_reduced": null,
  "formula_pretty": "HfOs2",
  "formula_anonymous": "AB2",
  "chemsys": null,
  "volume": 198.62323693286996,
  "density": 18.69183738234547,
  "density_atomic": 16.551936411072496,
  "symmetry": null,
  "property_name": null,
  "material_id": "mp-570960",
  "deprecated": null,
  "deprecation_reasons": null,
  "last_updated": null,
  "origins": null,
  "warnings": null,
  "structure": {
    "@module": "pymatgen.core.structure",
    "@class": "Structure",
    "charge": 0,
    "lattice": {
      "matrix": [
        [5.18161255, 0.0, -0.0],
        [-2.59080628, 4.48740843, 0.0],
        [-0.0, -0.0, 8.54219576]
      ],
      "pbc": [true, true, true],
      "a": 5.18161255,
      "b": 5.181612837536447,
      "c": 8.54219576,
      "alpha": 90.0,
      "beta": 90.0,
      "gamma": 119.99999822819035,
      "volume": 198.62323693286996
    },
    "properties": {},
    "sites": [
      {
        "species": [{ "element": "Hf", "occu": 1 }],
        "abc": [0.333333, 0.666667, 0.4329091],
        "properties": { "magmom": 0.0 },
        "label": "Hf",
        "xyz": [-2.594139610012647e-6, 2.99160711580281, 3.697994278485416]
      },
      {
        "species": [{ "element": "Hf", "occu": 1 }],
        "abc": [0.666667, 0.333333, 0.5670909],
        "properties": { "magmom": 0.0 },
        "label": "Hf",
        "xyz": [2.59080886413961, 1.49580131419719, 4.844201481514584]
      },
      {
        "species": [{ "element": "Hf", "occu": 1 }],
        "abc": [0.666667, 0.333333, 0.932909099999999],
        "properties": { "magmom": 0.0 },
        "label": "Hf",
        "xyz": [2.59080886413961, 1.49580131419719, 7.969092158485408]
      },
      {
        "species": [{ "element": "Hf", "occu": 1 }],
        "abc": [0.333333, 0.666667, 0.0670909],
        "properties": { "magmom": 0.0 },
        "label": "Hf",
        "xyz": [-2.594139610012647e-6, 2.99160711580281, 0.573103601514584]
      },
      {
        "species": [{ "element": "Os", "occu": 1 }],
        "abc": [0.17277591, 0.34555082, 0.75],
        "properties": { "magmom": 0.0 },
        "label": "Os",
        "xyz": [2.589078521020305e-6, 1.5506276626614126, 6.406646820000001]
      },
      {
        "species": [{ "element": "Os", "occu": 1 }],
        "abc": [0.17277591, 0.82722409, 0.75],
        "properties": { "magmom": 0.0 },
        "label": "Os",
        "xyz": [-1.2479195437456143, 3.712092354965079, 6.406646820000001]
      },
      {
        "species": [{ "element": "Os", "occu": 1 }],
        "abc": [0.34555082, 0.17277591, 0.25],
        "properties": { "magmom": 0.0 },
        "label": "Os",
        "xyz": [1.342881552914076, 0.7753160750349214, 2.13554894]
      },
      {
        "species": [{ "element": "Os", "occu": 1 }],
        "abc": [0.82722409, 0.65444918, 0.25],
        "properties": { "magmom": 0.0 },
        "label": "Os",
        "xyz": [2.590803680921479, 2.9367807673385875, 2.13554894]
      },
      {
        "species": [{ "element": "Os", "occu": 1 }],
        "abc": [0.65444918, 0.82722409, 0.75],
        "properties": { "magmom": 0.0 },
        "label": "Os",
        "xyz": [1.2479247170859238, 3.712092354965079, 6.406646820000001]
      },
      {
        "species": [{ "element": "Os", "occu": 1 }],
        "abc": [-0.0, -0.0, 0.0],
        "properties": { "magmom": -0.0 },
        "label": "Os",
        "xyz": [0.0, 0.0, 0.0]
      },
      {
        "species": [{ "element": "Os", "occu": 1 }],
        "abc": [0.82722409, 0.17277591, 0.25],
        "properties": { "magmom": 0.0 },
        "label": "Os",
        "xyz": [3.838725813745614, 0.7753160750349214, 2.13554894]
      },
      {
        "species": [{ "element": "Os", "occu": 1 }],
        "abc": [-0.0, -0.0, 0.5],
        "properties": { "magmom": -0.0 },
        "label": "Os",
        "xyz": [0.0, 0.0, 4.27109788]
      }
    ]
  },
  "task_ids": null,
  "uncorrected_energy_per_atom": null,
  "energy_per_atom": -50.8330609,
  "formation_energy_per_atom": -0.45910320333333204,
  "energy_above_hull": 0.10483931333333601,
  "is_stable": false,
  "equilibrium_reaction_energy_per_atom": null,
  "decomposes_to": null,
  "xas": null,
  "grain_boundaries": null,
  "band_gap": 0.0,
  "cbm": null,
  "vbm": null,
  "efermi": 7.08313592,
  "is_gap_direct": null,
  "is_metal": null,
  "es_source_calc_id": null,
  "bandstructure": null,
  "dos": null,
  "dos_energy_up": null,
  "dos_energy_down": null,
  "is_magnetic": null,
  "ordering": null,
  "total_magnetization": 1e-7,
  "total_magnetization_normalized_vol": null,
  "total_magnetization_normalized_formula_units": null,
  "num_magnetic_sites": null,
  "num_unique_magnetic_sites": null,
  "types_of_magnetic_species": null,
  "bulk_modulus": null,
  "shear_modulus": null,
  "universal_anisotropy": null,
  "homogeneous_poisson": null,
  "e_total": null,
  "e_ionic": null,
  "e_electronic": null,
  "n": null,
  "e_ij_max": null,
  "weighted_surface_energy_EV_PER_ANG2": null,
  "weighted_surface_energy": null,
  "weighted_work_function": null,
  "surface_anisotropy": null,
  "shape_factor": null,
  "has_reconstructed": null,
  "possible_species": null,
  "has_props": null,
  "theoretical": null,
  "database_IDs": null,
  "fields_not_requested": [
    "builder_meta",
    "nsites",
    "elements",
    "nelements",
    "composition",
    "composition_reduced",
    "chemsys",
    "symmetry",
    "property_name",
    "deprecated",
    "deprecation_reasons",
    "last_updated",
    "origins",
    "warnings",
    "task_ids",
    "uncorrected_energy_per_atom",
    "equilibrium_reaction_energy_per_atom",
    "decomposes_to",
    "xas",
    "grain_boundaries",
    "cbm",
    "vbm",
    "is_gap_direct",
    "is_metal",
    "es_source_calc_id",
    "bandstructure",
    "dos",
    "dos_energy_up",
    "dos_energy_down",
    "is_magnetic",
    "ordering",
    "total_magnetization_normalized_vol",
    "total_magnetization_normalized_formula_units",
    "num_magnetic_sites",
    "num_unique_magnetic_sites",
    "types_of_magnetic_species",
    "bulk_modulus",
    "shear_modulus",
    "universal_anisotropy",
    "homogeneous_poisson",
    "e_total",
    "e_ionic",
    "e_electronic",
    "n",
    "e_ij_max",
    "weighted_surface_energy_EV_PER_ANG2",
    "weighted_surface_energy",
    "weighted_work_function",
    "surface_anisotropy",
    "shape_factor",
    "has_reconstructed",
    "possible_species",
    "has_props",
    "theoretical",
    "database_IDs"
  ]
}
