{
  "builder_meta": null,
  "nsites": null,
  "elements": null,
  "nelements": null,
  "composition": null,
  "composition_reduced": null,
  "formula_pretty": "HfP2",
  "formula_anonymous": "AB2",
  "chemsys": null,
  "volume": 195.90414570187977,
  "density": 8.152066414891475,
  "density_atomic": 16.32534547515665,
  "symmetry": null,
  "property_name": null,
  "material_id": "mp-1102018",
  "deprecated": null,
  "deprecation_reasons": null,
  "last_updated": null,
  "origins": null,
  "warnings": null,
  "structure": {
    "@module": "pymatgen.core.structure",
    "@class": "Structure",
    "charge": 0,
    "lattice": {
      "matrix": [
        [0.0, -3.49786185, 0.0],
        [-6.47301606, 0.0, 0.0],
        [0.0, 0.0, -8.65235419]
      ],
      "pbc": [true, true, true],
      "a": 3.49786185,
      "b": 6.47301606,
      "c": 8.65235419,
      "alpha": 90.0,
      "beta": 90.0,
      "gamma": 90.0,
      "volume": 195.90414570187977
    },
    "properties": {},
    "sites": [
      {
        "species": [{ "element": "Hf", "occu": 1 }],
        "abc": [0.75, 0.22049659, 0.66344498],
        "properties": { "magmom": -0.0 },
        "label": "Hf",
        "xyz": [-1.4272779682452355, -2.6233963875, -5.740360952537467]
      },
      {
        "species": [{ "element": "Hf", "occu": 1 }],
        "abc": [0.75, 0.72049659, 0.83655502],
        "properties": { "magmom": -0.0 },
        "label": "Hf",
        "xyz": [-4.663785998245236, -2.6233963875, -7.238170332462534]
      },
      {
        "species": [{ "element": "Hf", "occu": 1 }],
        "abc": [0.25, 0.77950341, 0.33655502],
        "properties": { "magmom": -0.0 },
        "label": "Hf",
        "xyz": [-5.045738091754765, -0.8744654625, -2.911993237462534]
      },
      {
        "species": [{ "element": "Hf", "occu": 1 }],
        "abc": [0.25, 0.27950341, 0.16344498],
        "properties": { "magmom": -0.0 },
        "label": "Hf",
        "xyz": [-1.8092300617547645, -0.8744654625, -1.4141838575374661]
      },
      {
        "species": [{ "element": "P", "occu": 1 }],
        "abc": [0.75, 0.60821558, 0.53936001],
        "properties": { "magmom": -0.0 },
        "label": "P",
        "xyz": [-3.9369892172822145, -2.6233963875, -4.666733842441942]
      },
      {
        "species": [{ "element": "P", "occu": 1 }],
        "abc": [0.75, 0.10821558, 0.96063999],
        "properties": { "magmom": -0.0 },
        "label": "P",
        "xyz": [-0.7004811872822149, -2.6233963875, -8.311797442558058]
      },
      {
        "species": [{ "element": "P", "occu": 1 }],
        "abc": [0.25, 0.39178442, 0.46063999],
        "properties": { "magmom": -0.0 },
        "label": "P",
        "xyz": [-2.5360268427177854, -0.8744654625, -3.9856203475580583]
      },
      {
        "species": [{ "element": "P", "occu": 1 }],
        "abc": [0.25, 0.89178442, 0.03936001],
        "properties": { "magmom": -0.0 },
        "label": "P",
        "xyz": [-5.772534872717785, -0.8744654625, -0.3405567474419419]
      },
      {
        "species": [{ "element": "P", "occu": 1 }],
        "abc": [0.75, 0.5924256800000001, 0.14409275],
        "properties": { "magmom": 0.0 },
        "label": "P",
        "xyz": [-3.834780940996421, -2.6233963875, -1.2467415092111225]
      },
      {
        "species": [{ "element": "P", "occu": 1 }],
        "abc": [0.75, 0.09242568, 0.35590725],
        "properties": { "magmom": 0.0 },
        "label": "P",
        "xyz": [-0.5982729109964208, -2.6233963875, -3.0794355857888775]
      },
      {
        "species": [{ "element": "P", "occu": 1 }],
        "abc": [0.25, 0.40757432, 0.85590725],
        "properties": { "magmom": 0.0 },
        "label": "P",
        "xyz": [-2.6382351190035793, -0.8744654625, -7.405612680788878]
      },
      {
        "species": [{ "element": "P", "occu": 1 }],
        "abc": [0.25, 0.90757432, 0.64409275],
        "properties": { "magmom": 0.0 },
        "label": "P",
        "xyz": [-5.87474314900358, -0.8744654625, -5.5729186042111225]
      }
    ]
  },
  "task_ids": null,
  "uncorrected_energy_per_atom": null,
  "energy_per_atom": -22.053583500000002,
  "formation_energy_per_atom": -1.001727495317463,
  "energy_above_hull": 0.0,
  "is_stable": true,
  "equilibrium_reaction_energy_per_atom": null,
  "decomposes_to": null,
  "xas": null,
  "grain_boundaries": null,
  "band_gap": 0.0,
  "cbm": null,
  "vbm": null,
  "efermi": 8.08807558,
  "is_gap_direct": null,
  "is_metal": null,
  "es_source_calc_id": null,
  "bandstructure": null,
  "dos": null,
  "dos_energy_up": null,
  "dos_energy_down": null,
  "is_magnetic": null,
  "ordering": null,
  "total_magnetization": 0.0,
  "total_magnetization_normalized_vol": null,
  "total_magnetization_normalized_formula_units": null,
  "num_magnetic_sites": null,
  "num_unique_magnetic_sites": null,
  "types_of_magnetic_species": null,
  "bulk_modulus": null,
  "shear_modulus": null,
  "universal_anisotropy": null,
  "homogeneous_poisson": null,
  "e_total": null,
  "e_ionic": null,
  "e_electronic": null,
  "n": null,
  "e_ij_max": null,
  "weighted_surface_energy_EV_PER_ANG2": null,
  "weighted_surface_energy": null,
  "weighted_work_function": null,
  "surface_anisotropy": null,
  "shape_factor": null,
  "has_reconstructed": null,
  "possible_species": null,
  "has_props": null,
  "theoretical": null,
  "database_IDs": null,
  "fields_not_requested": [
    "builder_meta",
    "nsites",
    "elements",
    "nelements",
    "composition",
    "composition_reduced",
    "chemsys",
    "symmetry",
    "property_name",
    "deprecated",
    "deprecation_reasons",
    "last_updated",
    "origins",
    "warnings",
    "task_ids",
    "uncorrected_energy_per_atom",
    "equilibrium_reaction_energy_per_atom",
    "decomposes_to",
    "xas",
    "grain_boundaries",
    "cbm",
    "vbm",
    "is_gap_direct",
    "is_metal",
    "es_source_calc_id",
    "bandstructure",
    "dos",
    "dos_energy_up",
    "dos_energy_down",
    "is_magnetic",
    "ordering",
    "total_magnetization_normalized_vol",
    "total_magnetization_normalized_formula_units",
    "num_magnetic_sites",
    "num_unique_magnetic_sites",
    "types_of_magnetic_species",
    "bulk_modulus",
    "shear_modulus",
    "universal_anisotropy",
    "homogeneous_poisson",
    "e_total",
    "e_ionic",
    "e_electronic",
    "n",
    "e_ij_max",
    "weighted_surface_energy_EV_PER_ANG2",
    "weighted_surface_energy",
    "weighted_work_function",
    "surface_anisotropy",
    "shape_factor",
    "has_reconstructed",
    "possible_species",
    "has_props",
    "theoretical",
    "database_IDs"
  ]
}
