{"builder_meta": null, "nsites": null, "elements": null, "nelements": null, "composition": null, "composition_reduced": null, "formula_pretty": "HfPd3", "formula_anonymous": "AB3", "chemsys": null, "volume": 251.90212172169248, "density": 13.124674214746374, "density_atomic": 15.74388260760578, "symmetry": null, "property_name": null, "material_id": "mp-11453", "deprecated": null, "deprecation_reasons": null, "last_updated": null, "origins": null, "warnings": null, "structure": {"@module": "pymatgen.core.structure", "@class": "Structure", "charge": 0, "lattice": {"matrix": [[5.61909437, 1e-08, 0.0], [-2.80954617, 4.86627976, -0.0], [0.0, 0.0, 9.21230751]], "pbc": [true, true, true], "a": 5.61909437, "b": 5.619094979082248, "c": 9.21230751, "alpha": 90.0, "beta": 90.0, "gamma": 119.99998436170068, "volume": 251.90212172169248}, "properties": {}, "sites": [{"species": [{"element": "Hf", "occu": 1}], "abc": [0.666667, 0.333333, 0.75], "properties": {"magmom": -0.0}, "label": "Hf", "xyz": [2.80955033288018, 1.6220916379067503, 6.9092306325]}, {"species": [{"element": "Hf", "occu": 1}], "abc": [0.333333, 0.666667, 0.25], "properties": {"magmom": -0.0}, "label": "Hf", "xyz": [-2.132880180027996e-06, 3.2441881320932504, 2.3030768775]}, {"species": [{"element": "Hf", "occu": 1}], "abc": [-0.0, -0.0, 0.5], "properties": {"magmom": 0.0}, "label": "Hf", "xyz": [0.0, 0.0, 4.606153755]}, {"species": [{"element": "Hf", "occu": 1}], "abc": [0.0, 0.0, -0.0], "properties": {"magmom": 0.0}, "label": "Hf", "xyz": [0.0, 0.0, 0.0]}, {"species": [{"element": "Pd", "occu": 1}], "abc": [0.16896751000000002, 0.33793702000000003, 0.75], "properties": {"magmom": 0.0}, "label": "Pd", "xyz": [-5.276088294703385e-06, 1.6444960822703905, 6.9092306325]}, {"species": [{"element": "Pd", "occu": 1}], "abc": [0.83103249, 0.16896751000000002, 0.25], "properties": {"magmom": 0.0}, "label": "Pd", "xyz": [4.194927965271145, 0.8222431823209226, 2.3030768775]}, {"species": [{"element": "Pd", "occu": 1}], "abc": [0.33793702000000003, 0.16896751000000002, 0.25], "properties": {"magmom": 0.0}, "label": "Pd", "xyz": [1.4241779859216408, 0.822243177389968, 2.3030768775]}, {"species": [{"element": "Pd", "occu": 1}], "abc": [0.66206298, 0.83103249, 0.75], "properties": {"magmom": 0.0}, "label": "Pd", "xyz": [1.385370214078359, 4.044036592610032, 6.9092306325]}, {"species": [{"element": "Pd", "occu": 1}], "abc": [0.5, -0.0, -0.0], "properties": {"magmom": -0.0}, "label": "Pd", "xyz": [2.809547185, 5e-09, 0.0]}, {"species": [{"element": "Pd", "occu": 1}], "abc": [0.5, 0.5, 0.5], "properties": {"magmom": -0.0}, "label": "Pd", "xyz": [1.4047741, 2.433139885, 4.606153755]}, {"species": [{"element": "Pd", "occu": 1}], "abc": [-0.0, 0.5, 0.5], "properties": {"magmom": -0.0}, "label": "Pd", "xyz": [-1.404773085, 2.43313988, 4.606153755]}, {"species": [{"element": "Pd", "occu": 1}], "abc": [0.0, 0.5, -0.0], "properties": {"magmom": -0.0}, "label": "Pd", "xyz": [-1.404773085, 2.43313988, 0.0]}, {"species": [{"element": "Pd", "occu": 1}], "abc": [0.5, 0.5, -0.0], "properties": {"magmom": -0.0}, "label": "Pd", "xyz": [1.4047741, 2.433139885, 0.0]}, {"species": [{"element": "Pd", "occu": 1}], "abc": [0.5, 0.0, 0.5], "properties": {"magmom": -0.0}, "label": "Pd", "xyz": [2.809547185, 5e-09, 4.606153755]}, {"species": [{"element": "Pd", "occu": 1}], "abc": [0.83103249, 0.66206298, 0.25], "properties": {"magmom": 0.0}, "label": "Pd", "xyz": [2.8095534760882943, 3.2217836877296095, 2.3030768775]}, {"species": [{"element": "Pd", "occu": 1}], "abc": [0.16896751000000002, 0.83103249, 0.75], "properties": {"magmom": 0.0}, "label": "Pd", "xyz": [-1.3853797652711446, 4.044036587679078, 6.9092306325]}]}, "task_ids": null, "uncorrected_energy_per_atom": null, "energy_per_atom": -29.404665665, "formation_energy_per_atom": -0.8964716099999991, "energy_above_hull": 0.0, "is_stable": true, "equilibrium_reaction_energy_per_atom": null, "decomposes_to": null, "xas": null, "grain_boundaries": null, "band_gap": 0.0, "cbm": null, "vbm": null, "efermi": 6.0828782, "is_gap_direct": null, "is_metal": null, "es_source_calc_id": null, "bandstructure": null, "dos": null, "dos_energy_up": null, "dos_energy_down": null, "is_magnetic": null, "ordering": null, "total_magnetization": 0.0, "total_magnetization_normalized_vol": null, "total_magnetization_normalized_formula_units": null, "num_magnetic_sites": null, "num_unique_magnetic_sites": null, "types_of_magnetic_species": null, "bulk_modulus": null, "shear_modulus": null, "universal_anisotropy": null, "homogeneous_poisson": null, "e_total": null, "e_ionic": null, "e_electronic": null, "n": null, "e_ij_max": null, "weighted_surface_energy_EV_PER_ANG2": null, "weighted_surface_energy": null, "weighted_work_function": null, "surface_anisotropy": null, "shape_factor": null, "has_reconstructed": null, "possible_species": null, "has_props": null, "theoretical": null, "database_IDs": null, "fields_not_requested": ["builder_meta", "nsites", "elements", "nelements", "composition", "composition_reduced", "chemsys", "symmetry", "property_name", "deprecated", "deprecation_reasons", "last_updated", "origins", "warnings", "task_ids", "uncorrected_energy_per_atom", "equilibrium_reaction_energy_per_atom", "decomposes_to", "xas", "grain_boundaries", "cbm", "vbm", "is_gap_direct", "is_metal", "es_source_calc_id", "bandstructure", "dos", "dos_energy_up", "dos_energy_down", "is_magnetic", "ordering", "total_magnetization_normalized_vol", "total_magnetization_normalized_formula_units", "num_magnetic_sites", "num_unique_magnetic_sites", "types_of_magnetic_species", "bulk_modulus", "shear_modulus", "universal_anisotropy", "homogeneous_poisson", "e_total", "e_ionic", "e_electronic", "n", "e_ij_max", "weighted_surface_energy_EV_PER_ANG2", "weighted_surface_energy", "weighted_work_function", "surface_anisotropy", "shape_factor", "has_reconstructed", "possible_species", "has_props", "theoretical", "database_IDs"]}