{"builder_meta": null, "nsites": null, "elements": null, "nelements": null, "composition": null, "composition_reduced": null, "formula_pretty": "HfPd", "formula_anonymous": "AB", "chemsys": null, "volume": 73.46188512781328, "density": 12.880262591733706, "density_atomic": 18.36547128195332, "symmetry": null, "property_name": null, "material_id": "mp-1007692", "deprecated": null, "deprecation_reasons": null, "last_updated": null, "origins": null, "warnings": null, "structure": {"@module": "pymatgen.core.structure", "@class": "Structure", "charge": 0, "lattice": {"matrix": [[-3.28092964, 1e-08, -0.0], [-0.0, 0.0, -4.3485], [-1.64046381, -5.14903302, 0.0]], "pbc": [true, true, true], "a": 3.28092964, "b": 4.3485, "c": 5.404041316734175, "alpha": 90.0, "beta": 72.32830418790412, "gamma": 90.0, "volume": 73.46188512781328}, "properties": {}, "sites": [{"species": [{"element": "Hf", "occu": 1}], "abc": [0.142514199999999, 0.75, 0.7149746100000001], "properties": {"magmom": 0.0}, "label": "Hf", "xyz": [-1.6404690356747489, -3.6814278739264807, -3.2613749999999997]}, {"species": [{"element": "Hf", "occu": 1}], "abc": [0.8574868, 0.25, 0.28502539], "properties": {"magmom": 0.0}, "label": "Hf", "xyz": [-3.280927695254888, -1.4676051360735098, -1.087125]}, {"species": [{"element": "Pd", "occu": 1}], "abc": [0.41084691, 0.75, 0.17830518], "properties": {"magmom": -0.0}, "label": "Pd", "xyz": [-1.6404629994469482, -0.9180992553485745, -3.2613749999999997]}, {"species": [{"element": "Pd", "occu": 1}], "abc": [0.58915309, 0.25, 0.82169482], "properties": {"magmom": -0.0}, "label": "Pd", "xyz": [-3.2809304505530523, -4.230933754651426, -1.087125]}]}, "task_ids": null, "uncorrected_energy_per_atom": null, "energy_per_atom": -34.7622452775, "formation_energy_per_atom": -0.7063107775, "energy_above_hull": 0.0, "is_stable": true, "equilibrium_reaction_energy_per_atom": null, "decomposes_to": null, "xas": null, "grain_boundaries": null, "band_gap": 0.0, "cbm": null, "vbm": null, "efermi": 5.59261158, "is_gap_direct": null, "is_metal": null, "es_source_calc_id": null, "bandstructure": null, "dos": null, "dos_energy_up": null, "dos_energy_down": null, "is_magnetic": null, "ordering": null, "total_magnetization": 1e-07, "total_magnetization_normalized_vol": null, "total_magnetization_normalized_formula_units": null, "num_magnetic_sites": null, "num_unique_magnetic_sites": null, "types_of_magnetic_species": null, "bulk_modulus": null, "shear_modulus": null, "universal_anisotropy": null, "homogeneous_poisson": null, "e_total": null, "e_ionic": null, "e_electronic": null, "n": null, "e_ij_max": null, "weighted_surface_energy_EV_PER_ANG2": null, "weighted_surface_energy": null, "weighted_work_function": null, "surface_anisotropy": null, "shape_factor": null, "has_reconstructed": null, "possible_species": null, "has_props": null, "theoretical": null, "database_IDs": null, "fields_not_requested": ["builder_meta", "nsites", "elements", "nelements", "composition", "composition_reduced", "chemsys", "symmetry", "property_name", "deprecated", "deprecation_reasons", "last_updated", "origins", "warnings", "task_ids", "uncorrected_energy_per_atom", "equilibrium_reaction_energy_per_atom", "decomposes_to", "xas", "grain_boundaries", "cbm", "vbm", "is_gap_direct", "is_metal", "es_source_calc_id", "bandstructure", "dos", "dos_energy_up", "dos_energy_down", "is_magnetic", "ordering", "total_magnetization_normalized_vol", "total_magnetization_normalized_formula_units", "num_magnetic_sites", "num_unique_magnetic_sites", "types_of_magnetic_species", "bulk_modulus", "shear_modulus", "universal_anisotropy", "homogeneous_poisson", "e_total", "e_ionic", "e_electronic", "n", "e_ij_max", "weighted_surface_energy_EV_PER_ANG2", "weighted_surface_energy", "weighted_work_function", "surface_anisotropy", "shape_factor", "has_reconstructed", "possible_species", "has_props", "theoretical", "database_IDs"]}