{
  "builder_meta": null,
  "nsites": null,
  "elements": null,
  "nelements": null,
  "composition": null,
  "composition_reduced": null,
  "formula_pretty": "HfPd5",
  "formula_anonymous": "AB5",
  "chemsys": null,
  "volume": 93.39388901134596,
  "density": 12.634257635335715,
  "density_atomic": 15.56564816855766,
  "symmetry": null,
  "property_name": null,
  "material_id": "mp-865166",
  "deprecated": null,
  "deprecation_reasons": null,
  "last_updated": null,
  "origins": null,
  "warnings": null,
  "structure": {
    "@module": "pymatgen.core.structure",
    "@class": "Structure",
    "charge": 0,
    "lattice": {
      "matrix": [
        [-1e-8, -3.99430556, 0.0],
        [5.86214793, 1.9971538, 0.0],
        [0.0, 0.0, 3.98859924]
      ],
      "pbc": [true, true, true],
      "a": 3.99430556,
      "b": 6.193012324713856,
      "c": 3.98859924,
      "alpha": 90.0,
      "beta": 90.0,
      "gamma": 108.81327620429099,
      "volume": 93.39388901134596
    },
    "properties": {},
    "sites": [
      {
        "species": [{ "element": "Hf", "occu": 1 }],
        "abc": [0.0, 0.0, 0.0],
        "properties": { "magmom": -0.0 },
        "label": "Hf",
        "xyz": [0.0, 0.0, 0.0]
      },
      {
        "species": [{ "element": "Pd", "occu": 1 }],
        "abc": [0.66341868, 0.32683636, 0.0],
        "properties": { "magmom": 0.0 },
        "label": "Pd",
        "xyz": [1.915963084588548, -1.997154443779693, 0.0]
      },
      {
        "species": [{ "element": "Pd", "occu": 1 }],
        "abc": [0.33658232, 0.67316464, 0.0],
        "properties": { "magmom": 0.0 },
        "label": "Pd",
        "xyz": [3.9461906975593717, 6.866279327333302e-7, 0.0]
      },
      {
        "species": [{ "element": "Pd", "occu": 1 }],
        "abc": [0.5, -0.0, 0.499998],
        "properties": { "magmom": -0.0 },
        "label": "Pd",
        "xyz": [-5e-9, -1.99715278, 1.99429164280152]
      },
      {
        "species": [{ "element": "Pd", "occu": 1 }],
        "abc": [0.16583394, 0.33166887, 0.499998],
        "properties": { "magmom": -0.0 },
        "label": "Pd",
        "xyz": [1.9442919780575996, 2.315483499493176e-6, 1.99429164280152]
      },
      {
        "species": [{ "element": "Pd", "occu": 1 }],
        "abc": [0.83416606, 0.66833113, 0.499998],
        "properties": { "magmom": -0.0 },
        "label": "Pd",
        "xyz": [3.9178559419424, -1.9971540754834998, 1.99429164280152]
      }
    ]
  },
  "task_ids": null,
  "uncorrected_energy_per_atom": null,
  "energy_per_atom": -27.309110996666664,
  "formation_energy_per_atom": -0.650163756666662,
  "energy_above_hull": 0.0,
  "is_stable": true,
  "equilibrium_reaction_energy_per_atom": null,
  "decomposes_to": null,
  "xas": null,
  "grain_boundaries": null,
  "band_gap": 0.0,
  "cbm": null,
  "vbm": null,
  "efermi": 4.97934715,
  "is_gap_direct": null,
  "is_metal": null,
  "es_source_calc_id": null,
  "bandstructure": null,
  "dos": null,
  "dos_energy_up": null,
  "dos_energy_down": null,
  "is_magnetic": null,
  "ordering": null,
  "total_magnetization": 0.0,
  "total_magnetization_normalized_vol": null,
  "total_magnetization_normalized_formula_units": null,
  "num_magnetic_sites": null,
  "num_unique_magnetic_sites": null,
  "types_of_magnetic_species": null,
  "bulk_modulus": null,
  "shear_modulus": null,
  "universal_anisotropy": null,
  "homogeneous_poisson": null,
  "e_total": null,
  "e_ionic": null,
  "e_electronic": null,
  "n": null,
  "e_ij_max": null,
  "weighted_surface_energy_EV_PER_ANG2": null,
  "weighted_surface_energy": null,
  "weighted_work_function": null,
  "surface_anisotropy": null,
  "shape_factor": null,
  "has_reconstructed": null,
  "possible_species": null,
  "has_props": null,
  "theoretical": null,
  "database_IDs": null,
  "fields_not_requested": [
    "builder_meta",
    "nsites",
    "elements",
    "nelements",
    "composition",
    "composition_reduced",
    "chemsys",
    "symmetry",
    "property_name",
    "deprecated",
    "deprecation_reasons",
    "last_updated",
    "origins",
    "warnings",
    "task_ids",
    "uncorrected_energy_per_atom",
    "equilibrium_reaction_energy_per_atom",
    "decomposes_to",
    "xas",
    "grain_boundaries",
    "cbm",
    "vbm",
    "is_gap_direct",
    "is_metal",
    "es_source_calc_id",
    "bandstructure",
    "dos",
    "dos_energy_up",
    "dos_energy_down",
    "is_magnetic",
    "ordering",
    "total_magnetization_normalized_vol",
    "total_magnetization_normalized_formula_units",
    "num_magnetic_sites",
    "num_unique_magnetic_sites",
    "types_of_magnetic_species",
    "bulk_modulus",
    "shear_modulus",
    "universal_anisotropy",
    "homogeneous_poisson",
    "e_total",
    "e_ionic",
    "e_electronic",
    "n",
    "e_ij_max",
    "weighted_surface_energy_EV_PER_ANG2",
    "weighted_surface_energy",
    "weighted_work_function",
    "surface_anisotropy",
    "shape_factor",
    "has_reconstructed",
    "possible_species",
    "has_props",
    "theoretical",
    "database_IDs"
  ]
}
