{"builder_meta": null, "nsites": null, "elements": null, "nelements": null, "composition": null, "composition_reduced": null, "formula_pretty": "HfPt4", "formula_anonymous": "AB4", "chemsys": null, "volume": 318.26889412543903, "density": 20.010350498711215, "density_atomic": 15.913444706271951, "symmetry": null, "property_name": null, "material_id": "mp-1224475", "deprecated": null, "deprecation_reasons": null, "last_updated": null, "origins": null, "warnings": null, "structure": {"@module": "pymatgen.core.structure", "@class": "Structure", "charge": 0, "lattice": {"matrix": [[3.9850513, 0.0, 0.0], [-0.0, 3.9850513, 0.0], [-0.0, 0.0, 20.04132183]], "pbc": [true, true, true], "a": 3.9850513, "b": 3.9850513, "c": 20.04132183, "alpha": 90.0, "beta": 90.0, "gamma": 90.0, "volume": 318.26889412543903}, "properties": {}, "sites": [{"species": [{"element": "Hf", "occu": 1}], "abc": [0.0, 0.0, 0.19593168], "properties": {"magmom": -0.0}, "label": "Hf", "xyz": [0.0, 0.0, 3.9267298555725745]}, {"species": [{"element": "Hf", "occu": 1}], "abc": [0.0, 0.0, 0.39912248], "properties": {"magmom": 0.0}, "label": "Hf", "xyz": [0.0, 0.0, 7.998942071267739]}, {"species": [{"element": "Hf", "occu": 1}], "abc": [-0.0, -0.0, 0.60087752], "properties": {"magmom": 0.0}, "label": "Hf", "xyz": [0.0, 0.0, 12.042379758732263]}, {"species": [{"element": "Hf", "occu": 1}], "abc": [-0.0, -0.0, 0.8040683200000001], "properties": {"magmom": -0.0}, "label": "Hf", "xyz": [0.0, 0.0, 16.114591974427427]}, {"species": [{"element": "Pt", "occu": 1}], "abc": [0.5, 0.5, -0.0], "properties": {"magmom": -0.0}, "label": "Pt", "xyz": [1.99252565, 1.99252565, 0.0]}, {"species": [{"element": "Pt", "occu": 1}], "abc": [0.5, 0.5, 0.20040292], "properties": {"magmom": -0.0}, "label": "Pt", "xyz": [1.99252565, 1.99252565, 4.016339415391744]}, {"species": [{"element": "Pt", "occu": 1}], "abc": [0.5, 0.5, 0.4000626], "properties": {"magmom": -0.0}, "label": "Pt", "xyz": [1.99252565, 1.99252565, 8.017783318746558]}, {"species": [{"element": "Pt", "occu": 1}], "abc": [0.5, 0.5, 0.5999374], "properties": {"magmom": -0.0}, "label": "Pt", "xyz": [1.99252565, 1.99252565, 12.023538511253442]}, {"species": [{"element": "Pt", "occu": 1}], "abc": [0.5, 0.5, 0.7995970800000001], "properties": {"magmom": -0.0}, "label": "Pt", "xyz": [1.99252565, 1.99252565, 16.02498241460826]}, {"species": [{"element": "Pt", "occu": 1}], "abc": [0.5, -0.0, 0.10124612000000001], "properties": {"magmom": -0.0}, "label": "Pt", "xyz": [1.99252565, 0.0, 2.0291060749587997]}, {"species": [{"element": "Pt", "occu": 1}], "abc": [0.5, 0.0, 0.30007442], "properties": {"magmom": -0.0}, "label": "Pt", "xyz": [1.99252565, 0.0, 6.013888024170589]}, {"species": [{"element": "Pt", "occu": 1}], "abc": [0.5, 0.0, 0.5], "properties": {"magmom": -0.0}, "label": "Pt", "xyz": [1.99252565, 0.0, 10.020660915]}, {"species": [{"element": "Pt", "occu": 1}], "abc": [0.5, -0.0, 0.69992558], "properties": {"magmom": -0.0}, "label": "Pt", "xyz": [1.99252565, 0.0, 14.027433805829412]}, {"species": [{"element": "Pt", "occu": 1}], "abc": [0.5, 0.0, 0.89875388], "properties": {"magmom": -0.0}, "label": "Pt", "xyz": [1.99252565, 0.0, 18.0122157550412]}, {"species": [{"element": "Pt", "occu": 1}], "abc": [-0.0, 0.5, 0.10124612000000001], "properties": {"magmom": -0.0}, "label": "Pt", "xyz": [0.0, 1.99252565, 2.0291060749587997]}, {"species": [{"element": "Pt", "occu": 1}], "abc": [0.0, 0.5, 0.30007442], "properties": {"magmom": -0.0}, "label": "Pt", "xyz": [0.0, 1.99252565, 6.013888024170589]}, {"species": [{"element": "Pt", "occu": 1}], "abc": [-0.0, 0.5, 0.5], "properties": {"magmom": -0.0}, "label": "Pt", "xyz": [0.0, 1.99252565, 10.020660915]}, {"species": [{"element": "Pt", "occu": 1}], "abc": [-0.0, 0.5, 0.69992558], "properties": {"magmom": -0.0}, "label": "Pt", "xyz": [0.0, 1.99252565, 14.027433805829412]}, {"species": [{"element": "Pt", "occu": 1}], "abc": [0.0, 0.5, 0.89875388], "properties": {"magmom": -0.0}, "label": "Pt", "xyz": [0.0, 1.99252565, 18.0122157550412]}, {"species": [{"element": "Pt", "occu": 1}], "abc": [-0.0, 0.0, -0.0], "properties": {"magmom": -0.0}, "label": "Pt", "xyz": [0.0, 0.0, 0.0]}]}, "task_ids": null, "uncorrected_energy_per_atom": null, "energy_per_atom": -51.174911322999996, "formation_energy_per_atom": -0.9544547249999991, "energy_above_hull": 0.0, "is_stable": true, "equilibrium_reaction_energy_per_atom": null, "decomposes_to": null, "xas": null, "grain_boundaries": null, "band_gap": 0.0, "cbm": null, "vbm": null, "efermi": 7.27176836, "is_gap_direct": null, "is_metal": null, "es_source_calc_id": null, "bandstructure": null, "dos": null, "dos_energy_up": null, "dos_energy_down": null, "is_magnetic": null, "ordering": null, "total_magnetization": 2e-07, "total_magnetization_normalized_vol": null, "total_magnetization_normalized_formula_units": null, "num_magnetic_sites": null, "num_unique_magnetic_sites": null, "types_of_magnetic_species": null, "bulk_modulus": null, "shear_modulus": null, "universal_anisotropy": null, "homogeneous_poisson": null, "e_total": null, "e_ionic": null, "e_electronic": null, "n": null, "e_ij_max": null, "weighted_surface_energy_EV_PER_ANG2": null, "weighted_surface_energy": null, "weighted_work_function": null, "surface_anisotropy": null, "shape_factor": null, "has_reconstructed": null, "possible_species": null, "has_props": null, "theoretical": null, "database_IDs": null, "fields_not_requested": ["builder_meta", "nsites", "elements", "nelements", "composition", "composition_reduced", "chemsys", "symmetry", "property_name", "deprecated", "deprecation_reasons", "last_updated", "origins", "warnings", "task_ids", "uncorrected_energy_per_atom", "equilibrium_reaction_energy_per_atom", "decomposes_to", "xas", "grain_boundaries", "cbm", "vbm", "is_gap_direct", "is_metal", "es_source_calc_id", "bandstructure", "dos", "dos_energy_up", "dos_energy_down", "is_magnetic", "ordering", "total_magnetization_normalized_vol", "total_magnetization_normalized_formula_units", "num_magnetic_sites", "num_unique_magnetic_sites", "types_of_magnetic_species", "bulk_modulus", "shear_modulus", "universal_anisotropy", "homogeneous_poisson", "e_total", "e_ionic", "e_electronic", "n", "e_ij_max", "weighted_surface_energy_EV_PER_ANG2", "weighted_surface_energy", "weighted_work_function", "surface_anisotropy", "shape_factor", "has_reconstructed", "possible_species", "has_props", "theoretical", "database_IDs"]}