{
  "builder_meta": null,
  "nsites": null,
  "elements": null,
  "nelements": null,
  "composition": null,
  "composition_reduced": null,
  "formula_pretty": "HfPt",
  "formula_anonymous": "AB",
  "chemsys": null,
  "volume": 74.12824414804078,
  "density": 16.73678443069999,
  "density_atomic": 18.532061037010195,
  "symmetry": null,
  "property_name": null,
  "material_id": "mp-1007691",
  "deprecated": null,
  "deprecation_reasons": null,
  "last_updated": null,
  "origins": null,
  "warnings": null,
  "structure": {
    "@module": "pymatgen.core.structure",
    "@class": "Structure",
    "charge": 0,
    "lattice": {
      "matrix": [
        [-3.36970902, -0.0, 0.0],
        [0.0, 0.0, -4.2631372],
        [-1.68485553, -5.16014616, 0.0]
      ],
      "pbc": [true, true, true],
      "a": 3.36970902,
      "b": 4.2631372,
      "c": 5.428245255101719,
      "alpha": 90.0,
      "beta": 71.91745920907084,
      "gamma": 90.0,
      "volume": 74.12824414804078
    },
    "properties": {},
    "sites": [
      {
        "species": [{ "element": "Hf", "occu": 1 }],
        "abc": [0.14230623, 0.75, 0.71538754],
        "properties": { "magmom": 0.0 },
        "label": "Hf",
        "xyz": [-1.6848552396952912, -3.6915042674428467, -3.1973529000000003]
      },
      {
        "species": [{ "element": "Hf", "occu": 1 }],
        "abc": [0.85769377, 0.25, 0.28461246],
        "properties": { "magmom": 0.0 },
        "label": "Hf",
        "xyz": [-3.3697093103047093, -1.4686418925571536, -1.0657843]
      },
      {
        "species": [{ "element": "Pt", "occu": 1 }],
        "abc": [0.40688442, 0.75, 0.18623317],
        "properties": { "magmom": -0.0 },
        "label": "Pt",
        "xyz": [-1.6848580865153986, -0.9609903770401272, -3.1973529000000003]
      },
      {
        "species": [{ "element": "Pt", "occu": 1 }],
        "abc": [0.59311558, 0.25, 0.81376683],
        "properties": { "magmom": -0.0 },
        "label": "Pt",
        "xyz": [-3.3697064634846017, -4.199155782959873, -1.0657843]
      }
    ]
  },
  "task_ids": null,
  "uncorrected_energy_per_atom": null,
  "energy_per_atom": -49.580152645,
  "formation_energy_per_atom": -1.260586500000002,
  "energy_above_hull": 0.0,
  "is_stable": true,
  "equilibrium_reaction_energy_per_atom": null,
  "decomposes_to": null,
  "xas": null,
  "grain_boundaries": null,
  "band_gap": 0.0,
  "cbm": null,
  "vbm": null,
  "efermi": 6.56741758,
  "is_gap_direct": null,
  "is_metal": null,
  "es_source_calc_id": null,
  "bandstructure": null,
  "dos": null,
  "dos_energy_up": null,
  "dos_energy_down": null,
  "is_magnetic": null,
  "ordering": null,
  "total_magnetization": 7e-7,
  "total_magnetization_normalized_vol": null,
  "total_magnetization_normalized_formula_units": null,
  "num_magnetic_sites": null,
  "num_unique_magnetic_sites": null,
  "types_of_magnetic_species": null,
  "bulk_modulus": null,
  "shear_modulus": null,
  "universal_anisotropy": null,
  "homogeneous_poisson": null,
  "e_total": null,
  "e_ionic": null,
  "e_electronic": null,
  "n": null,
  "e_ij_max": null,
  "weighted_surface_energy_EV_PER_ANG2": null,
  "weighted_surface_energy": null,
  "weighted_work_function": null,
  "surface_anisotropy": null,
  "shape_factor": null,
  "has_reconstructed": null,
  "possible_species": null,
  "has_props": null,
  "theoretical": null,
  "database_IDs": null,
  "fields_not_requested": [
    "builder_meta",
    "nsites",
    "elements",
    "nelements",
    "composition",
    "composition_reduced",
    "chemsys",
    "symmetry",
    "property_name",
    "deprecated",
    "deprecation_reasons",
    "last_updated",
    "origins",
    "warnings",
    "task_ids",
    "uncorrected_energy_per_atom",
    "equilibrium_reaction_energy_per_atom",
    "decomposes_to",
    "xas",
    "grain_boundaries",
    "cbm",
    "vbm",
    "is_gap_direct",
    "is_metal",
    "es_source_calc_id",
    "bandstructure",
    "dos",
    "dos_energy_up",
    "dos_energy_down",
    "is_magnetic",
    "ordering",
    "total_magnetization_normalized_vol",
    "total_magnetization_normalized_formula_units",
    "num_magnetic_sites",
    "num_unique_magnetic_sites",
    "types_of_magnetic_species",
    "bulk_modulus",
    "shear_modulus",
    "universal_anisotropy",
    "homogeneous_poisson",
    "e_total",
    "e_ionic",
    "e_electronic",
    "n",
    "e_ij_max",
    "weighted_surface_energy_EV_PER_ANG2",
    "weighted_surface_energy",
    "weighted_work_function",
    "surface_anisotropy",
    "shape_factor",
    "has_reconstructed",
    "possible_species",
    "has_props",
    "theoretical",
    "database_IDs"
  ]
}
