{"builder_meta": null, "nsites": null, "elements": null, "nelements": null, "composition": null, "composition_reduced": null, "formula_pretty": "HfPt3", "formula_anonymous": "AB3", "chemsys": null, "volume": 256.9627002548354, "density": 19.741751258770126, "density_atomic": 16.060168765927212, "symmetry": null, "property_name": null, "material_id": "mp-11456", "deprecated": null, "deprecation_reasons": null, "last_updated": null, "origins": null, "warnings": null, "structure": {"@module": "pymatgen.core.structure", "@class": "Structure", "charge": 0, "lattice": {"matrix": [[5.66295748, -0.0, 0.0], [-2.83147925, 4.90426571, -0.0], [0.0, 0.0, 9.2523658]], "pbc": [true, true, true], "a": 5.66295748, "b": 5.662958316768927, "c": 9.2523658, "alpha": 90.0, "beta": 90.0, "gamma": 120.00000107033019, "volume": 256.9627002548354}, "properties": {}, "sites": [{"species": [{"element": "Hf", "occu": 1}], "abc": [-0.0, -0.0, 0.0], "properties": {"magmom": -0.0}, "label": "Hf", "xyz": [0.0, 0.0, 0.0]}, {"species": [{"element": "Hf", "occu": 1}], "abc": [-0.0, -0.0, 0.5], "properties": {"magmom": -0.0}, "label": "Hf", "xyz": [0.0, 0.0, 4.6261829]}, {"species": [{"element": "Hf", "occu": 1}], "abc": [0.333333, 0.666667, 0.25], "properties": {"magmom": -0.0}, "label": "Hf", "xyz": [-3.171478910157788e-06, 3.26951210808857, 2.31309145]}, {"species": [{"element": "Hf", "occu": 1}], "abc": [0.666667, 0.333333, 0.75], "properties": {"magmom": -0.0}, "label": "Hf", "xyz": [2.8314814014789103, 1.63475360191143, 6.93927435]}, {"species": [{"element": "Pt", "occu": 1}], "abc": [0.5, 0.0, 0.0], "properties": {"magmom": -0.0}, "label": "Pt", "xyz": [2.83147874, 0.0, 0.0]}, {"species": [{"element": "Pt", "occu": 1}], "abc": [0.5, 0.5, 0.5], "properties": {"magmom": -0.0}, "label": "Pt", "xyz": [1.415739115, 2.452132855, 4.6261829]}, {"species": [{"element": "Pt", "occu": 1}], "abc": [0.0, 0.5, 0.5], "properties": {"magmom": -0.0}, "label": "Pt", "xyz": [-1.415739625, 2.452132855, 4.6261829]}, {"species": [{"element": "Pt", "occu": 1}], "abc": [-0.0, 0.5, 0.0], "properties": {"magmom": -0.0}, "label": "Pt", "xyz": [-1.415739625, 2.452132855, 0.0]}, {"species": [{"element": "Pt", "occu": 1}], "abc": [0.5, 0.5, 0.0], "properties": {"magmom": -0.0}, "label": "Pt", "xyz": [1.415739115, 2.452132855, 0.0]}, {"species": [{"element": "Pt", "occu": 1}], "abc": [0.5, 0.0, 0.5], "properties": {"magmom": -0.0}, "label": "Pt", "xyz": [2.83147874, 0.0, 4.6261829]}, {"species": [{"element": "Pt", "occu": 1}], "abc": [0.83061725, 0.66123751, 0.25], "properties": {"magmom": 0.0}, "label": "Pt", "xyz": [2.8314698800178624, 3.2428844464587816, 2.31309145]}, {"species": [{"element": "Pt", "occu": 1}], "abc": [0.16938275, 0.83061725, 0.75], "properties": {"magmom": 0.0}, "label": "Pt", "xyz": [-1.3926681969715924, 4.073567697309497, 6.93927435]}, {"species": [{"element": "Pt", "occu": 1}], "abc": [0.66123751, 0.83061725, 0.75], "properties": {"magmom": 0.0}, "label": "Pt", "xyz": [1.3926843952440122, 4.073567697309497, 6.93927435]}, {"species": [{"element": "Pt", "occu": 1}], "abc": [0.33876249, 0.16938275, 0.25], "properties": {"magmom": 0.0}, "label": "Pt", "xyz": [1.4387938347559879, 0.8306980126905025, 2.31309145]}, {"species": [{"element": "Pt", "occu": 1}], "abc": [0.83061725, 0.16938275, 0.25], "properties": {"magmom": 0.0}, "label": "Pt", "xyz": [4.2241464269715925, 0.8306980126905025, 2.31309145]}, {"species": [{"element": "Pt", "occu": 1}], "abc": [0.16938275, 0.33876249, 0.75], "properties": {"magmom": 0.0}, "label": "Pt", "xyz": [8.349982137390022e-06, 1.661381263541218, 6.93927435]}]}, "task_ids": null, "uncorrected_energy_per_atom": null, "energy_per_atom": -51.087795751875, "formation_energy_per_atom": -1.184154229375003, "energy_above_hull": 0.0, "is_stable": true, "equilibrium_reaction_energy_per_atom": null, "decomposes_to": null, "xas": null, "grain_boundaries": null, "band_gap": 0.0, "cbm": null, "vbm": null, "efermi": 7.53240131, "is_gap_direct": null, "is_metal": null, "es_source_calc_id": null, "bandstructure": null, "dos": null, "dos_energy_up": null, "dos_energy_down": null, "is_magnetic": null, "ordering": null, "total_magnetization": 0.0, "total_magnetization_normalized_vol": null, "total_magnetization_normalized_formula_units": null, "num_magnetic_sites": null, "num_unique_magnetic_sites": null, "types_of_magnetic_species": null, "bulk_modulus": null, "shear_modulus": null, "universal_anisotropy": null, "homogeneous_poisson": null, "e_total": null, "e_ionic": null, "e_electronic": null, "n": null, "e_ij_max": null, "weighted_surface_energy_EV_PER_ANG2": null, "weighted_surface_energy": null, "weighted_work_function": null, "surface_anisotropy": null, "shape_factor": null, "has_reconstructed": null, "possible_species": null, "has_props": null, "theoretical": null, "database_IDs": null, "fields_not_requested": ["builder_meta", "nsites", "elements", "nelements", "composition", "composition_reduced", "chemsys", "symmetry", "property_name", "deprecated", "deprecation_reasons", "last_updated", "origins", "warnings", "task_ids", "uncorrected_energy_per_atom", "equilibrium_reaction_energy_per_atom", "decomposes_to", "xas", "grain_boundaries", "cbm", "vbm", "is_gap_direct", "is_metal", "es_source_calc_id", "bandstructure", "dos", "dos_energy_up", "dos_energy_down", "is_magnetic", "ordering", "total_magnetization_normalized_vol", "total_magnetization_normalized_formula_units", "num_magnetic_sites", "num_unique_magnetic_sites", "types_of_magnetic_species", "bulk_modulus", "shear_modulus", "universal_anisotropy", "homogeneous_poisson", "e_total", "e_ionic", "e_electronic", "n", "e_ij_max", "weighted_surface_energy_EV_PER_ANG2", "weighted_surface_energy", "weighted_work_function", "surface_anisotropy", "shape_factor", "has_reconstructed", "possible_species", "has_props", "theoretical", "database_IDs"]}