{
  "builder_meta": null,
  "nsites": null,
  "elements": null,
  "nelements": null,
  "composition": null,
  "composition_reduced": null,
  "formula_pretty": "HfRe2",
  "formula_anonymous": "AB2",
  "chemsys": null,
  "volume": 205.781234547199,
  "density": 17.781944324692713,
  "density_atomic": 17.148436212266585,
  "symmetry": null,
  "property_name": null,
  "material_id": "mp-1689",
  "deprecated": null,
  "deprecation_reasons": null,
  "last_updated": null,
  "origins": null,
  "warnings": null,
  "structure": {
    "@module": "pymatgen.core.structure",
    "@class": "Structure",
    "charge": 0,
    "lattice": {
      "matrix": [
        [5.25547154, -1e-8, 0.0],
        [-2.62773678, 4.55137263, -0.0],
        [0.0, -0.0, 8.60303494]
      ],
      "pbc": [true, true, true],
      "a": 5.25547154,
      "b": 5.255472709669216,
      "c": 8.60303494,
      "alpha": 90.0,
      "beta": 90.0,
      "gamma": 120.00000546129269,
      "volume": 205.781234547199
    },
    "properties": {},
    "sites": [
      {
        "species": [{ "element": "Hf", "occu": 1 }],
        "abc": [0.333333, 0.666667, 0.06169752],
        "properties": { "magmom": -0.0 },
        "label": "Hf",
        "xyz": [-3.3010694402424434e-6, 3.03424993379088, 0.5307859202713489]
      },
      {
        "species": [{ "element": "Hf", "occu": 1 }],
        "abc": [0.666667, 0.333333, 0.5616975200000001],
        "properties": { "magmom": -0.0 },
        "label": "Hf",
        "xyz": [2.62773806106944, 1.51712268620912, 4.83230339027135]
      },
      {
        "species": [{ "element": "Hf", "occu": 1 }],
        "abc": [0.666667, 0.333333, 0.93830248],
        "properties": { "magmom": -0.0 },
        "label": "Hf",
        "xyz": [2.62773806106944, 1.51712268620912, 8.072249019728652]
      },
      {
        "species": [{ "element": "Hf", "occu": 1 }],
        "abc": [0.333333, 0.666667, 0.43830248],
        "properties": { "magmom": -0.0 },
        "label": "Hf",
        "xyz": [-3.3010694402424434e-6, 3.03424993379088, 3.7707315497286515]
      },
      {
        "species": [{ "element": "Re", "occu": 1 }],
        "abc": [0.0, 0.0, -0.0],
        "properties": { "magmom": -0.0 },
        "label": "Re",
        "xyz": [0.0, 0.0, 0.0]
      },
      {
        "species": [{ "element": "Re", "occu": 1 }],
        "abc": [0.0, 0.0, 0.5],
        "properties": { "magmom": -0.0 },
        "label": "Re",
        "xyz": [0.0, 0.0, 4.30151747]
      },
      {
        "species": [{ "element": "Re", "occu": 1 }],
        "abc": [0.82794232, 0.65588564, 0.25],
        "properties": { "magmom": -0.0 },
        "label": "Re",
        "xyz": [2.627732479819734, 2.98517994202661, 2.150758735]
      },
      {
        "species": [{ "element": "Re", "occu": 1 }],
        "abc": [0.17205768, 0.82794232, 0.75],
        "properties": { "magmom": -0.0 },
        "label": "Re",
        "xyz": [-1.2713702455041025, 3.768274012746125, 6.452276205]
      },
      {
        "species": [{ "element": "Re", "occu": 1 }],
        "abc": [0.65588564, 0.82794232, 0.75],
        "properties": { "magmom": -0.0 },
        "label": "Re",
        "xyz": [1.2713738285321563, 3.7682740079078454, 6.452276205]
      },
      {
        "species": [{ "element": "Re", "occu": 1 }],
        "abc": [0.34411436, 0.17205768, 0.25],
        "properties": { "magmom": -0.0 },
        "label": "Re",
        "xyz": [1.3563609314678442, 0.7830986120921548, 2.150758735]
      },
      {
        "species": [{ "element": "Re", "occu": 1 }],
        "abc": [0.82794232, 0.17205768, 0.25],
        "properties": { "magmom": -0.0 },
        "label": "Re",
        "xyz": [3.899105005504103, 0.7830986072538753, 2.150758735]
      },
      {
        "species": [{ "element": "Re", "occu": 1 }],
        "abc": [0.17205768, 0.34411436, 0.75],
        "properties": { "magmom": -0.0 },
        "label": "Re",
        "xyz": [2.280180266378551e-6, 1.5661926779733901, 6.452276205]
      }
    ]
  },
  "task_ids": null,
  "uncorrected_energy_per_atom": null,
  "energy_per_atom": -12.011839512500009,
  "formation_energy_per_atom": -0.39403369750000805,
  "energy_above_hull": 0.0,
  "is_stable": true,
  "equilibrium_reaction_energy_per_atom": null,
  "decomposes_to": null,
  "xas": null,
  "grain_boundaries": null,
  "band_gap": 0.0,
  "cbm": null,
  "vbm": null,
  "efermi": 6.57116935,
  "is_gap_direct": null,
  "is_metal": null,
  "es_source_calc_id": null,
  "bandstructure": null,
  "dos": null,
  "dos_energy_up": null,
  "dos_energy_down": null,
  "is_magnetic": null,
  "ordering": null,
  "total_magnetization": 5.299999999999997e-6,
  "total_magnetization_normalized_vol": null,
  "total_magnetization_normalized_formula_units": null,
  "num_magnetic_sites": null,
  "num_unique_magnetic_sites": null,
  "types_of_magnetic_species": null,
  "bulk_modulus": null,
  "shear_modulus": null,
  "universal_anisotropy": null,
  "homogeneous_poisson": null,
  "e_total": null,
  "e_ionic": null,
  "e_electronic": null,
  "n": null,
  "e_ij_max": null,
  "weighted_surface_energy_EV_PER_ANG2": null,
  "weighted_surface_energy": null,
  "weighted_work_function": null,
  "surface_anisotropy": null,
  "shape_factor": null,
  "has_reconstructed": null,
  "possible_species": null,
  "has_props": null,
  "theoretical": null,
  "database_IDs": null,
  "fields_not_requested": [
    "builder_meta",
    "nsites",
    "elements",
    "nelements",
    "composition",
    "composition_reduced",
    "chemsys",
    "symmetry",
    "property_name",
    "deprecated",
    "deprecation_reasons",
    "last_updated",
    "origins",
    "warnings",
    "task_ids",
    "uncorrected_energy_per_atom",
    "equilibrium_reaction_energy_per_atom",
    "decomposes_to",
    "xas",
    "grain_boundaries",
    "cbm",
    "vbm",
    "is_gap_direct",
    "is_metal",
    "es_source_calc_id",
    "bandstructure",
    "dos",
    "dos_energy_up",
    "dos_energy_down",
    "is_magnetic",
    "ordering",
    "total_magnetization_normalized_vol",
    "total_magnetization_normalized_formula_units",
    "num_magnetic_sites",
    "num_unique_magnetic_sites",
    "types_of_magnetic_species",
    "bulk_modulus",
    "shear_modulus",
    "universal_anisotropy",
    "homogeneous_poisson",
    "e_total",
    "e_ionic",
    "e_electronic",
    "n",
    "e_ij_max",
    "weighted_surface_energy_EV_PER_ANG2",
    "weighted_surface_energy",
    "weighted_work_function",
    "surface_anisotropy",
    "shape_factor",
    "has_reconstructed",
    "possible_species",
    "has_props",
    "theoretical",
    "database_IDs"
  ]
}
