{"builder_meta": null, "nsites": null, "elements": null, "nelements": null, "composition": null, "composition_reduced": null, "formula_pretty": "HfS3", "formula_anonymous": "AB3", "chemsys": null, "volume": 167.9432437929641, "density": 5.431896671846112, "density_atomic": 20.992905474120512, "symmetry": null, "property_name": null, "material_id": "mp-9922", "deprecated": null, "deprecation_reasons": null, "last_updated": null, "origins": null, "warnings": null, "structure": {"@module": "pymatgen.core.structure", "@class": "Structure", "charge": 0, "lattice": {"matrix": [[3.59888445, 0.0, 0.0], [0.0, 5.09018752, -0.66937674], [0.0, -0.01049786, 9.1690902]], "pbc": [true, true, true], "a": 3.59888445, "b": 5.134011512337772, "c": 9.169096209594521, "alpha": 97.55719918536104, "beta": 90.0, "gamma": 90.0, "volume": 167.9432437929641}, "properties": {}, "sites": [{"species": [{"element": "Hf", "occu": 1}], "abc": [0.25, 0.28558485, 0.65135954], "properties": {"magmom": 0.0}, "label": "Hf", "xyz": [0.8997211125, 1.4468425581104873, 5.7812105190041185]}, {"species": [{"element": "Hf", "occu": 1}], "abc": [0.75, 0.71441515, 0.34864046], "properties": {"magmom": 0.0}, "label": "Hf", "xyz": [2.6991633375, 3.6328471018895123, 2.7185029409958807]}, {"species": [{"element": "S", "occu": 1}], "abc": [0.25, 0.8757290400000001, 0.17818478000000001], "properties": {"magmom": 0.0}, "label": "S", "xyz": [0.8997211125, 4.45575447143501, 1.0475996701686263]}, {"species": [{"element": "S", "occu": 1}], "abc": [0.75, 0.12427096, 0.82181422], "properties": {"magmom": 0.0}, "label": "S", "xyz": [2.6991633375, 0.62393519906285, 7.452104620741173]}, {"species": [{"element": "S", "occu": 1}], "abc": [0.75, 0.23770236, 0.44809899000000003], "properties": {"magmom": 0.0}, "label": "S", "xyz": [2.6991633375, 1.2052455058833857, 3.9495476270117913]}, {"species": [{"element": "S", "occu": 1}], "abc": [0.25, 0.76229764, 0.55190101], "properties": {"magmom": 0.0}, "label": "S", "xyz": [0.8997211125, 3.8744441541166137, 4.550165832988208]}, {"species": [{"element": "S", "occu": 1}], "abc": [0.75, 0.52715722, 0.82195145], "properties": {"magmom": -0.0}, "label": "S", "xyz": [2.6991633375, 2.6747003710729973, 7.183680203679727]}, {"species": [{"element": "S", "occu": 1}], "abc": [0.25, 0.47284278, 0.17804855], "properties": {"magmom": -0.0}, "label": "S", "xyz": [0.8997211125, 2.404989288927003, 1.3160332563202726]}]}, "task_ids": null, "uncorrected_energy_per_atom": null, "energy_per_atom": -18.68718625375, "formation_energy_per_atom": -1.373083094609374, "energy_above_hull": 0.0, "is_stable": true, "equilibrium_reaction_energy_per_atom": null, "decomposes_to": null, "xas": null, "grain_boundaries": null, "band_gap": 1.1326, "cbm": null, "vbm": null, "efermi": 3.27559562, "is_gap_direct": null, "is_metal": null, "es_source_calc_id": null, "bandstructure": null, "dos": null, "dos_energy_up": null, "dos_energy_down": null, "is_magnetic": null, "ordering": null, "total_magnetization": 0.0, "total_magnetization_normalized_vol": null, "total_magnetization_normalized_formula_units": null, "num_magnetic_sites": null, "num_unique_magnetic_sites": null, "types_of_magnetic_species": null, "bulk_modulus": null, "shear_modulus": null, "universal_anisotropy": null, "homogeneous_poisson": null, "e_total": null, "e_ionic": null, "e_electronic": null, "n": null, "e_ij_max": null, "weighted_surface_energy_EV_PER_ANG2": null, "weighted_surface_energy": null, "weighted_work_function": null, "surface_anisotropy": null, "shape_factor": null, "has_reconstructed": null, "possible_species": null, "has_props": null, "theoretical": null, "database_IDs": null, "fields_not_requested": ["builder_meta", "nsites", "elements", "nelements", "composition", "composition_reduced", "chemsys", "symmetry", "property_name", "deprecated", "deprecation_reasons", "last_updated", "origins", "warnings", "task_ids", "uncorrected_energy_per_atom", "equilibrium_reaction_energy_per_atom", "decomposes_to", "xas", "grain_boundaries", "cbm", "vbm", "is_gap_direct", "is_metal", "es_source_calc_id", "bandstructure", "dos", "dos_energy_up", "dos_energy_down", "is_magnetic", "ordering", "total_magnetization_normalized_vol", "total_magnetization_normalized_formula_units", "num_magnetic_sites", "num_unique_magnetic_sites", "types_of_magnetic_species", "bulk_modulus", "shear_modulus", "universal_anisotropy", "homogeneous_poisson", "e_total", "e_ionic", "e_electronic", "n", "e_ij_max", "weighted_surface_energy_EV_PER_ANG2", "weighted_surface_energy", "weighted_work_function", "surface_anisotropy", "shape_factor", "has_reconstructed", "possible_species", "has_props", "theoretical", "database_IDs"]}