{"builder_meta": null, "nsites": null, "elements": null, "nelements": null, "composition": null, "composition_reduced": null, "formula_pretty": "HfSb2", "formula_anonymous": "AB2", "chemsys": null, "volume": 581.7612814378606, "density": 9.63644867893418, "density_atomic": 24.240053393244192, "symmetry": null, "property_name": null, "material_id": "mp-2180", "deprecated": null, "deprecation_reasons": null, "last_updated": null, "origins": null, "warnings": null, "structure": {"@module": "pymatgen.core.structure", "@class": "Structure", "charge": 0, "lattice": {"matrix": [[3.89910177, 0.0, 0.0], [0.0, 9.92615687, -0.0], [0.0, -0.0, 15.03138881]], "pbc": [true, true, true], "a": 3.89910177, "b": 9.92615687, "c": 15.03138881, "alpha": 90.0, "beta": 90.0, "gamma": 90.0, "volume": 581.7612814378606}, "properties": {}, "sites": [{"species": [{"element": "Hf", "occu": 1}], "abc": [0.5, 0.5217594, 0.25130187], "properties": {"magmom": 0.0}, "label": "Hf", "xyz": [1.949550885, 5.179065652797077, 3.777416116650074]}, {"species": [{"element": "Hf", "occu": 1}], "abc": [0.5, 0.478240599999999, 0.74869813], "properties": {"magmom": 0.0}, "label": "Hf", "xyz": [1.949550885, 4.747091217202912, 11.253972693349924]}, {"species": [{"element": "Hf", "occu": 1}], "abc": [0.0, 0.021759399999999002, 0.24869813000000002], "properties": {"magmom": 0.0}, "label": "Hf", "xyz": [0.0, 0.2159872177970681, 3.7382782883499255]}, {"species": [{"element": "Hf", "occu": 1}], "abc": [-0.0, 0.9782405999999991, 0.75130187], "properties": {"magmom": 0.0}, "label": "Hf", "xyz": [0.0, 9.710169652202913, 11.293110521650075]}, {"species": [{"element": "Hf", "occu": 1}], "abc": [0.0, 0.83291162, 0.49342821000000003], "properties": {"magmom": -0.0}, "label": "Hf", "xyz": [0.0, 8.26761139896583, 7.41691127433233]}, {"species": [{"element": "Hf", "occu": 1}], "abc": [0.0, 0.16708838, 0.50657179], "properties": {"magmom": -0.0}, "label": "Hf", "xyz": [0.0, 1.6585454710341707, 7.614477535667669]}, {"species": [{"element": "Hf", "occu": 1}], "abc": [0.5, 0.33291162, 0.00657179], "properties": {"magmom": -0.0}, "label": "Hf", "xyz": [1.949550885, 3.3045329639658294, 0.0987831306676699]}, {"species": [{"element": "Hf", "occu": 1}], "abc": [0.5, 0.66708838, 0.99342821], "properties": {"magmom": -0.0}, "label": "Hf", "xyz": [1.949550885, 6.621623906034171, 14.93260567933233]}, {"species": [{"element": "Sb", "occu": 1}], "abc": [-0.0, 0.5132178900000001, 0.10421843], "properties": {"magmom": 0.0}, "label": "Sb", "xyz": [0.0, 5.094281284630405, 1.5665477424977683]}, {"species": [{"element": "Sb", "occu": 1}], "abc": [-0.0, 0.48678211, 0.89578157], "properties": {"magmom": 0.0}, "label": "Sb", "xyz": [0.0, 4.831875585369596, 13.464841067502231]}, {"species": [{"element": "Sb", "occu": 1}], "abc": [0.5, 0.01321789, 0.39578157], "properties": {"magmom": 0.0}, "label": "Sb", "xyz": [1.949550885, 0.1312028496304043, 5.949146662502232]}, {"species": [{"element": "Sb", "occu": 1}], "abc": [0.5, 0.98678211, 0.60421843], "properties": {"magmom": 0.0}, "label": "Sb", "xyz": [1.949550885, 9.794954020369596, 9.082242147497768]}, {"species": [{"element": "Sb", "occu": 1}], "abc": [0.0, 0.73168733, 0.30226605], "properties": {"magmom": 0.0}, "label": "Sb", "xyz": [0.0, 7.262843217371457, 4.543478521612901]}, {"species": [{"element": "Sb", "occu": 1}], "abc": [-0.0, 0.26831267000000003, 0.69773395], "properties": {"magmom": 0.0}, "label": "Sb", "xyz": [0.0, 2.6633136526285432, 10.4879102883871]}, {"species": [{"element": "Sb", "occu": 1}], "abc": [0.5, 0.23168733, 0.19773395], "properties": {"magmom": 0.0}, "label": "Sb", "xyz": [1.949550885, 2.299764782371457, 2.9722158833870993]}, {"species": [{"element": "Sb", "occu": 1}], "abc": [0.5, 0.76831267, 0.8022660500000001], "properties": {"magmom": 0.0}, "label": "Sb", "xyz": [1.949550885, 7.626392087628543, 12.0591729266129]}, {"species": [{"element": "Sb", "occu": 1}], "abc": [0.0, 0.8816041, 0.94226242], "properties": {"magmom": 0.0}, "label": "Sb", "xyz": [0.0, 8.750940593835168, 14.16351279607152]}, {"species": [{"element": "Sb", "occu": 1}], "abc": [0.0, 0.1183959, 0.057737580000000004], "properties": {"magmom": 0.0}, "label": "Sb", "xyz": [0.0, 1.175216276164833, 0.8678760139284798]}, {"species": [{"element": "Sb", "occu": 1}], "abc": [0.5, 0.3816041, 0.5577375800000001], "properties": {"magmom": 0.0}, "label": "Sb", "xyz": [1.949550885, 3.787862158835167, 8.38357041892848]}, {"species": [{"element": "Sb", "occu": 1}], "abc": [0.5, 0.6183959, 0.44226242], "properties": {"magmom": 0.0}, "label": "Sb", "xyz": [1.949550885, 6.138294711164833, 6.64781839107152]}, {"species": [{"element": "Sb", "occu": 1}], "abc": [-0.0, 0.66058352, 0.65687261], "properties": {"magmom": -0.0}, "label": "Sb", "xyz": [0.0, 6.557055645256782, 9.873707599549492]}, {"species": [{"element": "Sb", "occu": 1}], "abc": [0.0, 0.33941648, 0.34312739000000003], "properties": {"magmom": -0.0}, "label": "Sb", "xyz": [0.0, 3.369101224743218, 5.157681210450506]}, {"species": [{"element": "Sb", "occu": 1}], "abc": [0.5, 0.16058352, 0.84312739], "properties": {"magmom": -0.0}, "label": "Sb", "xyz": [1.949550885, 1.5939772102567824, 12.673375615450507]}, {"species": [{"element": "Sb", "occu": 1}], "abc": [0.5, 0.83941648, 0.15687261], "properties": {"magmom": -0.0}, "label": "Sb", "xyz": [1.949550885, 8.332179659743218, 2.358013194549494]}]}, "task_ids": null, "uncorrected_energy_per_atom": null, "energy_per_atom": -32.646672468333335, "formation_energy_per_atom": -0.45865685166666903, "energy_above_hull": 0.0, "is_stable": true, "equilibrium_reaction_energy_per_atom": null, "decomposes_to": null, "xas": null, "grain_boundaries": null, "band_gap": 0.0, "cbm": null, "vbm": null, "efermi": 7.8778909, "is_gap_direct": null, "is_metal": null, "es_source_calc_id": null, "bandstructure": null, "dos": null, "dos_energy_up": null, "dos_energy_down": null, "is_magnetic": null, "ordering": null, "total_magnetization": 1e-07, "total_magnetization_normalized_vol": null, "total_magnetization_normalized_formula_units": null, "num_magnetic_sites": null, "num_unique_magnetic_sites": null, "types_of_magnetic_species": null, "bulk_modulus": null, "shear_modulus": null, "universal_anisotropy": null, "homogeneous_poisson": null, "e_total": null, "e_ionic": null, "e_electronic": null, "n": null, "e_ij_max": null, "weighted_surface_energy_EV_PER_ANG2": null, "weighted_surface_energy": null, "weighted_work_function": null, "surface_anisotropy": null, "shape_factor": null, "has_reconstructed": null, "possible_species": null, "has_props": null, "theoretical": null, "database_IDs": null, "fields_not_requested": ["builder_meta", "nsites", "elements", "nelements", "composition", "composition_reduced", "chemsys", "symmetry", "property_name", "deprecated", "deprecation_reasons", "last_updated", "origins", "warnings", "task_ids", "uncorrected_energy_per_atom", "equilibrium_reaction_energy_per_atom", "decomposes_to", "xas", "grain_boundaries", "cbm", "vbm", "is_gap_direct", "is_metal", "es_source_calc_id", "bandstructure", "dos", "dos_energy_up", "dos_energy_down", "is_magnetic", "ordering", "total_magnetization_normalized_vol", "total_magnetization_normalized_formula_units", "num_magnetic_sites", "num_unique_magnetic_sites", "types_of_magnetic_species", "bulk_modulus", "shear_modulus", "universal_anisotropy", "homogeneous_poisson", "e_total", "e_ionic", "e_electronic", "n", "e_ij_max", "weighted_surface_energy_EV_PER_ANG2", "weighted_surface_energy", "weighted_work_function", "surface_anisotropy", "shape_factor", "has_reconstructed", "possible_species", "has_props", "theoretical", "database_IDs"]}