{
  "builder_meta": null,
  "nsites": null,
  "elements": null,
  "nelements": null,
  "composition": null,
  "composition_reduced": null,
  "formula_pretty": "HfSb",
  "formula_anonymous": "AB",
  "chemsys": null,
  "volume": 274.50459726428534,
  "density": 10.897672236796108,
  "density_atomic": 22.875383105357113,
  "symmetry": null,
  "property_name": null,
  "material_id": "mp-13450",
  "deprecated": null,
  "deprecation_reasons": null,
  "last_updated": null,
  "origins": null,
  "warnings": null,
  "structure": {
    "@module": "pymatgen.core.structure",
    "@class": "Structure",
    "charge": 0,
    "lattice": {
      "matrix": [
        [3.783143319999999, -0.0, 0.0],
        [-1.891571659999999, 5.20045114, -0.0],
        [-0.0, 0.0, 13.95262132]
      ],
      "pbc": [true, true, true],
      "a": 3.783143319999999,
      "b": 5.5337812935137265,
      "c": 13.95262132,
      "alpha": 90.0,
      "beta": 90.0,
      "gamma": 109.98795732946263,
      "volume": 274.5045972642852
    },
    "properties": {},
    "sites": [
      {
        "species": [{ "element": "Hf", "occu": 1 }],
        "abc": [0.61519811, 0.23039522, 0.25],
        "properties": { "magmom": -0.0 },
        "label": "Hf",
        "xyz": [1.8915735515716596, 1.1981590844995509, 3.48815533]
      },
      {
        "species": [{ "element": "Hf", "occu": 1 }],
        "abc": [0.38480189000000004, 0.76960478, 0.75],
        "properties": { "magmom": -0.0 },
        "label": "Hf",
        "xyz": [-1.8915716593070897e-6, 4.002292055500449, 10.46446599]
      },
      {
        "species": [{ "element": "Hf", "occu": 1 }],
        "abc": [0.07125831, 0.14251562, 0.60809578],
        "properties": { "magmom": -0.0 },
        "label": "Hf",
        "xyz": [1.8915716600842458e-6, 0.7411455184968069, 8.48453014463003]
      },
      {
        "species": [{ "element": "Hf", "occu": 1 }],
        "abc": [0.9287416900000001, 0.85748438, 0.39190422],
        "properties": { "magmom": -0.0 },
        "label": "Hf",
        "xyz": [1.8915697684283401, 4.459305621503193, 5.468091175369971]
      },
      {
        "species": [{ "element": "Hf", "occu": 1 }],
        "abc": [0.9287416900000001, 0.85748438, 0.10809578],
        "properties": { "magmom": -0.0 },
        "label": "Hf",
        "xyz": [1.8915697684283401, 4.459305621503193, 1.5082194846300296]
      },
      {
        "species": [{ "element": "Hf", "occu": 1 }],
        "abc": [0.07125831, 0.14251562, 0.89190422],
        "properties": { "magmom": -0.0 },
        "label": "Hf",
        "xyz": [1.8915716600842458e-6, 0.7411455184968069, 12.444401835369971]
      },
      {
        "species": [{ "element": "Sb", "occu": 1 }],
        "abc": [0.32736564, 0.65472928, 0.25],
        "properties": { "magmom": -0.0 },
        "label": "Sb",
        "xyz": [3.7831433203905362e-6, 3.404887630567379, 3.48815533]
      },
      {
        "species": [{ "element": "Sb", "occu": 1 }],
        "abc": [0.67263436, 0.34527072000000003, 0.75],
        "properties": { "magmom": -0.0 },
        "label": "Sb",
        "xyz": [1.8915678768566795, 1.795563509432621, 10.46446599]
      },
      {
        "species": [{ "element": "Sb", "occu": 1 }],
        "abc": [0.35834806, 0.71669312, 0.54921587],
        "properties": { "magmom": -0.0 },
        "label": "Sb",
        "xyz": [5.67471498036376e-6, 3.7271275529341565, 7.663001057044349]
      },
      {
        "species": [{ "element": "Sb", "occu": 1 }],
        "abc": [0.64165194, 0.28330688, 0.45078413],
        "properties": { "magmom": -0.0 },
        "label": "Sb",
        "xyz": [1.8915659852850195, 1.4733235870658432, 6.289620262955652]
      },
      {
        "species": [{ "element": "Sb", "occu": 1 }],
        "abc": [0.64165194, 0.28330688, 0.04921587],
        "properties": { "magmom": -0.0 },
        "label": "Sb",
        "xyz": [1.8915659852850195, 1.4733235870658432, 0.6866903970443484]
      },
      {
        "species": [{ "element": "Sb", "occu": 1 }],
        "abc": [0.35834806, 0.71669312, 0.9507841300000001],
        "properties": { "magmom": -0.0 },
        "label": "Sb",
        "xyz": [5.67471498036376e-6, 3.7271275529341565, 13.265930922955652]
      }
    ]
  },
  "task_ids": null,
  "uncorrected_energy_per_atom": null,
  "energy_per_atom": -36.0417906825,
  "formation_energy_per_atom": -0.6129251225000011,
  "energy_above_hull": 0.0,
  "is_stable": true,
  "equilibrium_reaction_energy_per_atom": null,
  "decomposes_to": null,
  "xas": null,
  "grain_boundaries": null,
  "band_gap": 0.0,
  "cbm": null,
  "vbm": null,
  "efermi": 7.33354892,
  "is_gap_direct": null,
  "is_metal": null,
  "es_source_calc_id": null,
  "bandstructure": null,
  "dos": null,
  "dos_energy_up": null,
  "dos_energy_down": null,
  "is_magnetic": null,
  "ordering": null,
  "total_magnetization": 6e-7,
  "total_magnetization_normalized_vol": null,
  "total_magnetization_normalized_formula_units": null,
  "num_magnetic_sites": null,
  "num_unique_magnetic_sites": null,
  "types_of_magnetic_species": null,
  "bulk_modulus": null,
  "shear_modulus": null,
  "universal_anisotropy": null,
  "homogeneous_poisson": null,
  "e_total": null,
  "e_ionic": null,
  "e_electronic": null,
  "n": null,
  "e_ij_max": null,
  "weighted_surface_energy_EV_PER_ANG2": null,
  "weighted_surface_energy": null,
  "weighted_work_function": null,
  "surface_anisotropy": null,
  "shape_factor": null,
  "has_reconstructed": null,
  "possible_species": null,
  "has_props": null,
  "theoretical": null,
  "database_IDs": null,
  "fields_not_requested": [
    "builder_meta",
    "nsites",
    "elements",
    "nelements",
    "composition",
    "composition_reduced",
    "chemsys",
    "symmetry",
    "property_name",
    "deprecated",
    "deprecation_reasons",
    "last_updated",
    "origins",
    "warnings",
    "task_ids",
    "uncorrected_energy_per_atom",
    "equilibrium_reaction_energy_per_atom",
    "decomposes_to",
    "xas",
    "grain_boundaries",
    "cbm",
    "vbm",
    "is_gap_direct",
    "is_metal",
    "es_source_calc_id",
    "bandstructure",
    "dos",
    "dos_energy_up",
    "dos_energy_down",
    "is_magnetic",
    "ordering",
    "total_magnetization_normalized_vol",
    "total_magnetization_normalized_formula_units",
    "num_magnetic_sites",
    "num_unique_magnetic_sites",
    "types_of_magnetic_species",
    "bulk_modulus",
    "shear_modulus",
    "universal_anisotropy",
    "homogeneous_poisson",
    "e_total",
    "e_ionic",
    "e_electronic",
    "n",
    "e_ij_max",
    "weighted_surface_energy_EV_PER_ANG2",
    "weighted_surface_energy",
    "weighted_work_function",
    "surface_anisotropy",
    "shape_factor",
    "has_reconstructed",
    "possible_species",
    "has_props",
    "theoretical",
    "database_IDs"
  ]
}
