{
  "builder_meta": null,
  "nsites": null,
  "elements": null,
  "nelements": null,
  "composition": null,
  "composition_reduced": null,
  "formula_pretty": "HfSe3",
  "formula_anonymous": "AB3",
  "chemsys": null,
  "volume": 194.6124175622298,
  "density": 7.088325819426084,
  "density_atomic": 24.326552195278726,
  "symmetry": null,
  "property_name": null,
  "material_id": "mp-15622",
  "deprecated": null,
  "deprecation_reasons": null,
  "last_updated": null,
  "origins": null,
  "warnings": null,
  "structure": {
    "@module": "pymatgen.core.structure",
    "@class": "Structure",
    "charge": 0,
    "lattice": {
      "matrix": [
        [3.73489424, 0.0, 0.0],
        [0.0, 5.45362333, -0.01549326],
        [0.0, 1.2779638, 9.5508504]
      ],
      "pbc": [true, true, true],
      "a": 3.73489424,
      "b": 5.453645337444095,
      "c": 9.635970881924177,
      "alpha": 82.54150532891423,
      "beta": 90.0,
      "gamma": 90.0,
      "volume": 194.6124175622298
    },
    "properties": {},
    "sites": [
      {
        "species": [{ "element": "Hf", "occu": 1 }],
        "abc": [0.25, 0.71519798, 0.65310952],
        "properties": { "magmom": -0.0 },
        "label": "Hf",
        "xyz": [0.93372356, 4.73507071329225, 6.226670572080193]
      },
      {
        "species": [{ "element": "Hf", "occu": 1 }],
        "abc": [0.75, 0.28480202, 0.34689048],
        "properties": { "magmom": -0.0 },
        "label": "Hf",
        "xyz": [2.8011706800000002, 1.9965164167077505, 3.3086865679198065]
      },
      {
        "species": [{ "element": "Se", "occu": 1 }],
        "abc": [0.25, 0.10855376, 0.17766385],
        "properties": { "magmom": 0.0 },
        "label": "Se",
        "xyz": [0.93372356, 0.8190592869638508, 1.6951590012103825]
      },
      {
        "species": [{ "element": "Se", "occu": 1 }],
        "abc": [0.75, 0.8914462400000001, 0.82233615],
        "properties": { "magmom": 0.0 },
        "label": "Se",
        "xyz": [2.8011706800000002, 5.912527843036149, 7.840198138789618]
      },
      {
        "species": [{ "element": "Se", "occu": 1 }],
        "abc": [0.75, 0.76224788, 0.44796453],
        "properties": { "magmom": 0.0 },
        "label": "Se",
        "xyz": [2.8011706800000002, 4.729495274635054, 4.266632505947023]
      },
      {
        "species": [{ "element": "Se", "occu": 1 }],
        "abc": [0.25, 0.23775212, 0.55203547],
        "properties": { "magmom": 0.0 },
        "label": "Se",
        "xyz": [0.93372356, 2.0020918553649456, 5.268724634052977]
      },
      {
        "species": [{ "element": "Se", "occu": 1 }],
        "abc": [0.75, 0.46001488, 0.82112284],
        "properties": { "magmom": -0.0 },
        "label": "Se",
        "xyz": [2.8011706800000002, 3.558113146588343, 7.835294274723427]
      },
      {
        "species": [{ "element": "Se", "occu": 1 }],
        "abc": [0.25, 0.53998512, 0.17887716],
        "properties": { "magmom": -0.0 },
        "label": "Se",
        "xyz": [0.93372356, 3.1734739834116574, 1.7000628652765728]
      }
    ]
  },
  "task_ids": null,
  "uncorrected_energy_per_atom": null,
  "energy_per_atom": -23.19117199875,
  "formation_energy_per_atom": -1.169647978046875,
  "energy_above_hull": 0.004061746484374001,
  "is_stable": false,
  "equilibrium_reaction_energy_per_atom": null,
  "decomposes_to": null,
  "xas": null,
  "grain_boundaries": null,
  "band_gap": 0.31709999999999905,
  "cbm": null,
  "vbm": null,
  "efermi": 3.03292043,
  "is_gap_direct": null,
  "is_metal": null,
  "es_source_calc_id": null,
  "bandstructure": null,
  "dos": null,
  "dos_energy_up": null,
  "dos_energy_down": null,
  "is_magnetic": null,
  "ordering": null,
  "total_magnetization": 0.0,
  "total_magnetization_normalized_vol": null,
  "total_magnetization_normalized_formula_units": null,
  "num_magnetic_sites": null,
  "num_unique_magnetic_sites": null,
  "types_of_magnetic_species": null,
  "bulk_modulus": null,
  "shear_modulus": null,
  "universal_anisotropy": null,
  "homogeneous_poisson": null,
  "e_total": null,
  "e_ionic": null,
  "e_electronic": null,
  "n": null,
  "e_ij_max": null,
  "weighted_surface_energy_EV_PER_ANG2": null,
  "weighted_surface_energy": null,
  "weighted_work_function": null,
  "surface_anisotropy": null,
  "shape_factor": null,
  "has_reconstructed": null,
  "possible_species": null,
  "has_props": null,
  "theoretical": null,
  "database_IDs": null,
  "fields_not_requested": [
    "builder_meta",
    "nsites",
    "elements",
    "nelements",
    "composition",
    "composition_reduced",
    "chemsys",
    "symmetry",
    "property_name",
    "deprecated",
    "deprecation_reasons",
    "last_updated",
    "origins",
    "warnings",
    "task_ids",
    "uncorrected_energy_per_atom",
    "equilibrium_reaction_energy_per_atom",
    "decomposes_to",
    "xas",
    "grain_boundaries",
    "cbm",
    "vbm",
    "is_gap_direct",
    "is_metal",
    "es_source_calc_id",
    "bandstructure",
    "dos",
    "dos_energy_up",
    "dos_energy_down",
    "is_magnetic",
    "ordering",
    "total_magnetization_normalized_vol",
    "total_magnetization_normalized_formula_units",
    "num_magnetic_sites",
    "num_unique_magnetic_sites",
    "types_of_magnetic_species",
    "bulk_modulus",
    "shear_modulus",
    "universal_anisotropy",
    "homogeneous_poisson",
    "e_total",
    "e_ionic",
    "e_electronic",
    "n",
    "e_ij_max",
    "weighted_surface_energy_EV_PER_ANG2",
    "weighted_surface_energy",
    "weighted_work_function",
    "surface_anisotropy",
    "shape_factor",
    "has_reconstructed",
    "possible_species",
    "has_props",
    "theoretical",
    "database_IDs"
  ]
}
