{
  "builder_meta": null,
  "nsites": null,
  "elements": null,
  "nelements": null,
  "composition": null,
  "composition_reduced": null,
  "formula_pretty": "HfSi2",
  "formula_anonymous": "AB2",
  "chemsys": null,
  "volume": 97.0772619152141,
  "density": 8.027909939358391,
  "density_atomic": 16.17954365253568,
  "symmetry": null,
  "property_name": null,
  "material_id": "mp-1069",
  "deprecated": null,
  "deprecation_reasons": null,
  "last_updated": null,
  "origins": null,
  "warnings": null,
  "structure": {
    "@module": "pymatgen.core.structure",
    "@class": "Structure",
    "charge": 0,
    "lattice": {
      "matrix": [
        [3.64860584, -0.0, -0.0],
        [0.0, 3.53620107, -0.89120974],
        [-0.0, 0.01490439, 7.52032743]
      ],
      "pbc": [true, true, true],
      "a": 3.64860584,
      "b": 3.646775672856779,
      "c": 7.520342199345166,
      "alpha": 104.0318167747409,
      "beta": 90.0,
      "gamma": 90.0,
      "volume": 97.0772619152141
    },
    "properties": {},
    "sites": [
      {
        "species": [{ "element": "Hf", "occu": 1 }],
        "abc": [0.25, 0.89426445, 0.7885279],
        "properties": { "magmom": 0.0 },
        "label": "Hf",
        "xyz": [0.91215146, 3.1740514323004425, 5.1330108077145535]
      },
      {
        "species": [{ "element": "Hf", "occu": 1 }],
        "abc": [0.75, 0.10573555, 0.2114721],
        "properties": { "magmom": 0.0 },
        "label": "Hf",
        "xyz": [2.73645438, 0.3770540276995575, 1.496106882285446]
      },
      {
        "species": [{ "element": "Si", "occu": 1 }],
        "abc": [0.25, 0.25020998, 0.50041695],
        "properties": { "magmom": -0.0 },
        "label": "Si",
        "xyz": [0.91215146, 0.8922512083860892, 3.540309744300733]
      },
      {
        "species": [{ "element": "Si", "occu": 1 }],
        "abc": [0.75, 0.7497900200000001, 0.49958305000000003],
        "properties": { "magmom": -0.0 },
        "label": "Si",
        "xyz": [2.73645438, 2.6588542516139113, 3.088807945699267]
      },
      {
        "species": [{ "element": "Si", "occu": 1 }],
        "abc": [0.75, 0.4471726, 0.8943452],
        "properties": { "magmom": 0.0 },
        "label": "Si",
        "xyz": [2.73645438, 1.59462189625011, 6.327244162867712]
      },
      {
        "species": [{ "element": "Si", "occu": 1 }],
        "abc": [0.25, 0.5528274, 0.1056548],
        "properties": { "magmom": 0.0 },
        "label": "Si",
        "xyz": [0.91215146, 1.9564835637498899, 0.30187352713228793]
      }
    ]
  },
  "task_ids": null,
  "uncorrected_energy_per_atom": null,
  "energy_per_atom": -21.458283538333333,
  "formation_energy_per_atom": -0.558635345000001,
  "energy_above_hull": 0.011539529166668,
  "is_stable": false,
  "equilibrium_reaction_energy_per_atom": null,
  "decomposes_to": null,
  "xas": null,
  "grain_boundaries": null,
  "band_gap": 0.0,
  "cbm": null,
  "vbm": null,
  "efermi": 8.34564161,
  "is_gap_direct": null,
  "is_metal": null,
  "es_source_calc_id": null,
  "bandstructure": null,
  "dos": null,
  "dos_energy_up": null,
  "dos_energy_down": null,
  "is_magnetic": null,
  "ordering": null,
  "total_magnetization": 1e-6,
  "total_magnetization_normalized_vol": null,
  "total_magnetization_normalized_formula_units": null,
  "num_magnetic_sites": null,
  "num_unique_magnetic_sites": null,
  "types_of_magnetic_species": null,
  "bulk_modulus": null,
  "shear_modulus": null,
  "universal_anisotropy": null,
  "homogeneous_poisson": null,
  "e_total": null,
  "e_ionic": null,
  "e_electronic": null,
  "n": null,
  "e_ij_max": null,
  "weighted_surface_energy_EV_PER_ANG2": null,
  "weighted_surface_energy": null,
  "weighted_work_function": null,
  "surface_anisotropy": null,
  "shape_factor": null,
  "has_reconstructed": null,
  "possible_species": null,
  "has_props": null,
  "theoretical": null,
  "database_IDs": null,
  "fields_not_requested": [
    "builder_meta",
    "nsites",
    "elements",
    "nelements",
    "composition",
    "composition_reduced",
    "chemsys",
    "symmetry",
    "property_name",
    "deprecated",
    "deprecation_reasons",
    "last_updated",
    "origins",
    "warnings",
    "task_ids",
    "uncorrected_energy_per_atom",
    "equilibrium_reaction_energy_per_atom",
    "decomposes_to",
    "xas",
    "grain_boundaries",
    "cbm",
    "vbm",
    "is_gap_direct",
    "is_metal",
    "es_source_calc_id",
    "bandstructure",
    "dos",
    "dos_energy_up",
    "dos_energy_down",
    "is_magnetic",
    "ordering",
    "total_magnetization_normalized_vol",
    "total_magnetization_normalized_formula_units",
    "num_magnetic_sites",
    "num_unique_magnetic_sites",
    "types_of_magnetic_species",
    "bulk_modulus",
    "shear_modulus",
    "universal_anisotropy",
    "homogeneous_poisson",
    "e_total",
    "e_ionic",
    "e_electronic",
    "n",
    "e_ij_max",
    "weighted_surface_energy_EV_PER_ANG2",
    "weighted_surface_energy",
    "weighted_work_function",
    "surface_anisotropy",
    "shape_factor",
    "has_reconstructed",
    "possible_species",
    "has_props",
    "theoretical",
    "database_IDs"
  ]
}
