{
  "builder_meta": null,
  "nsites": null,
  "elements": null,
  "nelements": null,
  "composition": null,
  "composition_reduced": null,
  "formula_pretty": "HfSi",
  "formula_anonymous": "AB",
  "chemsys": null,
  "volume": 135.0734256466118,
  "density": 10.15822872072195,
  "density_atomic": 16.884178205826476,
  "symmetry": null,
  "property_name": null,
  "material_id": "mp-1042",
  "deprecated": null,
  "deprecation_reasons": null,
  "last_updated": null,
  "origins": null,
  "warnings": null,
  "structure": {
    "@module": "pymatgen.core.structure",
    "@class": "Structure",
    "charge": 0,
    "lattice": {
      "matrix": [
        [3.76822566, 0.0, 0.0],
        [0.0, 5.22344715, 0.0],
        [0.0, 0.0, 6.86239649]
      ],
      "pbc": [true, true, true],
      "a": 3.76822566,
      "b": 5.22344715,
      "c": 6.86239649,
      "alpha": 90.0,
      "beta": 90.0,
      "gamma": 90.0,
      "volume": 135.0734256466118
    },
    "properties": {},
    "sites": [
      {
        "species": [{ "element": "Hf", "occu": 1 }],
        "abc": [0.25, 0.374392399999999, 0.67514414],
        "properties": { "magmom": 0.0 },
        "label": "Hf",
        "xyz": [0.942056415, 1.955618914761655, 4.633106776580068]
      },
      {
        "species": [{ "element": "Hf", "occu": 1 }],
        "abc": [0.75, 0.625607599999999, 0.32485586],
        "properties": { "magmom": 0.0 },
        "label": "Hf",
        "xyz": [2.826169245, 3.267828235238335, 2.229289713419931]
      },
      {
        "species": [{ "element": "Hf", "occu": 1 }],
        "abc": [0.75, 0.8743924, 0.82485586],
        "properties": { "magmom": 0.0 },
        "label": "Hf",
        "xyz": [2.826169245, 4.56734248976166, 5.660487958419932]
      },
      {
        "species": [{ "element": "Hf", "occu": 1 }],
        "abc": [0.25, 0.12560759999999901, 0.17514414],
        "properties": { "magmom": 0.0 },
        "label": "Hf",
        "xyz": [0.942056415, 0.6561046602383349, 1.2019085315800686]
      },
      {
        "species": [{ "element": "Si", "occu": 1 }],
        "abc": [0.25, 0.86087047, 0.54312423],
        "properties": { "magmom": -0.0 },
        "label": "Si",
        "xyz": [0.942056415, 4.496711403040661, 3.7271338095859528]
      },
      {
        "species": [{ "element": "Si", "occu": 1 }],
        "abc": [0.75, 0.13912953, 0.45687477],
        "properties": { "magmom": -0.0 },
        "label": "Si",
        "xyz": [2.826169245, 0.7267357469593395, 3.135255818017557]
      },
      {
        "species": [{ "element": "Si", "occu": 1 }],
        "abc": [0.75, 0.36087047, 0.95687577],
        "properties": { "magmom": -0.0 },
        "label": "Si",
        "xyz": [2.826169245, 1.8849878280406605, 6.566460925414048]
      },
      {
        "species": [{ "element": "Si", "occu": 1 }],
        "abc": [0.25, 0.6391295300000001, 0.04312423],
        "properties": { "magmom": -0.0 },
        "label": "Si",
        "xyz": [0.942056415, 3.33845932195934, 0.2959355645859527]
      }
    ]
  },
  "task_ids": null,
  "uncorrected_energy_per_atom": null,
  "energy_per_atom": -27.81785230375,
  "formation_energy_per_atom": -0.8552623112500011,
  "energy_above_hull": 0.0,
  "is_stable": true,
  "equilibrium_reaction_energy_per_atom": null,
  "decomposes_to": null,
  "xas": null,
  "grain_boundaries": null,
  "band_gap": 0.0,
  "cbm": null,
  "vbm": null,
  "efermi": 7.44900616,
  "is_gap_direct": null,
  "is_metal": null,
  "es_source_calc_id": null,
  "bandstructure": null,
  "dos": null,
  "dos_energy_up": null,
  "dos_energy_down": null,
  "is_magnetic": null,
  "ordering": null,
  "total_magnetization": 0.0,
  "total_magnetization_normalized_vol": null,
  "total_magnetization_normalized_formula_units": null,
  "num_magnetic_sites": null,
  "num_unique_magnetic_sites": null,
  "types_of_magnetic_species": null,
  "bulk_modulus": null,
  "shear_modulus": null,
  "universal_anisotropy": null,
  "homogeneous_poisson": null,
  "e_total": null,
  "e_ionic": null,
  "e_electronic": null,
  "n": null,
  "e_ij_max": null,
  "weighted_surface_energy_EV_PER_ANG2": null,
  "weighted_surface_energy": null,
  "weighted_work_function": null,
  "surface_anisotropy": null,
  "shape_factor": null,
  "has_reconstructed": null,
  "possible_species": null,
  "has_props": null,
  "theoretical": null,
  "database_IDs": null,
  "fields_not_requested": [
    "builder_meta",
    "nsites",
    "elements",
    "nelements",
    "composition",
    "composition_reduced",
    "chemsys",
    "symmetry",
    "property_name",
    "deprecated",
    "deprecation_reasons",
    "last_updated",
    "origins",
    "warnings",
    "task_ids",
    "uncorrected_energy_per_atom",
    "equilibrium_reaction_energy_per_atom",
    "decomposes_to",
    "xas",
    "grain_boundaries",
    "cbm",
    "vbm",
    "is_gap_direct",
    "is_metal",
    "es_source_calc_id",
    "bandstructure",
    "dos",
    "dos_energy_up",
    "dos_energy_down",
    "is_magnetic",
    "ordering",
    "total_magnetization_normalized_vol",
    "total_magnetization_normalized_formula_units",
    "num_magnetic_sites",
    "num_unique_magnetic_sites",
    "types_of_magnetic_species",
    "bulk_modulus",
    "shear_modulus",
    "universal_anisotropy",
    "homogeneous_poisson",
    "e_total",
    "e_ionic",
    "e_electronic",
    "n",
    "e_ij_max",
    "weighted_surface_energy_EV_PER_ANG2",
    "weighted_surface_energy",
    "weighted_work_function",
    "surface_anisotropy",
    "shape_factor",
    "has_reconstructed",
    "possible_species",
    "has_props",
    "theoretical",
    "database_IDs"
  ]
}
