{"builder_meta": null, "nsites": null, "elements": null, "nelements": null, "composition": null, "composition_reduced": null, "formula_pretty": "HfSn", "formula_anonymous": "AB", "chemsys": null, "volume": 182.09365435045112, "density": 10.84084368242121, "density_atomic": 22.76170679380639, "symmetry": null, "property_name": null, "material_id": "mp-21328", "deprecated": null, "deprecation_reasons": null, "last_updated": null, "origins": null, "warnings": null, "structure": {"@module": "pymatgen.core.structure", "@class": "Structure", "charge": 0, "lattice": {"matrix": [[5.668023, 0.0, 0.0], [0.0, 5.668023, 0.0], [0.0, 0.0, 5.668023]], "pbc": [true, true, true], "a": 5.668023, "b": 5.668023, "c": 5.668023, "alpha": 90.0, "beta": 90.0, "gamma": 90.0, "volume": 182.09365435045112}, "properties": {}, "sites": [{"species": [{"element": "Hf", "occu": 1}], "abc": [0.857069, 0.642930999999999, 0.357068999999999], "properties": {"magmom": -0.0}, "label": "Hf", "xyz": [4.857886804586999, 3.6441476954129945, 2.0238753045869946]}, {"species": [{"element": "Hf", "occu": 1}], "abc": [0.642930999999999, 0.357068999999999, 0.857069], "properties": {"magmom": -0.0}, "label": "Hf", "xyz": [3.6441476954129945, 2.0238753045869946, 4.857886804586999]}, {"species": [{"element": "Hf", "occu": 1}], "abc": [0.357068999999999, 0.857069, 0.642930999999999], "properties": {"magmom": -0.0}, "label": "Hf", "xyz": [2.0238753045869946, 4.857886804586999, 3.6441476954129945]}, {"species": [{"element": "Hf", "occu": 1}], "abc": [0.142931, 0.142931, 0.142931], "properties": {"magmom": -0.0}, "label": "Hf", "xyz": [0.810136195413, 0.810136195413, 0.810136195413]}, {"species": [{"element": "Sn", "occu": 1}], "abc": [0.156365, 0.343634999999999, 0.656365], "properties": {"magmom": -0.0}, "label": "Sn", "xyz": [0.886280416395, 1.9477310836049944, 3.720291916395]}, {"species": [{"element": "Sn", "occu": 1}], "abc": [0.343634999999999, 0.656365, 0.156365], "properties": {"magmom": -0.0}, "label": "Sn", "xyz": [1.9477310836049944, 3.720291916395, 0.886280416395]}, {"species": [{"element": "Sn", "occu": 1}], "abc": [0.656365, 0.156365, 0.343634999999999], "properties": {"magmom": -0.0}, "label": "Sn", "xyz": [3.720291916395, 0.886280416395, 1.9477310836049944]}, {"species": [{"element": "Sn", "occu": 1}], "abc": [0.843634999999999, 0.843634999999999, 0.843634999999999], "properties": {"magmom": -0.0}, "label": "Sn", "xyz": [4.781742583604994, 4.781742583604994, 4.781742583604994]}]}, "task_ids": null, "uncorrected_energy_per_atom": null, "energy_per_atom": -35.24893930425, "formation_energy_per_atom": -0.30013971925000504, "energy_above_hull": 0.09345728124999601, "is_stable": false, "equilibrium_reaction_energy_per_atom": null, "decomposes_to": null, "xas": null, "grain_boundaries": null, "band_gap": 0.0, "cbm": null, "vbm": null, "efermi": 7.00380352, "is_gap_direct": null, "is_metal": null, "es_source_calc_id": null, "bandstructure": null, "dos": null, "dos_energy_up": null, "dos_energy_down": null, "is_magnetic": null, "ordering": null, "total_magnetization": 9.410000000000001e-05, "total_magnetization_normalized_vol": null, "total_magnetization_normalized_formula_units": null, "num_magnetic_sites": null, "num_unique_magnetic_sites": null, "types_of_magnetic_species": null, "bulk_modulus": null, "shear_modulus": null, "universal_anisotropy": null, "homogeneous_poisson": null, "e_total": null, "e_ionic": null, "e_electronic": null, "n": null, "e_ij_max": null, "weighted_surface_energy_EV_PER_ANG2": null, "weighted_surface_energy": null, "weighted_work_function": null, "surface_anisotropy": null, "shape_factor": null, "has_reconstructed": null, "possible_species": null, "has_props": null, "theoretical": null, "database_IDs": null, "fields_not_requested": ["builder_meta", "nsites", "elements", "nelements", "composition", "composition_reduced", "chemsys", "symmetry", "property_name", "deprecated", "deprecation_reasons", "last_updated", "origins", "warnings", "task_ids", "uncorrected_energy_per_atom", "equilibrium_reaction_energy_per_atom", "decomposes_to", "xas", "grain_boundaries", "cbm", "vbm", "is_gap_direct", "is_metal", "es_source_calc_id", "bandstructure", "dos", "dos_energy_up", "dos_energy_down", "is_magnetic", "ordering", "total_magnetization_normalized_vol", "total_magnetization_normalized_formula_units", "num_magnetic_sites", "num_unique_magnetic_sites", "types_of_magnetic_species", "bulk_modulus", "shear_modulus", "universal_anisotropy", "homogeneous_poisson", "e_total", "e_ionic", "e_electronic", "n", "e_ij_max", "weighted_surface_energy_EV_PER_ANG2", "weighted_surface_energy", "weighted_work_function", "surface_anisotropy", "shape_factor", "has_reconstructed", "possible_species", "has_props", "theoretical", "database_IDs"]}