{
  "builder_meta": null,
  "nsites": null,
  "elements": null,
  "nelements": null,
  "composition": null,
  "composition_reduced": null,
  "formula_pretty": "HfSn2",
  "formula_anonymous": "AB2",
  "chemsys": null,
  "volume": 200.124895506875,
  "density": 10.35305679646259,
  "density_atomic": 22.23609950076389,
  "symmetry": null,
  "property_name": null,
  "material_id": "mp-1079810",
  "deprecated": null,
  "deprecation_reasons": null,
  "last_updated": null,
  "origins": null,
  "warnings": null,
  "structure": {
    "@module": "pymatgen.core.structure",
    "@class": "Structure",
    "charge": 0,
    "lattice": {
      "matrix": [
        [-2.74939324, -4.76208863, -0.0],
        [-2.74939324, 4.76208863, 0.0],
        [0.0, 0.0, -7.64252359]
      ],
      "pbc": [true, true, true],
      "a": 5.498786348653034,
      "b": 5.498786348653034,
      "c": 7.64252359,
      "alpha": 90.0,
      "beta": 90.0,
      "gamma": 119.99999841967941,
      "volume": 200.124895506875
    },
    "properties": {},
    "sites": [
      {
        "species": [{ "element": "Hf", "occu": 1 }],
        "abc": [0.5, 0.0, 0.166666999999999],
        "properties": { "magmom": 0.0 },
        "label": "Hf",
        "xyz": [-1.37469662, -2.381044315, -1.2737564791745224]
      },
      {
        "species": [{ "element": "Hf", "occu": 1 }],
        "abc": [0.5, 0.5, 0.5],
        "properties": { "magmom": 0.0 },
        "label": "Hf",
        "xyz": [-2.74939324, 0.0, -3.821261795]
      },
      {
        "species": [{ "element": "Hf", "occu": 1 }],
        "abc": [-0.0, 0.5, 0.833333],
        "properties": { "magmom": 0.0 },
        "label": "Hf",
        "xyz": [-1.37469662, 2.381044315, -6.36876711082547]
      },
      {
        "species": [{ "element": "Sn", "occu": 1 }],
        "abc": [0.83248169, 0.66496639, 0.166666999999999],
        "properties": { "magmom": -0.0 },
        "label": "Sn",
        "xyz": [-4.117073628402979, -0.7977227054810392, -1.2737564791745224]
      },
      {
        "species": [{ "element": "Sn", "occu": 1 }],
        "abc": [0.83248169, 0.16751831, 0.5],
        "properties": { "magmom": -0.0 },
        "label": "Sn",
        "xyz": [-2.74939324, -3.1666145512643697, -3.821261795]
      },
      {
        "species": [{ "element": "Sn", "occu": 1 }],
        "abc": [0.33503361, 0.16751831, 0.833333],
        "properties": { "magmom": -0.0 },
        "label": "Sn",
        "xyz": [-1.3817128515970207, -0.797722705481039, -6.36876711082547]
      },
      {
        "species": [{ "element": "Sn", "occu": 1 }],
        "abc": [0.16751831, 0.33503361, 0.166666999999999],
        "properties": { "magmom": -0.0 },
        "label": "Sn",
        "xyz": [-1.3817128515970207, 0.797722705481039, -1.2737564791745224]
      },
      {
        "species": [{ "element": "Sn", "occu": 1 }],
        "abc": [0.16751831, 0.83248169, 0.5],
        "properties": { "magmom": -0.0 },
        "label": "Sn",
        "xyz": [-2.74939324, 3.1666145512643697, -3.821261795]
      },
      {
        "species": [{ "element": "Sn", "occu": 1 }],
        "abc": [0.66496639, 0.83248169, 0.833333],
        "properties": { "magmom": -0.0 },
        "label": "Sn",
        "xyz": [-4.117073628402979, 0.7977227054810392, -6.36876711082547]
      }
    ]
  },
  "task_ids": null,
  "uncorrected_energy_per_atom": null,
  "energy_per_atom": -31.80919927777778,
  "formation_energy_per_atom": -0.261271627777786,
  "energy_above_hull": 0.0011263725555530001,
  "is_stable": false,
  "equilibrium_reaction_energy_per_atom": null,
  "decomposes_to": null,
  "xas": null,
  "grain_boundaries": null,
  "band_gap": 0.0,
  "cbm": null,
  "vbm": null,
  "efermi": 8.1704122,
  "is_gap_direct": null,
  "is_metal": null,
  "es_source_calc_id": null,
  "bandstructure": null,
  "dos": null,
  "dos_energy_up": null,
  "dos_energy_down": null,
  "is_magnetic": null,
  "ordering": null,
  "total_magnetization": 1.27e-5,
  "total_magnetization_normalized_vol": null,
  "total_magnetization_normalized_formula_units": null,
  "num_magnetic_sites": null,
  "num_unique_magnetic_sites": null,
  "types_of_magnetic_species": null,
  "bulk_modulus": null,
  "shear_modulus": null,
  "universal_anisotropy": null,
  "homogeneous_poisson": null,
  "e_total": null,
  "e_ionic": null,
  "e_electronic": null,
  "n": null,
  "e_ij_max": null,
  "weighted_surface_energy_EV_PER_ANG2": null,
  "weighted_surface_energy": null,
  "weighted_work_function": null,
  "surface_anisotropy": null,
  "shape_factor": null,
  "has_reconstructed": null,
  "possible_species": null,
  "has_props": null,
  "theoretical": null,
  "database_IDs": null,
  "fields_not_requested": [
    "builder_meta",
    "nsites",
    "elements",
    "nelements",
    "composition",
    "composition_reduced",
    "chemsys",
    "symmetry",
    "property_name",
    "deprecated",
    "deprecation_reasons",
    "last_updated",
    "origins",
    "warnings",
    "task_ids",
    "uncorrected_energy_per_atom",
    "equilibrium_reaction_energy_per_atom",
    "decomposes_to",
    "xas",
    "grain_boundaries",
    "cbm",
    "vbm",
    "is_gap_direct",
    "is_metal",
    "es_source_calc_id",
    "bandstructure",
    "dos",
    "dos_energy_up",
    "dos_energy_down",
    "is_magnetic",
    "ordering",
    "total_magnetization_normalized_vol",
    "total_magnetization_normalized_formula_units",
    "num_magnetic_sites",
    "num_unique_magnetic_sites",
    "types_of_magnetic_species",
    "bulk_modulus",
    "shear_modulus",
    "universal_anisotropy",
    "homogeneous_poisson",
    "e_total",
    "e_ionic",
    "e_electronic",
    "n",
    "e_ij_max",
    "weighted_surface_energy_EV_PER_ANG2",
    "weighted_surface_energy",
    "weighted_work_function",
    "surface_anisotropy",
    "shape_factor",
    "has_reconstructed",
    "possible_species",
    "has_props",
    "theoretical",
    "database_IDs"
  ]
}
