{
  "builder_meta": null,
  "nsites": null,
  "elements": null,
  "nelements": null,
  "composition": null,
  "composition_reduced": null,
  "formula_pretty": "HfTc2",
  "formula_anonymous": "AB2",
  "chemsys": null,
  "volume": 200.3996695753365,
  "density": 12.412301404863527,
  "density_atomic": 16.699972464611374,
  "symmetry": null,
  "property_name": null,
  "material_id": "mp-1095669",
  "deprecated": null,
  "deprecation_reasons": null,
  "last_updated": null,
  "origins": null,
  "warnings": null,
  "structure": {
    "@module": "pymatgen.core.structure",
    "@class": "Structure",
    "charge": 0,
    "lattice": {
      "matrix": [
        [-2.5888366400000002, -4.48558969, 0.0],
        [-2.5888366400000002, 4.48558969, -0.0],
        [0.0, 0.0, -8.62864922]
      ],
      "pbc": [true, true, true],
      "a": 5.179053003748927,
      "b": 5.179053003748927,
      "c": 8.62864922,
      "alpha": 90.0,
      "beta": 90.0,
      "gamma": 120.01762440664919,
      "volume": 200.39966957533653
    },
    "properties": {},
    "sites": [
      {
        "species": [{ "element": "Hf", "occu": 1 }],
        "abc": [0.66662164, 0.33337836, 0.56286998],
        "properties": { "magmom": 0.0 },
        "label": "Hf",
        "xyz": [-2.5888366400000002, -1.4947926210297835, -4.8568076138884155]
      },
      {
        "species": [{ "element": "Hf", "occu": 1 }],
        "abc": [0.33337836, 0.66662164, 0.43713002],
        "properties": { "magmom": 0.0 },
        "label": "Hf",
        "xyz": [-2.5888366400000002, 1.4947926210297835, -3.7718416061115843]
      },
      {
        "species": [{ "element": "Hf", "occu": 1 }],
        "abc": [0.33337836, 0.66662164, 0.06286998],
        "properties": { "magmom": 0.0 },
        "label": "Hf",
        "xyz": [-2.5888366400000002, 1.4947926210297835, -0.5424830038884156]
      },
      {
        "species": [{ "element": "Hf", "occu": 1 }],
        "abc": [0.66662164, 0.33337836, 0.93713002],
        "properties": { "magmom": 0.0 },
        "label": "Hf",
        "xyz": [-2.5888366400000002, -1.4947926210297835, -8.086166216111584]
      },
      {
        "species": [{ "element": "Tc", "occu": 1 }],
        "abc": [0.0, -0.0, 0.5],
        "properties": { "magmom": 0.0 },
        "label": "Tc",
        "xyz": [0.0, 0.0, -4.31432461]
      },
      {
        "species": [{ "element": "Tc", "occu": 1 }],
        "abc": [0.0, -0.0, 0.0],
        "properties": { "magmom": 0.0 },
        "label": "Tc",
        "xyz": [0.0, 0.0, 0.0]
      },
      {
        "species": [{ "element": "Tc", "occu": 1 }],
        "abc": [0.17262193, 0.34535421, 0.75],
        "properties": { "magmom": -0.0 },
        "label": "Tc",
        "xyz": [-1.3409556098777697, 0.7748061342981932, -6.471486915]
      },
      {
        "species": [{ "element": "Tc", "occu": 1 }],
        "abc": [0.17267199, 0.82732801, 0.75],
        "properties": { "magmom": -0.0 },
        "label": "Tc",
        "xyz": [-2.5888366400000002, 2.936518293808434, -6.471486915]
      },
      {
        "species": [{ "element": "Tc", "occu": 1 }],
        "abc": [0.65464579, 0.82737807, 0.75],
        "properties": { "magmom": -0.0 },
        "label": "Tc",
        "xyz": [-3.8367176701222307, 0.7748061342981933, -6.471486915]
      },
      {
        "species": [{ "element": "Tc", "occu": 1 }],
        "abc": [0.82737807, 0.65464579, 0.25],
        "properties": { "magmom": -0.0 },
        "label": "Tc",
        "xyz": [-3.8367176701222307, -0.7748061342981933, -2.157162305]
      },
      {
        "species": [{ "element": "Tc", "occu": 1 }],
        "abc": [0.82732801, 0.17267199, 0.25],
        "properties": { "magmom": -0.0 },
        "label": "Tc",
        "xyz": [-2.5888366400000002, -2.936518293808434, -2.157162305]
      },
      {
        "species": [{ "element": "Tc", "occu": 1 }],
        "abc": [0.34535421, 0.17262193, 0.25],
        "properties": { "magmom": -0.0 },
        "label": "Tc",
        "xyz": [-1.3409556098777697, -0.7748061342981932, -2.157162305]
      }
    ]
  },
  "task_ids": null,
  "uncorrected_energy_per_atom": null,
  "energy_per_atom": -32.770205788333335,
  "formation_energy_per_atom": -0.40995929166666606,
  "energy_above_hull": 0.0,
  "is_stable": true,
  "equilibrium_reaction_energy_per_atom": null,
  "decomposes_to": null,
  "xas": null,
  "grain_boundaries": null,
  "band_gap": 0.0,
  "cbm": null,
  "vbm": null,
  "efermi": 7.12646932,
  "is_gap_direct": null,
  "is_metal": null,
  "es_source_calc_id": null,
  "bandstructure": null,
  "dos": null,
  "dos_energy_up": null,
  "dos_energy_down": null,
  "is_magnetic": null,
  "ordering": null,
  "total_magnetization": 3e-7,
  "total_magnetization_normalized_vol": null,
  "total_magnetization_normalized_formula_units": null,
  "num_magnetic_sites": null,
  "num_unique_magnetic_sites": null,
  "types_of_magnetic_species": null,
  "bulk_modulus": null,
  "shear_modulus": null,
  "universal_anisotropy": null,
  "homogeneous_poisson": null,
  "e_total": null,
  "e_ionic": null,
  "e_electronic": null,
  "n": null,
  "e_ij_max": null,
  "weighted_surface_energy_EV_PER_ANG2": null,
  "weighted_surface_energy": null,
  "weighted_work_function": null,
  "surface_anisotropy": null,
  "shape_factor": null,
  "has_reconstructed": null,
  "possible_species": null,
  "has_props": null,
  "theoretical": null,
  "database_IDs": null,
  "fields_not_requested": [
    "builder_meta",
    "nsites",
    "elements",
    "nelements",
    "composition",
    "composition_reduced",
    "chemsys",
    "symmetry",
    "property_name",
    "deprecated",
    "deprecation_reasons",
    "last_updated",
    "origins",
    "warnings",
    "task_ids",
    "uncorrected_energy_per_atom",
    "equilibrium_reaction_energy_per_atom",
    "decomposes_to",
    "xas",
    "grain_boundaries",
    "cbm",
    "vbm",
    "is_gap_direct",
    "is_metal",
    "es_source_calc_id",
    "bandstructure",
    "dos",
    "dos_energy_up",
    "dos_energy_down",
    "is_magnetic",
    "ordering",
    "total_magnetization_normalized_vol",
    "total_magnetization_normalized_formula_units",
    "num_magnetic_sites",
    "num_unique_magnetic_sites",
    "types_of_magnetic_species",
    "bulk_modulus",
    "shear_modulus",
    "universal_anisotropy",
    "homogeneous_poisson",
    "e_total",
    "e_ionic",
    "e_electronic",
    "n",
    "e_ij_max",
    "weighted_surface_energy_EV_PER_ANG2",
    "weighted_surface_energy",
    "weighted_work_function",
    "surface_anisotropy",
    "shape_factor",
    "has_reconstructed",
    "possible_species",
    "has_props",
    "theoretical",
    "database_IDs"
  ]
}
