{"builder_meta": null, "nsites": null, "elements": null, "nelements": null, "composition": null, "composition_reduced": null, "formula_pretty": "HfTe5", "formula_anonymous": "AB5", "chemsys": null, "volume": 424.7805018847658, "density": 6.383595934711891, "density_atomic": 35.39837515706382, "symmetry": null, "property_name": null, "material_id": "mp-1168", "deprecated": null, "deprecation_reasons": null, "last_updated": null, "origins": null, "warnings": null, "structure": {"@module": "pymatgen.core.structure", "@class": "Structure", "charge": 0, "lattice": {"matrix": [[4.01718872, -0.00129183, -3.745e-05], [-2.01099039, 7.64401747, 0.001489399999999], [-0.00014899, 0.0027979800000000003, 13.83430761]], "pbc": [true, true, true], "a": 4.017188927885081, "b": 7.904118397939767, "c": 13.834307893747125, "alpha": 89.9778398604871, "beta": 90.00115491559747, "gamma": 104.75782947648602, "volume": 424.7805018847658}, "properties": {}, "sites": [{"species": [{"element": "Hf", "occu": 1}], "abc": [0.68532257, 0.3712159, 0.25004558], "properties": {"magmom": -0.0}, "label": "Hf", "xyz": [2.0065212359592453, 2.8373951270180977, 3.4597346938720768]}, {"species": [{"element": "Hf", "occu": 1}], "abc": [0.31467808, 0.62876331, 0.74995108], "properties": {"magmom": 0.0}, "label": "Hf", "xyz": [-0.00042747579874227986, 4.807969563673758, 10.375978628551536]}, {"species": [{"element": "Te", "occu": 1}], "abc": [0.21313685000000002, 0.42659603, 0.93430724], "properties": {"magmom": -0.0}, "label": "Te", "xyz": [-0.0018087695415072691, 3.263246342347084, 12.926121150562144]}, {"species": [{"element": "Te", "occu": 1}], "abc": [0.7868434, 0.57343164, 0.06569831], "properties": {"magmom": 0.0}, "label": "Te", "xyz": [2.0077231251333014, 4.382488828658743, 0.9097152317964244]}, {"species": [{"element": "Te", "occu": 1}], "abc": [0.67048444, 0.34180925, 0.75007132], "properties": {"magmom": -0.0}, "label": "Te", "xyz": [2.0059756592144424, 2.614028411045406, 10.377201351373417]}, {"species": [{"element": "Te", "occu": 1}], "abc": [0.32947147, 0.65818162, 0.24996582], "properties": {"magmom": -0.0}, "label": "Te", "xyz": [-8.508225633531343e-05, 5.031425579948855, 3.459072002864166]}, {"species": [{"element": "Te", "occu": 1}], "abc": [0.92456375, 0.84750322, 0.8493792], "properties": {"magmom": -0.0}, "label": "Te", "xyz": [2.0096996874998365, 6.479511586386106, 11.751800776719142]}, {"species": [{"element": "Te", "occu": 1}], "abc": [0.07556399, 0.15251186, 0.15061677], "properties": {"magmom": -0.0}, "label": "Te", "xyz": [-0.003167516947394893, 1.1661271291031172, 2.0839030486974783]}, {"species": [{"element": "Te", "occu": 1}], "abc": [0.0755622, 0.15251593, 0.34955419], "properties": {"magmom": 0.0}, "label": "Te", "xyz": [-0.003212532132296762, 1.1667148654890072, 4.836064518246138]}, {"species": [{"element": "Te", "occu": 1}], "abc": [0.92445864, 0.84748323, 0.65043361], "properties": {"magmom": 0.0}, "label": "Te", "xyz": [2.0093472813948274, 6.478802272479225, 8.999526261169466]}, {"species": [{"element": "Te", "occu": 1}], "abc": [0.2130588, 0.42662345, 0.5657336900000001], "properties": {"magmom": 0.0}, "label": "Te", "xyz": [-0.002122538704382595, 3.2624247807120135, 7.8271613267147515]}, {"species": [{"element": "Te", "occu": 1}], "abc": [0.78685681, 0.57336555, 0.43424419000000003], "properties": {"magmom": -0.0}, "label": "Te", "xyz": [2.0078549923382507, 4.383014802222031, 6.008292205177921]}]}, "task_ids": null, "uncorrected_energy_per_atom": null, "energy_per_atom": -29.222920740000003, "formation_energy_per_atom": -0.5166645833333371, "energy_above_hull": 0.0, "is_stable": true, "equilibrium_reaction_energy_per_atom": null, "decomposes_to": null, "xas": null, "grain_boundaries": null, "band_gap": 0.0, "cbm": null, "vbm": null, "efermi": 4.63739128, "is_gap_direct": null, "is_metal": null, "es_source_calc_id": null, "bandstructure": null, "dos": null, "dos_energy_up": null, "dos_energy_down": null, "is_magnetic": null, "ordering": null, "total_magnetization": 0.0, "total_magnetization_normalized_vol": null, "total_magnetization_normalized_formula_units": null, "num_magnetic_sites": null, "num_unique_magnetic_sites": null, "types_of_magnetic_species": null, "bulk_modulus": null, "shear_modulus": null, "universal_anisotropy": null, "homogeneous_poisson": null, "e_total": null, "e_ionic": null, "e_electronic": null, "n": null, "e_ij_max": null, "weighted_surface_energy_EV_PER_ANG2": null, "weighted_surface_energy": null, "weighted_work_function": null, "surface_anisotropy": null, "shape_factor": null, "has_reconstructed": null, "possible_species": null, "has_props": null, "theoretical": null, "database_IDs": null, "fields_not_requested": ["builder_meta", "nsites", "elements", "nelements", "composition", "composition_reduced", "chemsys", "symmetry", "property_name", "deprecated", "deprecation_reasons", "last_updated", "origins", "warnings", "task_ids", "uncorrected_energy_per_atom", "equilibrium_reaction_energy_per_atom", "decomposes_to", "xas", "grain_boundaries", "cbm", "vbm", "is_gap_direct", "is_metal", "es_source_calc_id", "bandstructure", "dos", "dos_energy_up", "dos_energy_down", "is_magnetic", "ordering", "total_magnetization_normalized_vol", "total_magnetization_normalized_formula_units", "num_magnetic_sites", "num_unique_magnetic_sites", "types_of_magnetic_species", "bulk_modulus", "shear_modulus", "universal_anisotropy", "homogeneous_poisson", "e_total", "e_ionic", "e_electronic", "n", "e_ij_max", "weighted_surface_energy_EV_PER_ANG2", "weighted_surface_energy", "weighted_work_function", "surface_anisotropy", "shape_factor", "has_reconstructed", "possible_species", "has_props", "theoretical", "database_IDs"]}