{"builder_meta": null, "nsites": null, "elements": null, "nelements": null, "composition": null, "composition_reduced": null, "formula_pretty": "HfTe2", "formula_anonymous": "AB2", "chemsys": null, "volume": 97.0733592385646, "density": 7.418710894962563, "density_atomic": 32.35778641285487, "symmetry": null, "property_name": null, "material_id": "mp-32887", "deprecated": null, "deprecation_reasons": null, "last_updated": null, "origins": null, "warnings": null, "structure": {"@module": "pymatgen.core.structure", "@class": "Structure", "charge": 0, "lattice": {"matrix": [[3.99240018, 2e-08, 0.0], [-1.99619956, 3.45752022, 0.0], [0.0, -0.0, 7.03236271]], "pbc": [true, true, true], "a": 3.99240018, "b": 3.9924001246184035, "c": 7.03236271, "alpha": 90.0, "beta": 90.0, "gamma": 119.99999138903358, "volume": 97.0733592385646}, "properties": {}, "sites": [{"species": [{"element": "Hf", "occu": 1}], "abc": [0.0, 0.0, -0.0], "properties": {"magmom": -0.0}, "label": "Hf", "xyz": [0.0, 0.0, 0.0]}, {"species": [{"element": "Te", "occu": 1}], "abc": [0.333333, 0.666667, 0.24730065], "properties": {"magmom": 0.0}, "label": "Te", "xyz": [-1.6428665798873254e-06, 2.3050146391734003, 1.7391078692187616]}, {"species": [{"element": "Te", "occu": 1}], "abc": [0.666667, 0.333333, 0.75269935], "properties": {"magmom": 0.0}, "label": "Te", "xyz": [1.99620226286658, 1.1525056008266, 5.2932548407812385]}]}, "task_ids": null, "uncorrected_energy_per_atom": null, "energy_per_atom": -32.98849148666667, "formation_energy_per_atom": -0.9932034833333311, "energy_above_hull": 0.0, "is_stable": true, "equilibrium_reaction_energy_per_atom": null, "decomposes_to": null, "xas": null, "grain_boundaries": null, "band_gap": 0.0, "cbm": null, "vbm": null, "efermi": 4.09001055, "is_gap_direct": null, "is_metal": null, "es_source_calc_id": null, "bandstructure": null, "dos": null, "dos_energy_up": null, "dos_energy_down": null, "is_magnetic": null, "ordering": null, "total_magnetization": 0.0, "total_magnetization_normalized_vol": null, "total_magnetization_normalized_formula_units": null, "num_magnetic_sites": null, "num_unique_magnetic_sites": null, "types_of_magnetic_species": null, "bulk_modulus": null, "shear_modulus": null, "universal_anisotropy": null, "homogeneous_poisson": null, "e_total": null, "e_ionic": null, "e_electronic": null, "n": null, "e_ij_max": null, "weighted_surface_energy_EV_PER_ANG2": null, "weighted_surface_energy": null, "weighted_work_function": null, "surface_anisotropy": null, "shape_factor": null, "has_reconstructed": null, "possible_species": null, "has_props": null, "theoretical": null, "database_IDs": null, "fields_not_requested": ["builder_meta", "nsites", "elements", "nelements", "composition", "composition_reduced", "chemsys", "symmetry", "property_name", "deprecated", "deprecation_reasons", "last_updated", "origins", "warnings", "task_ids", "uncorrected_energy_per_atom", "equilibrium_reaction_energy_per_atom", "decomposes_to", "xas", "grain_boundaries", "cbm", "vbm", "is_gap_direct", "is_metal", "es_source_calc_id", "bandstructure", "dos", "dos_energy_up", "dos_energy_down", "is_magnetic", "ordering", "total_magnetization_normalized_vol", "total_magnetization_normalized_formula_units", "num_magnetic_sites", "num_unique_magnetic_sites", "types_of_magnetic_species", "bulk_modulus", "shear_modulus", "universal_anisotropy", "homogeneous_poisson", "e_total", "e_ionic", "e_electronic", "n", "e_ij_max", "weighted_surface_energy_EV_PER_ANG2", "weighted_surface_energy", "weighted_work_function", "surface_anisotropy", "shape_factor", "has_reconstructed", "possible_species", "has_props", "theoretical", "database_IDs"]}