{"builder_meta": null, "nsites": null, "elements": null, "nelements": null, "composition": null, "composition_reduced": null, "formula_pretty": "HfTe3", "formula_anonymous": "AB3", "chemsys": null, "volume": 244.5690419493982, "density": 7.621929294589587, "density_atomic": 30.571130243674776, "symmetry": null, "property_name": null, "material_id": "mp-1025459", "deprecated": null, "deprecation_reasons": null, "last_updated": null, "origins": null, "warnings": null, "structure": {"@module": "pymatgen.core.structure", "@class": "Structure", "charge": 0, "lattice": {"matrix": [[0.0, -3.98450764, 0.0], [-5.88897588, 0.0, 0.82694205], [-0.029979580000000002, 0.0, -10.41865353]], "pbc": [true, true, true], "a": 3.98450764, "b": 5.946752901313453, "c": 10.418696662893995, "alpha": 97.82845807967485, "beta": 90.0, "gamma": 90.0, "volume": 244.5690419493982}, "properties": {}, "sites": [{"species": [{"element": "Hf", "occu": 1}], "abc": [0.75, 0.71274508, 0.84097513], "properties": {"magmom": -0.0}, "label": "Hf", "xyz": [-4.222550665896517, -2.98838073, -8.172429629234095]}, {"species": [{"element": "Hf", "occu": 1}], "abc": [0.25, 0.28725492, 0.15902587], "properties": {"magmom": -0.0}, "label": "Hf", "xyz": [-1.6964048240830645, -0.99612691, -1.4192922694194352]}, {"species": [{"element": "Te", "occu": 1}], "abc": [0.75, 0.56135112, 0.3200269], "properties": {"magmom": -0.0}, "label": "Te", "xyz": [-3.3153774779416874, -2.98838073, -2.870044545437361]}, {"species": [{"element": "Te", "occu": 1}], "abc": [0.25, 0.43864888, 0.6799731], "properties": {"magmom": -0.0}, "label": "Te", "xyz": [-2.603577982058313, -0.99612691, -6.72166693456264]}, {"species": [{"element": "Te", "occu": 1}], "abc": [0.75, 0.23737621, 0.95047087], "properties": {"magmom": -0.0}, "label": "Te", "xyz": [-1.4263974926606495, -2.98838073, -9.70633031516904]}, {"species": [{"element": "Te", "occu": 1}], "abc": [0.25, 0.76262379, 0.04952913], "properties": {"magmom": -0.0}, "label": "Te", "xyz": [-4.492557967339351, -0.99612691, 0.11461883516904059]}, {"species": [{"element": "Te", "occu": 1}], "abc": [0.75, 0.0976441, 0.32667123], "properties": {"magmom": 0.0}, "label": "Te", "xyz": [-0.5848172159977915, -2.98838073, -3.3227283513645367]}, {"species": [{"element": "Te", "occu": 1}], "abc": [0.25, 0.9023559, 0.67332877], "properties": {"magmom": 0.0}, "label": "Te", "xyz": [-5.334138244002209, -0.99612691, -6.268983128635464]}]}, "task_ids": null, "uncorrected_energy_per_atom": null, "energy_per_atom": -31.06609695625, "formation_energy_per_atom": -0.7153248762500011, "energy_above_hull": 0.039609157083333006, "is_stable": false, "equilibrium_reaction_energy_per_atom": null, "decomposes_to": null, "xas": null, "grain_boundaries": null, "band_gap": 0.0, "cbm": null, "vbm": null, "efermi": 5.33469997, "is_gap_direct": null, "is_metal": null, "es_source_calc_id": null, "bandstructure": null, "dos": null, "dos_energy_up": null, "dos_energy_down": null, "is_magnetic": null, "ordering": null, "total_magnetization": 0.0, "total_magnetization_normalized_vol": null, "total_magnetization_normalized_formula_units": null, "num_magnetic_sites": null, "num_unique_magnetic_sites": null, "types_of_magnetic_species": null, "bulk_modulus": null, "shear_modulus": null, "universal_anisotropy": null, "homogeneous_poisson": null, "e_total": null, "e_ionic": null, "e_electronic": null, "n": null, "e_ij_max": null, "weighted_surface_energy_EV_PER_ANG2": null, "weighted_surface_energy": null, "weighted_work_function": null, "surface_anisotropy": null, "shape_factor": null, "has_reconstructed": null, "possible_species": null, "has_props": null, "theoretical": null, "database_IDs": null, "fields_not_requested": ["builder_meta", "nsites", "elements", "nelements", "composition", "composition_reduced", "chemsys", "symmetry", "property_name", "deprecated", "deprecation_reasons", "last_updated", "origins", "warnings", "task_ids", "uncorrected_energy_per_atom", "equilibrium_reaction_energy_per_atom", "decomposes_to", "xas", "grain_boundaries", "cbm", "vbm", "is_gap_direct", "is_metal", "es_source_calc_id", "bandstructure", "dos", "dos_energy_up", "dos_energy_down", "is_magnetic", "ordering", "total_magnetization_normalized_vol", "total_magnetization_normalized_formula_units", "num_magnetic_sites", "num_unique_magnetic_sites", "types_of_magnetic_species", "bulk_modulus", "shear_modulus", "universal_anisotropy", "homogeneous_poisson", "e_total", "e_ionic", "e_electronic", "n", "e_ij_max", "weighted_surface_energy_EV_PER_ANG2", "weighted_surface_energy", "weighted_work_function", "surface_anisotropy", "shape_factor", "has_reconstructed", "possible_species", "has_props", "theoretical", "database_IDs"]}