{"builder_meta": null, "nsites": null, "elements": null, "nelements": null, "composition": null, "composition_reduced": null, "formula_pretty": "HfTi3", "formula_anonymous": "AB3", "chemsys": null, "volume": 148.51553068746324, "density": 7.2025421991157295, "density_atomic": 18.564441335932905, "symmetry": null, "property_name": null, "material_id": "mp-1184672", "deprecated": null, "deprecation_reasons": null, "last_updated": null, "origins": null, "warnings": null, "structure": {"@module": "pymatgen.core.structure", "@class": "Structure", "charge": 0, "lattice": {"matrix": [[3.01211887, -5.21714291, 0.0], [3.01211887, 5.21714291, 0.0], [0.0, 0.0, 4.72538323]], "pbc": [true, true, true], "a": 6.024237730233871, "b": 6.024237730233871, "c": 4.72538323, "alpha": 90.0, "beta": 90.0, "gamma": 119.99999989274629, "volume": 148.51553068746324}, "properties": {}, "sites": [{"species": [{"element": "Hf", "occu": 1}], "abc": [0.333333, 0.666667, 0.75], "properties": {"magmom": -0.0}, "label": "Hf", "xyz": [3.01211887, 1.73905111476194, 3.5440374225]}, {"species": [{"element": "Hf", "occu": 1}], "abc": [0.666667, 0.333333, 0.25], "properties": {"magmom": -0.0}, "label": "Hf", "xyz": [3.01211887, -1.73905111476194, 1.1813458075]}, {"species": [{"element": "Ti", "occu": 1}], "abc": [0.16143697, 0.32287493, 0.25], "properties": {"magmom": 0.0}, "label": "Ti", "xyz": [1.4588050129555532, 0.8422449084188635, 1.1813458075]}, {"species": [{"element": "Ti", "occu": 1}], "abc": [0.67712507, 0.83856303, 0.25], "properties": {"magmom": 0.0}, "label": "Ti", "xyz": [4.565432727044447, 0.8422449084188632, 1.1813458075]}, {"species": [{"element": "Ti", "occu": 1}], "abc": [0.16143697, 0.83856303, 0.25], "properties": {"magmom": 0.0}, "label": "Ti", "xyz": [3.01211887, 3.532663423105234, 1.1813458075]}, {"species": [{"element": "Ti", "occu": 1}], "abc": [0.83856303, 0.67712507, 0.75], "properties": {"magmom": 0.0}, "label": "Ti", "xyz": [4.565432727044447, -0.8422449084188632, 3.5440374225]}, {"species": [{"element": "Ti", "occu": 1}], "abc": [0.32287493, 0.16143697, 0.75], "properties": {"magmom": 0.0}, "label": "Ti", "xyz": [1.4588050129555532, -0.8422449084188635, 3.5440374225]}, {"species": [{"element": "Ti", "occu": 1}], "abc": [0.83856303, 0.16143697, 0.75], "properties": {"magmom": 0.0}, "label": "Ti", "xyz": [3.01211887, -3.532663423105234, 3.5440374225]}]}, "task_ids": null, "uncorrected_energy_per_atom": null, "energy_per_atom": -20.96257754125, "formation_energy_per_atom": 0.028594066250001004, "energy_above_hull": 0.028594066250001004, "is_stable": false, "equilibrium_reaction_energy_per_atom": null, "decomposes_to": null, "xas": null, "grain_boundaries": null, "band_gap": 0.0, "cbm": null, "vbm": null, "efermi": 5.57690786, "is_gap_direct": null, "is_metal": null, "es_source_calc_id": null, "bandstructure": null, "dos": null, "dos_energy_up": null, "dos_energy_down": null, "is_magnetic": null, "ordering": null, "total_magnetization": 0.0, "total_magnetization_normalized_vol": null, "total_magnetization_normalized_formula_units": null, "num_magnetic_sites": null, "num_unique_magnetic_sites": null, "types_of_magnetic_species": null, "bulk_modulus": null, "shear_modulus": null, "universal_anisotropy": null, "homogeneous_poisson": null, "e_total": null, "e_ionic": null, "e_electronic": null, "n": null, "e_ij_max": null, "weighted_surface_energy_EV_PER_ANG2": null, "weighted_surface_energy": null, "weighted_work_function": null, "surface_anisotropy": null, "shape_factor": null, "has_reconstructed": null, "possible_species": null, "has_props": null, "theoretical": null, "database_IDs": null, "fields_not_requested": ["builder_meta", "nsites", "elements", "nelements", "composition", "composition_reduced", "chemsys", "symmetry", "property_name", "deprecated", "deprecation_reasons", "last_updated", "origins", "warnings", "task_ids", "uncorrected_energy_per_atom", "equilibrium_reaction_energy_per_atom", "decomposes_to", "xas", "grain_boundaries", "cbm", "vbm", "is_gap_direct", "is_metal", "es_source_calc_id", "bandstructure", "dos", "dos_energy_up", "dos_energy_down", "is_magnetic", "ordering", "total_magnetization_normalized_vol", "total_magnetization_normalized_formula_units", "num_magnetic_sites", "num_unique_magnetic_sites", "types_of_magnetic_species", "bulk_modulus", "shear_modulus", "universal_anisotropy", "homogeneous_poisson", "e_total", "e_ionic", "e_electronic", "n", "e_ij_max", "weighted_surface_energy_EV_PER_ANG2", "weighted_surface_energy", "weighted_work_function", "surface_anisotropy", "shape_factor", "has_reconstructed", "possible_species", "has_props", "theoretical", "database_IDs"]}