{"builder_meta": null, "nsites": null, "elements": null, "nelements": null, "composition": null, "composition_reduced": null, "formula_pretty": "HfV2", "formula_anonymous": "AB2", "chemsys": null, "volume": 98.0508485992305, "density": 9.4965077073998, "density_atomic": 16.341808099871752, "symmetry": null, "property_name": null, "material_id": "mp-1071274", "deprecated": null, "deprecation_reasons": null, "last_updated": null, "origins": null, "warnings": null, "structure": {"@module": "pymatgen.core.structure", "@class": "Structure", "charge": 0, "lattice": {"matrix": [[-2.56182, 2.6302, 3.637927], [2.56182, -2.6302, 3.637927], [2.56182, 2.6302, -3.637927]], "pbc": [true, true, true], "a": 5.168692930493066, "b": 5.168692930493066, "c": 5.168692930493066, "alpha": 120.57584630824543, "beta": 118.82263326588884, "gamma": 90.52837115180532, "volume": 98.0508485992305}, "properties": {}, "sites": [{"species": [{"element": "Hf", "occu": 1}], "abc": [0.874524, 0.624524, 0.25], "properties": {"magmom": 0.003}, "label": "Hf", "xyz": [0.0, 1.3151000000000002, 4.543945443495999]}, {"species": [{"element": "Hf", "occu": 1}], "abc": [0.125476, 0.375476, 0.75], "properties": {"magmom": 0.003}, "label": "Hf", "xyz": [2.56182, 1.3151, -0.9060184434960004]}, {"species": [{"element": "V", "occu": 1}], "abc": [0.0, 0.0, 0.0], "properties": {"magmom": 0.002}, "label": "V", "xyz": [0.0, 0.0, 0.0]}, {"species": [{"element": "V", "occu": 1}], "abc": [0.5, 0.0, 0.5], "properties": {"magmom": 0.002}, "label": "V", "xyz": [0.0, 2.6302, 0.0]}, {"species": [{"element": "V", "occu": 1}], "abc": [0.5, 0.5, 0.5], "properties": {"magmom": 0.006}, "label": "V", "xyz": [1.28091, 1.3151, 1.8189635]}, {"species": [{"element": "V", "occu": 1}], "abc": [0.5, 0.0, 0.0], "properties": {"magmom": 0.006}, "label": "V", "xyz": [-1.28091, 1.3151, 1.8189635]}]}, "task_ids": null, "uncorrected_energy_per_atom": null, "energy_per_atom": -24.409296195, "formation_energy_per_atom": 0.034226088333331, "energy_above_hull": 0.034226088333333, "is_stable": false, "equilibrium_reaction_energy_per_atom": null, "decomposes_to": null, "xas": null, "grain_boundaries": null, "band_gap": 0.0, "cbm": null, "vbm": null, "efermi": 5.11461789, "is_gap_direct": null, "is_metal": null, "es_source_calc_id": null, "bandstructure": null, "dos": null, "dos_energy_up": null, "dos_energy_down": null, "is_magnetic": null, "ordering": null, "total_magnetization": 0.031749599999999004, "total_magnetization_normalized_vol": null, "total_magnetization_normalized_formula_units": null, "num_magnetic_sites": null, "num_unique_magnetic_sites": null, "types_of_magnetic_species": null, "bulk_modulus": null, "shear_modulus": null, "universal_anisotropy": null, "homogeneous_poisson": null, "e_total": null, "e_ionic": null, "e_electronic": null, "n": null, "e_ij_max": null, "weighted_surface_energy_EV_PER_ANG2": null, "weighted_surface_energy": null, "weighted_work_function": null, "surface_anisotropy": null, "shape_factor": null, "has_reconstructed": null, "possible_species": null, "has_props": null, "theoretical": null, "database_IDs": null, "fields_not_requested": ["builder_meta", "nsites", "elements", "nelements", "composition", "composition_reduced", "chemsys", "symmetry", "property_name", "deprecated", "deprecation_reasons", "last_updated", "origins", "warnings", "task_ids", "uncorrected_energy_per_atom", "equilibrium_reaction_energy_per_atom", "decomposes_to", "xas", "grain_boundaries", "cbm", "vbm", "is_gap_direct", "is_metal", "es_source_calc_id", "bandstructure", "dos", "dos_energy_up", "dos_energy_down", "is_magnetic", "ordering", "total_magnetization_normalized_vol", "total_magnetization_normalized_formula_units", "num_magnetic_sites", "num_unique_magnetic_sites", "types_of_magnetic_species", "bulk_modulus", "shear_modulus", "universal_anisotropy", "homogeneous_poisson", "e_total", "e_ionic", "e_electronic", "n", "e_ij_max", "weighted_surface_energy_EV_PER_ANG2", "weighted_surface_energy", "weighted_work_function", "surface_anisotropy", "shape_factor", "has_reconstructed", "possible_species", "has_props", "theoretical", "database_IDs"]}