{
  "builder_meta": null,
  "nsites": null,
  "elements": null,
  "nelements": null,
  "composition": null,
  "composition_reduced": null,
  "formula_pretty": "HfW2",
  "formula_anonymous": "AB2",
  "chemsys": null,
  "volume": 109.26139370248636,
  "density": 16.601227410195182,
  "density_atomic": 18.210232283747725,
  "symmetry": null,
  "property_name": null,
  "material_id": "mp-1400",
  "deprecated": null,
  "deprecation_reasons": null,
  "last_updated": null,
  "origins": null,
  "warnings": null,
  "structure": {
    "@module": "pymatgen.core.structure",
    "@class": "Structure",
    "charge": 0,
    "lattice": {
      "matrix": [
        [4.64719778, 0.0, 2.68306182],
        [1.54906627, 4.38142185, 2.68306182],
        [1e-8, 0.0, 5.36612161]
      ],
      "pbc": [true, true, true],
      "a": 5.3661222438907075,
      "b": 5.366123784115573,
      "c": 5.36612161,
      "alpha": 60.00000085281647,
      "beta": 59.99999128683966,
      "gamma": 60.000000091324665,
      "volume": 109.26139370248636
    },
    "properties": {},
    "sites": [
      {
        "species": [{ "element": "Hf", "occu": 1 }],
        "abc": [0.875, 0.875, 0.875],
        "properties": { "magmom": -0.0 },
        "label": "Hf",
        "xyz": [5.4217310525, 3.83374411875, 9.390714593750001]
      },
      {
        "species": [{ "element": "Hf", "occu": 1 }],
        "abc": [0.125, 0.125, 0.125],
        "properties": { "magmom": -0.0 },
        "label": "Hf",
        "xyz": [0.7745330075, 0.54767773125, 1.34153065625]
      },
      {
        "species": [{ "element": "W", "occu": 1 }],
        "abc": [0.5, 0.5, 0.5],
        "properties": { "magmom": 0.0 },
        "label": "W",
        "xyz": [3.09813203, 2.190710925, 5.366122625]
      },
      {
        "species": [{ "element": "W", "occu": 1 }],
        "abc": [0.5, 0.5, -0.0],
        "properties": { "magmom": 0.0 },
        "label": "W",
        "xyz": [3.098132025, 2.190710925, 2.68306182]
      },
      {
        "species": [{ "element": "W", "occu": 1 }],
        "abc": [0.0, 0.5, 0.5],
        "properties": { "magmom": 0.0 },
        "label": "W",
        "xyz": [0.77453314, 2.190710925, 4.024591715]
      },
      {
        "species": [{ "element": "W", "occu": 1 }],
        "abc": [0.5, 0.0, 0.5],
        "properties": { "magmom": 0.0 },
        "label": "W",
        "xyz": [2.323598895, 0.0, 4.024591715]
      }
    ]
  },
  "task_ids": null,
  "uncorrected_energy_per_atom": null,
  "energy_per_atom": -49.464450568333326,
  "formation_energy_per_atom": -0.16878251833333002,
  "energy_above_hull": 0.0,
  "is_stable": true,
  "equilibrium_reaction_energy_per_atom": null,
  "decomposes_to": null,
  "xas": null,
  "grain_boundaries": null,
  "band_gap": 0.0,
  "cbm": null,
  "vbm": null,
  "efermi": 5.63953352,
  "is_gap_direct": null,
  "is_metal": null,
  "es_source_calc_id": null,
  "bandstructure": null,
  "dos": null,
  "dos_energy_up": null,
  "dos_energy_down": null,
  "is_magnetic": null,
  "ordering": null,
  "total_magnetization": 1.8e-6,
  "total_magnetization_normalized_vol": null,
  "total_magnetization_normalized_formula_units": null,
  "num_magnetic_sites": null,
  "num_unique_magnetic_sites": null,
  "types_of_magnetic_species": null,
  "bulk_modulus": null,
  "shear_modulus": null,
  "universal_anisotropy": null,
  "homogeneous_poisson": null,
  "e_total": null,
  "e_ionic": null,
  "e_electronic": null,
  "n": null,
  "e_ij_max": null,
  "weighted_surface_energy_EV_PER_ANG2": null,
  "weighted_surface_energy": null,
  "weighted_work_function": null,
  "surface_anisotropy": null,
  "shape_factor": null,
  "has_reconstructed": null,
  "possible_species": null,
  "has_props": null,
  "theoretical": null,
  "database_IDs": null,
  "fields_not_requested": [
    "builder_meta",
    "nsites",
    "elements",
    "nelements",
    "composition",
    "composition_reduced",
    "chemsys",
    "symmetry",
    "property_name",
    "deprecated",
    "deprecation_reasons",
    "last_updated",
    "origins",
    "warnings",
    "task_ids",
    "uncorrected_energy_per_atom",
    "equilibrium_reaction_energy_per_atom",
    "decomposes_to",
    "xas",
    "grain_boundaries",
    "cbm",
    "vbm",
    "is_gap_direct",
    "is_metal",
    "es_source_calc_id",
    "bandstructure",
    "dos",
    "dos_energy_up",
    "dos_energy_down",
    "is_magnetic",
    "ordering",
    "total_magnetization_normalized_vol",
    "total_magnetization_normalized_formula_units",
    "num_magnetic_sites",
    "num_unique_magnetic_sites",
    "types_of_magnetic_species",
    "bulk_modulus",
    "shear_modulus",
    "universal_anisotropy",
    "homogeneous_poisson",
    "e_total",
    "e_ionic",
    "e_electronic",
    "n",
    "e_ij_max",
    "weighted_surface_energy_EV_PER_ANG2",
    "weighted_surface_energy",
    "weighted_work_function",
    "surface_anisotropy",
    "shape_factor",
    "has_reconstructed",
    "possible_species",
    "has_props",
    "theoretical",
    "database_IDs"
  ]
}
