{"builder_meta": null, "nsites": null, "elements": null, "nelements": null, "composition": null, "composition_reduced": null, "formula_pretty": "HfZn3", "formula_anonymous": "AB3", "chemsys": null, "volume": 124.89528427009115, "density": 9.964062631436901, "density_atomic": 15.611910533761394, "symmetry": null, "property_name": null, "material_id": "mp-866108", "deprecated": null, "deprecation_reasons": null, "last_updated": null, "origins": null, "warnings": null, "structure": {"@module": "pymatgen.core.structure", "@class": "Structure", "charge": 0, "lattice": {"matrix": [[5.7652221, 3.2040000000000005e-05, -0.0], [-2.88258156, 4.99283408, -6.4e-07], [-0.0, -6.8e-07, 4.33891828]], "pbc": [true, true, true], "a": 5.765222100089031, "b": 5.765211930229615, "c": 4.338918280000053, "alpha": 90.0000141369023, "beta": 90.00000000004991, "gamma": 119.9994015171169, "volume": 124.89528427009115}, "properties": {}, "sites": [{"species": [{"element": "Hf", "occu": 1}], "abc": [0.33333475, 0.6666679, 0.74999998], "properties": {"magmom": 0.0}, "label": "Hf", "xyz": [2.427221405087998e-05, 3.3285723812074353, 3.2541881965541783]}, {"species": [{"element": "Hf", "occu": 1}], "abc": [0.66666625, 0.333332099999999, 0.25000002], "properties": {"magmom": 0.0}, "label": "Hf", "xyz": [2.8826220330080514, 1.6642930588245994, 1.0847294434458215]}, {"species": [{"element": "Zn", "occu": 1}], "abc": [0.15891459, 0.31782663, 0.24999998], "properties": {"magmom": -0.0}, "label": "Zn", "xyz": [1.6723365496074116e-05, 1.5868605514190275, 1.0847292798125912]}, {"species": [{"element": "Zn", "occu": 1}], "abc": [0.68217458, 0.84108537, 0.25000012], "properties": {"magmom": 0.0}, "label": "Zn", "xyz": [1.5083907867264403, 4.199421386398871, 1.0847295523755567]}, {"species": [{"element": "Zn", "occu": 1}], "abc": [0.15891127, 0.84108835, 0.25000008], "properties": {"magmom": -0.0}, "label": "Zn", "xyz": [-1.5083470022977594, 4.1994194996880045, 1.0847293788169183]}, {"species": [{"element": "Zn", "occu": 1}], "abc": [0.8410864100000001, 0.68217337, 0.75000002], "properties": {"magmom": -0.0}, "label": "Zn", "xyz": [2.882629581856604, 3.406004888613012, 3.2541883601874084]}, {"species": [{"element": "Zn", "occu": 1}], "abc": [0.31782642, 0.15891463, 0.7499998800000001], "properties": {"magmom": 0.0}, "label": "Zn", "xyz": [1.374255518495659, 0.7934440536331687, 3.2541880876244433]}, {"species": [{"element": "Zn", "occu": 1}], "abc": [0.84108973, 0.15891165000000002, 0.74999992], "properties": {"magmom": -0.0}, "label": "Zn", "xyz": [4.390993307519859, 0.7934459403440356, 3.2541882611830815]}]}, "task_ids": null, "uncorrected_energy_per_atom": null, "energy_per_atom": -18.1997412575, "formation_energy_per_atom": -0.22893545625000303, "energy_above_hull": 0.0, "is_stable": true, "equilibrium_reaction_energy_per_atom": null, "decomposes_to": null, "xas": null, "grain_boundaries": null, "band_gap": 0.0, "cbm": null, "vbm": null, "efermi": 3.72310133, "is_gap_direct": null, "is_metal": null, "es_source_calc_id": null, "bandstructure": null, "dos": null, "dos_energy_up": null, "dos_energy_down": null, "is_magnetic": null, "ordering": null, "total_magnetization": 0.0, "total_magnetization_normalized_vol": null, "total_magnetization_normalized_formula_units": null, "num_magnetic_sites": null, "num_unique_magnetic_sites": null, "types_of_magnetic_species": null, "bulk_modulus": null, "shear_modulus": null, "universal_anisotropy": null, "homogeneous_poisson": null, "e_total": null, "e_ionic": null, "e_electronic": null, "n": null, "e_ij_max": null, "weighted_surface_energy_EV_PER_ANG2": null, "weighted_surface_energy": null, "weighted_work_function": null, "surface_anisotropy": null, "shape_factor": null, "has_reconstructed": null, "possible_species": null, "has_props": null, "theoretical": null, "database_IDs": null, "fields_not_requested": ["builder_meta", "nsites", "elements", "nelements", "composition", "composition_reduced", "chemsys", "symmetry", "property_name", "deprecated", "deprecation_reasons", "last_updated", "origins", "warnings", "task_ids", "uncorrected_energy_per_atom", "equilibrium_reaction_energy_per_atom", "decomposes_to", "xas", "grain_boundaries", "cbm", "vbm", "is_gap_direct", "is_metal", "es_source_calc_id", "bandstructure", "dos", "dos_energy_up", "dos_energy_down", "is_magnetic", "ordering", "total_magnetization_normalized_vol", "total_magnetization_normalized_formula_units", "num_magnetic_sites", "num_unique_magnetic_sites", "types_of_magnetic_species", "bulk_modulus", "shear_modulus", "universal_anisotropy", "homogeneous_poisson", "e_total", "e_ionic", "e_electronic", "n", "e_ij_max", "weighted_surface_energy_EV_PER_ANG2", "weighted_surface_energy", "weighted_work_function", "surface_anisotropy", "shape_factor", "has_reconstructed", "possible_species", "has_props", "theoretical", "database_IDs"]}