{"builder_meta": null, "nsites": null, "elements": null, "nelements": null, "composition": null, "composition_reduced": null, "formula_pretty": "HfZr", "formula_anonymous": "AB", "chemsys": null, "volume": 45.762118884955875, "density": 9.786929554876624, "density_atomic": 22.881059442477937, "symmetry": null, "property_name": null, "material_id": "mp-983459", "deprecated": null, "deprecation_reasons": null, "last_updated": null, "origins": null, "warnings": null, "structure": {"@module": "pymatgen.core.structure", "@class": "Structure", "charge": 0, "lattice": {"matrix": [[3.21883082, 1.719999999999999e-06, 0.000142099999999], [-1.6094122, 2.78759735, -0.00014001], [0.00025926, -0.00014467, 5.10008951]], "pbc": [true, true, true], "a": 3.2188308231370657, "b": 3.2188362236744292, "c": 5.10008951864153, "alpha": 90.00535601219921, "beta": 89.9945579981036, "gamma": 119.99984796756823, "volume": 45.762118884955875}, "properties": {}, "sites": [{"species": [{"element": "Hf", "occu": 1}], "abc": [0.6666644700000001, 0.33333553, 0.75000079], "properties": {"magmom": 0.0}, "label": "Hf", "xyz": [1.6096003191643151, 0.9290978841374445, 3.825119224284344]}, {"species": [{"element": "Zr", "occu": 1}], "abc": [0.33333753, 0.6666644700000001, 0.25000021], "properties": {"magmom": -0.0}, "label": "Zr", "xyz": [8.399875658520161e-05, 1.8583565157213258, 1.2749774760893653]}]}, "task_ids": null, "uncorrected_energy_per_atom": null, "energy_per_atom": -33.947003885, "formation_energy_per_atom": 0.003599762499995, "energy_above_hull": 0.003599762499995, "is_stable": false, "equilibrium_reaction_energy_per_atom": null, "decomposes_to": null, "xas": null, "grain_boundaries": null, "band_gap": 0.0, "cbm": null, "vbm": null, "efermi": 4.68499862, "is_gap_direct": null, "is_metal": null, "es_source_calc_id": null, "bandstructure": null, "dos": null, "dos_energy_up": null, "dos_energy_down": null, "is_magnetic": null, "ordering": null, "total_magnetization": 7e-07, "total_magnetization_normalized_vol": null, "total_magnetization_normalized_formula_units": null, "num_magnetic_sites": null, "num_unique_magnetic_sites": null, "types_of_magnetic_species": null, "bulk_modulus": null, "shear_modulus": null, "universal_anisotropy": null, "homogeneous_poisson": null, "e_total": null, "e_ionic": null, "e_electronic": null, "n": null, "e_ij_max": null, "weighted_surface_energy_EV_PER_ANG2": null, "weighted_surface_energy": null, "weighted_work_function": null, "surface_anisotropy": null, "shape_factor": null, "has_reconstructed": null, "possible_species": null, "has_props": null, "theoretical": null, "database_IDs": null, "fields_not_requested": ["builder_meta", "nsites", "elements", "nelements", "composition", "composition_reduced", "chemsys", "symmetry", "property_name", "deprecated", "deprecation_reasons", "last_updated", "origins", "warnings", "task_ids", "uncorrected_energy_per_atom", "equilibrium_reaction_energy_per_atom", "decomposes_to", "xas", "grain_boundaries", "cbm", "vbm", "is_gap_direct", "is_metal", "es_source_calc_id", "bandstructure", "dos", "dos_energy_up", "dos_energy_down", "is_magnetic", "ordering", "total_magnetization_normalized_vol", "total_magnetization_normalized_formula_units", "num_magnetic_sites", "num_unique_magnetic_sites", "types_of_magnetic_species", "bulk_modulus", "shear_modulus", "universal_anisotropy", "homogeneous_poisson", "e_total", "e_ionic", "e_electronic", "n", "e_ij_max", "weighted_surface_energy_EV_PER_ANG2", "weighted_surface_energy", "weighted_work_function", "surface_anisotropy", "shape_factor", "has_reconstructed", "possible_species", "has_props", "theoretical", "database_IDs"]}