{"builder_meta": null, "nsites": null, "elements": null, "nelements": null, "composition": null, "composition_reduced": null, "formula_pretty": "HfZr3", "formula_anonymous": "AB3", "chemsys": null, "volume": 185.36494369961918, "density": 8.101129053276665, "density_atomic": 23.170617962452397, "symmetry": null, "property_name": null, "material_id": "mp-1184723", "deprecated": null, "deprecation_reasons": null, "last_updated": null, "origins": null, "warnings": null, "structure": {"@module": "pymatgen.core.structure", "@class": "Structure", "charge": 0, "lattice": {"matrix": [[3.22942071, -5.59351982, -0.0], [3.22942071, 5.59351982, 0.0], [-0.0, 0.0, 5.13083207]], "pbc": [true, true, true], "a": 6.458840615691777, "b": 6.458840615691777, "c": 5.13083207, "alpha": 90.0, "beta": 90.0, "gamma": 119.99999176127608, "volume": 185.36494369961918}, "properties": {}, "sites": [{"species": [{"element": "Hf", "occu": 1}], "abc": [0.333333, 0.666667, 0.75], "properties": {"magmom": -0.0}, "label": "Hf", "xyz": [3.22942071, 1.8645103356798802, 3.8481240525000002]}, {"species": [{"element": "Hf", "occu": 1}], "abc": [0.666667, 0.333333, 0.25], "properties": {"magmom": -0.0}, "label": "Hf", "xyz": [3.22942071, -1.8645103356798802, 1.2827080175]}, {"species": [{"element": "Zr", "occu": 1}], "abc": [0.167276999999999, 0.334553999999999, 0.25], "properties": {"magmom": -0.0}, "label": "Zr", "xyz": [1.6206234243200035, 0.93566721493014, 1.2827080175]}, {"species": [{"element": "Zr", "occu": 1}], "abc": [0.665446, 0.832723, 0.25], "properties": {"magmom": -0.0}, "label": "Zr", "xyz": [4.83821799567999, 0.9356672149301404, 1.2827080175]}, {"species": [{"element": "Zr", "occu": 1}], "abc": [0.167276999999999, 0.832723, 0.25], "properties": {"magmom": -0.0}, "label": "Zr", "xyz": [3.2294207099999968, 3.7221853901397255, 1.2827080175]}, {"species": [{"element": "Zr", "occu": 1}], "abc": [0.832723, 0.665446, 0.75], "properties": {"magmom": -0.0}, "label": "Zr", "xyz": [4.83821799567999, -0.9356672149301404, 3.8481240525000002]}, {"species": [{"element": "Zr", "occu": 1}], "abc": [0.334553999999999, 0.167276999999999, 0.75], "properties": {"magmom": -0.0}, "label": "Zr", "xyz": [1.6206234243200035, -0.93566721493014, 3.8481240525000002]}, {"species": [{"element": "Zr", "occu": 1}], "abc": [0.832723, 0.167276999999999, 0.75], "properties": {"magmom": -0.0}, "label": "Zr", "xyz": [3.2294207099999968, -3.7221853901397255, 3.8481240525000002]}]}, "task_ids": null, "uncorrected_energy_per_atom": null, "energy_per_atom": -28.3477595675, "formation_energy_per_atom": 0.0024382087500000003, "energy_above_hull": 0.0024382087500000003, "is_stable": false, "equilibrium_reaction_energy_per_atom": null, "decomposes_to": null, "xas": null, "grain_boundaries": null, "band_gap": 0.0, "cbm": null, "vbm": null, "efermi": 4.4374925, "is_gap_direct": null, "is_metal": null, "es_source_calc_id": null, "bandstructure": null, "dos": null, "dos_energy_up": null, "dos_energy_down": null, "is_magnetic": null, "ordering": null, "total_magnetization": 1e-07, "total_magnetization_normalized_vol": null, "total_magnetization_normalized_formula_units": null, "num_magnetic_sites": null, "num_unique_magnetic_sites": null, "types_of_magnetic_species": null, "bulk_modulus": null, "shear_modulus": null, "universal_anisotropy": null, "homogeneous_poisson": null, "e_total": null, "e_ionic": null, "e_electronic": null, "n": null, "e_ij_max": null, "weighted_surface_energy_EV_PER_ANG2": null, "weighted_surface_energy": null, "weighted_work_function": null, "surface_anisotropy": null, "shape_factor": null, "has_reconstructed": null, "possible_species": null, "has_props": null, "theoretical": null, "database_IDs": null, "fields_not_requested": ["builder_meta", "nsites", "elements", "nelements", "composition", "composition_reduced", "chemsys", "symmetry", "property_name", "deprecated", "deprecation_reasons", "last_updated", "origins", "warnings", "task_ids", "uncorrected_energy_per_atom", "equilibrium_reaction_energy_per_atom", "decomposes_to", "xas", "grain_boundaries", "cbm", "vbm", "is_gap_direct", "is_metal", "es_source_calc_id", "bandstructure", "dos", "dos_energy_up", "dos_energy_down", "is_magnetic", "ordering", "total_magnetization_normalized_vol", "total_magnetization_normalized_formula_units", "num_magnetic_sites", "num_unique_magnetic_sites", "types_of_magnetic_species", "bulk_modulus", "shear_modulus", "universal_anisotropy", "homogeneous_poisson", "e_total", "e_ionic", "e_electronic", "n", "e_ij_max", "weighted_surface_energy_EV_PER_ANG2", "weighted_surface_energy", "weighted_work_function", "surface_anisotropy", "shape_factor", "has_reconstructed", "possible_species", "has_props", "theoretical", "database_IDs"]}