{"builder_meta": null, "nsites": null, "elements": null, "nelements": null, "composition": null, "composition_reduced": null, "formula_pretty": "Hg3Au", "formula_anonymous": "AB3", "chemsys": null, "volume": 191.07267829519975, "density": 13.883023869037034, "density_atomic": 23.88408478689997, "symmetry": null, "property_name": null, "material_id": "mp-973626", "deprecated": null, "deprecation_reasons": null, "last_updated": null, "origins": null, "warnings": null, "structure": {"@module": "pymatgen.core.structure", "@class": "Structure", "charge": 0, "lattice": {"matrix": [[2.973824999999999, -5.150817, 0.0], [2.973824999999999, 5.150817, 0.0], [0.0, 0.0, 6.237019]], "pbc": [true, true, true], "a": 5.947650872244772, "b": 5.947650872244772, "c": 6.237019, "alpha": 90.0, "beta": 90.0, "gamma": 120.00000970252786, "volume": 191.07267829519967}, "properties": {}, "sites": [{"species": [{"element": "Hg", "occu": 1}], "abc": [0.167434, 0.334866999999999, 0.25], "properties": {"magmom": 0.0}, "label": "Hg", "xyz": [1.4937552713249964, 0.8624167427609949, 1.55925475]}, {"species": [{"element": "Hg", "occu": 1}], "abc": [0.665133, 0.832565999999999, 0.25], "properties": {"magmom": 0.0}, "label": "Hg", "xyz": [4.453894728674995, 0.8624167427609954, 1.55925475]}, {"species": [{"element": "Hg", "occu": 1}], "abc": [0.167434, 0.832565999999999, 0.25], "properties": {"magmom": 0.0}, "label": "Hg", "xyz": [2.9738249999999957, 3.4259732128439953, 1.55925475]}, {"species": [{"element": "Hg", "occu": 1}], "abc": [0.832565999999999, 0.665133, 0.75], "properties": {"magmom": 0.0}, "label": "Hg", "xyz": [4.453894728674995, -0.8624167427609954, 4.67776425]}, {"species": [{"element": "Hg", "occu": 1}], "abc": [0.334866999999999, 0.167434, 0.75], "properties": {"magmom": 0.0}, "label": "Hg", "xyz": [1.4937552713249964, -0.8624167427609949, 4.67776425]}, {"species": [{"element": "Hg", "occu": 1}], "abc": [0.832565999999999, 0.167434, 0.75], "properties": {"magmom": 0.0}, "label": "Hg", "xyz": [2.9738249999999957, -3.4259732128439953, 4.67776425]}, {"species": [{"element": "Au", "occu": 1}], "abc": [0.333333, 0.666667, 0.75], "properties": {"magmom": 0.0}, "label": "Au", "xyz": [2.973824999999999, 1.716942433878, 4.67776425]}, {"species": [{"element": "Au", "occu": 1}], "abc": [0.666667, 0.333333, 0.25], "properties": {"magmom": 0.0}, "label": "Au", "xyz": [2.973824999999999, -1.716942433878, 1.55925475]}]}, "task_ids": null, "uncorrected_energy_per_atom": null, "energy_per_atom": -49.55629637614583, "formation_energy_per_atom": 0.115798553229168, "energy_above_hull": 0.116693438749997, "is_stable": false, "equilibrium_reaction_energy_per_atom": null, "decomposes_to": null, "xas": null, "grain_boundaries": null, "band_gap": 0.0, "cbm": null, "vbm": null, "efermi": 2.59969677, "is_gap_direct": null, "is_metal": null, "es_source_calc_id": null, "bandstructure": null, "dos": null, "dos_energy_up": null, "dos_energy_down": null, "is_magnetic": null, "ordering": null, "total_magnetization": 0.004077799999999, "total_magnetization_normalized_vol": null, "total_magnetization_normalized_formula_units": null, "num_magnetic_sites": null, "num_unique_magnetic_sites": null, "types_of_magnetic_species": null, "bulk_modulus": null, "shear_modulus": null, "universal_anisotropy": null, "homogeneous_poisson": null, "e_total": null, "e_ionic": null, "e_electronic": null, "n": null, "e_ij_max": null, "weighted_surface_energy_EV_PER_ANG2": null, "weighted_surface_energy": null, "weighted_work_function": null, "surface_anisotropy": null, "shape_factor": null, "has_reconstructed": null, "possible_species": null, "has_props": null, "theoretical": null, "database_IDs": null, "fields_not_requested": ["builder_meta", "nsites", "elements", "nelements", "composition", "composition_reduced", "chemsys", "symmetry", "property_name", "deprecated", "deprecation_reasons", "last_updated", "origins", "warnings", "task_ids", "uncorrected_energy_per_atom", "equilibrium_reaction_energy_per_atom", "decomposes_to", "xas", "grain_boundaries", "cbm", "vbm", "is_gap_direct", "is_metal", "es_source_calc_id", "bandstructure", "dos", "dos_energy_up", "dos_energy_down", "is_magnetic", "ordering", "total_magnetization_normalized_vol", "total_magnetization_normalized_formula_units", "num_magnetic_sites", "num_unique_magnetic_sites", "types_of_magnetic_species", "bulk_modulus", "shear_modulus", "universal_anisotropy", "homogeneous_poisson", "e_total", "e_ionic", "e_electronic", "n", "e_ij_max", "weighted_surface_energy_EV_PER_ANG2", "weighted_surface_energy", "weighted_work_function", "surface_anisotropy", "shape_factor", "has_reconstructed", "possible_species", "has_props", "theoretical", "database_IDs"]}