{
  "builder_meta": null,
  "nsites": null,
  "elements": null,
  "nelements": null,
  "composition": null,
  "composition_reduced": null,
  "formula_pretty": "Hg3B",
  "formula_anonymous": "AB3",
  "chemsys": null,
  "volume": 168.51127492853806,
  "density": 12.072956926926974,
  "density_atomic": 21.063909366067257,
  "symmetry": null,
  "property_name": null,
  "material_id": "mp-1184725",
  "deprecated": null,
  "deprecation_reasons": null,
  "last_updated": null,
  "origins": null,
  "warnings": null,
  "structure": {
    "@module": "pymatgen.core.structure",
    "@class": "Structure",
    "charge": 0,
    "lattice": {
      "matrix": [
        [6.163352, -0.038690999999999004, 0.0],
        [-3.115177, 5.305638, 0.0],
        [0.0, 0.0, 5.172233]
      ],
      "pbc": [true, true, true],
      "a": 6.163473441930694,
      "b": 6.1525703838617725,
      "c": 5.172233,
      "alpha": 90.0,
      "beta": 90.0,
      "gamma": 120.7787725607271,
      "volume": 168.51127492853809
    },
    "properties": {},
    "sites": [
      {
        "species": [{ "element": "Hg", "occu": 1 }],
        "abc": [0.170995999999999, 0.341447, 0.250001],
        "properties": { "magmom": 0.0 },
        "label": "Hg",
        "xyz": [-0.009759302527005964, 1.8049781719500002, 1.293063422233]
      },
      {
        "species": [{ "element": "Hg", "occu": 1 }],
        "abc": [0.658602, 0.829008, 0.250001],
        "properties": { "magmom": 0.0 },
        "label": "Hg",
        "xyz": [1.476689299488, 4.372934377122, 1.293063422233]
      },
      {
        "species": [{ "element": "Hg", "occu": 1 }],
        "abc": [0.170576999999999, 0.829345, 0.250001],
        "properties": { "magmom": 0.0 },
        "label": "Hg",
        "xyz": [-1.532230374961006, 4.393604552403, 1.293063422233]
      },
      {
        "species": [{ "element": "Hg", "occu": 1 }],
        "abc": [0.828986999999999, 0.658543, 0.750000999999999],
        "properties": { "magmom": 0.0 },
        "label": "Hg",
        "xyz": [3.057860677312994, 3.4619164294170006, 3.879179922232995]
      },
      {
        "species": [{ "element": "Hg", "occu": 1 }],
        "abc": [0.341416, 0.171026999999999, 0.750000999999999],
        "properties": { "magmom": 0.0 },
        "label": "Hg",
        "xyz": [1.571487609653003, 0.8941976237699951, 3.879179922232995]
      },
      {
        "species": [{ "element": "Hg", "occu": 1 }],
        "abc": [0.829345999999999, 0.170736, 0.750000999999999],
        "properties": { "magmom": 0.0 },
        "label": "Hg",
        "xyz": [4.579678467519994, 0.8737751834820009, 3.879179922232995]
      },
      {
        "species": [{ "element": "B", "occu": 1 }],
        "abc": [0.333932, 0.665715, 0.750000999999999],
        "properties": { "magmom": 0.0 },
        "label": "B",
        "xyz": [-0.015679596490999703, 3.519122638158, 3.879179922232995]
      },
      {
        "species": [{ "element": "B", "occu": 1 }],
        "abc": [0.666145, 0.334183, 0.250001],
        "properties": { "magmom": 0.0 },
        "label": "B",
        "xyz": [3.0646469226489996, 1.7472802075590006, 1.293063422233]
      }
    ]
  },
  "task_ids": null,
  "uncorrected_energy_per_atom": null,
  "energy_per_atom": -37.80713684979167,
  "formation_energy_per_atom": 1.055306591458332,
  "energy_above_hull": 1.055306591458332,
  "is_stable": false,
  "equilibrium_reaction_energy_per_atom": null,
  "decomposes_to": null,
  "xas": null,
  "grain_boundaries": null,
  "band_gap": 0.0,
  "cbm": null,
  "vbm": null,
  "efermi": 2.91652989,
  "is_gap_direct": null,
  "is_metal": null,
  "es_source_calc_id": null,
  "bandstructure": null,
  "dos": null,
  "dos_energy_up": null,
  "dos_energy_down": null,
  "is_magnetic": null,
  "ordering": null,
  "total_magnetization": 0.0003833,
  "total_magnetization_normalized_vol": null,
  "total_magnetization_normalized_formula_units": null,
  "num_magnetic_sites": null,
  "num_unique_magnetic_sites": null,
  "types_of_magnetic_species": null,
  "bulk_modulus": null,
  "shear_modulus": null,
  "universal_anisotropy": null,
  "homogeneous_poisson": null,
  "e_total": null,
  "e_ionic": null,
  "e_electronic": null,
  "n": null,
  "e_ij_max": null,
  "weighted_surface_energy_EV_PER_ANG2": null,
  "weighted_surface_energy": null,
  "weighted_work_function": null,
  "surface_anisotropy": null,
  "shape_factor": null,
  "has_reconstructed": null,
  "possible_species": null,
  "has_props": null,
  "theoretical": null,
  "database_IDs": null,
  "fields_not_requested": [
    "builder_meta",
    "nsites",
    "elements",
    "nelements",
    "composition",
    "composition_reduced",
    "chemsys",
    "symmetry",
    "property_name",
    "deprecated",
    "deprecation_reasons",
    "last_updated",
    "origins",
    "warnings",
    "task_ids",
    "uncorrected_energy_per_atom",
    "equilibrium_reaction_energy_per_atom",
    "decomposes_to",
    "xas",
    "grain_boundaries",
    "cbm",
    "vbm",
    "is_gap_direct",
    "is_metal",
    "es_source_calc_id",
    "bandstructure",
    "dos",
    "dos_energy_up",
    "dos_energy_down",
    "is_magnetic",
    "ordering",
    "total_magnetization_normalized_vol",
    "total_magnetization_normalized_formula_units",
    "num_magnetic_sites",
    "num_unique_magnetic_sites",
    "types_of_magnetic_species",
    "bulk_modulus",
    "shear_modulus",
    "universal_anisotropy",
    "homogeneous_poisson",
    "e_total",
    "e_ionic",
    "e_electronic",
    "n",
    "e_ij_max",
    "weighted_surface_energy_EV_PER_ANG2",
    "weighted_surface_energy",
    "weighted_work_function",
    "surface_anisotropy",
    "shape_factor",
    "has_reconstructed",
    "possible_species",
    "has_props",
    "theoretical",
    "database_IDs"
  ]
}
