{"builder_meta": null, "nsites": null, "elements": null, "nelements": null, "composition": null, "composition_reduced": null, "formula_pretty": "Hg3Ge", "formula_anonymous": "AB3", "chemsys": null, "volume": 190.25318510894868, "density": 11.772566659153727, "density_atomic": 23.781648138618586, "symmetry": null, "property_name": null, "material_id": "mp-1184688", "deprecated": null, "deprecation_reasons": null, "last_updated": null, "origins": null, "warnings": null, "structure": {"@module": "pymatgen.core.structure", "@class": "Structure", "charge": 0, "lattice": {"matrix": [[3.235229, -5.603581, 0.0], [3.235229, 5.603581, 0.0], [0.0, 0.0, 5.247244]], "pbc": [true, true, true], "a": 6.470457998163808, "b": 6.470457998163808, "c": 5.247244, "alpha": 90.0, "beta": 90.0, "gamma": 119.99999998122523, "volume": 190.25318510894868}, "properties": {}, "sites": [{"species": [{"element": "Hg", "occu": 1}], "abc": [0.168634, 0.337268, 0.25], "properties": {"magmom": -0.0}, "label": "Hg", "xyz": [1.636708821558, 0.944954278354, 1.311811]}, {"species": [{"element": "Hg", "occu": 1}], "abc": [0.662732, 0.831365999999999, 0.25], "properties": {"magmom": -0.001}, "label": "Hg", "xyz": [4.833749178441996, 0.9449542783539946, 1.311811]}, {"species": [{"element": "Hg", "occu": 1}], "abc": [0.168634, 0.831365999999999, 0.25], "properties": {"magmom": 0.001}, "label": "Hg", "xyz": [3.235228999999997, 3.7136724432919945, 1.311811]}, {"species": [{"element": "Hg", "occu": 1}], "abc": [0.831365999999999, 0.662732, 0.75], "properties": {"magmom": -0.0}, "label": "Hg", "xyz": [4.833749178441996, -0.9449542783539946, 3.935433]}, {"species": [{"element": "Hg", "occu": 1}], "abc": [0.337268, 0.168634, 0.75], "properties": {"magmom": -0.001}, "label": "Hg", "xyz": [1.636708821558, -0.944954278354, 3.935433]}, {"species": [{"element": "Hg", "occu": 1}], "abc": [0.831365999999999, 0.168634, 0.75], "properties": {"magmom": 0.001}, "label": "Hg", "xyz": [3.235228999999997, -3.7136724432919945, 3.935433]}, {"species": [{"element": "Ge", "occu": 1}], "abc": [0.333333, 0.666667, 0.75], "properties": {"magmom": -0.0}, "label": "Ge", "xyz": [3.235229, 1.867864069054, 3.935433]}, {"species": [{"element": "Ge", "occu": 1}], "abc": [0.666667, 0.333333, 0.25], "properties": {"magmom": -0.0}, "label": "Ge", "xyz": [3.235229, -1.867864069054, 1.311811]}]}, "task_ids": null, "uncorrected_energy_per_atom": null, "energy_per_atom": -40.238935014374995, "formation_energy_per_atom": 0.25491427250000204, "energy_above_hull": 0.25491427250000204, "is_stable": false, "equilibrium_reaction_energy_per_atom": null, "decomposes_to": null, "xas": null, "grain_boundaries": null, "band_gap": 0.0, "cbm": null, "vbm": null, "efermi": 3.10848129, "is_gap_direct": null, "is_metal": null, "es_source_calc_id": null, "bandstructure": null, "dos": null, "dos_energy_up": null, "dos_energy_down": null, "is_magnetic": null, "ordering": null, "total_magnetization": 0.00014539999999900002, "total_magnetization_normalized_vol": null, "total_magnetization_normalized_formula_units": null, "num_magnetic_sites": null, "num_unique_magnetic_sites": null, "types_of_magnetic_species": null, "bulk_modulus": null, "shear_modulus": null, "universal_anisotropy": null, "homogeneous_poisson": null, "e_total": null, "e_ionic": null, "e_electronic": null, "n": null, "e_ij_max": null, "weighted_surface_energy_EV_PER_ANG2": null, "weighted_surface_energy": null, "weighted_work_function": null, "surface_anisotropy": null, "shape_factor": null, "has_reconstructed": null, "possible_species": null, "has_props": null, "theoretical": null, "database_IDs": null, "fields_not_requested": ["builder_meta", "nsites", "elements", "nelements", "composition", "composition_reduced", "chemsys", "symmetry", "property_name", "deprecated", "deprecation_reasons", "last_updated", "origins", "warnings", "task_ids", "uncorrected_energy_per_atom", "equilibrium_reaction_energy_per_atom", "decomposes_to", "xas", "grain_boundaries", "cbm", "vbm", "is_gap_direct", "is_metal", "es_source_calc_id", "bandstructure", "dos", "dos_energy_up", "dos_energy_down", "is_magnetic", "ordering", "total_magnetization_normalized_vol", "total_magnetization_normalized_formula_units", "num_magnetic_sites", "num_unique_magnetic_sites", "types_of_magnetic_species", "bulk_modulus", "shear_modulus", "universal_anisotropy", "homogeneous_poisson", "e_total", "e_ionic", "e_electronic", "n", "e_ij_max", "weighted_surface_energy_EV_PER_ANG2", "weighted_surface_energy", "weighted_work_function", "surface_anisotropy", "shape_factor", "has_reconstructed", "possible_species", "has_props", "theoretical", "database_IDs"]}