{
  "builder_meta": null,
  "nsites": null,
  "elements": null,
  "nelements": null,
  "composition": null,
  "composition_reduced": null,
  "formula_pretty": "Hg3Pb",
  "formula_anonymous": "AB3",
  "chemsys": null,
  "volume": 210.38976677255138,
  "density": 12.769882388430497,
  "density_atomic": 26.298720846568923,
  "symmetry": null,
  "property_name": null,
  "material_id": "mp-1184700",
  "deprecated": null,
  "deprecation_reasons": null,
  "last_updated": null,
  "origins": null,
  "warnings": null,
  "structure": {
    "@module": "pymatgen.core.structure",
    "@class": "Structure",
    "charge": 0,
    "lattice": {
      "matrix": [
        [3.43483964, -5.9493164400000005, 0.0],
        [3.43483964, 5.9493164400000005, -0.0],
        [-0.0, -0.0, 5.14779307]
      ],
      "pbc": [true, true, true],
      "a": 6.8696789921924015,
      "b": 6.8696789921924015,
      "c": 5.14779307,
      "alpha": 90.0,
      "beta": 90.0,
      "gamma": 119.99999722822601,
      "volume": 210.3897667725514
    },
    "properties": {},
    "sites": [
      {
        "species": [{ "element": "Hg", "occu": 1 }],
        "abc": [0.16183906, 0.32367812, 0.25],
        "properties": { "magmom": -0.0 },
        "label": "Hg",
        "xyz": [1.6676736557650154, 0.9628317802921466, 1.2869482675]
      },
      {
        "species": [{ "element": "Hg", "occu": 1 }],
        "abc": [0.67632188, 0.83816094, 0.25],
        "properties": { "magmom": -0.0 },
        "label": "Hg",
        "xyz": [5.202005624234985, 0.962831780292146, 1.2869482675]
      },
      {
        "species": [{ "element": "Hg", "occu": 1 }],
        "abc": [0.16183906, 0.83816094, 0.25],
        "properties": { "magmom": -0.0 },
        "label": "Hg",
        "xyz": [3.43483964, 4.023652879415707, 1.2869482675]
      },
      {
        "species": [{ "element": "Hg", "occu": 1 }],
        "abc": [0.83816094, 0.67632188, 0.75],
        "properties": { "magmom": -0.0 },
        "label": "Hg",
        "xyz": [5.202005624234985, -0.962831780292146, 3.8608448025]
      },
      {
        "species": [{ "element": "Hg", "occu": 1 }],
        "abc": [0.32367812, 0.16183906, 0.75],
        "properties": { "magmom": -0.0 },
        "label": "Hg",
        "xyz": [1.6676736557650154, -0.9628317802921466, 3.8608448025]
      },
      {
        "species": [{ "element": "Hg", "occu": 1 }],
        "abc": [0.83816094, 0.16183906, 0.75],
        "properties": { "magmom": -0.0 },
        "label": "Hg",
        "xyz": [3.43483964, -4.023652879415707, 3.8608448025]
      },
      {
        "species": [{ "element": "Pb", "occu": 1 }],
        "abc": [0.333333, 0.666667, 0.75],
        "properties": { "magmom": -0.0 },
        "label": "Pb",
        "xyz": [3.43483964, 1.9831094462109604, 3.8608448025]
      },
      {
        "species": [{ "element": "Pb", "occu": 1 }],
        "abc": [0.666667, 0.333333, 0.25],
        "properties": { "magmom": -0.0 },
        "label": "Pb",
        "xyz": [3.43483964, -1.9831094462109604, 1.2869482675]
      }
    ]
  },
  "task_ids": null,
  "uncorrected_energy_per_atom": null,
  "energy_per_atom": -51.02879234125,
  "formation_energy_per_atom": 0.068346078124996,
  "energy_above_hull": 0.068346078124996,
  "is_stable": false,
  "equilibrium_reaction_energy_per_atom": null,
  "decomposes_to": null,
  "xas": null,
  "grain_boundaries": null,
  "band_gap": 0.0,
  "cbm": null,
  "vbm": null,
  "efermi": 3.43964266,
  "is_gap_direct": null,
  "is_metal": null,
  "es_source_calc_id": null,
  "bandstructure": null,
  "dos": null,
  "dos_energy_up": null,
  "dos_energy_down": null,
  "is_magnetic": null,
  "ordering": null,
  "total_magnetization": 1e-7,
  "total_magnetization_normalized_vol": null,
  "total_magnetization_normalized_formula_units": null,
  "num_magnetic_sites": null,
  "num_unique_magnetic_sites": null,
  "types_of_magnetic_species": null,
  "bulk_modulus": null,
  "shear_modulus": null,
  "universal_anisotropy": null,
  "homogeneous_poisson": null,
  "e_total": null,
  "e_ionic": null,
  "e_electronic": null,
  "n": null,
  "e_ij_max": null,
  "weighted_surface_energy_EV_PER_ANG2": null,
  "weighted_surface_energy": null,
  "weighted_work_function": null,
  "surface_anisotropy": null,
  "shape_factor": null,
  "has_reconstructed": null,
  "possible_species": null,
  "has_props": null,
  "theoretical": null,
  "database_IDs": null,
  "fields_not_requested": [
    "builder_meta",
    "nsites",
    "elements",
    "nelements",
    "composition",
    "composition_reduced",
    "chemsys",
    "symmetry",
    "property_name",
    "deprecated",
    "deprecation_reasons",
    "last_updated",
    "origins",
    "warnings",
    "task_ids",
    "uncorrected_energy_per_atom",
    "equilibrium_reaction_energy_per_atom",
    "decomposes_to",
    "xas",
    "grain_boundaries",
    "cbm",
    "vbm",
    "is_gap_direct",
    "is_metal",
    "es_source_calc_id",
    "bandstructure",
    "dos",
    "dos_energy_up",
    "dos_energy_down",
    "is_magnetic",
    "ordering",
    "total_magnetization_normalized_vol",
    "total_magnetization_normalized_formula_units",
    "num_magnetic_sites",
    "num_unique_magnetic_sites",
    "types_of_magnetic_species",
    "bulk_modulus",
    "shear_modulus",
    "universal_anisotropy",
    "homogeneous_poisson",
    "e_total",
    "e_ionic",
    "e_electronic",
    "n",
    "e_ij_max",
    "weighted_surface_energy_EV_PER_ANG2",
    "weighted_surface_energy",
    "weighted_work_function",
    "surface_anisotropy",
    "shape_factor",
    "has_reconstructed",
    "possible_species",
    "has_props",
    "theoretical",
    "database_IDs"
  ]
}
