{"builder_meta": null, "nsites": null, "elements": null, "nelements": null, "composition": null, "composition_reduced": null, "formula_pretty": "Hg3P", "formula_anonymous": "AB3", "chemsys": null, "volume": 187.574054284705, "density": 11.20299649069458, "density_atomic": 23.446756785588125, "symmetry": null, "property_name": null, "material_id": "mp-1184685", "deprecated": null, "deprecation_reasons": null, "last_updated": null, "origins": null, "warnings": null, "structure": {"@module": "pymatgen.core.structure", "@class": "Structure", "charge": 0, "lattice": {"matrix": [[2.990716, -5.180072, 0.0], [2.990716, 5.180072, 0.0], [0.0, 0.0, 6.053852]], "pbc": [true, true, true], "a": 5.9814319454324645, "b": 5.9814319454324645, "c": 6.053852, "alpha": 90.0, "beta": 90.0, "gamma": 119.99999939643901, "volume": 187.574054284705}, "properties": {}, "sites": [{"species": [{"element": "Hg", "occu": 1}], "abc": [0.831515999999999, 0.168484, 0.75], "properties": {"magmom": 0.001}, "label": "Hg", "xyz": [2.9907159999999973, -3.434553498303995, 4.540389]}, {"species": [{"element": "Hg", "occu": 1}], "abc": [0.336968, 0.168484, 0.75], "properties": {"magmom": -0.0}, "label": "Hg", "xyz": [1.511663383632, -0.872759250848, 4.540389]}, {"species": [{"element": "Hg", "occu": 1}], "abc": [0.831515999999999, 0.663032, 0.75], "properties": {"magmom": -0.0}, "label": "Hg", "xyz": [4.469768616367997, -0.8727592508479955, 4.540389]}, {"species": [{"element": "Hg", "occu": 1}], "abc": [0.168484, 0.831515999999999, 0.25], "properties": {"magmom": 0.001}, "label": "Hg", "xyz": [2.9907159999999973, 3.434553498303995, 1.513463]}, {"species": [{"element": "Hg", "occu": 1}], "abc": [0.663032, 0.831515999999999, 0.25], "properties": {"magmom": -0.0}, "label": "Hg", "xyz": [4.469768616367997, 0.8727592508479955, 1.513463]}, {"species": [{"element": "Hg", "occu": 1}], "abc": [0.168484, 0.336968, 0.25], "properties": {"magmom": -0.0}, "label": "Hg", "xyz": [1.511663383632, 0.872759250848, 1.513463]}, {"species": [{"element": "P", "occu": 1}], "abc": [0.666667, 0.333333, 0.25], "properties": {"magmom": -0.0}, "label": "P", "xyz": [2.990716, -1.7266941200480002, 1.513463]}, {"species": [{"element": "P", "occu": 1}], "abc": [0.333333, 0.666667, 0.75], "properties": {"magmom": -0.0}, "label": "P", "xyz": [2.990716, 1.7266941200480002, 4.540389]}]}, "task_ids": null, "uncorrected_energy_per_atom": null, "energy_per_atom": -38.83901108446428, "formation_energy_per_atom": 0.437362885416668, "energy_above_hull": 0.437362885416668, "is_stable": false, "equilibrium_reaction_energy_per_atom": null, "decomposes_to": null, "xas": null, "grain_boundaries": null, "band_gap": 0.0, "cbm": null, "vbm": null, "efermi": 3.04771095, "is_gap_direct": null, "is_metal": null, "es_source_calc_id": null, "bandstructure": null, "dos": null, "dos_energy_up": null, "dos_energy_down": null, "is_magnetic": null, "ordering": null, "total_magnetization": 0.0007272, "total_magnetization_normalized_vol": null, "total_magnetization_normalized_formula_units": null, "num_magnetic_sites": null, "num_unique_magnetic_sites": null, "types_of_magnetic_species": null, "bulk_modulus": null, "shear_modulus": null, "universal_anisotropy": null, "homogeneous_poisson": null, "e_total": null, "e_ionic": null, "e_electronic": null, "n": null, "e_ij_max": null, "weighted_surface_energy_EV_PER_ANG2": null, "weighted_surface_energy": null, "weighted_work_function": null, "surface_anisotropy": null, "shape_factor": null, "has_reconstructed": null, "possible_species": null, "has_props": null, "theoretical": null, "database_IDs": null, "fields_not_requested": ["builder_meta", "nsites", "elements", "nelements", "composition", "composition_reduced", "chemsys", "symmetry", "property_name", "deprecated", "deprecation_reasons", "last_updated", "origins", "warnings", "task_ids", "uncorrected_energy_per_atom", "equilibrium_reaction_energy_per_atom", "decomposes_to", "xas", "grain_boundaries", "cbm", "vbm", "is_gap_direct", "is_metal", "es_source_calc_id", "bandstructure", "dos", "dos_energy_up", "dos_energy_down", "is_magnetic", "ordering", "total_magnetization_normalized_vol", "total_magnetization_normalized_formula_units", "num_magnetic_sites", "num_unique_magnetic_sites", "types_of_magnetic_species", "bulk_modulus", "shear_modulus", "universal_anisotropy", "homogeneous_poisson", "e_total", "e_ionic", "e_electronic", "n", "e_ij_max", "weighted_surface_energy_EV_PER_ANG2", "weighted_surface_energy", "weighted_work_function", "surface_anisotropy", "shape_factor", "has_reconstructed", "possible_species", "has_props", "theoretical", "database_IDs"]}