{
  "builder_meta": null,
  "nsites": null,
  "elements": null,
  "nelements": null,
  "composition": null,
  "composition_reduced": null,
  "formula_pretty": "Hg4I7",
  "formula_anonymous": "A4B7",
  "chemsys": null,
  "volume": 595.7663908065457,
  "density": 4.712348631826353,
  "density_atomic": 54.160580982413244,
  "symmetry": null,
  "property_name": null,
  "material_id": "mp-568838",
  "deprecated": null,
  "deprecation_reasons": null,
  "last_updated": null,
  "origins": null,
  "warnings": null,
  "structure": {
    "@module": "pymatgen.core.structure",
    "@class": "Structure",
    "charge": 0,
    "lattice": {
      "matrix": [
        [9.512547, 0.0, 0.0],
        [0.0, 9.512547, 0.0],
        [0.0, 0.0, 6.583887]
      ],
      "pbc": [true, true, true],
      "a": 9.512547,
      "b": 9.512547,
      "c": 6.583887,
      "alpha": 90.0,
      "beta": 90.0,
      "gamma": 90.0,
      "volume": 595.7663908065457
    },
    "properties": {},
    "sites": [
      {
        "species": [{ "element": "Hg", "occu": 1 }],
        "abc": [0.0, 0.272176, 0.229953],
        "properties": { "magmom": 0.0 },
        "label": "Hg",
        "xyz": [0.0, 2.5890869922719997, 1.513984567311]
      },
      {
        "species": [{ "element": "Hg", "occu": 1 }],
        "abc": [0.727823999999999, 0.0, 0.770046999999999],
        "properties": { "magmom": 0.0 },
        "label": "Hg",
        "xyz": [6.92346000772799, 0.0, 5.069902432688994]
      },
      {
        "species": [{ "element": "Hg", "occu": 1 }],
        "abc": [0.272176, 0.0, 0.770046999999999],
        "properties": { "magmom": 0.0 },
        "label": "Hg",
        "xyz": [2.5890869922719997, 0.0, 5.069902432688994]
      },
      {
        "species": [{ "element": "Hg", "occu": 1 }],
        "abc": [0.0, 0.727823999999999, 0.229953],
        "properties": { "magmom": 0.0 },
        "label": "Hg",
        "xyz": [0.0, 6.92346000772799, 1.513984567311]
      },
      {
        "species": [{ "element": "I", "occu": 1 }],
        "abc": [0.256148, 0.256148, 0.0],
        "properties": { "magmom": -0.0 },
        "label": "I",
        "xyz": [2.436619888956, 2.436619888956, 0.0]
      },
      {
        "species": [{ "element": "I", "occu": 1 }],
        "abc": [0.743852, 0.743852, 0.0],
        "properties": { "magmom": -0.0 },
        "label": "I",
        "xyz": [7.075927111043999, 7.075927111043999, 0.0]
      },
      {
        "species": [{ "element": "I", "occu": 1 }],
        "abc": [0.5, 0.0, 0.481124],
        "properties": { "magmom": 0.0 },
        "label": "I",
        "xyz": [4.7562735, 0.0, 3.167666048988]
      },
      {
        "species": [{ "element": "I", "occu": 1 }],
        "abc": [0.0, 0.5, 0.518876],
        "properties": { "magmom": 0.0 },
        "label": "I",
        "xyz": [0.0, 4.7562735, 3.416220951012]
      },
      {
        "species": [{ "element": "I", "occu": 1 }],
        "abc": [0.0, 0.0, 0.5],
        "properties": { "magmom": -0.0 },
        "label": "I",
        "xyz": [0.0, 0.0, 3.2919435]
      },
      {
        "species": [{ "element": "I", "occu": 1 }],
        "abc": [0.743852, 0.256148, 0.0],
        "properties": { "magmom": -0.0 },
        "label": "I",
        "xyz": [7.075927111043999, 2.436619888956, 0.0]
      },
      {
        "species": [{ "element": "I", "occu": 1 }],
        "abc": [0.256148, 0.743852, 0.0],
        "properties": { "magmom": -0.0 },
        "label": "I",
        "xyz": [2.436619888956, 7.075927111043999, 0.0]
      }
    ]
  },
  "task_ids": null,
  "uncorrected_energy_per_atom": null,
  "energy_per_atom": -1.547818146363636,
  "formation_energy_per_atom": -0.46538392318182004,
  "energy_above_hull": 0.07722425471590601,
  "is_stable": false,
  "equilibrium_reaction_energy_per_atom": null,
  "decomposes_to": null,
  "xas": null,
  "grain_boundaries": null,
  "band_gap": 0.0,
  "cbm": null,
  "vbm": null,
  "efermi": 0.89255747,
  "is_gap_direct": null,
  "is_metal": null,
  "es_source_calc_id": null,
  "bandstructure": null,
  "dos": null,
  "dos_energy_up": null,
  "dos_energy_down": null,
  "is_magnetic": null,
  "ordering": null,
  "total_magnetization": 0.0005698999999990001,
  "total_magnetization_normalized_vol": null,
  "total_magnetization_normalized_formula_units": null,
  "num_magnetic_sites": null,
  "num_unique_magnetic_sites": null,
  "types_of_magnetic_species": null,
  "bulk_modulus": null,
  "shear_modulus": null,
  "universal_anisotropy": null,
  "homogeneous_poisson": null,
  "e_total": null,
  "e_ionic": null,
  "e_electronic": null,
  "n": null,
  "e_ij_max": null,
  "weighted_surface_energy_EV_PER_ANG2": null,
  "weighted_surface_energy": null,
  "weighted_work_function": null,
  "surface_anisotropy": null,
  "shape_factor": null,
  "has_reconstructed": null,
  "possible_species": null,
  "has_props": null,
  "theoretical": null,
  "database_IDs": null,
  "fields_not_requested": [
    "builder_meta",
    "nsites",
    "elements",
    "nelements",
    "composition",
    "composition_reduced",
    "chemsys",
    "symmetry",
    "property_name",
    "deprecated",
    "deprecation_reasons",
    "last_updated",
    "origins",
    "warnings",
    "task_ids",
    "uncorrected_energy_per_atom",
    "equilibrium_reaction_energy_per_atom",
    "decomposes_to",
    "xas",
    "grain_boundaries",
    "cbm",
    "vbm",
    "is_gap_direct",
    "is_metal",
    "es_source_calc_id",
    "bandstructure",
    "dos",
    "dos_energy_up",
    "dos_energy_down",
    "is_magnetic",
    "ordering",
    "total_magnetization_normalized_vol",
    "total_magnetization_normalized_formula_units",
    "num_magnetic_sites",
    "num_unique_magnetic_sites",
    "types_of_magnetic_species",
    "bulk_modulus",
    "shear_modulus",
    "universal_anisotropy",
    "homogeneous_poisson",
    "e_total",
    "e_ionic",
    "e_electronic",
    "n",
    "e_ij_max",
    "weighted_surface_energy_EV_PER_ANG2",
    "weighted_surface_energy",
    "weighted_work_function",
    "surface_anisotropy",
    "shape_factor",
    "has_reconstructed",
    "possible_species",
    "has_props",
    "theoretical",
    "database_IDs"
  ]
}
