{
  "builder_meta": null,
  "nsites": null,
  "elements": null,
  "nelements": null,
  "composition": null,
  "composition_reduced": null,
  "formula_pretty": "Hg5Au6",
  "formula_anonymous": "A5B6",
  "chemsys": null,
  "volume": 451.0847015795865,
  "density": 16.085057817188595,
  "density_atomic": 20.503850071799388,
  "symmetry": null,
  "property_name": null,
  "material_id": "mp-1812",
  "deprecated": null,
  "deprecation_reasons": null,
  "last_updated": null,
  "origins": null,
  "warnings": null,
  "structure": {
    "@module": "pymatgen.core.structure",
    "@class": "Structure",
    "charge": 0,
    "lattice": {
      "matrix": [
        [7.11620121, 0.0, 0.0],
        [-3.5581006, 6.16281128, 0.0],
        [0.0, 0.0, 10.28563267]
      ],
      "pbc": [true, true, true],
      "a": 7.11620121,
      "b": 7.116201427209294,
      "c": 10.28563267,
      "alpha": 90.0,
      "beta": 90.0,
      "gamma": 119.99999894381533,
      "volume": 451.0847015795865
    },
    "properties": {},
    "sites": [
      {
        "species": [{ "element": "Hg", "occu": 1 }],
        "abc": [0.5866304800000001, 0.0, 0.25],
        "properties": { "magmom": -0.0 },
        "label": "Hg",
        "xyz": [4.174580531598881, 0.0, 2.5714081675]
      },
      {
        "species": [{ "element": "Hg", "occu": 1 }],
        "abc": [0.5866304800000001, 0.5866304800000001, 0.75],
        "properties": { "magmom": -0.0 },
        "label": "Hg",
        "xyz": [2.087290268732593, 3.6152929393358146, 7.7142245025000005]
      },
      {
        "species": [{ "element": "Hg", "occu": 1 }],
        "abc": [0.0, 0.41336952, 0.75],
        "properties": { "magmom": -0.0 },
        "label": "Hg",
        "xyz": [-1.470810337133712, 2.5475183406641855, 7.7142245025000005]
      },
      {
        "species": [{ "element": "Hg", "occu": 1 }],
        "abc": [1.0, 0.5866304800000001, 0.25],
        "properties": { "magmom": -0.0 },
        "label": "Hg",
        "xyz": [5.028910947133712, 3.6152929393358146, 2.5714081675]
      },
      {
        "species": [{ "element": "Hg", "occu": 1 }],
        "abc": [0.41336952, 0.41336952, 0.25],
        "properties": { "magmom": -0.0 },
        "label": "Hg",
        "xyz": [1.4708103412674072, 2.5475183406641855, 2.5714081675]
      },
      {
        "species": [{ "element": "Hg", "occu": 1 }],
        "abc": [0.41336952, 0.0, 0.75],
        "properties": { "magmom": -0.0 },
        "label": "Hg",
        "xyz": [2.941620678401119, 0.0, 7.7142245025000005]
      },
      {
        "species": [{ "element": "Hg", "occu": 1 }],
        "abc": [0.333333, 0.666667, 0.0],
        "properties": { "magmom": -0.0 },
        "label": "Hg",
        "xyz": [-3.5547672698754695e-6, 4.10854290760376, 0.0]
      },
      {
        "species": [{ "element": "Hg", "occu": 1 }],
        "abc": [0.666667, 0.333333, 0.5],
        "properties": { "magmom": -0.0 },
        "label": "Hg",
        "xyz": [3.5581041647672698, 2.05426837239624, 5.142816335]
      },
      {
        "species": [{ "element": "Hg", "occu": 1 }],
        "abc": [0.666667, 0.333333, 0.0],
        "properties": { "magmom": -0.0 },
        "label": "Hg",
        "xyz": [3.5581041647672698, 2.05426837239624, 0.0]
      },
      {
        "species": [{ "element": "Hg", "occu": 1 }],
        "abc": [0.333333, 0.666667, 0.5],
        "properties": { "magmom": -0.0 },
        "label": "Hg",
        "xyz": [-3.5547672698754695e-6, 4.10854290760376, 5.142816335]
      },
      {
        "species": [{ "element": "Au", "occu": 1 }],
        "abc": [0.2403947, 0.0, 0.11023301],
        "properties": { "magmom": -0.0 },
        "label": "Au",
        "xyz": [1.7106970550175868, 0.0, 1.1338162489684367]
      },
      {
        "species": [{ "element": "Au", "occu": 1 }],
        "abc": [0.2403947, 0.2403947, 0.61023301],
        "properties": { "magmom": -0.0 },
        "label": "Au",
        "xyz": [0.8553485287107669, 1.481507168812216, 6.2766325839684365]
      },
      {
        "species": [{ "element": "Au", "occu": 1 }],
        "abc": [1.0, 0.759605299999999, 0.61023301],
        "properties": { "magmom": -0.0 },
        "label": "Au",
        "xyz": [4.413449136306824, 4.681304111187778, 6.2766325839684365]
      },
      {
        "species": [{ "element": "Au", "occu": 1 }],
        "abc": [0.0, 0.2403947, 0.11023301],
        "properties": { "magmom": -0.0 },
        "label": "Au",
        "xyz": [-0.8553485263068199, 1.481507168812216, 1.1338162489684367]
      },
      {
        "species": [{ "element": "Au", "occu": 1 }],
        "abc": [0.759605299999999, 0.759605299999999, 0.11023301],
        "properties": { "magmom": -0.0 },
        "label": "Au",
        "xyz": [2.7027520812892294, 4.681304111187778, 1.1338162489684367]
      },
      {
        "species": [{ "element": "Au", "occu": 1 }],
        "abc": [0.2403947, 0.0, 0.38976699000000004],
        "properties": { "magmom": -0.0 },
        "label": "Au",
        "xyz": [1.7106970550175868, 0.0, 4.0090000860315635]
      },
      {
        "species": [{ "element": "Au", "occu": 1 }],
        "abc": [0.759605299999999, 0.759605299999999, 0.38976699000000004],
        "properties": { "magmom": -0.0 },
        "label": "Au",
        "xyz": [2.7027520812892294, 4.681304111187778, 4.0090000860315635]
      },
      {
        "species": [{ "element": "Au", "occu": 1 }],
        "abc": [0.759605299999999, 0.0, 0.61023301],
        "properties": { "magmom": -0.0 },
        "label": "Au",
        "xyz": [5.405504154982406, 0.0, 6.2766325839684365]
      },
      {
        "species": [{ "element": "Au", "occu": 1 }],
        "abc": [0.0, 0.2403947, 0.38976699000000004],
        "properties": { "magmom": -0.0 },
        "label": "Au",
        "xyz": [-0.8553485263068199, 1.481507168812216, 4.0090000860315635]
      },
      {
        "species": [{ "element": "Au", "occu": 1 }],
        "abc": [1.0, 0.759605299999999, 0.88976699],
        "properties": { "magmom": -0.0 },
        "label": "Au",
        "xyz": [4.413449136306824, 4.681304111187778, 9.151816421031564]
      },
      {
        "species": [{ "element": "Au", "occu": 1 }],
        "abc": [0.759605299999999, 0.0, 0.88976699],
        "properties": { "magmom": -0.0 },
        "label": "Au",
        "xyz": [5.405504154982406, 0.0, 9.151816421031564]
      },
      {
        "species": [{ "element": "Au", "occu": 1 }],
        "abc": [0.2403947, 0.2403947, 0.88976699],
        "properties": { "magmom": -0.0 },
        "label": "Au",
        "xyz": [0.8553485287107669, 1.481507168812216, 9.151816421031564]
      }
    ]
  },
  "task_ids": null,
  "uncorrected_energy_per_atom": null,
  "energy_per_atom": -50.03366097863636,
  "formation_energy_per_atom": -0.001952477500005,
  "energy_above_hull": 0.0,
  "is_stable": true,
  "equilibrium_reaction_energy_per_atom": null,
  "decomposes_to": null,
  "xas": null,
  "grain_boundaries": null,
  "band_gap": 0.0,
  "cbm": null,
  "vbm": null,
  "efermi": 3.52511268,
  "is_gap_direct": null,
  "is_metal": null,
  "es_source_calc_id": null,
  "bandstructure": null,
  "dos": null,
  "dos_energy_up": null,
  "dos_energy_down": null,
  "is_magnetic": null,
  "ordering": null,
  "total_magnetization": 0.0003715,
  "total_magnetization_normalized_vol": null,
  "total_magnetization_normalized_formula_units": null,
  "num_magnetic_sites": null,
  "num_unique_magnetic_sites": null,
  "types_of_magnetic_species": null,
  "bulk_modulus": null,
  "shear_modulus": null,
  "universal_anisotropy": null,
  "homogeneous_poisson": null,
  "e_total": null,
  "e_ionic": null,
  "e_electronic": null,
  "n": null,
  "e_ij_max": null,
  "weighted_surface_energy_EV_PER_ANG2": null,
  "weighted_surface_energy": null,
  "weighted_work_function": null,
  "surface_anisotropy": null,
  "shape_factor": null,
  "has_reconstructed": null,
  "possible_species": null,
  "has_props": null,
  "theoretical": null,
  "database_IDs": null,
  "fields_not_requested": [
    "builder_meta",
    "nsites",
    "elements",
    "nelements",
    "composition",
    "composition_reduced",
    "chemsys",
    "symmetry",
    "property_name",
    "deprecated",
    "deprecation_reasons",
    "last_updated",
    "origins",
    "warnings",
    "task_ids",
    "uncorrected_energy_per_atom",
    "equilibrium_reaction_energy_per_atom",
    "decomposes_to",
    "xas",
    "grain_boundaries",
    "cbm",
    "vbm",
    "is_gap_direct",
    "is_metal",
    "es_source_calc_id",
    "bandstructure",
    "dos",
    "dos_energy_up",
    "dos_energy_down",
    "is_magnetic",
    "ordering",
    "total_magnetization_normalized_vol",
    "total_magnetization_normalized_formula_units",
    "num_magnetic_sites",
    "num_unique_magnetic_sites",
    "types_of_magnetic_species",
    "bulk_modulus",
    "shear_modulus",
    "universal_anisotropy",
    "homogeneous_poisson",
    "e_total",
    "e_ionic",
    "e_electronic",
    "n",
    "e_ij_max",
    "weighted_surface_energy_EV_PER_ANG2",
    "weighted_surface_energy",
    "weighted_work_function",
    "surface_anisotropy",
    "shape_factor",
    "has_reconstructed",
    "possible_species",
    "has_props",
    "theoretical",
    "database_IDs"
  ]
}
