{
  "builder_meta": null,
  "nsites": null,
  "elements": null,
  "nelements": null,
  "composition": null,
  "composition_reduced": null,
  "formula_pretty": "Hg5Pd2",
  "formula_anonymous": "A2B5",
  "chemsys": null,
  "volume": 286.56790085401707,
  "density": 14.089971596714607,
  "density_atomic": 20.469135775286933,
  "symmetry": null,
  "property_name": null,
  "material_id": "mp-30721",
  "deprecated": null,
  "deprecation_reasons": null,
  "last_updated": null,
  "origins": null,
  "warnings": null,
  "structure": {
    "@module": "pymatgen.core.structure",
    "@class": "Structure",
    "charge": 0,
    "lattice": {
      "matrix": [
        [2.97861131, 0.0, 0.0],
        [0.0, 9.80859616, -0.0],
        [0.0, 0.0, 9.80859616]
      ],
      "pbc": [true, true, true],
      "a": 2.97861131,
      "b": 9.80859616,
      "c": 9.80859616,
      "alpha": 90.0,
      "beta": 90.0,
      "gamma": 90.0,
      "volume": 286.56790085401707
    },
    "properties": {},
    "sites": [
      {
        "species": [{ "element": "Hg", "occu": 1 }],
        "abc": [0.0, 0.20384671000000001, 0.936251699999999],
        "properties": { "magmom": 0.0 },
        "label": "Hg",
        "xyz": [0.0, 1.9994500569346338, 9.183314829413463]
      },
      {
        "species": [{ "element": "Hg", "occu": 1 }],
        "abc": [-0.0, 0.936251699999999, 0.79615329],
        "properties": { "magmom": 0.0 },
        "label": "Hg",
        "xyz": [0.0, 9.183314829413463, 7.809146103065367]
      },
      {
        "species": [{ "element": "Hg", "occu": 1 }],
        "abc": [0.0, 0.5637483, 0.29615329],
        "properties": { "magmom": 0.0 },
        "label": "Hg",
        "xyz": [0.0, 5.529579410586528, 2.904848023065367]
      },
      {
        "species": [{ "element": "Hg", "occu": 1 }],
        "abc": [-0.0, 0.436251699999999, 0.70384671],
        "properties": { "magmom": 0.0 },
        "label": "Hg",
        "xyz": [0.0, 4.279016749413462, 6.903748136934634]
      },
      {
        "species": [{ "element": "Hg", "occu": 1 }],
        "abc": [0.0, 0.70384671, 0.5637483],
        "properties": { "magmom": 0.0 },
        "label": "Hg",
        "xyz": [0.0, 6.903748136934634, 5.529579410586528]
      },
      {
        "species": [{ "element": "Hg", "occu": 1 }],
        "abc": [-0.0, 0.29615329, 0.436251699999999],
        "properties": { "magmom": 0.0 },
        "label": "Hg",
        "xyz": [0.0, 2.904848023065367, 4.279016749413462]
      },
      {
        "species": [{ "element": "Hg", "occu": 1 }],
        "abc": [-0.0, 0.79615329, 0.0637483],
        "properties": { "magmom": 0.0 },
        "label": "Hg",
        "xyz": [0.0, 7.809146103065367, 0.625281330586528]
      },
      {
        "species": [{ "element": "Hg", "occu": 1 }],
        "abc": [0.0, 0.0637483, 0.20384671000000001],
        "properties": { "magmom": 0.0 },
        "label": "Hg",
        "xyz": [0.0, 0.625281330586528, 1.9994500569346338]
      },
      {
        "species": [{ "element": "Hg", "occu": 1 }],
        "abc": [0.0, 0.5, 0.0],
        "properties": { "magmom": 0.0 },
        "label": "Hg",
        "xyz": [0.0, 4.90429808, 0.0]
      },
      {
        "species": [{ "element": "Hg", "occu": 1 }],
        "abc": [0.0, -0.0, 0.5],
        "properties": { "magmom": 0.0 },
        "label": "Hg",
        "xyz": [0.0, 0.0, 4.90429808]
      },
      {
        "species": [{ "element": "Pd", "occu": 1 }],
        "abc": [0.5, 0.81993041, 0.31993041],
        "properties": { "magmom": 0.0 },
        "label": "Pd",
        "xyz": [1.489305655, 8.042366270993226, 3.1380681909932258]
      },
      {
        "species": [{ "element": "Pd", "occu": 1 }],
        "abc": [0.5, 0.68006959, 0.81993041],
        "properties": { "magmom": 0.0 },
        "label": "Pd",
        "xyz": [1.489305655, 6.670527969006775, 8.042366270993226]
      },
      {
        "species": [{ "element": "Pd", "occu": 1 }],
        "abc": [0.5, 0.31993041, 0.18006959],
        "properties": { "magmom": 0.0 },
        "label": "Pd",
        "xyz": [1.489305655, 3.1380681909932258, 1.7662298890067745]
      },
      {
        "species": [{ "element": "Pd", "occu": 1 }],
        "abc": [0.5, 0.18006959, 0.68006959],
        "properties": { "magmom": 0.0 },
        "label": "Pd",
        "xyz": [1.489305655, 1.7662298890067745, 6.670527969006775]
      }
    ]
  },
  "task_ids": null,
  "uncorrected_energy_per_atom": null,
  "energy_per_atom": -1.756748442857144,
  "formation_energy_per_atom": -0.055587898928577004,
  "energy_above_hull": 0.039678107499995,
  "is_stable": false,
  "equilibrium_reaction_energy_per_atom": null,
  "decomposes_to": null,
  "xas": null,
  "grain_boundaries": null,
  "band_gap": 0.0,
  "cbm": null,
  "vbm": null,
  "efermi": 3.05573658,
  "is_gap_direct": null,
  "is_metal": null,
  "es_source_calc_id": null,
  "bandstructure": null,
  "dos": null,
  "dos_energy_up": null,
  "dos_energy_down": null,
  "is_magnetic": null,
  "ordering": null,
  "total_magnetization": 1e-7,
  "total_magnetization_normalized_vol": null,
  "total_magnetization_normalized_formula_units": null,
  "num_magnetic_sites": null,
  "num_unique_magnetic_sites": null,
  "types_of_magnetic_species": null,
  "bulk_modulus": null,
  "shear_modulus": null,
  "universal_anisotropy": null,
  "homogeneous_poisson": null,
  "e_total": null,
  "e_ionic": null,
  "e_electronic": null,
  "n": null,
  "e_ij_max": null,
  "weighted_surface_energy_EV_PER_ANG2": null,
  "weighted_surface_energy": null,
  "weighted_work_function": null,
  "surface_anisotropy": null,
  "shape_factor": null,
  "has_reconstructed": null,
  "possible_species": null,
  "has_props": null,
  "theoretical": null,
  "database_IDs": null,
  "fields_not_requested": [
    "builder_meta",
    "nsites",
    "elements",
    "nelements",
    "composition",
    "composition_reduced",
    "chemsys",
    "symmetry",
    "property_name",
    "deprecated",
    "deprecation_reasons",
    "last_updated",
    "origins",
    "warnings",
    "task_ids",
    "uncorrected_energy_per_atom",
    "equilibrium_reaction_energy_per_atom",
    "decomposes_to",
    "xas",
    "grain_boundaries",
    "cbm",
    "vbm",
    "is_gap_direct",
    "is_metal",
    "es_source_calc_id",
    "bandstructure",
    "dos",
    "dos_energy_up",
    "dos_energy_down",
    "is_magnetic",
    "ordering",
    "total_magnetization_normalized_vol",
    "total_magnetization_normalized_formula_units",
    "num_magnetic_sites",
    "num_unique_magnetic_sites",
    "types_of_magnetic_species",
    "bulk_modulus",
    "shear_modulus",
    "universal_anisotropy",
    "homogeneous_poisson",
    "e_total",
    "e_ionic",
    "e_electronic",
    "n",
    "e_ij_max",
    "weighted_surface_energy_EV_PER_ANG2",
    "weighted_surface_energy",
    "weighted_work_function",
    "surface_anisotropy",
    "shape_factor",
    "has_reconstructed",
    "possible_species",
    "has_props",
    "theoretical",
    "database_IDs"
  ]
}
