{"builder_meta": null, "nsites": null, "elements": null, "nelements": null, "composition": null, "composition_reduced": null, "formula_pretty": "HgAu4", "formula_anonymous": "AB4", "chemsys": null, "volume": 92.6290854992047, "density": 17.71981503518184, "density_atomic": 18.525817099840943, "symmetry": null, "property_name": null, "material_id": "mp-1223945", "deprecated": null, "deprecation_reasons": null, "last_updated": null, "origins": null, "warnings": null, "structure": {"@module": "pymatgen.core.structure", "@class": "Structure", "charge": 0.0, "lattice": {"matrix": [[11.861388550000001, -1.50346527, 0.017262160000000002], [11.861388550000001, 1.50346527, 0.017262160000000002], [11.66704144, -0.0, 2.6140779800000002]], "pbc": [true, true, true], "a": 11.956305622320599, "b": 11.956305622320599, "c": 11.956306271093853, "alpha": 14.447750175960964, "beta": 14.447750175960964, "gamma": 14.447750772541607, "volume": 92.62908549920475}, "properties": {}, "sites": [{"species": [{"element": "Hg", "occu": 1}], "abc": [-0.0, -0.0, 0.0], "properties": {"magmom": -0.0}, "label": "Hg", "xyz": [0.0, 0.0, 0.0]}, {"species": [{"element": "Au", "occu": 1}], "abc": [0.59676029, 0.59676029, 0.59676029], "properties": {"magmom": -0.0}, "label": "Au", "xyz": [21.119238374977776, 0.0, 1.580580676642667]}, {"species": [{"element": "Au", "occu": 1}], "abc": [0.19873902000000002, 0.19873902000000002, 0.19873902000000002], "properties": {"magmom": -0.0}, "label": "Au", "xyz": [7.033337854617432, 0.0, 0.526380625471746]}, {"species": [{"element": "Au", "occu": 1}], "abc": [0.80126098, 0.80126098, 0.80126098], "properties": {"magmom": -0.0}, "label": "Au", "xyz": [28.35648068538257, 0.0, 2.1222216745282543]}, {"species": [{"element": "Au", "occu": 1}], "abc": [0.40323971000000003, 0.40323971000000003, 0.40323971000000003], "properties": {"magmom": -0.0}, "label": "Au", "xyz": [14.270580165022224, 0.0, 1.0680216233573332]}]}, "task_ids": null, "uncorrected_energy_per_atom": null, "energy_per_atom": -50.286883790000005, "formation_energy_per_atom": 0.054645634499996, "energy_above_hull": 0.055504724599998, "is_stable": false, "equilibrium_reaction_energy_per_atom": null, "decomposes_to": null, "xas": null, "grain_boundaries": null, "band_gap": 0.0, "cbm": null, "vbm": null, "efermi": 4.37024451, "is_gap_direct": null, "is_metal": null, "es_source_calc_id": null, "bandstructure": null, "dos": null, "dos_energy_up": null, "dos_energy_down": null, "is_magnetic": null, "ordering": null, "total_magnetization": 2e-07, "total_magnetization_normalized_vol": null, "total_magnetization_normalized_formula_units": null, "num_magnetic_sites": null, "num_unique_magnetic_sites": null, "types_of_magnetic_species": null, "bulk_modulus": null, "shear_modulus": null, "universal_anisotropy": null, "homogeneous_poisson": null, "e_total": null, "e_ionic": null, "e_electronic": null, "n": null, "e_ij_max": null, "weighted_surface_energy_EV_PER_ANG2": null, "weighted_surface_energy": null, "weighted_work_function": null, "surface_anisotropy": null, "shape_factor": null, "has_reconstructed": null, "possible_species": null, "has_props": null, "theoretical": null, "database_IDs": null, "fields_not_requested": ["builder_meta", "nsites", "elements", "nelements", "composition", "composition_reduced", "chemsys", "symmetry", "property_name", "deprecated", "deprecation_reasons", "last_updated", "origins", "warnings", "task_ids", "uncorrected_energy_per_atom", "equilibrium_reaction_energy_per_atom", "decomposes_to", "xas", "grain_boundaries", "cbm", "vbm", "is_gap_direct", "is_metal", "es_source_calc_id", "bandstructure", "dos", "dos_energy_up", "dos_energy_down", "is_magnetic", "ordering", "total_magnetization_normalized_vol", "total_magnetization_normalized_formula_units", "num_magnetic_sites", "num_unique_magnetic_sites", "types_of_magnetic_species", "bulk_modulus", "shear_modulus", "universal_anisotropy", "homogeneous_poisson", "e_total", "e_ionic", "e_electronic", "n", "e_ij_max", "weighted_surface_energy_EV_PER_ANG2", "weighted_surface_energy", "weighted_work_function", "surface_anisotropy", "shape_factor", "has_reconstructed", "possible_species", "has_props", "theoretical", "database_IDs"]}