{
  "builder_meta": null,
  "nsites": null,
  "elements": null,
  "nelements": null,
  "composition": null,
  "composition_reduced": null,
  "formula_pretty": "HgAu3",
  "formula_anonymous": "AB3",
  "chemsys": null,
  "volume": 148.0868608259669,
  "density": 17.750387467931606,
  "density_atomic": 18.510857603245864,
  "symmetry": null,
  "property_name": null,
  "material_id": "mp-1184705",
  "deprecated": null,
  "deprecation_reasons": null,
  "last_updated": null,
  "origins": null,
  "warnings": null,
  "structure": {
    "@module": "pymatgen.core.structure",
    "@class": "Structure",
    "charge": 0,
    "lattice": {
      "matrix": [
        [2.92910116, -5.07335131, 0.0],
        [2.92910116, 5.07335131, -0.0],
        [0.0, 0.0, 4.98261377]
      ],
      "pbc": [true, true, true],
      "a": 5.8582016967830715,
      "b": 5.8582016967830715,
      "c": 4.98261377,
      "alpha": 90.0,
      "beta": 90.0,
      "gamma": 119.9999929617137,
      "volume": 148.0868608259669
    },
    "properties": {},
    "sites": [
      {
        "species": [{ "element": "Hg", "occu": 1 }],
        "abc": [0.333333, 0.666667, 0.75],
        "properties": { "magmom": -0.0 },
        "label": "Hg",
        "xyz": [2.92910116, 1.69112048556754, 3.7369603275000003]
      },
      {
        "species": [{ "element": "Hg", "occu": 1 }],
        "abc": [0.666667, 0.333333, 0.25],
        "properties": { "magmom": -0.0 },
        "label": "Hg",
        "xyz": [2.92910116, -1.69112048556754, 1.2456534425]
      },
      {
        "species": [{ "element": "Au", "occu": 1 }],
        "abc": [0.16516376, 0.33032752, 0.25],
        "properties": { "magmom": -0.0 },
        "label": "Au",
        "xyz": [1.4513440830178848, 0.8379337781605255, 1.2456534425]
      },
      {
        "species": [{ "element": "Au", "occu": 1 }],
        "abc": [0.66967248, 0.83483624, 0.25],
        "properties": { "magmom": -0.0 },
        "label": "Au",
        "xyz": [4.406858236982115, 0.837933778160525, 1.2456534425]
      },
      {
        "species": [{ "element": "Au", "occu": 1 }],
        "abc": [0.16516376, 0.83483624, 0.25],
        "properties": { "magmom": -0.0 },
        "label": "Au",
        "xyz": [2.92910116, 3.3974837536789484, 1.2456534425]
      },
      {
        "species": [{ "element": "Au", "occu": 1 }],
        "abc": [0.83483624, 0.66967248, 0.75],
        "properties": { "magmom": -0.0 },
        "label": "Au",
        "xyz": [4.406858236982115, -0.837933778160525, 3.7369603275000003]
      },
      {
        "species": [{ "element": "Au", "occu": 1 }],
        "abc": [0.33032752, 0.16516376, 0.75],
        "properties": { "magmom": -0.0 },
        "label": "Au",
        "xyz": [1.4513440830178848, -0.8379337781605255, 3.7369603275000003]
      },
      {
        "species": [{ "element": "Au", "occu": 1 }],
        "abc": [0.83483624, 0.16516376, 0.75],
        "properties": { "magmom": -0.0 },
        "label": "Au",
        "xyz": [2.92910116, -3.3974837536789484, 3.7369603275000003]
      }
    ]
  },
  "task_ids": null,
  "uncorrected_energy_per_atom": null,
  "energy_per_atom": -50.2391416175,
  "formation_energy_per_atom": 0.041530125624994,
  "energy_above_hull": 0.042603988249999,
  "is_stable": false,
  "equilibrium_reaction_energy_per_atom": null,
  "decomposes_to": null,
  "xas": null,
  "grain_boundaries": null,
  "band_gap": 0.0,
  "cbm": null,
  "vbm": null,
  "efermi": 4.45068775,
  "is_gap_direct": null,
  "is_metal": null,
  "es_source_calc_id": null,
  "bandstructure": null,
  "dos": null,
  "dos_energy_up": null,
  "dos_energy_down": null,
  "is_magnetic": null,
  "ordering": null,
  "total_magnetization": 1e-7,
  "total_magnetization_normalized_vol": null,
  "total_magnetization_normalized_formula_units": null,
  "num_magnetic_sites": null,
  "num_unique_magnetic_sites": null,
  "types_of_magnetic_species": null,
  "bulk_modulus": null,
  "shear_modulus": null,
  "universal_anisotropy": null,
  "homogeneous_poisson": null,
  "e_total": null,
  "e_ionic": null,
  "e_electronic": null,
  "n": null,
  "e_ij_max": null,
  "weighted_surface_energy_EV_PER_ANG2": null,
  "weighted_surface_energy": null,
  "weighted_work_function": null,
  "surface_anisotropy": null,
  "shape_factor": null,
  "has_reconstructed": null,
  "possible_species": null,
  "has_props": null,
  "theoretical": null,
  "database_IDs": null,
  "fields_not_requested": [
    "builder_meta",
    "nsites",
    "elements",
    "nelements",
    "composition",
    "composition_reduced",
    "chemsys",
    "symmetry",
    "property_name",
    "deprecated",
    "deprecation_reasons",
    "last_updated",
    "origins",
    "warnings",
    "task_ids",
    "uncorrected_energy_per_atom",
    "equilibrium_reaction_energy_per_atom",
    "decomposes_to",
    "xas",
    "grain_boundaries",
    "cbm",
    "vbm",
    "is_gap_direct",
    "is_metal",
    "es_source_calc_id",
    "bandstructure",
    "dos",
    "dos_energy_up",
    "dos_energy_down",
    "is_magnetic",
    "ordering",
    "total_magnetization_normalized_vol",
    "total_magnetization_normalized_formula_units",
    "num_magnetic_sites",
    "num_unique_magnetic_sites",
    "types_of_magnetic_species",
    "bulk_modulus",
    "shear_modulus",
    "universal_anisotropy",
    "homogeneous_poisson",
    "e_total",
    "e_ionic",
    "e_electronic",
    "n",
    "e_ij_max",
    "weighted_surface_energy_EV_PER_ANG2",
    "weighted_surface_energy",
    "weighted_work_function",
    "surface_anisotropy",
    "shape_factor",
    "has_reconstructed",
    "possible_species",
    "has_props",
    "theoretical",
    "database_IDs"
  ]
}
