{"builder_meta": null, "nsites": null, "elements": null, "nelements": null, "composition": null, "composition_reduced": null, "formula_pretty": "HgBr2", "formula_anonymous": "AB2", "chemsys": null, "volume": 207.27383454880425, "density": 5.774534541006871, "density_atomic": 34.54563909146737, "symmetry": null, "property_name": null, "material_id": "mp-23292", "deprecated": null, "deprecation_reasons": null, "last_updated": null, "origins": null, "warnings": null, "structure": {"@module": "pymatgen.core.structure", "@class": "Structure", "charge": 0, "lattice": {"matrix": [[4.16394648, 0.02566203, -0.0], [-1.5010171300000001, 3.88407766, 0.0], [-0.0, -0.0, 12.78551768]], "pbc": [true, true, true], "a": 4.164025555647817, "b": 4.164025899711061, "c": 12.78551768, "alpha": 90.0, "beta": 90.0, "gamma": 110.77611688075669, "volume": 207.27383454880425}, "properties": {}, "sites": [{"species": [{"element": "Hg", "occu": 1}], "abc": [0.66530802, 0.33469198, 0.49983768], "properties": {"magmom": 0.0}, "label": "Hg", "xyz": [2.267928592741152, 1.3170427968676472, 6.390683494770182]}, {"species": [{"element": "Hg", "occu": 1}], "abc": [0.33469198, 0.66530802, -0.00016232], "properties": {"magmom": 0.0}, "label": "Hg", "xyz": [0.39500075725884776, 2.5926968931323526, -0.0020753452298176]}, {"species": [{"element": "Br", "occu": 1}], "abc": [0.60896955, 0.39103045000000003, 0.127144099999999], "properties": {"magmom": -0.0}, "label": "Br", "xyz": [1.9487732103480753, 1.5344200300859336, 1.6256031384576752]}, {"species": [{"element": "Br", "occu": 1}], "abc": [0.39103045000000003, 0.60896955, 0.6271441], "properties": {"magmom": -0.0}, "label": "Br", "xyz": [0.7141561396519245, 2.3753196599140667, 8.018361978457687]}, {"species": [{"element": "Br", "occu": 1}], "abc": [0.05958486, 0.94041514, 0.8730182200000001], "properties": {"magmom": -0.0}, "label": "Br", "xyz": [-1.1634710663930556, 3.6541745048646384, 11.16198988677213]}, {"species": [{"element": "Br", "occu": 1}], "abc": [0.94041514, 0.05958486, 0.37301822], "properties": {"magmom": -0.0}, "label": "Br", "xyz": [3.826400416393055, 0.2555651851353618, 4.76923104677213]}]}, "task_ids": null, "uncorrected_energy_per_atom": null, "energy_per_atom": -2.023291951666669, "formation_energy_per_atom": -0.8287702491666711, "energy_above_hull": 0.0, "is_stable": true, "equilibrium_reaction_energy_per_atom": null, "decomposes_to": null, "xas": null, "grain_boundaries": null, "band_gap": 2.5527, "cbm": null, "vbm": null, "efermi": -1.73969353, "is_gap_direct": null, "is_metal": null, "es_source_calc_id": null, "bandstructure": null, "dos": null, "dos_energy_up": null, "dos_energy_down": null, "is_magnetic": null, "ordering": null, "total_magnetization": 0.0, "total_magnetization_normalized_vol": null, "total_magnetization_normalized_formula_units": null, "num_magnetic_sites": null, "num_unique_magnetic_sites": null, "types_of_magnetic_species": null, "bulk_modulus": null, "shear_modulus": null, "universal_anisotropy": null, "homogeneous_poisson": null, "e_total": null, "e_ionic": null, "e_electronic": null, "n": null, "e_ij_max": null, "weighted_surface_energy_EV_PER_ANG2": null, "weighted_surface_energy": null, "weighted_work_function": null, "surface_anisotropy": null, "shape_factor": null, "has_reconstructed": null, "possible_species": null, "has_props": null, "theoretical": null, "database_IDs": null, "fields_not_requested": ["builder_meta", "nsites", "elements", "nelements", "composition", "composition_reduced", "chemsys", "symmetry", "property_name", "deprecated", "deprecation_reasons", "last_updated", "origins", "warnings", "task_ids", "uncorrected_energy_per_atom", "equilibrium_reaction_energy_per_atom", "decomposes_to", "xas", "grain_boundaries", "cbm", "vbm", "is_gap_direct", "is_metal", "es_source_calc_id", "bandstructure", "dos", "dos_energy_up", "dos_energy_down", "is_magnetic", "ordering", "total_magnetization_normalized_vol", "total_magnetization_normalized_formula_units", "num_magnetic_sites", "num_unique_magnetic_sites", "types_of_magnetic_species", "bulk_modulus", "shear_modulus", "universal_anisotropy", "homogeneous_poisson", "e_total", "e_ionic", "e_electronic", "n", "e_ij_max", "weighted_surface_energy_EV_PER_ANG2", "weighted_surface_energy", "weighted_work_function", "surface_anisotropy", "shape_factor", "has_reconstructed", "possible_species", "has_props", "theoretical", "database_IDs"]}