{
  "builder_meta": null,
  "nsites": null,
  "elements": null,
  "nelements": null,
  "composition": null,
  "composition_reduced": null,
  "formula_pretty": "HgBr",
  "formula_anonymous": "AB",
  "chemsys": null,
  "volume": 126.95326347785603,
  "density": 7.3376805319879495,
  "density_atomic": 31.738315869464007,
  "symmetry": null,
  "property_name": null,
  "material_id": "mp-23177",
  "deprecated": null,
  "deprecation_reasons": null,
  "last_updated": null,
  "origins": null,
  "warnings": null,
  "structure": {
    "@module": "pymatgen.core.structure",
    "@class": "Structure",
    "charge": 0,
    "lattice": {
      "matrix": [
        [4.42434754, -0.000309, -1.70936445],
        [-0.66122177, 4.37465914, -1.70936446],
        [-0.00484567, -0.00563265, 6.56366449]
      ],
      "pbc": [true, true, true],
      "a": 4.743076857179193,
      "b": 4.743077447967571,
      "c": 6.563668695520115,
      "alpha": 111.16652370579523,
      "beta": 111.16652698364678,
      "gamma": 90.01247912854728,
      "volume": 126.95326347785603
    },
    "properties": {},
    "sites": [
      {
        "species": [{ "element": "Hg", "occu": 1 }],
        "abc": [0.8849608600000001, 0.8849608600000001, 0.76992729],
        "properties": { "magmom": -0.0 },
        "label": "Hg",
        "xyz": [3.3264882041360284, 3.8667919308855025, 2.0281031369544693]
      },
      {
        "species": [{ "element": "Hg", "occu": 1 }],
        "abc": [0.11503914, 0.11503914, 0.23007371000000001],
        "properties": { "magmom": -0.0 },
        "label": "Hg",
        "xyz": [0.4317918910183022, 0.5019255534818481, 1.1168390067100205]
      },
      {
        "species": [{ "element": "Br", "occu": 1 }],
        "abc": [0.6567304700000001, 0.6567304700000001, 0.31300601],
        "properties": { "magmom": 0.0 },
        "label": "Br",
        "xyz": [2.4698426317687354, 2.8710059700845396, -0.1907170108733034]
      },
      {
        "species": [{ "element": "Br", "occu": 1 }],
        "abc": [0.34326953, 0.34326953, 0.68699299],
        "properties": { "magmom": 0.0 },
        "label": "Br",
        "xyz": [1.2884374730769348, 1.4977115255481108, 3.3356460272088126]
      }
    ]
  },
  "task_ids": null,
  "uncorrected_energy_per_atom": null,
  "energy_per_atom": -1.662405962499999,
  "formation_energy_per_atom": -0.689096676250002,
  "energy_above_hull": 0.0,
  "is_stable": true,
  "equilibrium_reaction_energy_per_atom": null,
  "decomposes_to": null,
  "xas": null,
  "grain_boundaries": null,
  "band_gap": 2.2557,
  "cbm": null,
  "vbm": null,
  "efermi": -0.9755173500000001,
  "is_gap_direct": null,
  "is_metal": null,
  "es_source_calc_id": null,
  "bandstructure": null,
  "dos": null,
  "dos_energy_up": null,
  "dos_energy_down": null,
  "is_magnetic": null,
  "ordering": null,
  "total_magnetization": 0.0,
  "total_magnetization_normalized_vol": null,
  "total_magnetization_normalized_formula_units": null,
  "num_magnetic_sites": null,
  "num_unique_magnetic_sites": null,
  "types_of_magnetic_species": null,
  "bulk_modulus": null,
  "shear_modulus": null,
  "universal_anisotropy": null,
  "homogeneous_poisson": null,
  "e_total": null,
  "e_ionic": null,
  "e_electronic": null,
  "n": null,
  "e_ij_max": null,
  "weighted_surface_energy_EV_PER_ANG2": null,
  "weighted_surface_energy": null,
  "weighted_work_function": null,
  "surface_anisotropy": null,
  "shape_factor": null,
  "has_reconstructed": null,
  "possible_species": null,
  "has_props": null,
  "theoretical": null,
  "database_IDs": null,
  "fields_not_requested": [
    "builder_meta",
    "nsites",
    "elements",
    "nelements",
    "composition",
    "composition_reduced",
    "chemsys",
    "symmetry",
    "property_name",
    "deprecated",
    "deprecation_reasons",
    "last_updated",
    "origins",
    "warnings",
    "task_ids",
    "uncorrected_energy_per_atom",
    "equilibrium_reaction_energy_per_atom",
    "decomposes_to",
    "xas",
    "grain_boundaries",
    "cbm",
    "vbm",
    "is_gap_direct",
    "is_metal",
    "es_source_calc_id",
    "bandstructure",
    "dos",
    "dos_energy_up",
    "dos_energy_down",
    "is_magnetic",
    "ordering",
    "total_magnetization_normalized_vol",
    "total_magnetization_normalized_formula_units",
    "num_magnetic_sites",
    "num_unique_magnetic_sites",
    "types_of_magnetic_species",
    "bulk_modulus",
    "shear_modulus",
    "universal_anisotropy",
    "homogeneous_poisson",
    "e_total",
    "e_ionic",
    "e_electronic",
    "n",
    "e_ij_max",
    "weighted_surface_energy_EV_PER_ANG2",
    "weighted_surface_energy",
    "weighted_work_function",
    "surface_anisotropy",
    "shape_factor",
    "has_reconstructed",
    "possible_species",
    "has_props",
    "theoretical",
    "database_IDs"
  ]
}
