{"builder_meta": null, "nsites": null, "elements": null, "nelements": null, "composition": null, "composition_reduced": null, "formula_pretty": "HgF", "formula_anonymous": "AB", "chemsys": null, "volume": 73.9382192262809, "density": 9.86323787350034, "density_atomic": 18.484554806570227, "symmetry": null, "property_name": null, "material_id": "mp-706", "deprecated": null, "deprecation_reasons": null, "last_updated": null, "origins": null, "warnings": null, "structure": {"@module": "pymatgen.core.structure", "@class": "Structure", "charge": 0, "lattice": {"matrix": [[3.48581552, -0.0, -1.11221765], [-0.35487412, 3.46770409, -1.11221765], [0.025540550000000002, 0.02828777, 6.09862993]], "pbc": [true, true, true], "a": 3.6589531208317485, "b": 3.6589527733792937, "c": 6.0987490144059615, "alpha": 107.45615918002709, "beta": 107.4561582495197, "gamma": 89.99998978946898, "volume": 73.93821922628089}, "properties": {}, "sites": [{"species": [{"element": "Hg", "occu": 1}], "abc": [0.88451595, 0.88451595, 0.76903191], "properties": {"magmom": 0.0}, "label": "Hg", "xyz": [2.789009104764281, 3.0889937752779764, 2.7224925208580313]}, {"species": [{"element": "Hg", "occu": 1}], "abc": [0.11548405, 0.11548405, 0.23096809000000001], "properties": {"magmom": 0.0}, "label": "Hg", "xyz": [0.36747284523571955, 0.4069980847220238, 1.1517021091419688]}, {"species": [{"element": "F", "occu": 1}], "abc": [0.6881513, 0.6881513, 0.376303599999999], "properties": {"magmom": 0.0}, "label": "F", "xyz": [2.1641723955448, 2.3969498672357887, 0.7641883542658519]}, {"species": [{"element": "F", "occu": 1}], "abc": [0.3118487, 0.3118487, 0.623696399999999], "properties": {"magmom": 0.0}, "label": "F", "xyz": [0.9923095544552001, 1.099041992764211, 3.1100062757341362]}]}, "task_ids": null, "uncorrected_energy_per_atom": null, "energy_per_atom": -27.560985235, "formation_energy_per_atom": -1.314067998750001, "energy_above_hull": 0.0, "is_stable": true, "equilibrium_reaction_energy_per_atom": null, "decomposes_to": null, "xas": null, "grain_boundaries": null, "band_gap": 1.7704, "cbm": null, "vbm": null, "efermi": -1.1701719, "is_gap_direct": null, "is_metal": null, "es_source_calc_id": null, "bandstructure": null, "dos": null, "dos_energy_up": null, "dos_energy_down": null, "is_magnetic": null, "ordering": null, "total_magnetization": 0.0, "total_magnetization_normalized_vol": null, "total_magnetization_normalized_formula_units": null, "num_magnetic_sites": null, "num_unique_magnetic_sites": null, "types_of_magnetic_species": null, "bulk_modulus": null, "shear_modulus": null, "universal_anisotropy": null, "homogeneous_poisson": null, "e_total": null, "e_ionic": null, "e_electronic": null, "n": null, "e_ij_max": null, "weighted_surface_energy_EV_PER_ANG2": null, "weighted_surface_energy": null, "weighted_work_function": null, "surface_anisotropy": null, "shape_factor": null, "has_reconstructed": null, "possible_species": null, "has_props": null, "theoretical": null, "database_IDs": null, "fields_not_requested": ["builder_meta", "nsites", "elements", "nelements", "composition", "composition_reduced", "chemsys", "symmetry", "property_name", "deprecated", "deprecation_reasons", "last_updated", "origins", "warnings", "task_ids", "uncorrected_energy_per_atom", "equilibrium_reaction_energy_per_atom", "decomposes_to", "xas", "grain_boundaries", "cbm", "vbm", "is_gap_direct", "is_metal", "es_source_calc_id", "bandstructure", "dos", "dos_energy_up", "dos_energy_down", "is_magnetic", "ordering", "total_magnetization_normalized_vol", "total_magnetization_normalized_formula_units", "num_magnetic_sites", "num_unique_magnetic_sites", "types_of_magnetic_species", "bulk_modulus", "shear_modulus", "universal_anisotropy", "homogeneous_poisson", "e_total", "e_ionic", "e_electronic", "n", "e_ij_max", "weighted_surface_energy_EV_PER_ANG2", "weighted_surface_energy", "weighted_work_function", "surface_anisotropy", "shape_factor", "has_reconstructed", "possible_species", "has_props", "theoretical", "database_IDs"]}