{
  "builder_meta": null,
  "nsites": null,
  "elements": null,
  "nelements": null,
  "composition": null,
  "composition_reduced": null,
  "formula_pretty": "HgI",
  "formula_anonymous": "AB",
  "chemsys": null,
  "volume": 151.3211478162347,
  "density": 7.187592340905009,
  "density_atomic": 37.83028695405868,
  "symmetry": null,
  "property_name": null,
  "material_id": "mp-22859",
  "deprecated": null,
  "deprecation_reasons": null,
  "last_updated": null,
  "origins": null,
  "warnings": null,
  "structure": {
    "@module": "pymatgen.core.structure",
    "@class": "Structure",
    "charge": 0,
    "lattice": {
      "matrix": [
        [4.72428635, -0.00021136, -1.8413289],
        [-0.71944897, 4.66918277, -1.84132887],
        [-0.03105888, -0.03620813, 6.88858205]
      ],
      "pbc": [true, true, true],
      "a": 5.070441172072168,
      "b": 5.07044047076725,
      "c": 6.888747225895806,
      "alpha": 111.55174888985859,
      "beta": 111.55175722200553,
      "gamma": 90.02089924104857,
      "volume": 151.3211478162347
    },
    "properties": {},
    "sites": [
      {
        "species": [{ "element": "Hg", "occu": 1 }],
        "abc": [0.8884379800000001, 0.8884379800000001, 0.77664109],
        "properties": { "magmom": -0.0 },
        "label": "Hg",
        "xyz": [3.533928029698314, 4.11997080662809, 2.07814284165633]
      },
      {
        "species": [{ "element": "Hg", "occu": 1 }],
        "abc": [0.11156202, 0.11156202, 0.22335891],
        "properties": { "magmom": -0.0 },
        "label": "Hg",
        "xyz": [0.43985047030168684, 0.5127924733719099, 1.1277814383436702]
      },
      {
        "species": [{ "element": "I", "occu": 1 }],
        "abc": [0.65477992, 0.65477992, 0.30860253],
        "properties": { "magmom": 0.0 },
        "label": "I",
        "xyz": [2.6127022503424433, 3.0459748057975182, -0.28549651128539155]
      },
      {
        "species": [{ "element": "I", "occu": 1 }],
        "abc": [0.34522008, 0.34522008, 0.6913974700000001],
        "properties": { "magmom": 0.0 },
        "label": "I",
        "xyz": [1.3610762496575566, 1.5867884742024818, 3.491420791285393]
      }
    ]
  },
  "task_ids": null,
  "uncorrected_energy_per_atom": null,
  "energy_per_atom": -1.3604090299999991,
  "formation_energy_per_atom": -0.443566703750002,
  "energy_above_hull": 0.0,
  "is_stable": true,
  "equilibrium_reaction_energy_per_atom": null,
  "decomposes_to": null,
  "xas": null,
  "grain_boundaries": null,
  "band_gap": 1.6513,
  "cbm": null,
  "vbm": null,
  "efermi": 0.57835375,
  "is_gap_direct": null,
  "is_metal": null,
  "es_source_calc_id": null,
  "bandstructure": null,
  "dos": null,
  "dos_energy_up": null,
  "dos_energy_down": null,
  "is_magnetic": null,
  "ordering": null,
  "total_magnetization": 0.0,
  "total_magnetization_normalized_vol": null,
  "total_magnetization_normalized_formula_units": null,
  "num_magnetic_sites": null,
  "num_unique_magnetic_sites": null,
  "types_of_magnetic_species": null,
  "bulk_modulus": null,
  "shear_modulus": null,
  "universal_anisotropy": null,
  "homogeneous_poisson": null,
  "e_total": null,
  "e_ionic": null,
  "e_electronic": null,
  "n": null,
  "e_ij_max": null,
  "weighted_surface_energy_EV_PER_ANG2": null,
  "weighted_surface_energy": null,
  "weighted_work_function": null,
  "surface_anisotropy": null,
  "shape_factor": null,
  "has_reconstructed": null,
  "possible_species": null,
  "has_props": null,
  "theoretical": null,
  "database_IDs": null,
  "fields_not_requested": [
    "builder_meta",
    "nsites",
    "elements",
    "nelements",
    "composition",
    "composition_reduced",
    "chemsys",
    "symmetry",
    "property_name",
    "deprecated",
    "deprecation_reasons",
    "last_updated",
    "origins",
    "warnings",
    "task_ids",
    "uncorrected_energy_per_atom",
    "equilibrium_reaction_energy_per_atom",
    "decomposes_to",
    "xas",
    "grain_boundaries",
    "cbm",
    "vbm",
    "is_gap_direct",
    "is_metal",
    "es_source_calc_id",
    "bandstructure",
    "dos",
    "dos_energy_up",
    "dos_energy_down",
    "is_magnetic",
    "ordering",
    "total_magnetization_normalized_vol",
    "total_magnetization_normalized_formula_units",
    "num_magnetic_sites",
    "num_unique_magnetic_sites",
    "types_of_magnetic_species",
    "bulk_modulus",
    "shear_modulus",
    "universal_anisotropy",
    "homogeneous_poisson",
    "e_total",
    "e_ionic",
    "e_electronic",
    "n",
    "e_ij_max",
    "weighted_surface_energy_EV_PER_ANG2",
    "weighted_surface_energy",
    "weighted_work_function",
    "surface_anisotropy",
    "shape_factor",
    "has_reconstructed",
    "possible_species",
    "has_props",
    "theoretical",
    "database_IDs"
  ]
}
