{"builder_meta": null, "nsites": null, "elements": null, "nelements": null, "composition": null, "composition_reduced": null, "formula_pretty": "HgI2", "formula_anonymous": "AB2", "chemsys": null, "volume": 256.0028709572018, "density": 5.894833826436059, "density_atomic": 42.66714515953364, "symmetry": null, "property_name": null, "material_id": "mp-23192", "deprecated": null, "deprecation_reasons": null, "last_updated": null, "origins": null, "warnings": null, "structure": {"@module": "pymatgen.core.structure", "@class": "Structure", "charge": 0, "lattice": {"matrix": [[4.46038977, 0.0, 0.0], [-0.0, 4.46038977, -0.0], [0.0, 0.0, 12.86764923]], "pbc": [true, true, true], "a": 4.46038977, "b": 4.46038977, "c": 12.86764923, "alpha": 90.0, "beta": 90.0, "gamma": 90.0, "volume": 256.0028709572018}, "properties": {}, "sites": [{"species": [{"element": "Hg", "occu": 1}], "abc": [0.75, 0.25, 0.75], "properties": {"magmom": 0.0}, "label": "Hg", "xyz": [3.3452923275, 1.1150974425, 9.6507369225]}, {"species": [{"element": "Hg", "occu": 1}], "abc": [0.25, 0.75, 0.25], "properties": {"magmom": 0.0}, "label": "Hg", "xyz": [1.1150974425, 3.3452923275, 3.2169123075]}, {"species": [{"element": "I", "occu": 1}], "abc": [0.25, 0.25, 0.38679759], "properties": {"magmom": -0.0}, "label": "I", "xyz": [1.1150974425, 1.1150974425, 4.977175711129356]}, {"species": [{"element": "I", "occu": 1}], "abc": [0.25, 0.25, 0.88679759], "properties": {"magmom": -0.0}, "label": "I", "xyz": [1.1150974425, 1.1150974425, 11.411000326129356]}, {"species": [{"element": "I", "occu": 1}], "abc": [0.75, 0.75, 0.61320241], "properties": {"magmom": -0.0}, "label": "I", "xyz": [3.3452923275, 3.3452923275, 7.890473518870643]}, {"species": [{"element": "I", "occu": 1}], "abc": [0.75, 0.75, 0.11320241], "properties": {"magmom": -0.0}, "label": "I", "xyz": [3.3452923275, 3.3452923275, 1.4566489038706443]}]}, "task_ids": null, "uncorrected_energy_per_atom": null, "energy_per_atom": -1.683849816874996, "formation_energy_per_atom": -0.564617394374998, "energy_above_hull": 0.0, "is_stable": true, "equilibrium_reaction_energy_per_atom": null, "decomposes_to": null, "xas": null, "grain_boundaries": null, "band_gap": 1.3324, "cbm": null, "vbm": null, "efermi": 0.16554319, "is_gap_direct": null, "is_metal": null, "es_source_calc_id": null, "bandstructure": null, "dos": null, "dos_energy_up": null, "dos_energy_down": null, "is_magnetic": null, "ordering": null, "total_magnetization": 0.0, "total_magnetization_normalized_vol": null, "total_magnetization_normalized_formula_units": null, "num_magnetic_sites": null, "num_unique_magnetic_sites": null, "types_of_magnetic_species": null, "bulk_modulus": null, "shear_modulus": null, "universal_anisotropy": null, "homogeneous_poisson": null, "e_total": null, "e_ionic": null, "e_electronic": null, "n": null, "e_ij_max": null, "weighted_surface_energy_EV_PER_ANG2": null, "weighted_surface_energy": null, "weighted_work_function": null, "surface_anisotropy": null, "shape_factor": null, "has_reconstructed": null, "possible_species": null, "has_props": null, "theoretical": null, "database_IDs": null, "fields_not_requested": ["builder_meta", "nsites", "elements", "nelements", "composition", "composition_reduced", "chemsys", "symmetry", "property_name", "deprecated", "deprecation_reasons", "last_updated", "origins", "warnings", "task_ids", "uncorrected_energy_per_atom", "equilibrium_reaction_energy_per_atom", "decomposes_to", "xas", "grain_boundaries", "cbm", "vbm", "is_gap_direct", "is_metal", "es_source_calc_id", "bandstructure", "dos", "dos_energy_up", "dos_energy_down", "is_magnetic", "ordering", "total_magnetization_normalized_vol", "total_magnetization_normalized_formula_units", "num_magnetic_sites", "num_unique_magnetic_sites", "types_of_magnetic_species", "bulk_modulus", "shear_modulus", "universal_anisotropy", "homogeneous_poisson", "e_total", "e_ionic", "e_electronic", "n", "e_ij_max", "weighted_surface_energy_EV_PER_ANG2", "weighted_surface_energy", "weighted_work_function", "surface_anisotropy", "shape_factor", "has_reconstructed", "possible_species", "has_props", "theoretical", "database_IDs"]}