{
  "builder_meta": null,
  "nsites": null,
  "elements": null,
  "nelements": null,
  "composition": null,
  "composition_reduced": null,
  "formula_pretty": "HgN",
  "formula_anonymous": "AB",
  "chemsys": null,
  "volume": 70.28012686565044,
  "density": 10.140738777966124,
  "density_atomic": 17.57003171641261,
  "symmetry": null,
  "property_name": null,
  "material_id": "mp-973674",
  "deprecated": null,
  "deprecation_reasons": null,
  "last_updated": null,
  "origins": null,
  "warnings": null,
  "structure": {
    "@module": "pymatgen.core.structure",
    "@class": "Structure",
    "charge": 0,
    "lattice": {
      "matrix": [
        [1.817626, -3.148221, 0.0],
        [1.817626, 3.148221, 0.0],
        [0.0, 0.0, 6.140911]
      ],
      "pbc": [true, true, true],
      "a": 3.6352523627276554,
      "b": 3.6352523627276554,
      "c": 6.140911,
      "alpha": 90.0,
      "beta": 90.0,
      "gamma": 120.00000660143112,
      "volume": 70.28012686565044
    },
    "properties": {},
    "sites": [
      {
        "species": [{ "element": "Hg", "occu": 1 }],
        "abc": [0.666667, 0.333333, 0.508265],
        "properties": { "magmom": -0.002 },
        "label": "Hg",
        "xyz": [1.8176260000000002, -1.049409098814, 3.1212101294149996]
      },
      {
        "species": [{ "element": "Hg", "occu": 1 }],
        "abc": [0.333333, 0.666667, 0.008265],
        "properties": { "magmom": -0.002 },
        "label": "Hg",
        "xyz": [1.8176260000000002, 1.049409098814, 0.050754629415]
      },
      {
        "species": [{ "element": "N", "occu": 1 }],
        "abc": [0.666667, 0.333333, 0.866733],
        "properties": { "magmom": -0.009000000000000001 },
        "label": "N",
        "xyz": [1.8176260000000002, -1.049409098814, 5.322530213763]
      },
      {
        "species": [{ "element": "N", "occu": 1 }],
        "abc": [0.333333, 0.666667, 0.366733],
        "properties": { "magmom": -0.009000000000000001 },
        "label": "N",
        "xyz": [1.8176260000000002, 1.049409098814, 2.2520747137629997]
      }
    ]
  },
  "task_ids": null,
  "uncorrected_energy_per_atom": null,
  "energy_per_atom": -27.832826571874996,
  "formation_energy_per_atom": 1.415452025,
  "energy_above_hull": 1.415452025,
  "is_stable": false,
  "equilibrium_reaction_energy_per_atom": null,
  "decomposes_to": null,
  "xas": null,
  "grain_boundaries": null,
  "band_gap": 0.0,
  "cbm": null,
  "vbm": null,
  "efermi": 1.569472419999999,
  "is_gap_direct": null,
  "is_metal": null,
  "es_source_calc_id": null,
  "bandstructure": null,
  "dos": null,
  "dos_energy_up": null,
  "dos_energy_down": null,
  "is_magnetic": null,
  "ordering": null,
  "total_magnetization": 0.030772499999999002,
  "total_magnetization_normalized_vol": null,
  "total_magnetization_normalized_formula_units": null,
  "num_magnetic_sites": null,
  "num_unique_magnetic_sites": null,
  "types_of_magnetic_species": null,
  "bulk_modulus": null,
  "shear_modulus": null,
  "universal_anisotropy": null,
  "homogeneous_poisson": null,
  "e_total": null,
  "e_ionic": null,
  "e_electronic": null,
  "n": null,
  "e_ij_max": null,
  "weighted_surface_energy_EV_PER_ANG2": null,
  "weighted_surface_energy": null,
  "weighted_work_function": null,
  "surface_anisotropy": null,
  "shape_factor": null,
  "has_reconstructed": null,
  "possible_species": null,
  "has_props": null,
  "theoretical": null,
  "database_IDs": null,
  "fields_not_requested": [
    "builder_meta",
    "nsites",
    "elements",
    "nelements",
    "composition",
    "composition_reduced",
    "chemsys",
    "symmetry",
    "property_name",
    "deprecated",
    "deprecation_reasons",
    "last_updated",
    "origins",
    "warnings",
    "task_ids",
    "uncorrected_energy_per_atom",
    "equilibrium_reaction_energy_per_atom",
    "decomposes_to",
    "xas",
    "grain_boundaries",
    "cbm",
    "vbm",
    "is_gap_direct",
    "is_metal",
    "es_source_calc_id",
    "bandstructure",
    "dos",
    "dos_energy_up",
    "dos_energy_down",
    "is_magnetic",
    "ordering",
    "total_magnetization_normalized_vol",
    "total_magnetization_normalized_formula_units",
    "num_magnetic_sites",
    "num_unique_magnetic_sites",
    "types_of_magnetic_species",
    "bulk_modulus",
    "shear_modulus",
    "universal_anisotropy",
    "homogeneous_poisson",
    "e_total",
    "e_ionic",
    "e_electronic",
    "n",
    "e_ij_max",
    "weighted_surface_energy_EV_PER_ANG2",
    "weighted_surface_energy",
    "weighted_work_function",
    "surface_anisotropy",
    "shape_factor",
    "has_reconstructed",
    "possible_species",
    "has_props",
    "theoretical",
    "database_IDs"
  ]
}
