{"builder_meta": null, "nsites": null, "elements": null, "nelements": null, "composition": null, "composition_reduced": null, "formula_pretty": "HgN2", "formula_anonymous": "AB2", "chemsys": null, "volume": 263.14779351028346, "density": 2.885107804962476, "density_atomic": 43.857965585047246, "symmetry": null, "property_name": null, "material_id": "mp-1207010", "deprecated": null, "deprecation_reasons": null, "last_updated": null, "origins": null, "warnings": null, "structure": {"@module": "pymatgen.core.structure", "@class": "Structure", "charge": 0.0, "lattice": {"matrix": [[-0.00013656, 5.08620641, 5.0861679], [5.08613679, -6.693e-05, 5.08609827], [5.08606986, 5.08606986, -0.0]], "pbc": [true, true, true], "a": 7.1929548567166846, "b": 7.192856391112513, "c": 7.192788975189029, "alpha": 60.00031004335313, "beta": 60.00076293590018, "gamma": 60.00157396874204, "volume": 263.14779351028346}, "properties": {}, "sites": [{"species": [{"element": "Hg", "occu": 1}], "abc": [0.99995314, 1.2240000000000001e-05, 1.731e-05], "properties": {"magmom": 0.111}, "label": "Hg", "xyz": [1.3740582787799994e-05, 5.086056109417681, 5.0859918160150315]}, {"species": [{"element": "Hg", "occu": 1}], "abc": [0.25004686, 0.24998776, 0.24998269], "properties": {"magmom": 0.111}, "label": "Hg", "xyz": [2.5428672219172124, 2.543202635582319, 2.543242626484969]}, {"species": [{"element": "N", "occu": 1}], "abc": [0.125, 0.125, 0.125], "properties": {"magmom": 1.341}, "label": "N", "xyz": [1.2715087612500002, 1.2715261675, 1.27153327125]}, {"species": [{"element": "N", "occu": 1}], "abc": [0.125, 0.125, 0.625], "properties": {"magmom": 1.341}, "label": "N", "xyz": [3.8145436912500004, 3.8145610975000004, 1.27153327125]}, {"species": [{"element": "N", "occu": 1}], "abc": [0.125, 0.625, 0.125], "properties": {"magmom": 1.341}, "label": "N", "xyz": [3.8145771562500004, 1.2714927025, 3.81458240625]}, {"species": [{"element": "N", "occu": 1}], "abc": [0.625, 0.125, 0.125], "properties": {"magmom": 1.341}, "label": "N", "xyz": [1.27144048125, 3.8146293725, 3.8146172212500002]}]}, "task_ids": null, "uncorrected_energy_per_atom": null, "energy_per_atom": -19.820554513333335, "formation_energy_per_atom": 2.7212147749999973, "energy_above_hull": 2.721214775, "is_stable": false, "equilibrium_reaction_energy_per_atom": null, "decomposes_to": null, "xas": null, "grain_boundaries": null, "band_gap": 0.916899999999999, "cbm": null, "vbm": null, "efermi": -3.37233899, "is_gap_direct": null, "is_metal": null, "es_source_calc_id": null, "bandstructure": null, "dos": null, "dos_energy_up": null, "dos_energy_down": null, "is_magnetic": null, "ordering": null, "total_magnetization": 7.9999998, "total_magnetization_normalized_vol": null, "total_magnetization_normalized_formula_units": null, "num_magnetic_sites": null, "num_unique_magnetic_sites": null, "types_of_magnetic_species": null, "bulk_modulus": null, "shear_modulus": null, "universal_anisotropy": null, "homogeneous_poisson": null, "e_total": null, "e_ionic": null, "e_electronic": null, "n": null, "e_ij_max": null, "weighted_surface_energy_EV_PER_ANG2": null, "weighted_surface_energy": null, "weighted_work_function": null, "surface_anisotropy": null, "shape_factor": null, "has_reconstructed": null, "possible_species": null, "has_props": null, "theoretical": null, "database_IDs": null, "fields_not_requested": ["builder_meta", "nsites", "elements", "nelements", "composition", "composition_reduced", "chemsys", "symmetry", "property_name", "deprecated", "deprecation_reasons", "last_updated", "origins", "warnings", "task_ids", "uncorrected_energy_per_atom", "equilibrium_reaction_energy_per_atom", "decomposes_to", "xas", "grain_boundaries", "cbm", "vbm", "is_gap_direct", "is_metal", "es_source_calc_id", "bandstructure", "dos", "dos_energy_up", "dos_energy_down", "is_magnetic", "ordering", "total_magnetization_normalized_vol", "total_magnetization_normalized_formula_units", "num_magnetic_sites", "num_unique_magnetic_sites", "types_of_magnetic_species", "bulk_modulus", "shear_modulus", "universal_anisotropy", "homogeneous_poisson", "e_total", "e_ionic", "e_electronic", "n", "e_ij_max", "weighted_surface_energy_EV_PER_ANG2", "weighted_surface_energy", "weighted_work_function", "surface_anisotropy", "shape_factor", "has_reconstructed", "possible_species", "has_props", "theoretical", "database_IDs"]}