{"builder_meta": null, "nsites": null, "elements": null, "nelements": null, "composition": null, "composition_reduced": null, "formula_pretty": "HgN3", "formula_anonymous": "AB3", "chemsys": null, "volume": 278.9217417457608, "density": 5.777442037759045, "density_atomic": 17.43260885911005, "symmetry": null, "property_name": null, "material_id": "mp-636839", "deprecated": null, "deprecation_reasons": null, "last_updated": null, "origins": null, "warnings": null, "structure": {"@module": "pymatgen.core.structure", "@class": "Structure", "charge": 0, "lattice": {"matrix": [[12.831633, 0.0, 0.0], [0.0, 3.641528, 0.0], [0.0, 2.259647, 5.969209]], "pbc": [true, true, true], "a": 12.831633, "b": 3.641528, "c": 6.3825904341646424, "alpha": 69.26581530966214, "beta": 90.0, "gamma": 90.0, "volume": 278.9217417457608}, "properties": {}, "sites": [{"species": [{"element": "Hg", "occu": 1}], "abc": [0.464545, 0.909632, 0.205088], "properties": {"magmom": -0.0}, "label": "Hg", "xyz": [5.960870951985, 3.775876881632, 1.224213135392]}, {"species": [{"element": "Hg", "occu": 1}], "abc": [0.035455, 0.909632, 0.705087999999999], "properties": {"magmom": -0.0}, "label": "Hg", "xyz": [0.45494554801500003, 4.905700381631998, 4.208817635391995]}, {"species": [{"element": "Hg", "occu": 1}], "abc": [0.535455, 0.090367999999999, 0.794912], "properties": {"magmom": -0.0}, "label": "Hg", "xyz": [6.870762048015, 2.1252981183679966, 4.744995864608]}, {"species": [{"element": "Hg", "occu": 1}], "abc": [0.964545, 0.090367999999999, 0.294912], "properties": {"magmom": -0.0}, "label": "Hg", "xyz": [12.376687451985, 0.9954746183679964, 1.760391364608]}, {"species": [{"element": "N", "occu": 1}], "abc": [0.401848999999999, 0.754471999999999, 0.55084], "properties": {"magmom": -0.0}, "label": "N", "xyz": [5.156378889416987, 3.992134866695997, 3.28807908556]}, {"species": [{"element": "N", "occu": 1}], "abc": [0.6862400000000001, 0.373496, 0.411529], "properties": {"magmom": -0.0}, "label": "N", "xyz": [8.805579829920001, 2.290006412151, 2.456502610561]}, {"species": [{"element": "N", "occu": 1}], "abc": [0.901849, 0.245528, 0.9491600000000001], "properties": {"magmom": -0.0}, "label": "N", "xyz": [11.572195389417, 3.0388636333040004, 5.665734414440001]}, {"species": [{"element": "N", "occu": 1}], "abc": [0.7307600000000001, 0.502981, 0.865265], "properties": {"magmom": 0.0}, "label": "N", "xyz": [9.37684413108, 3.7868128564230004, 5.1649476253849995]}, {"species": [{"element": "N", "occu": 1}], "abc": [0.23076000000000002, 0.497019, 0.634734999999999], "properties": {"magmom": 0.0}, "label": "N", "xyz": [2.9610276310800003, 3.244185643576998, 3.7888658746149946]}, {"species": [{"element": "N", "occu": 1}], "abc": [0.76924, 0.502981, 0.365265], "properties": {"magmom": 0.0}, "label": "N", "xyz": [9.87060536892, 2.6569893564230003, 2.1803431253850003]}, {"species": [{"element": "N", "occu": 1}], "abc": [0.18624000000000002, 0.626504, 0.088471], "properties": {"magmom": -0.0}, "label": "N", "xyz": [2.38976332992, 2.4813450878489998, 0.5281018894389999]}, {"species": [{"element": "N", "occu": 1}], "abc": [0.81376, 0.373496, 0.911528999999999], "properties": {"magmom": -0.0}, "label": "N", "xyz": [10.44186967008, 3.419829912150998, 5.441107110560995]}, {"species": [{"element": "N", "occu": 1}], "abc": [0.598151, 0.245528, 0.44916000000000006], "properties": {"magmom": -0.0}, "label": "N", "xyz": [7.675254110583, 1.9090401333040004, 2.6811299144400005]}, {"species": [{"element": "N", "occu": 1}], "abc": [0.26924000000000003, 0.497019, 0.134735], "properties": {"magmom": 0.0}, "label": "N", "xyz": [3.4547888689200006, 2.114362143577, 0.804261374615]}, {"species": [{"element": "N", "occu": 1}], "abc": [0.31376000000000004, 0.626504, 0.588471], "properties": {"magmom": -0.0}, "label": "N", "xyz": [4.026053170080001, 3.611168587849, 3.512706389439]}, {"species": [{"element": "N", "occu": 1}], "abc": [0.098151, 0.754471999999999, 0.05084], "properties": {"magmom": -0.0}, "label": "N", "xyz": [1.259437610583, 2.8623113666959967, 0.30347458556]}]}, "task_ids": null, "uncorrected_energy_per_atom": null, "energy_per_atom": -18.6233148665625, "formation_energy_per_atom": 0.565199767500001, "energy_above_hull": 0.565199767500001, "is_stable": false, "equilibrium_reaction_energy_per_atom": null, "decomposes_to": null, "xas": null, "grain_boundaries": null, "band_gap": 2.1595, "cbm": null, "vbm": null, "efermi": -0.08334345, "is_gap_direct": null, "is_metal": null, "es_source_calc_id": null, "bandstructure": null, "dos": null, "dos_energy_up": null, "dos_energy_down": null, "is_magnetic": null, "ordering": null, "total_magnetization": 1.5600000000000003e-05, "total_magnetization_normalized_vol": null, "total_magnetization_normalized_formula_units": null, "num_magnetic_sites": null, "num_unique_magnetic_sites": null, "types_of_magnetic_species": null, "bulk_modulus": null, "shear_modulus": null, "universal_anisotropy": null, "homogeneous_poisson": null, "e_total": null, "e_ionic": null, "e_electronic": null, "n": null, "e_ij_max": null, "weighted_surface_energy_EV_PER_ANG2": null, "weighted_surface_energy": null, "weighted_work_function": null, "surface_anisotropy": null, "shape_factor": null, "has_reconstructed": null, "possible_species": null, "has_props": null, "theoretical": null, "database_IDs": null, "fields_not_requested": ["builder_meta", "nsites", "elements", "nelements", "composition", "composition_reduced", "chemsys", "symmetry", "property_name", "deprecated", "deprecation_reasons", "last_updated", "origins", "warnings", "task_ids", "uncorrected_energy_per_atom", "equilibrium_reaction_energy_per_atom", "decomposes_to", "xas", "grain_boundaries", "cbm", "vbm", "is_gap_direct", "is_metal", "es_source_calc_id", "bandstructure", "dos", "dos_energy_up", "dos_energy_down", "is_magnetic", "ordering", "total_magnetization_normalized_vol", "total_magnetization_normalized_formula_units", "num_magnetic_sites", "num_unique_magnetic_sites", "types_of_magnetic_species", "bulk_modulus", "shear_modulus", "universal_anisotropy", "homogeneous_poisson", "e_total", "e_ionic", "e_electronic", "n", "e_ij_max", "weighted_surface_energy_EV_PER_ANG2", "weighted_surface_energy", "weighted_work_function", "surface_anisotropy", "shape_factor", "has_reconstructed", "possible_species", "has_props", "theoretical", "database_IDs"]}