{
  "builder_meta": null,
  "nsites": null,
  "elements": null,
  "nelements": null,
  "composition": null,
  "composition_reduced": null,
  "formula_pretty": "HgN6",
  "formula_anonymous": "AB6",
  "chemsys": null,
  "volume": 491.30464216445006,
  "density": 3.848036644245415,
  "density_atomic": 17.546594363016073,
  "symmetry": null,
  "property_name": null,
  "material_id": "mp-1193871",
  "deprecated": null,
  "deprecation_reasons": null,
  "last_updated": null,
  "origins": null,
  "warnings": null,
  "structure": {
    "@module": "pymatgen.core.structure",
    "@class": "Structure",
    "charge": 0,
    "lattice": {
      "matrix": [
        [0.0, 0.0, 6.472435],
        [8.073544, 0.0, 0.0],
        [-4.036773, 9.401972, -3.236218]
      ],
      "pbc": [true, true, true],
      "a": 6.472435,
      "b": 8.073544,
      "c": 10.731529279922643,
      "alpha": 112.09603152694017,
      "beta": 107.55142541908147,
      "gamma": 90.0,
      "volume": 491.30464216445006
    },
    "properties": {},
    "sites": [
      {
        "species": [{ "element": "Hg", "occu": 1 }],
        "abc": [0.408063, 0.06572599999999901, 0.808982],
        "properties": { "magmom": -0.0 },
        "label": "Hg",
        "xyz": [-2.7350349421420077, 7.606026112504001, 0.023119133329000174]
      },
      {
        "species": [{ "element": "Hg", "occu": 1 }],
        "abc": [0.599081, 0.934273999999999, 0.191018],
        "properties": { "magmom": -0.0 },
        "label": "Hg",
        "xyz": [6.7718059421419925, 1.7959458874960001, 3.259336942311]
      },
      {
        "species": [{ "element": "Hg", "occu": 1 }],
        "abc": [0.908063, 0.743255999999999, 0.808982],
        "properties": { "magmom": -0.0 },
        "label": "Hg",
        "xyz": [2.735033324177992, 7.606026112504001, 3.259336633329]
      },
      {
        "species": [{ "element": "Hg", "occu": 1 }],
        "abc": [0.099081, 0.25674399999999903, 0.191018],
        "properties": { "magmom": -0.0 },
        "label": "Hg",
        "xyz": [1.301737675821992, 1.7959458874960001, 0.02311944231100005]
      },
      {
        "species": [{ "element": "N", "occu": 1 }],
        "abc": [0.739282, 0.171562, 0.915435999999999],
        "properties": { "magmom": -0.0 },
        "label": "N",
        "xyz": [-2.3102939722999962, 8.606903639791991, 1.8224042306220034]
      },
      {
        "species": [{ "element": "N", "occu": 1 }],
        "abc": [0.823847, 0.828438, 0.084564],
        "properties": { "magmom": -0.0 },
        "label": "N",
        "xyz": [6.3470649723, 0.7950683602080001, 5.058628618493]
      },
      {
        "species": [{ "element": "N", "occu": 1 }],
        "abc": [0.239282, 0.743873, 0.915435999999999],
        "properties": { "magmom": -0.0 },
        "label": "N",
        "xyz": [2.3102840678840035, 8.606903639791991, -1.413813269377997]
      },
      {
        "species": [{ "element": "N", "occu": 1 }],
        "abc": [0.323847, 0.256127, 0.084564],
        "properties": { "magmom": -0.0 },
        "label": "N",
        "xyz": [1.726486932116, 0.7950683602080001, 1.822411118493]
      },
      {
        "species": [{ "element": "N", "occu": 1 }],
        "abc": [0.804434, 0.268292, 0.866525999999999],
        "properties": { "magmom": -0.0 },
        "label": "N",
        "xyz": [-1.3319014937499967, 8.147053189271992, 2.402379738122003]
      },
      {
        "species": [{ "element": "N", "occu": 1 }],
        "abc": [0.937908, 0.731707999999999, 0.133473999999999],
        "properties": { "magmom": -0.0 },
        "label": "N",
        "xyz": [5.3686724937499966, 1.2549188107279907, 5.638597604648003]
      },
      {
        "species": [{ "element": "N", "occu": 1 }],
        "abc": [0.304434, 0.598233999999999, 0.866525999999999],
        "properties": { "magmom": -0.0 },
        "label": "N",
        "xyz": [1.331899760697996, 8.147053189271992, -0.8338377618779969]
      },
      {
        "species": [{ "element": "N", "occu": 1 }],
        "abc": [0.437907999999999, 0.401765999999999, 0.133473999999999],
        "properties": { "magmom": -0.0 },
        "label": "N",
        "xyz": [2.704871239301996, 1.2549188107279907, 2.402380104647997]
      },
      {
        "species": [{ "element": "N", "occu": 1 }],
        "abc": [0.88085, 0.360126, 0.827283],
        "properties": { "magmom": -0.0 },
        "label": "N",
        "xyz": [-0.4320605712150001, 7.7780916020760005, 3.0239762340560006]
      },
      {
        "species": [{ "element": "N", "occu": 1 }],
        "abc": [0.053567, 0.639873999999999, 0.172716999999999],
        "properties": { "magmom": -0.0 },
        "label": "N",
        "xyz": [4.468831571214996, 1.6238803979239909, -0.2122409386609968]
      },
      {
        "species": [{ "element": "N", "occu": 1 }],
        "abc": [0.38085, 0.467157, 0.827283],
        "properties": { "magmom": -0.0 },
        "label": "N",
        "xyz": [0.43205891664899987, 7.7780916020760005, -0.21224126594399984]
      },
      {
        "species": [{ "element": "N", "occu": 1 }],
        "abc": [0.553566999999999, 0.532843, 0.172716999999999],
        "properties": { "magmom": -0.0 },
        "label": "N",
        "xyz": [3.6047120833510036, 1.6238803979239909, 3.023976561338997]
      },
      {
        "species": [{ "element": "N", "occu": 1 }],
        "abc": [0.077974, 0.963953, 0.703719],
        "properties": { "magmom": -0.0 },
        "label": "N",
        "xyz": [4.941763100645, 6.616346333868, -1.7727064480519998]
      },
      {
        "species": [{ "element": "N", "occu": 1 }],
        "abc": [0.374255, 0.036046999999999, 0.296280999999999],
        "properties": { "magmom": -0.0 },
        "label": "N",
        "xyz": [-0.9049921006450041, 2.785625666131991, 1.4635112556670031]
      },
      {
        "species": [{ "element": "N", "occu": 1 }],
        "abc": [0.577974, 0.739765999999999, 0.703719],
        "properties": { "magmom": -0.0 },
        "label": "N",
        "xyz": [3.1317794919169923, 6.616346333868, 1.4635110519480001]
      },
      {
        "species": [{ "element": "N", "occu": 1 }],
        "abc": [0.874255, 0.260233999999999, 0.296280999999999],
        "properties": { "magmom": -0.0 },
        "label": "N",
        "xyz": [0.904991508082996, 2.785625666131991, 4.699728755667003]
      },
      {
        "species": [{ "element": "N", "occu": 1 }],
        "abc": [0.994412, 0.956677999999999, 0.583341],
        "properties": { "magmom": -0.0 },
        "label": "N",
        "xyz": [5.368966728238992, 5.484555748452, 4.548448388882]
      },
      {
        "species": [{ "element": "N", "occu": 1 }],
        "abc": [0.411070999999999, 0.043322, 0.416659],
        "properties": { "magmom": -0.0 },
        "label": "N",
        "xyz": [-1.332195728239, 3.9174162515480004, 1.3122309722229937]
      },
      {
        "species": [{ "element": "N", "occu": 1 }],
        "abc": [0.494411999999999, 0.626663, 0.583341],
        "properties": { "magmom": -0.0 },
        "label": "N",
        "xyz": [2.704576105079, 5.484555748452, 1.3122308888819934]
      },
      {
        "species": [{ "element": "N", "occu": 1 }],
        "abc": [0.911071, 0.373337, 0.416659],
        "properties": { "magmom": -0.0 },
        "label": "N",
        "xyz": [1.3321948949209999, 3.9174162515480004, 4.548448472223]
      },
      {
        "species": [{ "element": "N", "occu": 1 }],
        "abc": [0.899948, 0.943468, 0.469037999999999],
        "properties": { "magmom": -0.0 },
        "label": "N",
        "xyz": [5.7237304762180035, 4.409882142935991, 4.3069457150960035]
      },
      {
        "species": [{ "element": "N", "occu": 1 }],
        "abc": [0.43091, 0.056532, 0.530961999999999],
        "properties": { "magmom": -0.0 },
        "label": "N",
        "xyz": [-1.6869594762179962, 4.992089857063991, 1.0707281841340033]
      },
      {
        "species": [{ "element": "N", "occu": 1 }],
        "abc": [0.399947999999999, 0.5255700000000001, 0.469037999999999],
        "properties": { "magmom": -0.0 },
        "label": "N",
        "xyz": [2.349812585706005, 4.409882142935991, 1.0707282150959967]
      },
      {
        "species": [{ "element": "N", "occu": 1 }],
        "abc": [0.9309100000000001, 0.47443, 0.530961999999999],
        "properties": { "magmom": -0.0 },
        "label": "N",
        "xyz": [1.6869584142940042, 4.992089857063991, 4.3069456841340035]
      }
    ]
  },
  "task_ids": null,
  "uncorrected_energy_per_atom": null,
  "energy_per_atom": -14.2032124675,
  "formation_energy_per_atom": 0.6739747539285691,
  "energy_above_hull": 0.6739747539285721,
  "is_stable": false,
  "equilibrium_reaction_energy_per_atom": null,
  "decomposes_to": null,
  "xas": null,
  "grain_boundaries": null,
  "band_gap": 2.7481,
  "cbm": null,
  "vbm": null,
  "efermi": -1.1137288,
  "is_gap_direct": null,
  "is_metal": null,
  "es_source_calc_id": null,
  "bandstructure": null,
  "dos": null,
  "dos_energy_up": null,
  "dos_energy_down": null,
  "is_magnetic": null,
  "ordering": null,
  "total_magnetization": 0.0054253,
  "total_magnetization_normalized_vol": null,
  "total_magnetization_normalized_formula_units": null,
  "num_magnetic_sites": null,
  "num_unique_magnetic_sites": null,
  "types_of_magnetic_species": null,
  "bulk_modulus": null,
  "shear_modulus": null,
  "universal_anisotropy": null,
  "homogeneous_poisson": null,
  "e_total": null,
  "e_ionic": null,
  "e_electronic": null,
  "n": null,
  "e_ij_max": null,
  "weighted_surface_energy_EV_PER_ANG2": null,
  "weighted_surface_energy": null,
  "weighted_work_function": null,
  "surface_anisotropy": null,
  "shape_factor": null,
  "has_reconstructed": null,
  "possible_species": null,
  "has_props": null,
  "theoretical": null,
  "database_IDs": null,
  "fields_not_requested": [
    "builder_meta",
    "nsites",
    "elements",
    "nelements",
    "composition",
    "composition_reduced",
    "chemsys",
    "symmetry",
    "property_name",
    "deprecated",
    "deprecation_reasons",
    "last_updated",
    "origins",
    "warnings",
    "task_ids",
    "uncorrected_energy_per_atom",
    "equilibrium_reaction_energy_per_atom",
    "decomposes_to",
    "xas",
    "grain_boundaries",
    "cbm",
    "vbm",
    "is_gap_direct",
    "is_metal",
    "es_source_calc_id",
    "bandstructure",
    "dos",
    "dos_energy_up",
    "dos_energy_down",
    "is_magnetic",
    "ordering",
    "total_magnetization_normalized_vol",
    "total_magnetization_normalized_formula_units",
    "num_magnetic_sites",
    "num_unique_magnetic_sites",
    "types_of_magnetic_species",
    "bulk_modulus",
    "shear_modulus",
    "universal_anisotropy",
    "homogeneous_poisson",
    "e_total",
    "e_ionic",
    "e_electronic",
    "n",
    "e_ij_max",
    "weighted_surface_energy_EV_PER_ANG2",
    "weighted_surface_energy",
    "weighted_work_function",
    "surface_anisotropy",
    "shape_factor",
    "has_reconstructed",
    "possible_species",
    "has_props",
    "theoretical",
    "database_IDs"
  ]
}
