{
  "builder_meta": null,
  "nsites": null,
  "elements": null,
  "nelements": null,
  "composition": null,
  "composition_reduced": null,
  "formula_pretty": "HgO",
  "formula_anonymous": "AB",
  "chemsys": null,
  "volume": 133.5742810249583,
  "density": 10.77019190675644,
  "density_atomic": 16.69678512811979,
  "symmetry": null,
  "property_name": null,
  "material_id": "mp-1224",
  "deprecated": null,
  "deprecation_reasons": null,
  "last_updated": null,
  "origins": null,
  "warnings": null,
  "structure": {
    "@module": "pymatgen.core.structure",
    "@class": "Structure",
    "charge": 0,
    "lattice": {
      "matrix": [
        [3.58509138, 0.0, 0.0],
        [0.0, 5.56420636, 0.0],
        [0.0, 0.0, 6.69606078]
      ],
      "pbc": [true, true, true],
      "a": 3.58509138,
      "b": 5.56420636,
      "c": 6.69606078,
      "alpha": 90.0,
      "beta": 90.0,
      "gamma": 90.0,
      "volume": 133.5742810249583
    },
    "properties": {},
    "sites": [
      {
        "species": [{ "element": "Hg", "occu": 1 }],
        "abc": [0.74615555, 0.75, 0.38497903],
        "properties": { "magmom": -0.0 },
        "label": "Hg",
        "xyz": [2.675035830444159, 4.17315477, 2.5778429839054433]
      },
      {
        "species": [{ "element": "Hg", "occu": 1 }],
        "abc": [0.24615555, 0.25, 0.11501997],
        "properties": { "magmom": -0.0 },
        "label": "Hg",
        "xyz": [0.8824901404441591, 1.39105159, 0.7701807100337765]
      },
      {
        "species": [{ "element": "Hg", "occu": 1 }],
        "abc": [0.25384445, 0.25, 0.61502097],
        "properties": { "magmom": -0.0 },
        "label": "Hg",
        "xyz": [0.910055549555841, 1.39105159, 4.118217796094556]
      },
      {
        "species": [{ "element": "Hg", "occu": 1 }],
        "abc": [0.75384445, 0.75, 0.88497903],
        "properties": { "magmom": -0.0 },
        "label": "Hg",
        "xyz": [2.702601239555841, 4.17315477, 5.925873373905444]
      },
      {
        "species": [{ "element": "O", "occu": 1 }],
        "abc": [0.08245941, 0.75, 0.13685368],
        "properties": { "magmom": 0.0 },
        "label": "O",
        "xyz": [0.2956245199908858, 4.17315477, 0.9163805592466704]
      },
      {
        "species": [{ "element": "O", "occu": 1 }],
        "abc": [0.58245941, 0.25, 0.36314632],
        "properties": { "magmom": 0.0 },
        "label": "O",
        "xyz": [2.088170209990886, 1.39105159, 2.43164983075333]
      },
      {
        "species": [{ "element": "O", "occu": 1 }],
        "abc": [0.91754059, 0.25, 0.86314632],
        "properties": { "magmom": 0.0 },
        "label": "O",
        "xyz": [3.289466860009114, 1.39105159, 5.779680220753329]
      },
      {
        "species": [{ "element": "O", "occu": 1 }],
        "abc": [0.41754059, 0.75, 0.63685368],
        "properties": { "magmom": 0.0 },
        "label": "O",
        "xyz": [1.4969211700091143, 4.17315477, 4.26441094924667]
      }
    ]
  },
  "task_ids": null,
  "uncorrected_energy_per_atom": null,
  "energy_per_atom": -3.26387400375,
  "formation_energy_per_atom": -0.635057482500004,
  "energy_above_hull": 0.0,
  "is_stable": true,
  "equilibrium_reaction_energy_per_atom": null,
  "decomposes_to": null,
  "xas": null,
  "grain_boundaries": null,
  "band_gap": 1.1867,
  "cbm": null,
  "vbm": null,
  "efermi": 0.46310693,
  "is_gap_direct": null,
  "is_metal": null,
  "es_source_calc_id": null,
  "bandstructure": null,
  "dos": null,
  "dos_energy_up": null,
  "dos_energy_down": null,
  "is_magnetic": null,
  "ordering": null,
  "total_magnetization": 0.0,
  "total_magnetization_normalized_vol": null,
  "total_magnetization_normalized_formula_units": null,
  "num_magnetic_sites": null,
  "num_unique_magnetic_sites": null,
  "types_of_magnetic_species": null,
  "bulk_modulus": null,
  "shear_modulus": null,
  "universal_anisotropy": null,
  "homogeneous_poisson": null,
  "e_total": null,
  "e_ionic": null,
  "e_electronic": null,
  "n": null,
  "e_ij_max": null,
  "weighted_surface_energy_EV_PER_ANG2": null,
  "weighted_surface_energy": null,
  "weighted_work_function": null,
  "surface_anisotropy": null,
  "shape_factor": null,
  "has_reconstructed": null,
  "possible_species": null,
  "has_props": null,
  "theoretical": null,
  "database_IDs": null,
  "fields_not_requested": [
    "builder_meta",
    "nsites",
    "elements",
    "nelements",
    "composition",
    "composition_reduced",
    "chemsys",
    "symmetry",
    "property_name",
    "deprecated",
    "deprecation_reasons",
    "last_updated",
    "origins",
    "warnings",
    "task_ids",
    "uncorrected_energy_per_atom",
    "equilibrium_reaction_energy_per_atom",
    "decomposes_to",
    "xas",
    "grain_boundaries",
    "cbm",
    "vbm",
    "is_gap_direct",
    "is_metal",
    "es_source_calc_id",
    "bandstructure",
    "dos",
    "dos_energy_up",
    "dos_energy_down",
    "is_magnetic",
    "ordering",
    "total_magnetization_normalized_vol",
    "total_magnetization_normalized_formula_units",
    "num_magnetic_sites",
    "num_unique_magnetic_sites",
    "types_of_magnetic_species",
    "bulk_modulus",
    "shear_modulus",
    "universal_anisotropy",
    "homogeneous_poisson",
    "e_total",
    "e_ionic",
    "e_electronic",
    "n",
    "e_ij_max",
    "weighted_surface_energy_EV_PER_ANG2",
    "weighted_surface_energy",
    "weighted_work_function",
    "surface_anisotropy",
    "shape_factor",
    "has_reconstructed",
    "possible_species",
    "has_props",
    "theoretical",
    "database_IDs"
  ]
}
