{
  "builder_meta": null,
  "nsites": null,
  "elements": null,
  "nelements": null,
  "composition": null,
  "composition_reduced": null,
  "formula_pretty": "HgO2",
  "formula_anonymous": "AB2",
  "chemsys": null,
  "volume": 191.93392417933595,
  "density": 8.04907815030639,
  "density_atomic": 15.99449368161133,
  "symmetry": null,
  "property_name": null,
  "material_id": "mp-557266",
  "deprecated": null,
  "deprecation_reasons": null,
  "last_updated": null,
  "origins": null,
  "warnings": null,
  "structure": {
    "@module": "pymatgen.core.structure",
    "@class": "Structure",
    "charge": 0,
    "lattice": {
      "matrix": [
        [4.909914, 0.0, 0.0],
        [0.0, 6.215873, 0.0],
        [0.0, 0.0, 6.288915]
      ],
      "pbc": [true, true, true],
      "a": 4.909914,
      "b": 6.215873,
      "c": 6.288915,
      "alpha": 90.0,
      "beta": 90.0,
      "gamma": 90.0,
      "volume": 191.93392417933595
    },
    "properties": {},
    "sites": [
      {
        "species": [{ "element": "Hg", "occu": 1 }],
        "abc": [0.5, 0.0, 0.5],
        "properties": { "magmom": 0.0 },
        "label": "Hg",
        "xyz": [2.454957, 0.0, 3.1444575]
      },
      {
        "species": [{ "element": "Hg", "occu": 1 }],
        "abc": [0.0, 0.0, 0.0],
        "properties": { "magmom": 0.0 },
        "label": "Hg",
        "xyz": [0.0, 0.0, 0.0]
      },
      {
        "species": [{ "element": "Hg", "occu": 1 }],
        "abc": [0.0, 0.5, 0.5],
        "properties": { "magmom": 0.0 },
        "label": "Hg",
        "xyz": [0.0, 3.1079365, 3.1444575]
      },
      {
        "species": [{ "element": "Hg", "occu": 1 }],
        "abc": [0.5, 0.5, 0.0],
        "properties": { "magmom": 0.0 },
        "label": "Hg",
        "xyz": [2.454957, 3.1079365, 0.0]
      },
      {
        "species": [{ "element": "O", "occu": 1 }],
        "abc": [0.415701, 0.567399, 0.571187],
        "properties": { "magmom": 0.0 },
        "label": "O",
        "xyz": [2.041056159714, 3.526880124327, 3.5921464921050004]
      },
      {
        "species": [{ "element": "O", "occu": 1 }],
        "abc": [0.084299, 0.067399, 0.428813],
        "properties": { "magmom": 0.0 },
        "label": "O",
        "xyz": [0.413900840286, 0.418943624327, 2.696768507895]
      },
      {
        "species": [{ "element": "O", "occu": 1 }],
        "abc": [0.084299, 0.567399, 0.071187],
        "properties": { "magmom": 0.0 },
        "label": "O",
        "xyz": [0.413900840286, 3.526880124327, 0.447688992105]
      },
      {
        "species": [{ "element": "O", "occu": 1 }],
        "abc": [0.415701, 0.067399, 0.928813],
        "properties": { "magmom": 0.0 },
        "label": "O",
        "xyz": [2.041056159714, 0.418943624327, 5.841226007895]
      },
      {
        "species": [{ "element": "O", "occu": 1 }],
        "abc": [0.584299, 0.432600999999999, 0.428813],
        "properties": { "magmom": 0.0 },
        "label": "O",
        "xyz": [2.8688578402859997, 2.688992875672994, 2.696768507895]
      },
      {
        "species": [{ "element": "O", "occu": 1 }],
        "abc": [0.584299, 0.932601, 0.071187],
        "properties": { "magmom": 0.0 },
        "label": "O",
        "xyz": [2.8688578402859997, 5.796929375673001, 0.447688992105]
      },
      {
        "species": [{ "element": "O", "occu": 1 }],
        "abc": [0.915701, 0.432600999999999, 0.928813],
        "properties": { "magmom": 0.0 },
        "label": "O",
        "xyz": [4.496013159714, 2.688992875672994, 5.841226007895]
      },
      {
        "species": [{ "element": "O", "occu": 1 }],
        "abc": [0.915701, 0.932601, 0.571187],
        "properties": { "magmom": 0.0 },
        "label": "O",
        "xyz": [4.496013159714, 5.796929375673001, 3.5921464921050004]
      }
    ]
  },
  "task_ids": null,
  "uncorrected_energy_per_atom": null,
  "energy_per_atom": -3.465947567499999,
  "formation_energy_per_atom": -0.064082885000001,
  "energy_above_hull": 0.35928877000000004,
  "is_stable": false,
  "equilibrium_reaction_energy_per_atom": null,
  "decomposes_to": null,
  "xas": null,
  "grain_boundaries": null,
  "band_gap": 0.3104,
  "cbm": null,
  "vbm": null,
  "efermi": 1.34788943,
  "is_gap_direct": null,
  "is_metal": null,
  "es_source_calc_id": null,
  "bandstructure": null,
  "dos": null,
  "dos_energy_up": null,
  "dos_energy_down": null,
  "is_magnetic": null,
  "ordering": null,
  "total_magnetization": 4.7e-6,
  "total_magnetization_normalized_vol": null,
  "total_magnetization_normalized_formula_units": null,
  "num_magnetic_sites": null,
  "num_unique_magnetic_sites": null,
  "types_of_magnetic_species": null,
  "bulk_modulus": null,
  "shear_modulus": null,
  "universal_anisotropy": null,
  "homogeneous_poisson": null,
  "e_total": null,
  "e_ionic": null,
  "e_electronic": null,
  "n": null,
  "e_ij_max": null,
  "weighted_surface_energy_EV_PER_ANG2": null,
  "weighted_surface_energy": null,
  "weighted_work_function": null,
  "surface_anisotropy": null,
  "shape_factor": null,
  "has_reconstructed": null,
  "possible_species": null,
  "has_props": null,
  "theoretical": null,
  "database_IDs": null,
  "fields_not_requested": [
    "builder_meta",
    "nsites",
    "elements",
    "nelements",
    "composition",
    "composition_reduced",
    "chemsys",
    "symmetry",
    "property_name",
    "deprecated",
    "deprecation_reasons",
    "last_updated",
    "origins",
    "warnings",
    "task_ids",
    "uncorrected_energy_per_atom",
    "equilibrium_reaction_energy_per_atom",
    "decomposes_to",
    "xas",
    "grain_boundaries",
    "cbm",
    "vbm",
    "is_gap_direct",
    "is_metal",
    "es_source_calc_id",
    "bandstructure",
    "dos",
    "dos_energy_up",
    "dos_energy_down",
    "is_magnetic",
    "ordering",
    "total_magnetization_normalized_vol",
    "total_magnetization_normalized_formula_units",
    "num_magnetic_sites",
    "num_unique_magnetic_sites",
    "types_of_magnetic_species",
    "bulk_modulus",
    "shear_modulus",
    "universal_anisotropy",
    "homogeneous_poisson",
    "e_total",
    "e_ionic",
    "e_electronic",
    "n",
    "e_ij_max",
    "weighted_surface_energy_EV_PER_ANG2",
    "weighted_surface_energy",
    "weighted_work_function",
    "surface_anisotropy",
    "shape_factor",
    "has_reconstructed",
    "possible_species",
    "has_props",
    "theoretical",
    "database_IDs"
  ]
}
