{"builder_meta": null, "nsites": null, "elements": null, "nelements": null, "composition": null, "composition_reduced": null, "formula_pretty": "HgPb4", "formula_anonymous": "AB4", "chemsys": null, "volume": 150.43645729147875, "density": 11.36255360265119, "density_atomic": 30.08729145829575, "symmetry": null, "property_name": null, "material_id": "mp-1224108", "deprecated": null, "deprecation_reasons": null, "last_updated": null, "origins": null, "warnings": null, "structure": {"@module": "pymatgen.core.structure", "@class": "Structure", "charge": 0, "lattice": {"matrix": [[-2.49869291, -2.49869291, 0.0], [-0.0, 2.49869291, -2.49869291], [7.19877673, -7.19877673, -9.69746861]], "pbc": [true, true, true], "a": 3.533685401527495, "b": 3.533685401527495, "c": 14.060073622094384, "alpha": 82.7809102629933, "beta": 90.0, "gamma": 120.00000000000001, "volume": 150.43645729147875}, "properties": {}, "sites": [{"species": [{"element": "Hg", "occu": 1}], "abc": [0.0, 0.0, -0.0], "properties": {"magmom": 0.0}, "label": "Hg", "xyz": [0.0, 0.0, 0.0]}, {"species": [{"element": "Pb", "occu": 1}], "abc": [0.60311767, 0.20623335, 0.19064898], "properties": {"magmom": 0.0}, "label": "Pb", "xyz": [-0.1345664051024844, -2.3641314772964064, -2.364126308529066]}, {"species": [{"element": "Pb", "occu": 1}], "abc": [0.20083963, 0.40167726000000004, 0.3974831], "properties": {"magmom": 0.0}, "label": "Pb", "xyz": [2.359555531320239, -2.3595605287060595, -4.858248006925717]}, {"species": [{"element": "Pb", "occu": 1}], "abc": [0.7991603700000001, 0.59832274, 0.6025169], "properties": {"magmom": 0.0}, "label": "Pb", "xyz": [2.34052828867976, -4.83921620129394, -7.337913513074282]}, {"species": [{"element": "Pb", "occu": 1}], "abc": [0.39688233, 0.79376665, 0.80935102], "properties": {"magmom": 0.0}, "label": "Pb", "xyz": [4.834650225102485, -4.834645252703594, -9.832035211470933]}]}, "task_ids": null, "uncorrected_energy_per_atom": null, "energy_per_atom": -54.878651592000004, "formation_energy_per_atom": 0.023017000499999003, "energy_above_hull": 0.023017000499997, "is_stable": false, "equilibrium_reaction_energy_per_atom": null, "decomposes_to": null, "xas": null, "grain_boundaries": null, "band_gap": 0.0, "cbm": null, "vbm": null, "efermi": 6.09390242, "is_gap_direct": null, "is_metal": null, "es_source_calc_id": null, "bandstructure": null, "dos": null, "dos_energy_up": null, "dos_energy_down": null, "is_magnetic": null, "ordering": null, "total_magnetization": 4e-07, "total_magnetization_normalized_vol": null, "total_magnetization_normalized_formula_units": null, "num_magnetic_sites": null, "num_unique_magnetic_sites": null, "types_of_magnetic_species": null, "bulk_modulus": null, "shear_modulus": null, "universal_anisotropy": null, "homogeneous_poisson": null, "e_total": null, "e_ionic": null, "e_electronic": null, "n": null, "e_ij_max": null, "weighted_surface_energy_EV_PER_ANG2": null, "weighted_surface_energy": null, "weighted_work_function": null, "surface_anisotropy": null, "shape_factor": null, "has_reconstructed": null, "possible_species": null, "has_props": null, "theoretical": null, "database_IDs": null, "fields_not_requested": ["builder_meta", "nsites", "elements", "nelements", "composition", "composition_reduced", "chemsys", "symmetry", "property_name", "deprecated", "deprecation_reasons", "last_updated", "origins", "warnings", "task_ids", "uncorrected_energy_per_atom", "equilibrium_reaction_energy_per_atom", "decomposes_to", "xas", "grain_boundaries", "cbm", "vbm", "is_gap_direct", "is_metal", "es_source_calc_id", "bandstructure", "dos", "dos_energy_up", "dos_energy_down", "is_magnetic", "ordering", "total_magnetization_normalized_vol", "total_magnetization_normalized_formula_units", "num_magnetic_sites", "num_unique_magnetic_sites", "types_of_magnetic_species", "bulk_modulus", "shear_modulus", "universal_anisotropy", "homogeneous_poisson", "e_total", "e_ionic", "e_electronic", "n", "e_ij_max", "weighted_surface_energy_EV_PER_ANG2", "weighted_surface_energy", "weighted_work_function", "surface_anisotropy", "shape_factor", "has_reconstructed", "possible_species", "has_props", "theoretical", "database_IDs"]}