{"builder_meta": null, "nsites": null, "elements": null, "nelements": null, "composition": null, "composition_reduced": null, "formula_pretty": "HgS4", "formula_anonymous": "AB4", "chemsys": null, "volume": 2224.979510828908, "density": 0.9817048101229011, "density_atomic": 111.2489755414454, "symmetry": null, "property_name": null, "material_id": "mp-1106367", "deprecated": null, "deprecation_reasons": null, "last_updated": null, "origins": null, "warnings": null, "structure": {"@module": "pymatgen.core.structure", "@class": "Structure", "charge": 0, "lattice": {"matrix": [[13.12593351, -0.0, 0.0], [-0.0, 12.04261065, 0.0], [0.0, 0.0, 14.07586752]], "pbc": [true, true, true], "a": 13.12593351, "b": 12.04261065, "c": 14.07586752, "alpha": 90.0, "beta": 90.0, "gamma": 90.0, "volume": 2224.979510828908}, "properties": {}, "sites": [{"species": [{"element": "Hg", "occu": 1}], "abc": [0.8901477, 0.6054682, 0.25], "properties": {"magmom": -0.0}, "label": "Hg", "xyz": [11.684019524279426, 7.29141779355633, 3.51896688]}, {"species": [{"element": "Hg", "occu": 1}], "abc": [0.1098523, 0.3945318, 0.75], "properties": {"magmom": -0.0}, "label": "Hg", "xyz": [1.441913985720573, 4.75119285644367, 10.556900639999999]}, {"species": [{"element": "Hg", "occu": 1}], "abc": [0.8901477, 0.8945318, 0.75], "properties": {"magmom": -0.0}, "label": "Hg", "xyz": [11.684019524279426, 10.77249818144367, 10.556900639999999]}, {"species": [{"element": "Hg", "occu": 1}], "abc": [0.1098523, 0.1054682, 0.25], "properties": {"magmom": -0.0}, "label": "Hg", "xyz": [1.441913985720573, 1.27011246855633, 3.51896688]}, {"species": [{"element": "S", "occu": 1}], "abc": [0.4829209, 0.88405674, 0.64895607], "properties": {"magmom": 0.311}, "label": "S", "xyz": [6.338787623989359, 10.646351112328281, 9.134619667619846]}, {"species": [{"element": "S", "occu": 1}], "abc": [0.5170791, 0.11594326, 0.14895607], "properties": {"magmom": 0.311}, "label": "S", "xyz": [6.787145886010641, 1.396259537671719, 2.0966859076198463]}, {"species": [{"element": "S", "occu": 1}], "abc": [0.4829209, 0.61594326, 0.35104393], "properties": {"magmom": 0.311}, "label": "S", "xyz": [6.338787623989359, 7.417564862671719, 4.941247852380154]}, {"species": [{"element": "S", "occu": 1}], "abc": [0.5170791, 0.38405674, 0.85104393], "properties": {"magmom": 0.311}, "label": "S", "xyz": [6.787145886010641, 4.625045787328281, 11.979181612380152]}, {"species": [{"element": "S", "occu": 1}], "abc": [0.5170791, 0.11594326, 0.35104393], "properties": {"magmom": 0.311}, "label": "S", "xyz": [6.787145886010641, 1.396259537671719, 4.941247852380154]}, {"species": [{"element": "S", "occu": 1}], "abc": [0.4829209, 0.88405674, 0.85104393], "properties": {"magmom": 0.311}, "label": "S", "xyz": [6.338787623989359, 10.646351112328281, 11.979181612380152]}, {"species": [{"element": "S", "occu": 1}], "abc": [0.5170791, 0.38405674, 0.64895607], "properties": {"magmom": 0.311}, "label": "S", "xyz": [6.787145886010641, 4.625045787328281, 9.134619667619846]}, {"species": [{"element": "S", "occu": 1}], "abc": [0.4829209, 0.61594326, 0.14895607], "properties": {"magmom": 0.311}, "label": "S", "xyz": [6.338787623989359, 7.417564862671719, 2.0966859076198463]}, {"species": [{"element": "S", "occu": 1}], "abc": [0.6253381, 0.62951147, 0.15460175], "properties": {"magmom": 0.28200000000000003}, "label": "S", "xyz": [8.20814632186973, 7.580961532919155, 2.17615375136016]}, {"species": [{"element": "S", "occu": 1}], "abc": [0.3746619, 0.37048753, 0.65460175], "properties": {"magmom": 0.28200000000000003}, "label": "S", "xyz": [4.917787188130268, 4.461637074470195, 9.214087511360159]}, {"species": [{"element": "S", "occu": 1}], "abc": [0.6253381, 0.87048853, 0.84539825], "properties": {"magmom": 0.28200000000000003}, "label": "S", "xyz": [8.20814632186973, 10.482954442080846, 11.89971376863984]}, {"species": [{"element": "S", "occu": 1}], "abc": [0.3746619, 0.12951147, 0.34539825], "properties": {"magmom": 0.28200000000000003}, "label": "S", "xyz": [4.917787188130268, 1.5596562079191554, 4.86178000863984]}, {"species": [{"element": "S", "occu": 1}], "abc": [0.3746619, 0.37048753, 0.84539825], "properties": {"magmom": 0.28200000000000003}, "label": "S", "xyz": [4.917787188130268, 4.461637074470195, 11.89971376863984]}, {"species": [{"element": "S", "occu": 1}], "abc": [0.6253381, 0.62951147, 0.34539825], "properties": {"magmom": 0.28200000000000003}, "label": "S", "xyz": [8.20814632186973, 7.580961532919155, 4.86178000863984]}, {"species": [{"element": "S", "occu": 1}], "abc": [0.3746619, 0.12951147, 0.15460175], "properties": {"magmom": 0.28200000000000003}, "label": "S", "xyz": [4.917787188130268, 1.5596562079191554, 2.17615375136016]}, {"species": [{"element": "S", "occu": 1}], "abc": [0.6253381, 0.87048853, 0.65460175], "properties": {"magmom": 0.28200000000000003}, "label": "S", "xyz": [8.20814632186973, 10.482954442080846, 9.214087511360159]}]}, "task_ids": null, "uncorrected_energy_per_atom": null, "energy_per_atom": -3.5574351195, "formation_energy_per_atom": -0.184813058, "energy_above_hull": 0.0, "is_stable": true, "equilibrium_reaction_energy_per_atom": null, "decomposes_to": null, "xas": null, "grain_boundaries": null, "band_gap": 1.047499999999999, "cbm": null, "vbm": null, "efermi": -3.40215467, "is_gap_direct": null, "is_metal": null, "es_source_calc_id": null, "bandstructure": null, "dos": null, "dos_energy_up": null, "dos_energy_down": null, "is_magnetic": null, "ordering": null, "total_magnetization": 1.3e-06, "total_magnetization_normalized_vol": null, "total_magnetization_normalized_formula_units": null, "num_magnetic_sites": null, "num_unique_magnetic_sites": null, "types_of_magnetic_species": null, "bulk_modulus": null, "shear_modulus": null, "universal_anisotropy": null, "homogeneous_poisson": null, "e_total": null, "e_ionic": null, "e_electronic": null, "n": null, "e_ij_max": null, "weighted_surface_energy_EV_PER_ANG2": null, "weighted_surface_energy": null, "weighted_work_function": null, "surface_anisotropy": null, "shape_factor": null, "has_reconstructed": null, "possible_species": null, "has_props": null, "theoretical": null, "database_IDs": null, "fields_not_requested": ["builder_meta", "nsites", "elements", "nelements", "composition", "composition_reduced", "chemsys", "symmetry", "property_name", "deprecated", "deprecation_reasons", "last_updated", "origins", "warnings", "task_ids", "uncorrected_energy_per_atom", "equilibrium_reaction_energy_per_atom", "decomposes_to", "xas", "grain_boundaries", "cbm", "vbm", "is_gap_direct", "is_metal", "es_source_calc_id", "bandstructure", "dos", "dos_energy_up", "dos_energy_down", "is_magnetic", "ordering", "total_magnetization_normalized_vol", "total_magnetization_normalized_formula_units", "num_magnetic_sites", "num_unique_magnetic_sites", "types_of_magnetic_species", "bulk_modulus", "shear_modulus", "universal_anisotropy", "homogeneous_poisson", "e_total", "e_ionic", "e_electronic", "n", "e_ij_max", "weighted_surface_energy_EV_PER_ANG2", "weighted_surface_energy", "weighted_work_function", "surface_anisotropy", "shape_factor", "has_reconstructed", "possible_species", "has_props", "theoretical", "database_IDs"]}