{
  "builder_meta": null,
  "nsites": null,
  "elements": null,
  "nelements": null,
  "composition": null,
  "composition_reduced": null,
  "formula_pretty": "HgSe",
  "formula_anonymous": "AB",
  "chemsys": null,
  "volume": 167.628586361131,
  "density": 8.307718381660244,
  "density_atomic": 27.938097726855165,
  "symmetry": null,
  "property_name": null,
  "material_id": "mp-1018722",
  "deprecated": null,
  "deprecation_reasons": null,
  "last_updated": null,
  "origins": null,
  "warnings": null,
  "structure": {
    "@module": "pymatgen.core.structure",
    "@class": "Structure",
    "charge": 0,
    "lattice": {
      "matrix": [
        [4.4189247, 7.331000000000001e-5, -0.00072985],
        [-2.20938769, 3.8310856600000003, 0.0017235],
        [-0.0027475200000000003, 0.00332246, 9.90160359]
      ],
      "pbc": [true, true, true],
      "a": 4.418924760880803,
      "b": 4.422512212468545,
      "c": 9.90160452861593,
      "alpha": 89.95307423243509,
      "beta": 90.0253614807266,
      "gamma": 119.97110625195027,
      "volume": 167.628586361131
    },
    "properties": {},
    "sites": [
      {
        "species": [{ "element": "Hg", "occu": 1 }],
        "abc": [0.72134936, 0.72177565, -8.070000000000001e-5],
        "properties": { "magmom": 0.0 },
        "label": "Hg",
        "xyz": [1.5929064899063077, 2.765236956451239, -8.155590733400012e-5]
      },
      {
        "species": [{ "element": "Hg", "occu": 1 }],
        "abc": [0.27837831, -9.866000000000002e-5, 0.66659201],
        "properties": { "magmom": -0.0 },
        "label": "Hg",
        "xyz": [1.2285192933134372, 0.0018571582922350999, 6.600126494831254]
      },
      {
        "species": [{ "element": "Hg", "occu": 1 }],
        "abc": [-3.46e-6, 0.27791316, 0.33326003],
        "properties": { "magmom": 0.0 },
        "label": "Hg",
        "xyz": [-0.614948842670088, 1.0658163648669068, 3.300287695308049]
      },
      {
        "species": [{ "element": "Se", "occu": 1 }],
        "abc": [0.49376044, 0.49372573000000003, 0.499932899999999],
        "properties": { "magmom": 0.0 },
        "label": "Se",
        "xyz": [1.0896850784591965, 1.8932027688168225, 4.950627962637623]
      },
      {
        "species": [{ "element": "Se", "occu": 1 }],
        "abc": [0.50594695, 0.00020443, 0.16656807],
        "properties": { "magmom": -0.0 },
        "label": "Se",
        "xyz": [2.234832160015512, 0.0013736955622305, 1.6489220868450192]
      },
      {
        "species": [{ "element": "Se", "occu": 1 }],
        "abc": [0.00056839, 0.50647869, 0.83352668],
        "properties": { "magmom": 0.0 },
        "label": "Se",
        "xyz": [-1.1187862415469267, 1.9431326470764894, 8.254123268231554]
      }
    ]
  },
  "task_ids": null,
  "uncorrected_energy_per_atom": null,
  "energy_per_atom": -32.07660409,
  "formation_energy_per_atom": -0.23692071328125003,
  "energy_above_hull": 0.0,
  "is_stable": true,
  "equilibrium_reaction_energy_per_atom": null,
  "decomposes_to": null,
  "xas": null,
  "grain_boundaries": null,
  "band_gap": 1.0432,
  "cbm": null,
  "vbm": null,
  "efermi": 1.0616717,
  "is_gap_direct": null,
  "is_metal": null,
  "es_source_calc_id": null,
  "bandstructure": null,
  "dos": null,
  "dos_energy_up": null,
  "dos_energy_down": null,
  "is_magnetic": null,
  "ordering": null,
  "total_magnetization": 0.0,
  "total_magnetization_normalized_vol": null,
  "total_magnetization_normalized_formula_units": null,
  "num_magnetic_sites": null,
  "num_unique_magnetic_sites": null,
  "types_of_magnetic_species": null,
  "bulk_modulus": null,
  "shear_modulus": null,
  "universal_anisotropy": null,
  "homogeneous_poisson": null,
  "e_total": null,
  "e_ionic": null,
  "e_electronic": null,
  "n": null,
  "e_ij_max": null,
  "weighted_surface_energy_EV_PER_ANG2": null,
  "weighted_surface_energy": null,
  "weighted_work_function": null,
  "surface_anisotropy": null,
  "shape_factor": null,
  "has_reconstructed": null,
  "possible_species": null,
  "has_props": null,
  "theoretical": null,
  "database_IDs": null,
  "fields_not_requested": [
    "builder_meta",
    "nsites",
    "elements",
    "nelements",
    "composition",
    "composition_reduced",
    "chemsys",
    "symmetry",
    "property_name",
    "deprecated",
    "deprecation_reasons",
    "last_updated",
    "origins",
    "warnings",
    "task_ids",
    "uncorrected_energy_per_atom",
    "equilibrium_reaction_energy_per_atom",
    "decomposes_to",
    "xas",
    "grain_boundaries",
    "cbm",
    "vbm",
    "is_gap_direct",
    "is_metal",
    "es_source_calc_id",
    "bandstructure",
    "dos",
    "dos_energy_up",
    "dos_energy_down",
    "is_magnetic",
    "ordering",
    "total_magnetization_normalized_vol",
    "total_magnetization_normalized_formula_units",
    "num_magnetic_sites",
    "num_unique_magnetic_sites",
    "types_of_magnetic_species",
    "bulk_modulus",
    "shear_modulus",
    "universal_anisotropy",
    "homogeneous_poisson",
    "e_total",
    "e_ionic",
    "e_electronic",
    "n",
    "e_ij_max",
    "weighted_surface_energy_EV_PER_ANG2",
    "weighted_surface_energy",
    "weighted_work_function",
    "surface_anisotropy",
    "shape_factor",
    "has_reconstructed",
    "possible_species",
    "has_props",
    "theoretical",
    "database_IDs"
  ]
}
