{"builder_meta": null, "nsites": null, "elements": null, "nelements": null, "composition": null, "composition_reduced": null, "formula_pretty": "HI", "formula_anonymous": "AB", "chemsys": null, "volume": 496.1896764288177, "density": 3.424554181564919, "density_atomic": 31.011854776801105, "symmetry": null, "property_name": null, "material_id": "mp-697025", "deprecated": null, "deprecation_reasons": null, "last_updated": null, "origins": null, "warnings": null, "structure": {"@module": "pymatgen.core.structure", "@class": "Structure", "charge": 0, "lattice": {"matrix": [[-4.40761779, 5.95866922, 4.0594163], [4.732215, -5.95576688, 5.1085011], [4.39653454, 5.94755857, -4.05508538]], "pbc": [true, true, true], "a": 8.450544015198405, "b": 9.163067249771286, "c": 8.434849515200803, "alpha": 117.20304178881716, "beta": 90.32152247819462, "gamma": 117.3784175314674, "volume": 496.1896764288177}, "properties": {}, "sites": [{"species": [{"element": "H", "occu": 1}], "abc": [0.245585499999999, 0.01081035, 0.56637451], "properties": {"magmom": 0.0}, "label": "H", "xyz": [1.4587949774497848, 4.767524406017147, -1.2445385284956334]}, {"species": [{"element": "H", "occu": 1}], "abc": [0.55609351, 0.48848175, 0.73385338], "properties": {"magmom": 0.0}, "label": "H", "xyz": [3.086964749462453, 4.768929812686789, 1.776986503721552]}, {"species": [{"element": "H", "occu": 1}], "abc": [0.75437191, 0.98945919, 0.43333257000000003], "properties": {"magmom": -0.0}, "label": "H", "xyz": [3.2625121813255396, 1.1793352479996089, 6.359762418951416]}, {"species": [{"element": "H", "occu": 1}], "abc": [0.44374185, 0.51178029, 0.26623222], "properties": {"magmom": 0.0}, "label": "H", "xyz": [1.6365090437057177, 1.1794985238731872, 3.33616869029853]}, {"species": [{"element": "H", "occu": 1}], "abc": [0.56160619, 0.00013894, 0.75959745], "properties": {"magmom": -0.0}, "label": "H", "xyz": [0.8649084853549032, 7.8633483473618115, -0.7997294171705507]}, {"species": [{"element": "H", "occu": 1}], "abc": [0.75911406, 0.49955758, 0.06190839], "properties": {"magmom": 0.0}, "label": "H", "xyz": [-0.7096883871046369, 1.9162648696736855, 5.382506628478177]}, {"species": [{"element": "H", "occu": 1}], "abc": [0.43874885, 2.187e-05, 0.24050523000000001], "properties": {"magmom": 0.0}, "label": "H", "xyz": [-0.8763441923143471, 4.044647957000053, 0.8059067142287745]}, {"species": [{"element": "H", "occu": 1}], "abc": [0.24098111, 0.50056378, 0.9386775900000001], "properties": {"magmom": -0.0}, "label": "H", "xyz": [5.433551247041713, 4.037525485378275, -0.2710445050663841]}, {"species": [{"element": "I", "occu": 1}], "abc": [0.24335556, 0.01383809, 0.76175914], "properties": {"magmom": -0.0}, "label": "I", "xyz": [2.3419668916886334, 5.898265948166234, -2.0304249267488466]}, {"species": [{"element": "I", "occu": 1}], "abc": [0.74783812, 0.48494714, 0.7281931500000001], "properties": {"magmom": 0.0}, "label": "I", "xyz": [2.2002158641293468, 5.898859282121739, 2.5602538558400623]}, {"species": [{"element": "I", "occu": 1}], "abc": [0.75647006, 0.98658066, 0.23800542], "properties": {"magmom": 0.0}, "label": "I", "xyz": [2.3808799536407395, 0.047261618524462756, 7.145642979871943]}, {"species": [{"element": "I", "occu": 1}], "abc": [0.25215864, 0.51553324, 0.27137448000000003], "properties": {"magmom": 0.0}, "label": "I", "xyz": [2.5213024983549337, 0.04614974459726362, 2.5567723306752934]}, {"species": [{"element": "I", "occu": 1}], "abc": [0.755392699999999, 0.0006284600000000001, 0.76259284], "properties": {"magmom": 0.0}, "label": "I", "xyz": [0.026257465899464982, 9.032957850211922, -0.022715148494368176]}, {"species": [{"element": "I", "occu": 1}], "abc": [0.762625, 0.50119711, 0.25653085000000003], "properties": {"magmom": -0.0}, "label": "I", "xyz": [0.13825970740045923, 3.0849492211996674, 4.615923844185347]}, {"species": [{"element": "I", "occu": 1}], "abc": [0.24433729, -0.00164771, 0.23747203], "properties": {"magmom": -0.0}, "label": "I", "xyz": [-0.0406887219631229, 2.878117273028856, 0.020480092364424385]}, {"species": [{"element": "I", "occu": 1}], "abc": [0.23758063000000001, 0.49811025000000003, 0.74359075], "properties": {"magmom": 0.0}, "label": "I", "xyz": [4.5792226013558475, 2.8715853954459156, 0.4937114630043089]}]}, "task_ids": null, "uncorrected_energy_per_atom": null, "energy_per_atom": -2.635246984374999, "formation_energy_per_atom": -0.175657457499999, "energy_above_hull": 0.004366291041667, "is_stable": false, "equilibrium_reaction_energy_per_atom": null, "decomposes_to": null, "xas": null, "grain_boundaries": null, "band_gap": 4.0739, "cbm": null, "vbm": null, "efermi": -1.40619502, "is_gap_direct": null, "is_metal": null, "es_source_calc_id": null, "bandstructure": null, "dos": null, "dos_energy_up": null, "dos_energy_down": null, "is_magnetic": null, "ordering": null, "total_magnetization": 0.0, "total_magnetization_normalized_vol": null, "total_magnetization_normalized_formula_units": null, "num_magnetic_sites": null, "num_unique_magnetic_sites": null, "types_of_magnetic_species": null, "bulk_modulus": null, "shear_modulus": null, "universal_anisotropy": null, "homogeneous_poisson": null, "e_total": null, "e_ionic": null, "e_electronic": null, "n": null, "e_ij_max": null, "weighted_surface_energy_EV_PER_ANG2": null, "weighted_surface_energy": null, "weighted_work_function": null, "surface_anisotropy": null, "shape_factor": null, "has_reconstructed": null, "possible_species": null, "has_props": null, "theoretical": null, "database_IDs": null, "fields_not_requested": ["builder_meta", "nsites", "elements", "nelements", "composition", "composition_reduced", "chemsys", "symmetry", "property_name", "deprecated", "deprecation_reasons", "last_updated", "origins", "warnings", "task_ids", "uncorrected_energy_per_atom", "equilibrium_reaction_energy_per_atom", "decomposes_to", "xas", "grain_boundaries", "cbm", "vbm", "is_gap_direct", "is_metal", "es_source_calc_id", "bandstructure", "dos", "dos_energy_up", "dos_energy_down", "is_magnetic", "ordering", "total_magnetization_normalized_vol", "total_magnetization_normalized_formula_units", "num_magnetic_sites", "num_unique_magnetic_sites", "types_of_magnetic_species", "bulk_modulus", "shear_modulus", "universal_anisotropy", "homogeneous_poisson", "e_total", "e_ionic", "e_electronic", "n", "e_ij_max", "weighted_surface_energy_EV_PER_ANG2", "weighted_surface_energy", "weighted_work_function", "surface_anisotropy", "shape_factor", "has_reconstructed", "possible_species", "has_props", "theoretical", "database_IDs"]}