{
  "builder_meta": null,
  "nsites": null,
  "elements": null,
  "nelements": null,
  "composition": null,
  "composition_reduced": null,
  "formula_pretty": "HI3",
  "formula_anonymous": "AB3",
  "chemsys": null,
  "volume": 362.17229417996265,
  "density": 3.500340718582557,
  "density_atomic": 45.27153677249533,
  "symmetry": null,
  "property_name": null,
  "material_id": "mp-2929431",
  "deprecated": null,
  "deprecation_reasons": null,
  "last_updated": null,
  "origins": null,
  "warnings": null,
  "structure": {
    "@module": "pymatgen.core.structure",
    "@class": "Structure",
    "charge": 0.0,
    "lattice": {
      "matrix": [
        [5.06309884, 0.522155199999999, 0.01217926],
        [1.49138151, 9.47242823, -0.84438767],
        [0.50849903, 2.27526513, 7.47516517]
      ],
      "pbc": [true, true, true],
      "a": 5.089967018642708,
      "b": 9.626219710671414,
      "c": 7.830293544566896,
      "alpha": 77.74565693238296,
      "beta": 84.45141126823964,
      "gamma": 75.2354427972066,
      "volume": 362.1722941799626
    },
    "properties": {},
    "sites": [
      {
        "species": [{ "element": "H", "occu": 1 }],
        "abc": [0.13573856, 0.79710384, 0.53200269],
        "properties": { "magmom": 0.0 },
        "label": "H",
        "xyz": [2.1465665260276596, 8.831832680825114, 3.30539651964292]
      },
      {
        "species": [{ "element": "H", "occu": 1 }],
        "abc": [0.86426144, 0.20289616, 0.46799731],
        "properties": { "magmom": 0.0 },
        "label": "H",
        "xyz": [4.916412853972341, 3.4380158791748845, 3.3375602403570803]
      },
      {
        "species": [{ "element": "I", "occu": 1 }],
        "abc": [0.3556203, 0.40482701, 0.76079833],
        "properties": { "magmom": -0.0 },
        "label": "I",
        "xyz": [2.7911574587036574, 5.751401697872285, 5.3495934341781775]
      },
      {
        "species": [{ "element": "I", "occu": 1 }],
        "abc": [0.33412004, 0.87758662, 0.24638332000000002],
        "properties": { "magmom": -0.0 },
        "label": "I",
        "xyz": [3.12578492466433, 9.047926166478122, 1.1048020256863595]
      },
      {
        "species": [{ "element": "I", "occu": 1 }],
        "abc": [0.99896387, 0.7424318400000001, 0.73353493],
        "properties": { "magmom": 0.0 },
        "label": "I",
        "xyz": [6.538103730386307, 9.223232947265458, 4.868561108906311]
      },
      {
        "species": [{ "element": "I", "occu": 1 }],
        "abc": [0.6443797, 0.59517299, 0.23920167],
        "properties": { "magmom": -0.0 },
        "label": "I",
        "xyz": [4.271821921296343, 6.518446862127714, 1.2933633258218227]
      },
      {
        "species": [{ "element": "I", "occu": 1 }],
        "abc": [0.66587996, 0.12241338, 0.75361668],
        "properties": { "magmom": -0.0 },
        "label": "I",
        "xyz": [3.9371944553356713, 3.2219223935218775, 5.5381547343136415]
      },
      {
        "species": [{ "element": "I", "occu": 1 }],
        "abc": [0.0010361300000000001, 0.25756816, 0.26646507],
        "properties": { "magmom": 0.0 },
        "label": "I",
        "xyz": [0.5248756496136929, 3.0466156127345423, 1.7743956510936887]
      }
    ]
  },
  "task_ids": null,
  "uncorrected_energy_per_atom": null,
  "energy_per_atom": -2.26183669375,
  "formation_energy_per_atom": -0.27003562281249904,
  "energy_above_hull": 0.0,
  "is_stable": true,
  "equilibrium_reaction_energy_per_atom": null,
  "decomposes_to": null,
  "xas": null,
  "grain_boundaries": null,
  "band_gap": 1.1496,
  "cbm": null,
  "vbm": null,
  "efermi": 0.05597679,
  "is_gap_direct": null,
  "is_metal": null,
  "es_source_calc_id": null,
  "bandstructure": null,
  "dos": null,
  "dos_energy_up": null,
  "dos_energy_down": null,
  "is_magnetic": null,
  "ordering": null,
  "total_magnetization": 0.0,
  "total_magnetization_normalized_vol": null,
  "total_magnetization_normalized_formula_units": null,
  "num_magnetic_sites": null,
  "num_unique_magnetic_sites": null,
  "types_of_magnetic_species": null,
  "bulk_modulus": null,
  "shear_modulus": null,
  "universal_anisotropy": null,
  "homogeneous_poisson": null,
  "e_total": null,
  "e_ionic": null,
  "e_electronic": null,
  "n": null,
  "e_ij_max": null,
  "weighted_surface_energy_EV_PER_ANG2": null,
  "weighted_surface_energy": null,
  "weighted_work_function": null,
  "surface_anisotropy": null,
  "shape_factor": null,
  "has_reconstructed": null,
  "possible_species": null,
  "has_props": null,
  "theoretical": null,
  "database_IDs": null,
  "fields_not_requested": [
    "builder_meta",
    "nsites",
    "elements",
    "nelements",
    "composition",
    "composition_reduced",
    "chemsys",
    "symmetry",
    "property_name",
    "deprecated",
    "deprecation_reasons",
    "last_updated",
    "origins",
    "warnings",
    "task_ids",
    "uncorrected_energy_per_atom",
    "equilibrium_reaction_energy_per_atom",
    "decomposes_to",
    "xas",
    "grain_boundaries",
    "cbm",
    "vbm",
    "is_gap_direct",
    "is_metal",
    "es_source_calc_id",
    "bandstructure",
    "dos",
    "dos_energy_up",
    "dos_energy_down",
    "is_magnetic",
    "ordering",
    "total_magnetization_normalized_vol",
    "total_magnetization_normalized_formula_units",
    "num_magnetic_sites",
    "num_unique_magnetic_sites",
    "types_of_magnetic_species",
    "bulk_modulus",
    "shear_modulus",
    "universal_anisotropy",
    "homogeneous_poisson",
    "e_total",
    "e_ionic",
    "e_electronic",
    "n",
    "e_ij_max",
    "weighted_surface_energy_EV_PER_ANG2",
    "weighted_surface_energy",
    "weighted_work_function",
    "surface_anisotropy",
    "shape_factor",
    "has_reconstructed",
    "possible_species",
    "has_props",
    "theoretical",
    "database_IDs"
  ]
}
