{"builder_meta": null, "nsites": null, "elements": null, "nelements": null, "composition": null, "composition_reduced": null, "formula_pretty": "HN", "formula_anonymous": "AB", "chemsys": null, "volume": 365.5705611563187, "density": 1.364026480254457, "density_atomic": 9.139264028907968, "symmetry": null, "property_name": null, "material_id": "mp-720515", "deprecated": null, "deprecation_reasons": null, "last_updated": null, "origins": null, "warnings": null, "structure": {"@module": "pymatgen.core.structure", "@class": "Structure", "charge": 0, "lattice": {"matrix": [[5.499095, 0.0, 0.0], [0.0, 5.79, 0.0], [0.0, 5.332464, 11.481574]], "pbc": [true, true, true], "a": 5.499095, "b": 5.79, "c": 12.65945156113692, "alpha": 65.08811624631666, "beta": 90.0, "gamma": 90.0, "volume": 365.5705611563187}, "properties": {}, "sites": [{"species": [{"element": "H", "occu": 1}], "abc": [0.32231000000000004, 0.725275999999999, 0.934863999999999], "properties": {"magmom": 0.0}, "label": "H", "xyz": [1.77241330945, 9.184476664895989, 10.73371019593599]}, {"species": [{"element": "H", "occu": 1}], "abc": [0.8223100000000001, 0.274723999999999, 0.565136], "properties": {"magmom": 0.0}, "label": "H", "xyz": [4.52196080945, 4.604219335103995, 6.488650804064]}, {"species": [{"element": "H", "occu": 1}], "abc": [0.67769, 0.274723999999999, 0.065136], "properties": {"magmom": 0.0}, "label": "H", "xyz": [3.72668169055, 1.9379873351039945, 0.747863804064]}, {"species": [{"element": "H", "occu": 1}], "abc": [0.17769000000000001, 0.725275999999999, 0.434864], "properties": {"magmom": 0.0}, "label": "H", "xyz": [0.9771341905500001, 6.5182446648959935, 4.992923195936]}, {"species": [{"element": "H", "occu": 1}], "abc": [0.027826999999999002, 0.367330999999999, 0.642141], "properties": {"magmom": 0.0}, "label": "H", "xyz": [0.1530233165649945, 5.5510402554239935, 7.372789409934]}, {"species": [{"element": "H", "occu": 1}], "abc": [0.527826999999999, 0.632668999999999, 0.857858999999999], "properties": {"magmom": 0.0}, "label": "H", "xyz": [2.9025708165649946, 8.237655744575989, 9.84957159006599]}, {"species": [{"element": "H", "occu": 1}], "abc": [0.972173, 0.632668999999999, 0.357859], "properties": {"magmom": 0.0}, "label": "H", "xyz": [5.3460716834349995, 5.571423744575995, 4.108784590066]}, {"species": [{"element": "H", "occu": 1}], "abc": [0.472172999999999, 0.367330999999999, 0.142141], "properties": {"magmom": 0.0}, "label": "H", "xyz": [2.5965241834349944, 2.8848082554239944, 1.6320024099339998]}, {"species": [{"element": "H", "occu": 1}], "abc": [0.992732, 0.867888, 0.649884], "properties": {"magmom": 0.0}, "label": "H", "xyz": [5.459127577539999, 8.490554554176, 7.461691237416001]}, {"species": [{"element": "H", "occu": 1}], "abc": [0.492732, 0.132112, 0.850116], "properties": {"magmom": 0.0}, "label": "H", "xyz": [2.7095800775399996, 5.298141445824, 9.760669762584]}, {"species": [{"element": "H", "occu": 1}], "abc": [0.007267999999999001, 0.132112, 0.350116], "properties": {"magmom": 0.0}, "label": "H", "xyz": [0.0399674224599945, 2.631909445824, 4.0198827625839995]}, {"species": [{"element": "H", "occu": 1}], "abc": [0.507267999999999, 0.867888, 0.149884], "properties": {"magmom": 0.0}, "label": "H", "xyz": [2.7895149224599947, 5.824322554176, 1.720904237416]}, {"species": [{"element": "H", "occu": 1}], "abc": [0.700044, 0.913705999999999, 0.914821], "properties": {"magmom": 0.0}, "label": "H", "xyz": [3.84960846018, 10.168607788943994, 10.503585008254]}, {"species": [{"element": "H", "occu": 1}], "abc": [0.200044, 0.086294, 0.585179], "properties": {"magmom": 0.0}, "label": "H", "xyz": [1.10006096018, 3.6200882110559998, 6.718775991746]}, {"species": [{"element": "H", "occu": 1}], "abc": [0.299956, 0.086294, 0.085178999999999], "properties": {"magmom": 0.0}, "label": "H", "xyz": [1.6494865398199998, 0.9538562110559947, 0.9779889917459886]}, {"species": [{"element": "H", "occu": 1}], "abc": [0.799956, 0.913705999999999, 0.414821], "properties": {"magmom": 0.0}, "label": "H", "xyz": [4.39903403982, 7.5023757889439935, 4.762798008254]}, {"species": [{"element": "H", "occu": 1}], "abc": [0.801936, 0.145507, 0.716712], "properties": {"magmom": 0.0}, "label": "H", "xyz": [4.40992224792, 4.664326468368, 8.228981864688]}, {"species": [{"element": "H", "occu": 1}], "abc": [0.301936, 0.854493, 0.783288], "properties": {"magmom": 0.0}, "label": "H", "xyz": [1.6603747479199997, 9.124369531631999, 8.993379135312]}, {"species": [{"element": "H", "occu": 1}], "abc": [0.198064, 0.854493, 0.283288], "properties": {"magmom": 0.0}, "label": "H", "xyz": [1.0891727520799999, 6.4581375316319996, 3.2525921353119998]}, {"species": [{"element": "H", "occu": 1}], "abc": [0.698064, 0.145507, 0.216712], "properties": {"magmom": 0.0}, "label": "H", "xyz": [3.83872025208, 1.998094468368, 2.488194864688]}, {"species": [{"element": "N", "occu": 1}], "abc": [0.47657000000000005, 0.655077, 0.599399], "properties": {"magmom": 0.0}, "label": "N", "xyz": [2.62070370415, 6.989169419136, 6.882043974026001]}, {"species": [{"element": "N", "occu": 1}], "abc": [0.97657, 0.344923, 0.900601], "properties": {"magmom": 0.0}, "label": "N", "xyz": [5.37025120415, 6.799526580864, 10.340317025974]}, {"species": [{"element": "N", "occu": 1}], "abc": [0.5234300000000001, 0.344923, 0.400601], "properties": {"magmom": 0.0}, "label": "N", "xyz": [2.87839129585, 4.133294580864, 4.5995300259739995]}, {"species": [{"element": "N", "occu": 1}], "abc": [0.023430000000000003, 0.655077, 0.099399], "properties": {"magmom": 0.0}, "label": "N", "xyz": [0.12884379585, 4.322937419136, 1.1412569740260001]}, {"species": [{"element": "N", "occu": 1}], "abc": [0.284898, 0.593657, 0.575047], "properties": {"magmom": -0.0}, "label": "N", "xyz": [1.5666811673099998, 6.503691455807999, 6.602444683978]}, {"species": [{"element": "N", "occu": 1}], "abc": [0.784898, 0.406342999999999, 0.924952999999999], "properties": {"magmom": -0.0}, "label": "N", "xyz": [4.31622866731, 7.285004544191989, 10.619916316021989]}, {"species": [{"element": "N", "occu": 1}], "abc": [0.715102, 0.406342999999999, 0.424952999999999], "properties": {"magmom": -0.0}, "label": "N", "xyz": [3.93241383269, 4.618772544191989, 4.879129316021989]}, {"species": [{"element": "N", "occu": 1}], "abc": [0.215102, 0.593657, 0.075047], "properties": {"magmom": -0.0}, "label": "N", "xyz": [1.1828663326899997, 3.8374594558079997, 0.861657683978]}, {"species": [{"element": "N", "occu": 1}], "abc": [0.66552, 0.717534999999999, 0.622717], "properties": {"magmom": -0.0}, "label": "N", "xyz": [3.6597577043999996, 7.475143634687994, 7.149771316558]}, {"species": [{"element": "N", "occu": 1}], "abc": [0.16552, 0.282464999999999, 0.877282999999999], "properties": {"magmom": -0.0}, "label": "N", "xyz": [0.9102102043999999, 6.313552365311989, 10.07258968344199]}, {"species": [{"element": "N", "occu": 1}], "abc": [0.33448000000000006, 0.282464999999999, 0.377283], "properties": {"magmom": -0.0}, "label": "N", "xyz": [1.8393372956000003, 3.647320365311994, 4.331802683442]}, {"species": [{"element": "N", "occu": 1}], "abc": [0.8344800000000001, 0.717534999999999, 0.12271699999999901], "properties": {"magmom": -0.0}, "label": "N", "xyz": [4.5888847956, 4.8089116346879885, 1.4089843165579887]}, {"species": [{"element": "N", "occu": 1}], "abc": [0.423008, 0.787351999999999, 0.854798], "properties": {"magmom": -0.0}, "label": "N", "xyz": [2.32616117776, 9.116947642271995, 9.814426492052]}, {"species": [{"element": "N", "occu": 1}], "abc": [0.923007999999999, 0.212648, 0.645201999999999], "properties": {"magmom": -0.0}, "label": "N", "xyz": [5.0757086777599945, 4.671748357727995, 7.4079345079479895]}, {"species": [{"element": "N", "occu": 1}], "abc": [0.576992, 0.212648, 0.145202], "properties": {"magmom": -0.0}, "label": "N", "xyz": [3.1729338222399996, 2.0055163577279997, 1.667147507948]}, {"species": [{"element": "N", "occu": 1}], "abc": [0.076991999999999, 0.787351999999999, 0.354798], "properties": {"magmom": -0.0}, "label": "N", "xyz": [0.4233863222399945, 6.4507156422719945, 4.073639492052]}, {"species": [{"element": "N", "occu": 1}], "abc": [0.092087999999999, 0.010553, 0.658019], "properties": {"magmom": -0.0}, "label": "N", "xyz": [0.5064006603599945, 3.5699644988159998, 7.555093841906]}, {"species": [{"element": "N", "occu": 1}], "abc": [0.592088, 0.989447, 0.841981], "properties": {"magmom": -0.0}, "label": "N", "xyz": [3.2559481603599996, 10.218731501184, 9.667267158093999]}, {"species": [{"element": "N", "occu": 1}], "abc": [0.907911999999999, 0.989447, 0.341981], "properties": {"magmom": -0.0}, "label": "N", "xyz": [4.9926943396399945, 7.552499501184, 3.926480158094]}, {"species": [{"element": "N", "occu": 1}], "abc": [0.407912, 0.010553, 0.158019], "properties": {"magmom": -0.0}, "label": "N", "xyz": [2.2431468396399996, 0.9037324988159999, 1.814306841906]}]}, "task_ids": null, "uncorrected_energy_per_atom": null, "energy_per_atom": -6.376659658749999, "formation_energy_per_atom": -0.084728122499998, "energy_above_hull": 0.147844638333333, "is_stable": false, "equilibrium_reaction_energy_per_atom": null, "decomposes_to": null, "xas": null, "grain_boundaries": null, "band_gap": 4.362999999999999, "cbm": null, "vbm": null, "efermi": -0.15998633, "is_gap_direct": null, "is_metal": null, "es_source_calc_id": null, "bandstructure": null, "dos": null, "dos_energy_up": null, "dos_energy_down": null, "is_magnetic": null, "ordering": null, "total_magnetization": 0.0014164, "total_magnetization_normalized_vol": null, "total_magnetization_normalized_formula_units": null, "num_magnetic_sites": null, "num_unique_magnetic_sites": null, "types_of_magnetic_species": null, "bulk_modulus": null, "shear_modulus": null, "universal_anisotropy": null, "homogeneous_poisson": null, "e_total": null, "e_ionic": null, "e_electronic": null, "n": null, "e_ij_max": null, "weighted_surface_energy_EV_PER_ANG2": null, "weighted_surface_energy": null, "weighted_work_function": null, "surface_anisotropy": null, "shape_factor": null, "has_reconstructed": null, "possible_species": null, "has_props": null, "theoretical": null, "database_IDs": null, "fields_not_requested": ["builder_meta", "nsites", "elements", "nelements", "composition", "composition_reduced", "chemsys", "symmetry", "property_name", "deprecated", "deprecation_reasons", "last_updated", "origins", "warnings", "task_ids", "uncorrected_energy_per_atom", "equilibrium_reaction_energy_per_atom", "decomposes_to", "xas", "grain_boundaries", "cbm", "vbm", "is_gap_direct", "is_metal", "es_source_calc_id", "bandstructure", "dos", "dos_energy_up", "dos_energy_down", "is_magnetic", "ordering", "total_magnetization_normalized_vol", "total_magnetization_normalized_formula_units", "num_magnetic_sites", "num_unique_magnetic_sites", "types_of_magnetic_species", "bulk_modulus", "shear_modulus", "universal_anisotropy", "homogeneous_poisson", "e_total", "e_ionic", "e_electronic", "n", "e_ij_max", "weighted_surface_energy_EV_PER_ANG2", "weighted_surface_energy", "weighted_work_function", "surface_anisotropy", "shape_factor", "has_reconstructed", "possible_species", "has_props", "theoretical", "database_IDs"]}