{"builder_meta": null, "nsites": null, "elements": null, "nelements": null, "composition": null, "composition_reduced": null, "formula_pretty": "Ho2Al", "formula_anonymous": "AB2", "chemsys": null, "volume": 308.9072664540007, "density": 7.672857747607448, "density_atomic": 25.742272204500058, "symmetry": null, "property_name": null, "material_id": "mp-16502", "deprecated": null, "deprecation_reasons": null, "last_updated": null, "origins": null, "warnings": null, "structure": {"@module": "pymatgen.core.structure", "@class": "Structure", "charge": 0, "lattice": {"matrix": [[5.06142405, 0.0, 0.0], [0.0, 6.51988689, -6.779e-05], [0.0, 9.533e-05, 9.36085113]], "pbc": [true, true, true], "a": 5.06142405, "b": 6.519886890352421, "c": 9.360851130485417, "alpha": 90.00001223360174, "beta": 90.0, "gamma": 90.0, "volume": 308.9072664540007}, "properties": {}, "sites": [{"species": [{"element": "Ho", "occu": 1}], "abc": [0.75, 0.18966531, 0.92635302], "properties": {"magmom": 0.0}, "label": "Ho", "xyz": [3.7960680375000004, 1.2366846773901825, 8.671439856634548]}, {"species": [{"element": "Ho", "occu": 1}], "abc": [0.25, 0.8103243800000001, 0.07362668], "properties": {"magmom": -0.0}, "label": "Ho", "xyz": [1.2653560125, 5.283230320640783, 0.6891534587864283]}, {"species": [{"element": "Ho", "occu": 1}], "abc": [0.75, 0.6896046100000001, 0.57363668], "properties": {"magmom": 0.0}, "label": "Ho", "xyz": [3.7960680375000004, 4.496198740807268, 5.369680815890937]}, {"species": [{"element": "Ho", "occu": 1}], "abc": [0.25, 0.31038256000000003, 0.42638388], "properties": {"magmom": 0.0}, "label": "Ho", "xyz": [1.2653560125, 2.023699831003919, 3.991294984078042]}, {"species": [{"element": "Ho", "occu": 1}], "abc": [0.75, 0.025538850000000002, 0.2901112], "properties": {"magmom": 0.0}, "label": "Ho", "xyz": [3.7960680375000004, 0.16653806960137255, 2.715686023067015]}, {"species": [{"element": "Ho", "occu": 1}], "abc": [0.25, 0.97446318, 0.70989345], "properties": {"magmom": 0.0}, "label": "Ho", "xyz": [1.2653560125, 6.353457386212299, 6.645140844753127]}, {"species": [{"element": "Ho", "occu": 1}], "abc": [0.75, 0.52552315, 0.2098312], "properties": {"magmom": 0.0}, "label": "Ho", "xyz": [3.7960680375000004, 3.4263714992848002, 1.9641630004149175]}, {"species": [{"element": "Ho", "occu": 1}], "abc": [0.25, 0.47448005, 0.790163699999999], "properties": {"magmom": -0.0}, "label": "Ho", "xyz": [1.2653560125, 3.0936315838670656, 7.396572599027383]}, {"species": [{"element": "Al", "occu": 1}], "abc": [0.75, 0.71035998, 0.8974808], "properties": {"magmom": -0.0}, "label": "Al", "xyz": [3.7960680375000004, 4.631552277627327, 8.40113600553026]}, {"species": [{"element": "Al", "occu": 1}], "abc": [0.25, 0.28965214, 0.10248364], "properties": {"magmom": -0.0}, "label": "Al", "xyz": [1.2653560125, 1.8885089600118459, 0.9593144617819426]}, {"species": [{"element": "Al", "occu": 1}], "abc": [0.75, 0.21026409000000001, 0.60252935], "properties": {"magmom": 0.0}, "label": "Al", "xyz": [3.7960680375000004, 1.3709555229517159, 5.640173293003005]}, {"species": [{"element": "Al", "occu": 1}], "abc": [0.25, 0.78974169, 0.39750441000000003], "properties": {"magmom": 0.0}, "label": "Al", "xyz": [1.2653560125, 5.14906438521285, 3.7209260689393187]}]}, "task_ids": null, "uncorrected_energy_per_atom": null, "energy_per_atom": -24.509582416666664, "formation_energy_per_atom": -0.344653696666663, "energy_above_hull": 0.0, "is_stable": true, "equilibrium_reaction_energy_per_atom": null, "decomposes_to": null, "xas": null, "grain_boundaries": null, "band_gap": 0.0, "cbm": null, "vbm": null, "efermi": 3.99738775, "is_gap_direct": null, "is_metal": null, "es_source_calc_id": null, "bandstructure": null, "dos": null, "dos_energy_up": null, "dos_energy_down": null, "is_magnetic": null, "ordering": null, "total_magnetization": 4e-07, "total_magnetization_normalized_vol": null, "total_magnetization_normalized_formula_units": null, "num_magnetic_sites": null, "num_unique_magnetic_sites": null, "types_of_magnetic_species": null, "bulk_modulus": null, "shear_modulus": null, "universal_anisotropy": null, "homogeneous_poisson": null, "e_total": null, "e_ionic": null, "e_electronic": null, "n": null, "e_ij_max": null, "weighted_surface_energy_EV_PER_ANG2": null, "weighted_surface_energy": null, "weighted_work_function": null, "surface_anisotropy": null, "shape_factor": null, "has_reconstructed": null, "possible_species": null, "has_props": null, "theoretical": null, "database_IDs": null, "fields_not_requested": ["builder_meta", "nsites", "elements", "nelements", "composition", "composition_reduced", "chemsys", "symmetry", "property_name", "deprecated", "deprecation_reasons", "last_updated", "origins", "warnings", "task_ids", "uncorrected_energy_per_atom", "equilibrium_reaction_energy_per_atom", "decomposes_to", "xas", "grain_boundaries", "cbm", "vbm", "is_gap_direct", "is_metal", "es_source_calc_id", "bandstructure", "dos", "dos_energy_up", "dos_energy_down", "is_magnetic", "ordering", "total_magnetization_normalized_vol", "total_magnetization_normalized_formula_units", "num_magnetic_sites", "num_unique_magnetic_sites", "types_of_magnetic_species", "bulk_modulus", "shear_modulus", "universal_anisotropy", "homogeneous_poisson", "e_total", "e_ionic", "e_electronic", "n", "e_ij_max", "weighted_surface_energy_EV_PER_ANG2", "weighted_surface_energy", "weighted_work_function", "surface_anisotropy", "shape_factor", "has_reconstructed", "possible_species", "has_props", "theoretical", "database_IDs"]}