{"builder_meta": null, "nsites": null, "elements": null, "nelements": null, "composition": null, "composition_reduced": null, "formula_pretty": "Ho2Au", "formula_anonymous": "AB2", "chemsys": null, "volume": 306.1704708070801, "density": 11.42915134286181, "density_atomic": 25.51420590059001, "symmetry": null, "property_name": null, "material_id": "mp-30385", "deprecated": null, "deprecation_reasons": null, "last_updated": null, "origins": null, "warnings": null, "structure": {"@module": "pymatgen.core.structure", "@class": "Structure", "charge": 0, "lattice": {"matrix": [[4.92128578, -7.73e-06, 0.0], [-1.038e-05, 7.05105613, 0.0], [0.0, 0.0, 8.82328982]], "pbc": [true, true, true], "a": 4.9212857800060705, "b": 7.051056130007641, "c": 8.82328982, "alpha": 90.0, "beta": 90.0, "gamma": 90.00017434232605, "volume": 306.1704708070801}, "properties": {}, "sites": [{"species": [{"element": "Ho", "occu": 1}], "abc": [0.24999977, 0.98798662, 0.67521106], "properties": {"magmom": -0.0}, "label": "Ho", "xyz": [1.230310057803155, 6.966347180810759, 5.957582872049408]}, {"species": [{"element": "Ho", "occu": 1}], "abc": [0.75000023, 0.01201338, 0.32478894], "properties": {"magmom": -0.0}, "label": "Ho", "xyz": [3.690965342196845, 0.0847012191892415, 2.8657069479505908]}, {"species": [{"element": "Ho", "occu": 1}], "abc": [0.24999977, 0.48798662000000004, 0.82478894], "properties": {"magmom": -0.0}, "label": "Ho", "xyz": [1.230315247803155, 3.440819115810759, 7.277351857950591]}, {"species": [{"element": "Ho", "occu": 1}], "abc": [0.75000023, 0.51201338, 0.17521106], "properties": {"magmom": -0.0}, "label": "Ho", "xyz": [3.690960152196845, 3.6102292841892414, 1.5459379620494091]}, {"species": [{"element": "Ho", "occu": 1}], "abc": [0.7499999900000001, 0.14765162, 0.91690509], "properties": {"magmom": -0.0}, "label": "Ho", "xyz": [3.690962753163327, 1.0410940628055079, 8.090119346503183]}, {"species": [{"element": "Ho", "occu": 1}], "abc": [0.25000001, 0.85234838, 0.08309491000000001], "properties": {"magmom": -0.0}, "label": "Ho", "xyz": [1.2303126468366734, 6.009954337194492, 0.7331704734968162]}, {"species": [{"element": "Ho", "occu": 1}], "abc": [0.7499999900000001, 0.64765162, 0.58309491], "properties": {"magmom": -0.0}, "label": "Ho", "xyz": [3.690957563163327, 4.566622127805508, 5.144815383496816]}, {"species": [{"element": "Ho", "occu": 1}], "abc": [0.25000001, 0.35234838, 0.41690509000000003], "properties": {"magmom": -0.0}, "label": "Ho", "xyz": [1.2303178368366734, 2.4844262721944923, 3.678474436503184]}, {"species": [{"element": "Au", "occu": 1}], "abc": [0.25000036000000003, 0.75772069, 0.40412834000000003], "properties": {"magmom": -0.0}, "label": "Au", "xyz": [1.2303153515221188, 5.3427291835495465, 3.565741468295499]}, {"species": [{"element": "Au", "occu": 1}], "abc": [0.74999964, 0.24227931, 0.59587166], "properties": {"magmom": -0.0}, "label": "Au", "xyz": [3.6909600484778813, 1.708319216450453, 5.257548351704501]}, {"species": [{"element": "Au", "occu": 1}], "abc": [0.25000036000000003, 0.25772069000000003, 0.09587166], "properties": {"magmom": -0.0}, "label": "Au", "xyz": [1.2303205415221188, 1.8172011185495471, 0.8459034417045012]}, {"species": [{"element": "Au", "occu": 1}], "abc": [0.74999964, 0.74227931, 0.90412834], "properties": {"magmom": -0.0}, "label": "Au", "xyz": [3.6909548584778813, 5.233847281450453, 7.977386378295498]}]}, "task_ids": null, "uncorrected_energy_per_atom": null, "energy_per_atom": -39.52782728333333, "formation_energy_per_atom": -0.7452779566666641, "energy_above_hull": 0.0, "is_stable": true, "equilibrium_reaction_energy_per_atom": null, "decomposes_to": null, "xas": null, "grain_boundaries": null, "band_gap": 0.0, "cbm": null, "vbm": null, "efermi": 3.858562199999999, "is_gap_direct": null, "is_metal": null, "es_source_calc_id": null, "bandstructure": null, "dos": null, "dos_energy_up": null, "dos_energy_down": null, "is_magnetic": null, "ordering": null, "total_magnetization": 3e-07, "total_magnetization_normalized_vol": null, "total_magnetization_normalized_formula_units": null, "num_magnetic_sites": null, "num_unique_magnetic_sites": null, "types_of_magnetic_species": null, "bulk_modulus": null, "shear_modulus": null, "universal_anisotropy": null, "homogeneous_poisson": null, "e_total": null, "e_ionic": null, "e_electronic": null, "n": null, "e_ij_max": null, "weighted_surface_energy_EV_PER_ANG2": null, "weighted_surface_energy": null, "weighted_work_function": null, "surface_anisotropy": null, "shape_factor": null, "has_reconstructed": null, "possible_species": null, "has_props": null, "theoretical": null, "database_IDs": null, "fields_not_requested": ["builder_meta", "nsites", "elements", "nelements", "composition", "composition_reduced", "chemsys", "symmetry", "property_name", "deprecated", "deprecation_reasons", "last_updated", "origins", "warnings", "task_ids", "uncorrected_energy_per_atom", "equilibrium_reaction_energy_per_atom", "decomposes_to", "xas", "grain_boundaries", "cbm", "vbm", "is_gap_direct", "is_metal", "es_source_calc_id", "bandstructure", "dos", "dos_energy_up", "dos_energy_down", "is_magnetic", "ordering", "total_magnetization_normalized_vol", "total_magnetization_normalized_formula_units", "num_magnetic_sites", "num_unique_magnetic_sites", "types_of_magnetic_species", "bulk_modulus", "shear_modulus", "universal_anisotropy", "homogeneous_poisson", "e_total", "e_ionic", "e_electronic", "n", "e_ij_max", "weighted_surface_energy_EV_PER_ANG2", "weighted_surface_energy", "weighted_work_function", "surface_anisotropy", "shape_factor", "has_reconstructed", "possible_species", "has_props", "theoretical", "database_IDs"]}