{"builder_meta": null, "nsites": null, "elements": null, "nelements": null, "composition": null, "composition_reduced": null, "formula_pretty": "Ho2Co7", "formula_anonymous": "A2B7", "chemsys": null, "volume": 251.6019226581317, "density": 9.799389245909055, "density_atomic": 13.977884592118428, "symmetry": null, "property_name": null, "material_id": "mp-1105734", "deprecated": null, "deprecation_reasons": null, "last_updated": null, "origins": null, "warnings": null, "structure": {"@module": "pymatgen.core.structure", "@class": "Structure", "charge": 0, "lattice": {"matrix": [[-2.462169, -4.264602, 0.0], [-4.924338, 0.0, 0.0], [-2.462169, -1.421533999999999, -11.980849]], "pbc": [true, true, true], "a": 4.924338169029926, "b": 4.924338, "c": 12.313560730289105, "alpha": 78.46562036302802, "beta": 78.46562022924171, "gamma": 60.00000113547541, "volume": 251.6019226581317}, "properties": {}, "sites": [{"species": [{"element": "Ho", "occu": 1}], "abc": [0.9474500000000001, 0.9474500000000001, 0.15765099999999901], "properties": {"magmom": -0.067}, "label": "Ho", "xyz": [-7.3865094621689975, -4.264603421533999, -1.888792825698988]}, {"species": [{"element": "Ho", "occu": 1}], "abc": [0.052550000000000006, 0.052550000000000006, 0.842349], "properties": {"magmom": -0.067}, "label": "Ho", "xyz": [-2.4621665378309996, -1.4215325784659993, -10.092056174301]}, {"species": [{"element": "Ho", "occu": 1}], "abc": [0.85145, 0.85145, 0.445650999999999], "properties": {"magmom": -0.42}, "label": "Ho", "xyz": [-7.386509462168998, -4.264603421533998, -5.339277337698988]}, {"species": [{"element": "Ho", "occu": 1}], "abc": [0.14855000000000002, 0.14855000000000002, 0.554349], "properties": {"magmom": -0.42}, "label": "Ho", "xyz": [-2.462166537831, -1.4215325784659996, -6.641571662301]}, {"species": [{"element": "Co", "occu": 1}], "abc": [0.5, 0.5, 0.5], "properties": {"magmom": 1.174}, "label": "Co", "xyz": [-4.924338, -2.8430679999999997, -5.9904245]}, {"species": [{"element": "Co", "occu": 1}], "abc": [0.721557, 0.721557, 0.835329], "properties": {"magmom": 1.172}, "label": "Co", "xyz": [-7.386507, -4.264601999999999, -10.007950614320999]}, {"species": [{"element": "Co", "occu": 1}], "abc": [0.278443, 0.278443, 0.164670999999999], "properties": {"magmom": 1.172}, "label": "Co", "xyz": [-2.4621689999999976, -1.4215339999999983, -1.9728983856789881]}, {"species": [{"element": "Co", "occu": 1}], "abc": [0.611397, 0.611397, 0.165808999999999], "properties": {"magmom": 1.24}, "label": "Co", "xyz": [-4.924337999999997, -2.8430679999999984, -1.986532591840988]}, {"species": [{"element": "Co", "occu": 1}], "abc": [0.388603, 0.388603, 0.834191], "properties": {"magmom": 1.24}, "label": "Co", "xyz": [-4.924338, -2.843067999999999, -9.994316408159]}, {"species": [{"element": "Co", "occu": 1}], "abc": [0.0, 0.5, 0.0], "properties": {"magmom": -0.93}, "label": "Co", "xyz": [-2.462169, 0.0, 0.0]}, {"species": [{"element": "Co", "occu": 1}], "abc": [0.5, 0.0, 0.0], "properties": {"magmom": -0.93}, "label": "Co", "xyz": [-1.2310845, -2.132301, 0.0]}, {"species": [{"element": "Co", "occu": 1}], "abc": [0.5, 0.5, 0.0], "properties": {"magmom": -0.93}, "label": "Co", "xyz": [-3.6932535, -2.132301, 0.0]}, {"species": [{"element": "Co", "occu": 1}], "abc": [0.390325, 0.390325, 0.328455999999999], "properties": {"magmom": 1.195}, "label": "Co", "xyz": [-3.691852525838997, -2.131492147153998, -3.9351817391439883]}, {"species": [{"element": "Co", "occu": 1}], "abc": [0.890892999999999, 0.390325, 0.328455999999999], "properties": {"magmom": 1.195}, "label": "Co", "xyz": [-4.924335537830995, -4.266215441089994, -3.9351817391439883]}, {"species": [{"element": "Co", "occu": 1}], "abc": [0.390325, 0.890892999999999, 0.328455999999999], "properties": {"magmom": 1.195}, "label": "Co", "xyz": [-6.156818549822993, -2.131492147153998, -3.9351817391439883]}, {"species": [{"element": "Co", "occu": 1}], "abc": [0.609675, 0.609675, 0.671543999999999], "properties": {"magmom": 1.195}, "label": "Co", "xyz": [-6.156823474160997, -3.554643852845998, -8.045667260855987]}, {"species": [{"element": "Co", "occu": 1}], "abc": [0.109107, 0.609675, 0.671543999999999], "properties": {"magmom": 1.195}, "label": "Co", "xyz": [-4.924340462168997, -1.419920558909998, -8.045667260855987]}, {"species": [{"element": "Co", "occu": 1}], "abc": [0.609675, 0.109107, 0.671543999999999], "properties": {"magmom": 1.195}, "label": "Co", "xyz": [-3.6918574501769967, -3.554643852845998, -8.045667260855987]}]}, "task_ids": null, "uncorrected_energy_per_atom": null, "energy_per_atom": -6.675480688888888, "formation_energy_per_atom": -0.10556113666666501, "energy_above_hull": 0.045915288030302, "is_stable": false, "equilibrium_reaction_energy_per_atom": null, "decomposes_to": null, "xas": null, "grain_boundaries": null, "band_gap": 0.0, "cbm": null, "vbm": null, "efermi": 4.70439277, "is_gap_direct": null, "is_metal": null, "es_source_calc_id": null, "bandstructure": null, "dos": null, "dos_energy_up": null, "dos_energy_down": null, "is_magnetic": null, "ordering": null, "total_magnetization": 9.1183099, "total_magnetization_normalized_vol": null, "total_magnetization_normalized_formula_units": null, "num_magnetic_sites": null, "num_unique_magnetic_sites": null, "types_of_magnetic_species": null, "bulk_modulus": null, "shear_modulus": null, "universal_anisotropy": null, "homogeneous_poisson": null, "e_total": null, "e_ionic": null, "e_electronic": null, "n": null, "e_ij_max": null, "weighted_surface_energy_EV_PER_ANG2": null, "weighted_surface_energy": null, "weighted_work_function": null, "surface_anisotropy": null, "shape_factor": null, "has_reconstructed": null, "possible_species": null, "has_props": null, "theoretical": null, "database_IDs": null, "fields_not_requested": ["builder_meta", "nsites", "elements", "nelements", "composition", "composition_reduced", "chemsys", "symmetry", "property_name", "deprecated", "deprecation_reasons", "last_updated", "origins", "warnings", "task_ids", "uncorrected_energy_per_atom", "equilibrium_reaction_energy_per_atom", "decomposes_to", "xas", "grain_boundaries", "cbm", "vbm", "is_gap_direct", "is_metal", "es_source_calc_id", "bandstructure", "dos", "dos_energy_up", "dos_energy_down", "is_magnetic", "ordering", "total_magnetization_normalized_vol", "total_magnetization_normalized_formula_units", "num_magnetic_sites", "num_unique_magnetic_sites", "types_of_magnetic_species", "bulk_modulus", "shear_modulus", "universal_anisotropy", "homogeneous_poisson", "e_total", "e_ionic", "e_electronic", "n", "e_ij_max", "weighted_surface_energy_EV_PER_ANG2", "weighted_surface_energy", "weighted_work_function", "surface_anisotropy", "shape_factor", "has_reconstructed", "possible_species", "has_props", "theoretical", "database_IDs"]}