{"builder_meta": null, "nsites": null, "elements": null, "nelements": null, "composition": null, "composition_reduced": null, "formula_pretty": "Ho2C3", "formula_anonymous": "A2B3", "chemsys": null, "volume": 271.6684421200765, "density": 8.945892783332832, "density_atomic": 13.583422106003827, "symmetry": null, "property_name": null, "material_id": "mp-2332", "deprecated": null, "deprecation_reasons": null, "last_updated": null, "origins": null, "warnings": null, "structure": {"@module": "pymatgen.core.structure", "@class": "Structure", "charge": 0, "lattice": {"matrix": [[6.66260549, 0.0, -2.35558753], [-3.33130274, 5.76998545, -2.35558753], [-1e-08, -1e-08, 7.06676056]], "pbc": [true, true, true], "a": 7.066760539799664, "b": 7.066760407020653, "c": 7.06676056, "alpha": 109.47122692175441, "beta": 109.47122659253988, "gamma": 109.47121509759536, "volume": 271.6684421200765}, "properties": {}, "sites": [{"species": [{"element": "Ho", "occu": 1}], "abc": [0.09974058, 0.09974058, 0.09974058], "properties": {"magmom": 0.0}, "label": "Ho", "xyz": [0.33226606744318915, 0.5755016943771551, 0.23494746400958993]}, {"species": [{"element": "Ho", "occu": 1}], "abc": [0.9002604200000001, 0.5, -0.0], "properties": {"magmom": 0.0}, "label": "Ho", "xyz": [4.332428646721706, 2.884992725, -3.298435984104563]}, {"species": [{"element": "Ho", "occu": 1}], "abc": [0.0, 0.9002604200000001, 0.5], "properties": {"magmom": 0.0}, "label": "Ho", "xyz": [-2.999040008859551, 5.194489519610889, 1.4127380608954367]}, {"species": [{"element": "Ho", "occu": 1}], "abc": [0.5, -0.0, 0.9002604200000001], "properties": {"magmom": 0.0}, "label": "Ho", "xyz": [3.331302735997396, -9.002604200000001e-09, 5.184131064785035]}, {"species": [{"element": "Ho", "occu": 1}], "abc": [0.0, 0.40025942000000003, 0.5], "properties": {"magmom": 0.0}, "label": "Ho", "xyz": [-1.333385307556811, 2.3094910246254394, 2.590534181482967]}, {"species": [{"element": "Ho", "occu": 1}], "abc": [0.5, -0.0, 0.40025942000000003], "properties": {"magmom": 0.0}, "label": "Ho", "xyz": [3.3313027409974056, -4.0025942e-09, 1.6507437180244753]}, {"species": [{"element": "Ho", "occu": 1}], "abc": [0.40025942000000003, 0.5, -0.0], "properties": {"magmom": 0.0}, "label": "Ho", "xyz": [1.0011192391162158, 2.884992725, -2.1206398635170327]}, {"species": [{"element": "Ho", "occu": 1}], "abc": [0.59973958, 0.59973958, 0.59973958], "properties": {"magmom": 0.0}, "label": "Ho", "xyz": [1.9979141061404495, 3.4604886443917153, 1.41273785842409]}, {"species": [{"element": "C", "occu": 1}], "abc": [0.25, 0.54319546, 0.29319546], "properties": {"magmom": -0.0}, "label": "C", "xyz": [-0.14389715468551492, 3.134229897774102, 0.2035007786704437]}, {"species": [{"element": "C", "occu": 1}], "abc": [0.45680454000000004, 0.25, 0.70680454], "properties": {"magmom": -0.0}, "label": "C", "xyz": [2.2106827439928796, 1.4424963554319545, 3.329878486329556]}, {"species": [{"element": "C", "occu": 1}], "abc": [0.04319546, 0.75, 0.79319546], "properties": {"magmom": -0.0}, "label": "C", "xyz": [-2.210682753992879, 4.327489079568045, 3.7368810586704435]}, {"species": [{"element": "C", "occu": 1}], "abc": [0.79319546, 0.04319546, 0.75], "properties": {"magmom": -0.0}, "label": "C", "xyz": [5.140851264685515, 0.24923716820605699, 3.329878398642772]}, {"species": [{"element": "C", "occu": 1}], "abc": [0.70680454, 0.45680454000000004, 0.25], "properties": {"magmom": -0.0}, "label": "C", "xyz": [3.1874055903144844, 2.635755546793943, -0.9742928986427726]}, {"species": [{"element": "C", "occu": 1}], "abc": [0.25, 0.70680454, 0.45680454000000004], "properties": {"magmom": -0.0}, "label": "C", "xyz": [-0.6889285328144853, 4.078251907225898, 0.9742914638295557]}, {"species": [{"element": "C", "occu": 1}], "abc": [0.95680454, 0.20680454, 0.75], "properties": {"magmom": -0.0}, "label": "C", "xyz": [5.6858826428144855, 1.193259179293943, 2.559087381357227]}, {"species": [{"element": "C", "occu": 1}], "abc": [0.20680454, 0.75, 0.95680454], "properties": {"magmom": -0.0}, "label": "C", "xyz": [-1.1206200010071208, 4.327489077931955, 4.5076717438295555]}, {"species": [{"element": "C", "occu": 1}], "abc": [0.54319546, 0.29319546, 0.25], "properties": {"magmom": -0.0}, "label": "C", "xyz": [2.6423742121855143, 1.6917335357060572, -0.20350188135722802]}, {"species": [{"element": "C", "occu": 1}], "abc": [0.29319546, 0.25, 0.54319546], "properties": {"magmom": -0.0}, "label": "C", "xyz": [1.1206199910071208, 1.4424963570680454, 2.559087801170443]}, {"species": [{"element": "C", "occu": 1}], "abc": [0.75, 0.95680454, 0.20680454], "properties": {"magmom": -0.0}, "label": "C", "xyz": [1.8095485296855145, 5.520748272225898, -2.5590893236704444]}, {"species": [{"element": "C", "occu": 1}], "abc": [0.75, 0.79319546, 0.04319546], "properties": {"magmom": -0.0}, "label": "C", "xyz": [2.354579907814485, 4.576726262774102, -3.329880008829557]}]}, "task_ids": null, "uncorrected_energy_per_atom": null, "energy_per_atom": -7.636603621499999, "formation_energy_per_atom": -0.260332539999997, "energy_above_hull": 0.048867419759999, "is_stable": false, "equilibrium_reaction_energy_per_atom": null, "decomposes_to": null, "xas": null, "grain_boundaries": null, "band_gap": 0.0, "cbm": null, "vbm": null, "efermi": 5.23093956, "is_gap_direct": null, "is_metal": null, "es_source_calc_id": null, "bandstructure": null, "dos": null, "dos_energy_up": null, "dos_energy_down": null, "is_magnetic": null, "ordering": null, "total_magnetization": 3.1e-06, "total_magnetization_normalized_vol": null, "total_magnetization_normalized_formula_units": null, "num_magnetic_sites": null, "num_unique_magnetic_sites": null, "types_of_magnetic_species": null, "bulk_modulus": null, "shear_modulus": null, "universal_anisotropy": null, "homogeneous_poisson": null, "e_total": null, "e_ionic": null, "e_electronic": null, "n": null, "e_ij_max": null, "weighted_surface_energy_EV_PER_ANG2": null, "weighted_surface_energy": null, "weighted_work_function": null, "surface_anisotropy": null, "shape_factor": null, "has_reconstructed": null, "possible_species": null, "has_props": null, "theoretical": null, "database_IDs": null, "fields_not_requested": ["builder_meta", "nsites", "elements", "nelements", "composition", "composition_reduced", "chemsys", "symmetry", "property_name", "deprecated", "deprecation_reasons", "last_updated", "origins", "warnings", "task_ids", "uncorrected_energy_per_atom", "equilibrium_reaction_energy_per_atom", "decomposes_to", "xas", "grain_boundaries", "cbm", "vbm", "is_gap_direct", "is_metal", "es_source_calc_id", "bandstructure", "dos", "dos_energy_up", "dos_energy_down", "is_magnetic", "ordering", "total_magnetization_normalized_vol", "total_magnetization_normalized_formula_units", "num_magnetic_sites", "num_unique_magnetic_sites", "types_of_magnetic_species", "bulk_modulus", "shear_modulus", "universal_anisotropy", "homogeneous_poisson", "e_total", "e_ionic", "e_electronic", "n", "e_ij_max", "weighted_surface_energy_EV_PER_ANG2", "weighted_surface_energy", "weighted_work_function", "surface_anisotropy", "shape_factor", "has_reconstructed", "possible_species", "has_props", "theoretical", "database_IDs"]}