{"builder_meta": null, "nsites": null, "elements": null, "nelements": null, "composition": null, "composition_reduced": null, "formula_pretty": "Ho2Ge3", "formula_anonymous": "A2B3", "chemsys": null, "volume": 116.79379008265416, "density": 7.78818079286086, "density_atomic": 23.35875801653083, "symmetry": null, "property_name": null, "material_id": "mp-1224077", "deprecated": null, "deprecation_reasons": null, "last_updated": null, "origins": null, "warnings": null, "structure": {"@module": "pymatgen.core.structure", "@class": "Structure", "charge": 0, "lattice": {"matrix": [[-2.195268, -3.807644, 0.0], [-2.194608, 3.807261, 0.0], [0.0, 0.0, -6.98768]], "pbc": [true, true, true], "a": 4.395151240009836, "b": 4.394489799258271, "c": 6.98768, "alpha": 90.0, "beta": 90.0, "gamma": 120.07442098222216, "volume": 116.79379008265416}, "properties": {}, "sites": [{"species": [{"element": "Ho", "occu": 1}], "abc": [0.999807, 0.000188, 0.019443], "properties": {"magmom": 0.0}, "label": "Ho", "xyz": [-2.19525689958, -3.80619335964, -0.13586146223999998]}, {"species": [{"element": "Ho", "occu": 1}], "abc": [0.999807, 0.000188, 0.480556999999999], "properties": {"magmom": 0.0}, "label": "Ho", "xyz": [-2.19525689958, -3.80619335964, -3.357978537759993]}, {"species": [{"element": "Ge", "occu": 1}], "abc": [0.333594, 0.6660739999999991, 0.75], "properties": {"magmom": -0.0}, "label": "Ge", "xyz": [-2.194099562183998, 1.2657103707779964, -5.24076]}, {"species": [{"element": "Ge", "occu": 1}], "abc": [0.666947, 0.332947, 0.25], "properties": {"magmom": -0.0}, "label": "Ge", "xyz": [-2.1948155565720002, -1.2718806147009998, -1.74692]}, {"species": [{"element": "Ge", "occu": 1}], "abc": [0.666343999999999, 0.333904, 0.75], "properties": {"magmom": -0.0}, "label": "Ge", "xyz": [-2.195592049823998, -1.2659410565919964, -5.24076]}]}, "task_ids": null, "uncorrected_energy_per_atom": null, "energy_per_atom": -5.080576424, "formation_energy_per_atom": -0.46768792499999706, "energy_above_hull": 0.260039039333332, "is_stable": false, "equilibrium_reaction_energy_per_atom": null, "decomposes_to": null, "xas": null, "grain_boundaries": null, "band_gap": 0.0, "cbm": null, "vbm": null, "efermi": 3.44803304, "is_gap_direct": null, "is_metal": null, "es_source_calc_id": null, "bandstructure": null, "dos": null, "dos_energy_up": null, "dos_energy_down": null, "is_magnetic": null, "ordering": null, "total_magnetization": 0.002953099999999, "total_magnetization_normalized_vol": null, "total_magnetization_normalized_formula_units": null, "num_magnetic_sites": null, "num_unique_magnetic_sites": null, "types_of_magnetic_species": null, "bulk_modulus": null, "shear_modulus": null, "universal_anisotropy": null, "homogeneous_poisson": null, "e_total": null, "e_ionic": null, "e_electronic": null, "n": null, "e_ij_max": null, "weighted_surface_energy_EV_PER_ANG2": null, "weighted_surface_energy": null, "weighted_work_function": null, "surface_anisotropy": null, "shape_factor": null, "has_reconstructed": null, "possible_species": null, "has_props": null, "theoretical": null, "database_IDs": null, "fields_not_requested": ["builder_meta", "nsites", "elements", "nelements", "composition", "composition_reduced", "chemsys", "symmetry", "property_name", "deprecated", "deprecation_reasons", "last_updated", "origins", "warnings", "task_ids", "uncorrected_energy_per_atom", "equilibrium_reaction_energy_per_atom", "decomposes_to", "xas", "grain_boundaries", "cbm", "vbm", "is_gap_direct", "is_metal", "es_source_calc_id", "bandstructure", "dos", "dos_energy_up", "dos_energy_down", "is_magnetic", "ordering", "total_magnetization_normalized_vol", "total_magnetization_normalized_formula_units", "num_magnetic_sites", "num_unique_magnetic_sites", "types_of_magnetic_species", "bulk_modulus", "shear_modulus", "universal_anisotropy", "homogeneous_poisson", "e_total", "e_ionic", "e_electronic", "n", "e_ij_max", "weighted_surface_energy_EV_PER_ANG2", "weighted_surface_energy", "weighted_work_function", "surface_anisotropy", "shape_factor", "has_reconstructed", "possible_species", "has_props", "theoretical", "database_IDs"]}