{
  "builder_meta": null,
  "nsites": null,
  "elements": null,
  "nelements": null,
  "composition": null,
  "composition_reduced": null,
  "formula_pretty": "Ho2In",
  "formula_anonymous": "AB2",
  "chemsys": null,
  "volume": 164.81971824713037,
  "density": 8.960168863963137,
  "density_atomic": 27.469953041188393,
  "symmetry": null,
  "property_name": null,
  "material_id": "mp-20686",
  "deprecated": null,
  "deprecation_reasons": null,
  "last_updated": null,
  "origins": null,
  "warnings": null,
  "structure": {
    "@module": "pymatgen.core.structure",
    "@class": "Structure",
    "charge": 0,
    "lattice": {
      "matrix": [
        [5.33523245, -1e-8, -0.0],
        [-2.667616729999999, 4.62044722, 0.0],
        [-0.0, -0.0, 6.68608369]
      ],
      "pbc": [true, true, true],
      "a": 5.33523245,
      "b": 5.335233034365192,
      "c": 6.68608369,
      "alpha": 90.0,
      "beta": 90.0,
      "gamma": 120.00000274643,
      "volume": 164.81971824713037
    },
    "properties": {},
    "sites": [
      {
        "species": [{ "element": "Ho", "occu": 1 }],
        "abc": [0.333333, 0.666667, 0.75],
        "properties": { "magmom": 0.289 },
        "label": "Ho",
        "xyz": [-3.004283059215851e-6, 3.08029968348241, 5.0145627675]
      },
      {
        "species": [{ "element": "Ho", "occu": 1 }],
        "abc": [0.666667, 0.333333, 0.25],
        "properties": { "magmom": 0.289 },
        "label": "Ho",
        "xyz": [2.6676187242830607, 1.54014752651759, 1.6715209225]
      },
      {
        "species": [{ "element": "Ho", "occu": 1 }],
        "abc": [0.0, 0.0, 0.5],
        "properties": { "magmom": 0.37 },
        "label": "Ho",
        "xyz": [0.0, 0.0, 3.343041845]
      },
      {
        "species": [{ "element": "Ho", "occu": 1 }],
        "abc": [0.0, 0.0, -0.0],
        "properties": { "magmom": 0.37 },
        "label": "Ho",
        "xyz": [0.0, 0.0, 0.0]
      },
      {
        "species": [{ "element": "In", "occu": 1 }],
        "abc": [0.666667, 0.333333, 0.75],
        "properties": { "magmom": -0.042 },
        "label": "In",
        "xyz": [2.6676187242830607, 1.54014752651759, 5.0145627675]
      },
      {
        "species": [{ "element": "In", "occu": 1 }],
        "abc": [0.333333, 0.666667, 0.25],
        "properties": { "magmom": -0.042 },
        "label": "In",
        "xyz": [-3.004283059215851e-6, 3.08029968348241, 1.6715209225]
      }
    ]
  },
  "task_ids": null,
  "uncorrected_energy_per_atom": null,
  "energy_per_atom": -4.317676019999998,
  "formation_energy_per_atom": -0.33283179555554904,
  "energy_above_hull": 0.0,
  "is_stable": true,
  "equilibrium_reaction_energy_per_atom": null,
  "decomposes_to": null,
  "xas": null,
  "grain_boundaries": null,
  "band_gap": 0.0,
  "cbm": null,
  "vbm": null,
  "efermi": 4.73141716,
  "is_gap_direct": null,
  "is_metal": null,
  "es_source_calc_id": null,
  "bandstructure": null,
  "dos": null,
  "dos_energy_up": null,
  "dos_energy_down": null,
  "is_magnetic": null,
  "ordering": null,
  "total_magnetization": 1.5856057,
  "total_magnetization_normalized_vol": null,
  "total_magnetization_normalized_formula_units": null,
  "num_magnetic_sites": null,
  "num_unique_magnetic_sites": null,
  "types_of_magnetic_species": null,
  "bulk_modulus": null,
  "shear_modulus": null,
  "universal_anisotropy": null,
  "homogeneous_poisson": null,
  "e_total": null,
  "e_ionic": null,
  "e_electronic": null,
  "n": null,
  "e_ij_max": null,
  "weighted_surface_energy_EV_PER_ANG2": null,
  "weighted_surface_energy": null,
  "weighted_work_function": null,
  "surface_anisotropy": null,
  "shape_factor": null,
  "has_reconstructed": null,
  "possible_species": null,
  "has_props": null,
  "theoretical": null,
  "database_IDs": null,
  "fields_not_requested": [
    "builder_meta",
    "nsites",
    "elements",
    "nelements",
    "composition",
    "composition_reduced",
    "chemsys",
    "symmetry",
    "property_name",
    "deprecated",
    "deprecation_reasons",
    "last_updated",
    "origins",
    "warnings",
    "task_ids",
    "uncorrected_energy_per_atom",
    "equilibrium_reaction_energy_per_atom",
    "decomposes_to",
    "xas",
    "grain_boundaries",
    "cbm",
    "vbm",
    "is_gap_direct",
    "is_metal",
    "es_source_calc_id",
    "bandstructure",
    "dos",
    "dos_energy_up",
    "dos_energy_down",
    "is_magnetic",
    "ordering",
    "total_magnetization_normalized_vol",
    "total_magnetization_normalized_formula_units",
    "num_magnetic_sites",
    "num_unique_magnetic_sites",
    "types_of_magnetic_species",
    "bulk_modulus",
    "shear_modulus",
    "universal_anisotropy",
    "homogeneous_poisson",
    "e_total",
    "e_ionic",
    "e_electronic",
    "n",
    "e_ij_max",
    "weighted_surface_energy_EV_PER_ANG2",
    "weighted_surface_energy",
    "weighted_work_function",
    "surface_anisotropy",
    "shape_factor",
    "has_reconstructed",
    "possible_species",
    "has_props",
    "theoretical",
    "database_IDs"
  ]
}
