{
  "builder_meta": null,
  "nsites": null,
  "elements": null,
  "nelements": null,
  "composition": null,
  "composition_reduced": null,
  "formula_pretty": "Ho2Mg",
  "formula_anonymous": "AB2",
  "chemsys": null,
  "volume": 169.37374465234066,
  "density": 6.944475160238647,
  "density_atomic": 28.228957442056778,
  "symmetry": null,
  "property_name": null,
  "material_id": "mp-863701",
  "deprecated": null,
  "deprecation_reasons": null,
  "last_updated": null,
  "origins": null,
  "warnings": null,
  "structure": {
    "@module": "pymatgen.core.structure",
    "@class": "Structure",
    "charge": 0,
    "lattice": {
      "matrix": [
        [3.66852276, 0.0, 0.0],
        [1.83426189, 8.53640447, 0.0],
        [0.0, 0.0, 5.40853802]
      ],
      "pbc": [true, true, true],
      "a": 3.66852276,
      "b": 8.731249507174924,
      "c": 5.40853802,
      "alpha": 90.0,
      "beta": 90.0,
      "gamma": 77.87295284269614,
      "volume": 169.37374465234066
    },
    "properties": {},
    "sites": [
      {
        "species": [{ "element": "Ho", "occu": 1 }],
        "abc": [0.9805689400000001, 0.03886212, -0.0],
        "properties": { "magmom": -0.0 },
        "label": "Ho",
        "xyz": [3.6685227798196816, 0.3317427748816764, 0.0]
      },
      {
        "species": [{ "element": "Ho", "occu": 1 }],
        "abc": [0.66175227, 0.67649746, -0.0],
        "properties": { "magmom": 0.0 },
        "label": "Ho",
        "xyz": [3.6685267735364646, 5.774855941487647, 0.0]
      },
      {
        "species": [{ "element": "Ho", "occu": 1 }],
        "abc": [0.79721006, 0.40558188, 0.5],
        "properties": { "magmom": -0.0 },
        "label": "Ho",
        "xyz": [3.668526635369519, 3.4622109733830038, 2.70426901]
      },
      {
        "species": [{ "element": "Ho", "occu": 1 }],
        "abc": [0.11602573000000001, 0.76794754, 0.5],
        "properties": { "magmom": 0.0 },
        "label": "Ho",
        "xyz": [1.8342599373918653, 6.555510813181504, 2.70426901]
      },
      {
        "species": [{ "element": "Mg", "occu": 1 }],
        "abc": [0.32242829, 0.35514442, -0.0],
        "properties": { "magmom": 0.0 },
        "label": "Mg",
        "xyz": [1.8342633953850342, 3.031656414383558, 0.0]
      },
      {
        "species": [{ "element": "Mg", "occu": 1 }],
        "abc": [0.45534971, 0.08929958, 0.5],
        "properties": { "magmom": 0.0 },
        "label": "Mg",
        "xyz": [1.834259591281406, 0.7622973338811228, 2.70426901]
      }
    ]
  },
  "task_ids": null,
  "uncorrected_energy_per_atom": null,
  "energy_per_atom": -3.633672294999999,
  "formation_energy_per_atom": -0.025062646666661,
  "energy_above_hull": 0.008869503333337001,
  "is_stable": false,
  "equilibrium_reaction_energy_per_atom": null,
  "decomposes_to": null,
  "xas": null,
  "grain_boundaries": null,
  "band_gap": 0.0,
  "cbm": null,
  "vbm": null,
  "efermi": 3.03169052,
  "is_gap_direct": null,
  "is_metal": null,
  "es_source_calc_id": null,
  "bandstructure": null,
  "dos": null,
  "dos_energy_up": null,
  "dos_energy_down": null,
  "is_magnetic": null,
  "ordering": null,
  "total_magnetization": 0.0,
  "total_magnetization_normalized_vol": null,
  "total_magnetization_normalized_formula_units": null,
  "num_magnetic_sites": null,
  "num_unique_magnetic_sites": null,
  "types_of_magnetic_species": null,
  "bulk_modulus": null,
  "shear_modulus": null,
  "universal_anisotropy": null,
  "homogeneous_poisson": null,
  "e_total": null,
  "e_ionic": null,
  "e_electronic": null,
  "n": null,
  "e_ij_max": null,
  "weighted_surface_energy_EV_PER_ANG2": null,
  "weighted_surface_energy": null,
  "weighted_work_function": null,
  "surface_anisotropy": null,
  "shape_factor": null,
  "has_reconstructed": null,
  "possible_species": null,
  "has_props": null,
  "theoretical": null,
  "database_IDs": null,
  "fields_not_requested": [
    "builder_meta",
    "nsites",
    "elements",
    "nelements",
    "composition",
    "composition_reduced",
    "chemsys",
    "symmetry",
    "property_name",
    "deprecated",
    "deprecation_reasons",
    "last_updated",
    "origins",
    "warnings",
    "task_ids",
    "uncorrected_energy_per_atom",
    "equilibrium_reaction_energy_per_atom",
    "decomposes_to",
    "xas",
    "grain_boundaries",
    "cbm",
    "vbm",
    "is_gap_direct",
    "is_metal",
    "es_source_calc_id",
    "bandstructure",
    "dos",
    "dos_energy_up",
    "dos_energy_down",
    "is_magnetic",
    "ordering",
    "total_magnetization_normalized_vol",
    "total_magnetization_normalized_formula_units",
    "num_magnetic_sites",
    "num_unique_magnetic_sites",
    "types_of_magnetic_species",
    "bulk_modulus",
    "shear_modulus",
    "universal_anisotropy",
    "homogeneous_poisson",
    "e_total",
    "e_ionic",
    "e_electronic",
    "n",
    "e_ij_max",
    "weighted_surface_energy_EV_PER_ANG2",
    "weighted_surface_energy",
    "weighted_work_function",
    "surface_anisotropy",
    "shape_factor",
    "has_reconstructed",
    "possible_species",
    "has_props",
    "theoretical",
    "database_IDs"
  ]
}
