{"builder_meta": null, "nsites": null, "elements": null, "nelements": null, "composition": null, "composition_reduced": null, "formula_pretty": "Ho2Ni7", "formula_anonymous": "A2B7", "chemsys": null, "volume": 251.97088862099943, "density": 9.762915641138344, "density_atomic": 13.998382701166635, "symmetry": null, "property_name": null, "material_id": "mp-1190300", "deprecated": null, "deprecation_reasons": null, "last_updated": null, "origins": null, "warnings": null, "structure": {"@module": "pymatgen.core.structure", "@class": "Structure", "charge": 0, "lattice": {"matrix": [[-2.461789, -4.263944, 0.0], [-4.923579, 0.0, 0.0], [-2.461789, -1.421314999999999, -12.00212]], "pbc": [true, true, true], "a": 4.923578324314239, "b": 4.923579, "c": 12.33415687852826, "alpha": 78.48694627108296, "beta": 78.48694464632162, "gamma": 60.0000021789495, "volume": 251.97088862099943}, "properties": {}, "sites": [{"species": [{"element": "Ho", "occu": 1}], "abc": [0.9483959999999991, 0.9483959999999991, 0.154811], "properties": {"magmom": 0.063}, "label": "Ho", "xyz": [-7.385365486606994, -4.263942630288997, -1.85806019932]}, {"species": [{"element": "Ho", "occu": 1}], "abc": [0.051604, 0.051604, 0.845189], "properties": {"magmom": 0.063}, "label": "Ho", "xyz": [-2.461791513393, -1.4213163697109992, -10.14405980068]}, {"species": [{"element": "Ho", "occu": 1}], "abc": [0.851958, 0.851958, 0.444125999999999], "properties": {"magmom": 0.049}, "label": "Ho", "xyz": [-7.385367851957997, -4.263944148041999, -5.330453547119988]}, {"species": [{"element": "Ho", "occu": 1}], "abc": [0.148042, 0.148042, 0.555874], "properties": {"magmom": 0.049}, "label": "Ho", "xyz": [-2.4617891480420004, -1.4213148519579994, -6.671666452879999]}, {"species": [{"element": "Ni", "occu": 1}], "abc": [0.5, 0.5, 0.5], "properties": {"magmom": -0.101}, "label": "Ni", "xyz": [-4.9235785, -2.8426294999999997, -6.00106]}, {"species": [{"element": "Ni", "occu": 1}], "abc": [0.721920999999999, 0.721920999999999, 0.834237999999999], "properties": {"magmom": -0.218}, "label": "Ni", "xyz": [-7.385370183709991, -4.263945699393994, -10.012624584559989]}, {"species": [{"element": "Ni", "occu": 1}], "abc": [0.278078999999999, 0.278078999999999, 0.165762], "properties": {"magmom": -0.218}, "label": "Ni", "xyz": [-2.461786816289993, -1.421313300605996, -1.9894954154399997]}, {"species": [{"element": "Ni", "occu": 1}], "abc": [0.611304, 0.611304, 0.16608799999999901], "properties": {"magmom": -0.23500000000000001}, "label": "Ni", "xyz": [-4.923578611303997, -2.8426293886959986, -1.993408106559988]}, {"species": [{"element": "Ni", "occu": 1}], "abc": [0.388696, 0.388696, 0.833912], "properties": {"magmom": -0.23500000000000001}, "label": "Ni", "xyz": [-4.923578388696001, -2.842629611303999, -10.00871189344]}, {"species": [{"element": "Ni", "occu": 1}], "abc": [0.0, 0.5, 0.0], "properties": {"magmom": -0.341}, "label": "Ni", "xyz": [-2.4617895, 0.0, 0.0]}, {"species": [{"element": "Ni", "occu": 1}], "abc": [0.5, 0.0, 0.0], "properties": {"magmom": -0.341}, "label": "Ni", "xyz": [-1.2308945, -2.131972, 0.0]}, {"species": [{"element": "Ni", "occu": 1}], "abc": [0.5, 0.5, 0.0], "properties": {"magmom": -0.341}, "label": "Ni", "xyz": [-3.692684, -2.131972, 0.0]}, {"species": [{"element": "Ni", "occu": 1}], "abc": [0.389040999999999, 0.389040999999999, 0.330439], "properties": {"magmom": -0.17}, "label": "Ni", "xyz": [-3.6866820474589925, -2.1285069449889957, -3.9659685306799997]}, {"species": [{"element": "Ni", "occu": 1}], "abc": [0.89148, 0.389040999999999, 0.330439], "properties": {"magmom": -0.17}, "label": "Ni", "xyz": [-4.923580850829995, -4.270878704405, -3.9659685306799997]}, {"species": [{"element": "Ni", "occu": 1}], "abc": [0.389040999999999, 0.89148, 0.330439], "properties": {"magmom": -0.17}, "label": "Ni", "xyz": [-6.160480156639998, -2.1285069449889957, -3.9659685306799997]}, {"species": [{"element": "Ni", "occu": 1}], "abc": [0.610958999999999, 0.610958999999999, 0.669561], "properties": {"magmom": -0.17}, "label": "Ni", "xyz": [-6.1604749525409925, -3.5567520550109952, -8.03615146932]}, {"species": [{"element": "Ni", "occu": 1}], "abc": [0.10852, 0.610958999999999, 0.669561], "properties": {"magmom": -0.17}, "label": "Ni", "xyz": [-4.923576149169995, -1.4143802955949993, -8.03615146932]}, {"species": [{"element": "Ni", "occu": 1}], "abc": [0.610958999999999, 0.10852, 0.669561], "properties": {"magmom": -0.17}, "label": "Ni", "xyz": [-3.6866768433599972, -3.5567520550109952, -8.03615146932]}]}, "task_ids": null, "uncorrected_energy_per_atom": null, "energy_per_atom": -5.914537316111112, "formation_energy_per_atom": -0.39716890611110806, "energy_above_hull": 0.0, "is_stable": true, "equilibrium_reaction_energy_per_atom": null, "decomposes_to": null, "xas": null, "grain_boundaries": null, "band_gap": 0.0, "cbm": null, "vbm": null, "efermi": 6.23341251, "is_gap_direct": null, "is_metal": null, "es_source_calc_id": null, "bandstructure": null, "dos": null, "dos_energy_up": null, "dos_energy_down": null, "is_magnetic": null, "ordering": null, "total_magnetization": 2.6365413, "total_magnetization_normalized_vol": null, "total_magnetization_normalized_formula_units": null, "num_magnetic_sites": null, "num_unique_magnetic_sites": null, "types_of_magnetic_species": null, "bulk_modulus": null, "shear_modulus": null, "universal_anisotropy": null, "homogeneous_poisson": null, "e_total": null, "e_ionic": null, "e_electronic": null, "n": null, "e_ij_max": null, "weighted_surface_energy_EV_PER_ANG2": null, "weighted_surface_energy": null, "weighted_work_function": null, "surface_anisotropy": null, "shape_factor": null, "has_reconstructed": null, "possible_species": null, "has_props": null, "theoretical": null, "database_IDs": null, "fields_not_requested": ["builder_meta", "nsites", "elements", "nelements", "composition", "composition_reduced", "chemsys", "symmetry", "property_name", "deprecated", "deprecation_reasons", "last_updated", "origins", "warnings", "task_ids", "uncorrected_energy_per_atom", "equilibrium_reaction_energy_per_atom", "decomposes_to", "xas", "grain_boundaries", "cbm", "vbm", "is_gap_direct", "is_metal", "es_source_calc_id", "bandstructure", "dos", "dos_energy_up", "dos_energy_down", "is_magnetic", "ordering", "total_magnetization_normalized_vol", "total_magnetization_normalized_formula_units", "num_magnetic_sites", "num_unique_magnetic_sites", "types_of_magnetic_species", "bulk_modulus", "shear_modulus", "universal_anisotropy", "homogeneous_poisson", "e_total", "e_ionic", "e_electronic", "n", "e_ij_max", "weighted_surface_energy_EV_PER_ANG2", "weighted_surface_energy", "weighted_work_function", "surface_anisotropy", "shape_factor", "has_reconstructed", "possible_species", "has_props", "theoretical", "database_IDs"]}