{
  "builder_meta": null,
  "nsites": null,
  "elements": null,
  "nelements": null,
  "composition": null,
  "composition_reduced": null,
  "formula_pretty": "Ho2N3",
  "formula_anonymous": "A2B3",
  "chemsys": null,
  "volume": 649.556134489356,
  "density": 7.605470432470975,
  "density_atomic": 16.238903362233902,
  "symmetry": null,
  "property_name": null,
  "material_id": "mp-1201150",
  "deprecated": null,
  "deprecation_reasons": null,
  "last_updated": null,
  "origins": null,
  "warnings": null,
  "structure": {
    "@module": "pymatgen.core.structure",
    "@class": "Structure",
    "charge": 0,
    "lattice": {
      "matrix": [
        [-5.455722, 5.455722, 5.455722],
        [5.455722, -5.455722, 5.455722],
        [5.455722, 5.455722, -5.455722]
      ],
      "pbc": [true, true, true],
      "a": 9.44958769597129,
      "b": 9.44958769597129,
      "c": 9.44958769597129,
      "alpha": 109.47122063449069,
      "beta": 109.47122063449069,
      "gamma": 109.47122063449069,
      "volume": 649.556134489356
    },
    "properties": {},
    "sites": [
      {
        "species": [{ "element": "Ho", "occu": 1 }],
        "abc": [0.7801669999999991, 0.25, 0.030167],
        "properties": { "magmom": 0.14300000000000002 },
        "label": "Ho",
        "xyz": [-2.727860999999995, 3.057026531147995, 5.455721999999994]
      },
      {
        "species": [{ "element": "Ho", "occu": 1 }],
        "abc": [0.719833, 0.75, 0.469833],
        "properties": { "magmom": 0.14300000000000002 },
        "label": "Ho",
        "xyz": [2.727861, 2.398695468852, 5.455721999999999]
      },
      {
        "species": [{ "element": "Ho", "occu": 1 }],
        "abc": [0.25, 0.030167, 0.7801669999999991],
        "properties": { "magmom": 0.14300000000000002 },
        "label": "Ho",
        "xyz": [3.057026531147995, 5.455721999999994, -2.727860999999995]
      },
      {
        "species": [{ "element": "Ho", "occu": 1 }],
        "abc": [0.75, 0.469833, 0.719833],
        "properties": { "magmom": 0.14300000000000002 },
        "label": "Ho",
        "xyz": [2.398695468852, 5.455721999999999, 2.727861]
      },
      {
        "species": [{ "element": "Ho", "occu": 1 }],
        "abc": [0.030167, 0.7801669999999991, 0.25],
        "properties": { "magmom": 0.14300000000000002 },
        "label": "Ho",
        "xyz": [5.455721999999994, -2.727860999999995, 3.057026531147995]
      },
      {
        "species": [{ "element": "Ho", "occu": 1 }],
        "abc": [0.469833, 0.719833, 0.75],
        "properties": { "magmom": 0.14300000000000002 },
        "label": "Ho",
        "xyz": [5.455721999999999, 2.727861, 2.398695468852]
      },
      {
        "species": [{ "element": "Ho", "occu": 1 }],
        "abc": [0.219833, 0.75, 0.969833],
        "properties": { "magmom": 0.14300000000000002 },
        "label": "Ho",
        "xyz": [8.183582999999999, 2.3986954688520004, 0.0]
      },
      {
        "species": [{ "element": "Ho", "occu": 1 }],
        "abc": [0.280167, 0.25, 0.5301669999999991],
        "properties": { "magmom": 0.14300000000000002 },
        "label": "Ho",
        "xyz": [2.7278609999999945, 3.0570265311479945, 5.329070518200751e-15]
      },
      {
        "species": [{ "element": "Ho", "occu": 1 }],
        "abc": [0.75, 0.969833, 0.219833],
        "properties": { "magmom": 0.14300000000000002 },
        "label": "Ho",
        "xyz": [2.3986954688520004, -4.440892098500626e-16, 8.183582999999999]
      },
      {
        "species": [{ "element": "Ho", "occu": 1 }],
        "abc": [0.25, 0.5301669999999991, 0.280167],
        "properties": { "magmom": 0.14300000000000002 },
        "label": "Ho",
        "xyz": [3.0570265311479945, 5.329070518200751e-15, 2.727860999999994]
      },
      {
        "species": [{ "element": "Ho", "occu": 1 }],
        "abc": [0.969833, 0.219833, 0.75],
        "properties": { "magmom": 0.14300000000000002 },
        "label": "Ho",
        "xyz": [0.0, 8.183582999999999, 2.398695468852001]
      },
      {
        "species": [{ "element": "Ho", "occu": 1 }],
        "abc": [0.5301669999999991, 0.280167, 0.25],
        "properties": { "magmom": 0.14300000000000002 },
        "label": "Ho",
        "xyz": [5.329070518200751e-15, 2.7278609999999945, 3.057026531147994]
      },
      {
        "species": [{ "element": "Ho", "occu": 1 }],
        "abc": [0.5, 0.0, 0.5],
        "properties": { "magmom": 0.131 },
        "label": "Ho",
        "xyz": [0.0, 5.455722, 0.0]
      },
      {
        "species": [{ "element": "Ho", "occu": 1 }],
        "abc": [0.5, 0.5, 0.0],
        "properties": { "magmom": 0.131 },
        "label": "Ho",
        "xyz": [0.0, 0.0, 5.455722]
      },
      {
        "species": [{ "element": "Ho", "occu": 1 }],
        "abc": [0.0, 0.5, 0.5],
        "properties": { "magmom": 0.131 },
        "label": "Ho",
        "xyz": [5.455722, 0.0, 0.0]
      },
      {
        "species": [{ "element": "Ho", "occu": 1 }],
        "abc": [0.0, 0.0, 0.0],
        "properties": { "magmom": 0.131 },
        "label": "Ho",
        "xyz": [0.0, 0.0, 0.0]
      },
      {
        "species": [{ "element": "N", "occu": 1 }],
        "abc": [0.49067000000000005, 0.230554999999999, 0.463223],
        "properties": { "magmom": 0.6880000000000001 },
        "label": "N",
        "xyz": [1.1081007839759944, 3.9463310400360054, 1.4075871874439945]
      },
      {
        "species": [{ "element": "N", "occu": 1 }],
        "abc": [0.23266799999999901, 0.269445, 0.760115],
        "properties": { "magmom": 0.6880000000000001 },
        "label": "N",
        "xyz": [4.347621216024005, 3.946331040035994, -1.4075871874440047]
      },
      {
        "species": [{ "element": "N", "occu": 1 }],
        "abc": [0.009330000000000001, 0.472553, 0.739885],
        "properties": { "magmom": 0.6880000000000001 },
        "label": "N",
        "xyz": [6.563822783976, 1.5093909599640005, -1.4075871874440002]
      },
      {
        "species": [{ "element": "N", "occu": 1 }],
        "abc": [0.267332, 0.027447, 0.036777],
        "properties": { "magmom": 0.6880000000000001 },
        "label": "N",
        "xyz": [-1.108100783976, 1.509390959964, 1.4075871874439998]
      },
      {
        "species": [{ "element": "N", "occu": 1 }],
        "abc": [0.230554999999999, 0.463223, 0.49067000000000005],
        "properties": { "magmom": 0.6880000000000001 },
        "label": "N",
        "xyz": [3.9463310400360054, 1.4075871874439947, 1.1081007839759942]
      },
      {
        "species": [{ "element": "N", "occu": 1 }],
        "abc": [0.269445, 0.760115, 0.23266799999999901],
        "properties": { "magmom": 0.6880000000000001 },
        "label": "N",
        "xyz": [3.9463310400359943, -1.4075871874440051, 4.347621216024004]
      },
      {
        "species": [{ "element": "N", "occu": 1 }],
        "abc": [0.472553, 0.739885, 0.009330000000000001],
        "properties": { "magmom": 0.6880000000000001 },
        "label": "N",
        "xyz": [1.5093909599640003, -1.4075871874440005, 6.563822783976]
      },
      {
        "species": [{ "element": "N", "occu": 1 }],
        "abc": [0.027447, 0.036777, 0.267332],
        "properties": { "magmom": 0.6880000000000001 },
        "label": "N",
        "xyz": [1.5093909599639999, 1.407587187444, -1.108100783976]
      },
      {
        "species": [{ "element": "N", "occu": 1 }],
        "abc": [0.463223, 0.49067000000000005, 0.230554999999999],
        "properties": { "magmom": 0.6880000000000001 },
        "label": "N",
        "xyz": [1.4075871874439947, 1.1081007839759944, 3.9463310400360054]
      },
      {
        "species": [{ "element": "N", "occu": 1 }],
        "abc": [0.760115, 0.23266799999999901, 0.269445],
        "properties": { "magmom": 0.6880000000000001 },
        "label": "N",
        "xyz": [-1.407587187444005, 4.347621216024005, 3.946331040035994]
      },
      {
        "species": [{ "element": "N", "occu": 1 }],
        "abc": [0.739885, 0.009330000000000001, 0.472553],
        "properties": { "magmom": 0.6880000000000001 },
        "label": "N",
        "xyz": [-1.4075871874440002, 6.563822783976, 1.5093909599640005]
      },
      {
        "species": [{ "element": "N", "occu": 1 }],
        "abc": [0.036777, 0.267332, 0.027447],
        "properties": { "magmom": 0.6880000000000001 },
        "label": "N",
        "xyz": [1.4075871874439998, -1.108100783976, 1.509390959964]
      },
      {
        "species": [{ "element": "N", "occu": 1 }],
        "abc": [0.5093300000000001, 0.769444999999999, 0.536777],
        "properties": { "magmom": 0.6880000000000001 },
        "label": "N",
        "xyz": [4.3476212160239935, 1.5093909599640054, 4.048134812555995]
      },
      {
        "species": [{ "element": "N", "occu": 1 }],
        "abc": [0.767332, 0.730555, 0.239885],
        "properties": { "magmom": 0.6880000000000001 },
        "label": "N",
        "xyz": [1.108100783975999, 1.5093909599640005, 6.863309187443999]
      },
      {
        "species": [{ "element": "N", "occu": 1 }],
        "abc": [0.99067, 0.527447, 0.260115],
        "properties": { "magmom": 0.6880000000000001 },
        "label": "N",
        "xyz": [-1.1081007839759998, 3.946331040035999, 6.863309187444]
      },
      {
        "species": [{ "element": "N", "occu": 1 }],
        "abc": [0.732668, 0.972553, 0.963222999999999],
        "properties": { "magmom": 0.6880000000000001 },
        "label": "N",
        "xyz": [6.5638227839759935, 3.9463310400359943, 4.048134812556005]
      },
      {
        "species": [{ "element": "N", "occu": 1 }],
        "abc": [0.769444999999999, 0.536777, 0.5093300000000001],
        "properties": { "magmom": 0.6880000000000001 },
        "label": "N",
        "xyz": [1.5093909599640054, 4.048134812555995, 4.347621216023994]
      },
      {
        "species": [{ "element": "N", "occu": 1 }],
        "abc": [0.730555, 0.239885, 0.767332],
        "properties": { "magmom": 0.6880000000000001 },
        "label": "N",
        "xyz": [1.5093909599640005, 6.863309187444, 1.108100783975999]
      },
      {
        "species": [{ "element": "N", "occu": 1 }],
        "abc": [0.527447, 0.260115, 0.99067],
        "properties": { "magmom": 0.6880000000000001 },
        "label": "N",
        "xyz": [3.946331040035999, 6.863309187444, -1.108100783976]
      },
      {
        "species": [{ "element": "N", "occu": 1 }],
        "abc": [0.972553, 0.963222999999999, 0.732668],
        "properties": { "magmom": 0.6880000000000001 },
        "label": "N",
        "xyz": [3.9463310400359943, 4.048134812556006, 6.5638227839759935]
      },
      {
        "species": [{ "element": "N", "occu": 1 }],
        "abc": [0.536777, 0.5093300000000001, 0.769444999999999],
        "properties": { "magmom": 0.6880000000000001 },
        "label": "N",
        "xyz": [4.048134812555995, 4.3476212160239935, 1.509390959964005]
      },
      {
        "species": [{ "element": "N", "occu": 1 }],
        "abc": [0.239885, 0.767332, 0.730555],
        "properties": { "magmom": 0.6880000000000001 },
        "label": "N",
        "xyz": [6.863309187444, 1.108100783975999, 1.509390959964001]
      },
      {
        "species": [{ "element": "N", "occu": 1 }],
        "abc": [0.260115, 0.99067, 0.527447],
        "properties": { "magmom": 0.6880000000000001 },
        "label": "N",
        "xyz": [6.863309187444, -1.108100783976, 3.946331040035999]
      },
      {
        "species": [{ "element": "N", "occu": 1 }],
        "abc": [0.963222999999999, 0.732668, 0.972553],
        "properties": { "magmom": 0.6880000000000001 },
        "label": "N",
        "xyz": [4.048134812556006, 6.5638227839759935, 3.946331040035994]
      }
    ]
  },
  "task_ids": null,
  "uncorrected_energy_per_atom": null,
  "energy_per_atom": -19.4666672495,
  "formation_energy_per_atom": -0.8368792807500001,
  "energy_above_hull": 0.8108522527500021,
  "is_stable": false,
  "equilibrium_reaction_energy_per_atom": null,
  "decomposes_to": null,
  "xas": null,
  "grain_boundaries": null,
  "band_gap": 0.0,
  "cbm": null,
  "vbm": null,
  "efermi": 1.63935184,
  "is_gap_direct": null,
  "is_metal": null,
  "es_source_calc_id": null,
  "bandstructure": null,
  "dos": null,
  "dos_energy_up": null,
  "dos_energy_down": null,
  "is_magnetic": null,
  "ordering": null,
  "total_magnetization": 24.0003003,
  "total_magnetization_normalized_vol": null,
  "total_magnetization_normalized_formula_units": null,
  "num_magnetic_sites": null,
  "num_unique_magnetic_sites": null,
  "types_of_magnetic_species": null,
  "bulk_modulus": null,
  "shear_modulus": null,
  "universal_anisotropy": null,
  "homogeneous_poisson": null,
  "e_total": null,
  "e_ionic": null,
  "e_electronic": null,
  "n": null,
  "e_ij_max": null,
  "weighted_surface_energy_EV_PER_ANG2": null,
  "weighted_surface_energy": null,
  "weighted_work_function": null,
  "surface_anisotropy": null,
  "shape_factor": null,
  "has_reconstructed": null,
  "possible_species": null,
  "has_props": null,
  "theoretical": null,
  "database_IDs": null,
  "fields_not_requested": [
    "builder_meta",
    "nsites",
    "elements",
    "nelements",
    "composition",
    "composition_reduced",
    "chemsys",
    "symmetry",
    "property_name",
    "deprecated",
    "deprecation_reasons",
    "last_updated",
    "origins",
    "warnings",
    "task_ids",
    "uncorrected_energy_per_atom",
    "equilibrium_reaction_energy_per_atom",
    "decomposes_to",
    "xas",
    "grain_boundaries",
    "cbm",
    "vbm",
    "is_gap_direct",
    "is_metal",
    "es_source_calc_id",
    "bandstructure",
    "dos",
    "dos_energy_up",
    "dos_energy_down",
    "is_magnetic",
    "ordering",
    "total_magnetization_normalized_vol",
    "total_magnetization_normalized_formula_units",
    "num_magnetic_sites",
    "num_unique_magnetic_sites",
    "types_of_magnetic_species",
    "bulk_modulus",
    "shear_modulus",
    "universal_anisotropy",
    "homogeneous_poisson",
    "e_total",
    "e_ionic",
    "e_electronic",
    "n",
    "e_ij_max",
    "weighted_surface_energy_EV_PER_ANG2",
    "weighted_surface_energy",
    "weighted_work_function",
    "surface_anisotropy",
    "shape_factor",
    "has_reconstructed",
    "possible_species",
    "has_props",
    "theoretical",
    "database_IDs"
  ]
}
