{"builder_meta": null, "nsites": null, "elements": null, "nelements": null, "composition": null, "composition_reduced": null, "formula_pretty": "Ho2O3", "formula_anonymous": "A2B3", "chemsys": null, "volume": 582.7960001301811, "density": 8.612953628233592, "density_atomic": 14.569900003254528, "symmetry": null, "property_name": null, "material_id": "mp-812", "deprecated": null, "deprecation_reasons": null, "last_updated": null, "origins": null, "warnings": null, "structure": {"@module": "pymatgen.core.structure", "@class": "Structure", "charge": 0, "lattice": {"matrix": [[8.59283718, 1e-08, -3.03802769], [-4.2964180800000005, 7.44161405, -3.03802769], [-1e-08, -1e-08, 9.11408003]], "pbc": [true, true, true], "a": 9.114080482813232, "b": 9.114079231195822, "c": 9.11408003, "alpha": 109.47122918969664, "beta": 109.47122644768316, "gamma": 109.471214405465, "volume": 582.7960001301811}, "properties": {}, "sites": [{"species": [{"element": "Ho", "occu": 1}], "abc": [0.75, 0.7823213800000001, 0.032321380000000004], "properties": {"magmom": -0.0}, "label": "Ho", "xyz": [3.083448163274235, 5.821733780200176, -4.360655138418971]}, {"species": [{"element": "Ho", "occu": 1}], "abc": [0.46767862, 0.25, 0.71767862], "properties": {"magmom": -0.0}, "label": "Ho", "xyz": [2.9445817070503053, 1.86040351, 4.360652858418971]}, {"species": [{"element": "Ho", "occu": 1}], "abc": [0.71767862, 0.46767862, 0.25], "properties": {"magmom": -0.0}, "label": "Ho", "xyz": [4.157552648129641, 3.480283794153397, -1.3226281101619755]}, {"species": [{"element": "Ho", "occu": 1}], "abc": [0.032321380000000004, 0.75, 0.7823213800000001], "properties": {"magmom": -0.0}, "label": "Ho", "xyz": [-2.9445812120503057, 5.58121053, 4.753425651581031]}, {"species": [{"element": "Ho", "occu": 1}], "abc": [0.7823213800000001, 0.032321380000000004, 0.75], "properties": {"magmom": -0.0}, "label": "Ho", "xyz": [6.583494071870359, 0.24052323584660282, 4.360652760161976]}, {"species": [{"element": "Ho", "occu": 1}], "abc": [0.25, 0.71767862, 0.46767862], "properties": {"magmom": -0.0}, "label": "Ho", "xyz": [-0.9352381082742364, 5.340687299799826, 1.322625928418971]}, {"species": [{"element": "Ho", "occu": 1}], "abc": [0.75, 0.2823351, 0.5323351], "properties": {"magmom": -0.0}, "label": "Ho", "xyz": [5.231598251418041, 2.101028849144804, 1.7154820850191341]}, {"species": [{"element": "Ho", "occu": 1}], "abc": [0.967664899999999, 0.25, 0.2176649], "properties": {"magmom": -0.0}, "label": "Ho", "xyz": [7.240882408324324, 1.86040352, -1.715484365019131]}, {"species": [{"element": "Ho", "occu": 1}], "abc": [0.2176649, 0.967664899999999, 0.25], "properties": {"magmom": -0.0}, "label": "Ho", "xyz": [-2.287133928740406, 7.200988715208487, -1.322544746682159]}, {"species": [{"element": "Ho", "occu": 1}], "abc": [0.5323351, 0.75, 0.2823351], "properties": {"magmom": -0.0}, "label": "Ho", "xyz": [1.3519552766756664, 5.58121054, -1.3225448449808654]}, {"species": [{"element": "Ho", "occu": 1}], "abc": [0.2823351, 0.5323351, 0.75], "properties": {"magmom": -0.0}, "label": "Ho", "xyz": [0.13892538874041022, 3.9614323547915054, 4.360569396682163]}, {"species": [{"element": "Ho", "occu": 1}], "abc": [0.25, 0.2176649, 0.967664899999999], "properties": {"magmom": -0.0}, "label": "Ho", "xyz": [1.213029873581959, 1.619778170855196, 7.398596424980857]}, {"species": [{"element": "Ho", "occu": 1}], "abc": [2.235e-05, 0.5, 0.0], "properties": {"magmom": 0.0}, "label": "Ho", "xyz": [-2.1480169900890274, 3.7208070250002234, -1.5190817449188714]}, {"species": [{"element": "Ho", "occu": 1}], "abc": [0.5, 0.0, 2.235e-05], "properties": {"magmom": 0.0}, "label": "Ho", "xyz": [4.296418589999776, 4.9997765e-09, -1.5188101453113294]}, {"species": [{"element": "Ho", "occu": 1}], "abc": [0.0, 2.235e-05, 0.5], "properties": {"magmom": 0.0}, "label": "Ho", "xyz": [-9.602994408800001e-05, 0.00016631507401750002, 4.556972115081129]}, {"species": [{"element": "Ho", "occu": 1}], "abc": [0.49997765, 0.49997765, 0.49997765], "properties": {"magmom": 0.0}, "label": "Ho", "xyz": [2.148113520033338, 3.7206407049259824, 1.5189444251490727]}, {"species": [{"element": "O", "occu": 1}], "abc": [0.72919048, 0.26020354, 0.77217575], "properties": {"magmom": -0.0}, "label": "O", "xyz": [5.147871866388285, 1.9363343186938846, 4.031865153644859]}, {"species": [{"element": "O", "occu": 1}], "abc": [0.9880277900000001, 0.95701674, 0.7278242500000001], "properties": {"magmom": -0.0}, "label": "O", "xyz": [4.37821789690833, 7.121749221071233, 0.7243493218516921]}, {"species": [{"element": "O", "occu": 1}], "abc": [0.51197221, 0.23979646000000002, 0.96898794], "properties": {"magmom": -0.0}, "label": "O", "xyz": [3.3690279852608915, 1.784472701306106, 6.547539597330366]}, {"species": [{"element": "O", "occu": 1}], "abc": [0.54298326, 0.53101206, 0.77080952], "properties": {"magmom": -0.0}, "label": "O", "xyz": [2.384316921655466, 3.9515868041371807, 3.762392132075475]}, {"species": [{"element": "O", "occu": 1}], "abc": [0.53101206, 0.77080952, 0.54298326], "properties": {"magmom": -0.0}, "label": "O", "xyz": [1.2511802088024369, 5.736066953786044, 0.9938228791107475]}, {"species": [{"element": "O", "occu": 1}], "abc": [0.77217575, 0.72919048, 0.26020354], "properties": {"magmom": -0.0}, "label": "O", "xyz": [3.5022733294564707, 5.426354126213966, -2.189676291921603]}, {"species": [{"element": "O", "occu": 1}], "abc": [0.95701674, 0.7278242500000001, 0.9880277900000001], "properties": {"magmom": -0.0}, "label": "O", "xyz": [5.096451748711674, 5.416187164420603, 3.886370769057021]}, {"species": [{"element": "O", "occu": 1}], "abc": [0.96898794, 0.51197221, 0.23979646000000002], "properties": {"magmom": -0.0}, "label": "O", "xyz": [6.126708935904087, 3.809899598437466, -2.3136738161358594]}, {"species": [{"element": "O", "occu": 1}], "abc": [0.26020354, 0.77217575, 0.72919048], "properties": {"magmom": -0.0}, "label": "O", "xyz": [-1.081703207649848, 5.746233905579418, 3.509503522231574]}, {"species": [{"element": "O", "occu": 1}], "abc": [0.7278242500000001, 0.9880277900000001, 0.95701674], "properties": {"magmom": -0.0}, "label": "O", "xyz": [2.009094805837005, 7.352521481562525, 3.5095211489467157]}, {"species": [{"element": "O", "occu": 1}], "abc": [0.23979646000000002, 0.96898794, 0.51197221], "properties": {"magmom": -0.0}, "label": "O", "xyz": [-2.1026453727172947, 7.2108342658627995, 0.9938352166359303]}, {"species": [{"element": "O", "occu": 1}], "abc": [0.77080952, 0.54298326, 0.53101206], "properties": {"magmom": -0.0}, "label": "O", "xyz": [4.290557601442493, 4.040671858928778, 0.848347567173084]}, {"species": [{"element": "O", "occu": 1}], "abc": [0.04298231, 0.27215108, 0.01196174], "properties": {"magmom": 0.0}, "label": "O", "xyz": [-0.799934829272858, 2.02524330096088, -0.8483637092055168]}, {"species": [{"element": "O", "occu": 1}], "abc": [0.76018935, 0.03102057, 0.48803826], "properties": {"magmom": 0.0}, "label": "O", "xyz": [6.398905967839744, 0.2308431122725194, 2.0443021137792634]}, {"species": [{"element": "O", "occu": 1}], "abc": [0.73981065, 0.22784892, 0.27083223], "properties": {"magmom": 0.0}, "label": "O", "xyz": [5.378138237375171, 1.6955637290391103, -0.47138994923012634]}, {"species": [{"element": "O", "occu": 1}], "abc": [0.46897943000000003, 0.22916777, 0.45701769000000003], "properties": {"magmom": 0.0}, "label": "O", "xyz": [3.045263327807749, 1.705378097158786, 2.0443052764897627]}, {"species": [{"element": "O", "occu": 1}], "abc": [0.45701769000000003, 0.46897943000000003, 0.22916777], "properties": {"magmom": 0.0}, "label": "O", "xyz": [1.912146894057942, 3.489963917727491, -0.7245514953436198]}, {"species": [{"element": "O", "occu": 1}], "abc": [0.22784892, 0.27083223, 0.73981065], "properties": {"magmom": 0.0}, "label": "O", "xyz": [0.7942601741820207, 2.0154289228412146, 5.227686328965277]}, {"species": [{"element": "O", "occu": 1}], "abc": [0.48803826, 0.76018935, 0.03102057], "properties": {"magmom": 0.0}, "label": "O", "xyz": [0.927542037916853, 5.657035752190544, -3.5094260850463033]}, {"species": [{"element": "O", "occu": 1}], "abc": [0.27215108, 0.01196174, 0.04298231], "properties": {"magmom": 0.0}, "label": "O", "xyz": [2.2871572823670716, 0.0890146547381347, -0.4713984010297164]}, {"species": [{"element": "O", "occu": 1}], "abc": [0.27083223, 0.73981065, 0.22784892], "properties": {"magmom": 0.0}, "label": "O", "xyz": [-0.8513185992287304, 5.505385327809465, -0.9937277625122798]}, {"species": [{"element": "O", "occu": 1}], "abc": [0.03102057, 0.48803826, 0.76018935], "properties": {"magmom": 0.0}, "label": "O", "xyz": [-1.8302617043568419, 3.6317923652618656, 5.351511475574677]}, {"species": [{"element": "O", "occu": 1}], "abc": [0.01196174, 0.04298231, 0.27215108], "properties": {"magmom": 0.0}, "label": "O", "xyz": [-0.08188469231618242, 0.31985775939556216, 2.313485178070188]}, {"species": [{"element": "O", "occu": 1}], "abc": [0.22916777, 0.45701769000000003, 0.46897943000000003], "properties": {"magmom": 0.0}, "label": "O", "xyz": [0.005662263628058581, 3.400949260604428, 2.1896656294883954]}]}, "task_ids": null, "uncorrected_energy_per_atom": null, "energy_per_atom": -8.83540783375, "formation_energy_per_atom": -4.027559444749998, "energy_above_hull": 0.0, "is_stable": true, "equilibrium_reaction_energy_per_atom": null, "decomposes_to": null, "xas": null, "grain_boundaries": null, "band_gap": 3.9457999999999993, "cbm": null, "vbm": null, "efermi": 1.30522829, "is_gap_direct": null, "is_metal": null, "es_source_calc_id": null, "bandstructure": null, "dos": null, "dos_energy_up": null, "dos_energy_down": null, "is_magnetic": null, "ordering": null, "total_magnetization": 0.0, "total_magnetization_normalized_vol": null, "total_magnetization_normalized_formula_units": null, "num_magnetic_sites": null, "num_unique_magnetic_sites": null, "types_of_magnetic_species": null, "bulk_modulus": null, "shear_modulus": null, "universal_anisotropy": null, "homogeneous_poisson": null, "e_total": null, "e_ionic": null, "e_electronic": null, "n": null, "e_ij_max": null, "weighted_surface_energy_EV_PER_ANG2": null, "weighted_surface_energy": null, "weighted_work_function": null, "surface_anisotropy": null, "shape_factor": null, "has_reconstructed": null, "possible_species": null, "has_props": null, "theoretical": null, "database_IDs": null, "fields_not_requested": ["builder_meta", "nsites", "elements", "nelements", "composition", "composition_reduced", "chemsys", "symmetry", "property_name", "deprecated", "deprecation_reasons", "last_updated", "origins", "warnings", "task_ids", "uncorrected_energy_per_atom", "equilibrium_reaction_energy_per_atom", "decomposes_to", "xas", "grain_boundaries", "cbm", "vbm", "is_gap_direct", "is_metal", "es_source_calc_id", "bandstructure", "dos", "dos_energy_up", "dos_energy_down", "is_magnetic", "ordering", "total_magnetization_normalized_vol", "total_magnetization_normalized_formula_units", "num_magnetic_sites", "num_unique_magnetic_sites", "types_of_magnetic_species", "bulk_modulus", "shear_modulus", "universal_anisotropy", "homogeneous_poisson", "e_total", "e_ionic", "e_electronic", "n", "e_ij_max", "weighted_surface_energy_EV_PER_ANG2", "weighted_surface_energy", "weighted_work_function", "surface_anisotropy", "shape_factor", "has_reconstructed", "possible_species", "has_props", "theoretical", "database_IDs"]}