{"builder_meta": null, "nsites": null, "elements": null, "nelements": null, "composition": null, "composition_reduced": null, "formula_pretty": "Ho2Pt", "formula_anonymous": "AB2", "chemsys": null, "volume": 292.4652655929746, "density": 11.92197754840959, "density_atomic": 24.37210546608122, "symmetry": null, "property_name": null, "material_id": "mp-1102104", "deprecated": null, "deprecation_reasons": null, "last_updated": null, "origins": null, "warnings": null, "structure": {"@module": "pymatgen.core.structure", "@class": "Structure", "charge": 0, "lattice": {"matrix": [[-0.0, -4.73520687, 0.0], [-7.0806883, 0.0, 0.0], [0.0, 0.0, -8.72287926]], "pbc": [true, true, true], "a": 4.73520687, "b": 7.0806883, "c": 8.72287926, "alpha": 90.0, "beta": 90.0, "gamma": 90.0, "volume": 292.4652655929746}, "properties": {}, "sites": [{"species": [{"element": "Ho", "occu": 1}], "abc": [0.75, 0.6432656, 0.58116185], "properties": {"magmom": 0.0}, "label": "Ho", "xyz": [-4.55476320771248, -3.5514051525, -5.069404648068231]}, {"species": [{"element": "Ho", "occu": 1}], "abc": [0.75, 0.1432656, 0.91883715], "properties": {"magmom": 0.0}, "label": "Ho", "xyz": [-1.01441905771248, -3.5514051525, -8.014905519052508]}, {"species": [{"element": "Ho", "occu": 1}], "abc": [0.25, 0.3567344, 0.41883715], "properties": {"magmom": 0.0}, "label": "Ho", "xyz": [-2.5259250922875203, -1.1838017175, -3.6534658890525087]}, {"species": [{"element": "Ho", "occu": 1}], "abc": [0.25, 0.8567344, 0.08116185000000001], "properties": {"magmom": 0.0}, "label": "Ho", "xyz": [-6.06626924228752, -1.1838017175, -0.707965018068231]}, {"species": [{"element": "Ho", "occu": 1}], "abc": [0.75, 0.50887534, 0.16691269], "properties": {"magmom": 0.0}, "label": "Ho", "xyz": [-3.603187666096522, -3.5514051525, -1.4559592418318092]}, {"species": [{"element": "Ho", "occu": 1}], "abc": [0.75, 0.00887434, 0.33308831], "properties": {"magmom": 0.0}, "label": "Ho", "xyz": [-0.062836435408222, -3.5514051525, -2.90548911104745]}, {"species": [{"element": "Ho", "occu": 1}], "abc": [0.25, 0.49112566, 0.83308831], "properties": {"magmom": 0.0}, "label": "Ho", "xyz": [-3.4775077145917783, -1.1838017175, -7.26692874104745]}, {"species": [{"element": "Ho", "occu": 1}], "abc": [0.25, 0.99112466, 0.66691269], "properties": {"magmom": 0.0}, "label": "Ho", "xyz": [-7.017844783903478, -1.1838017175, -5.817398871831808]}, {"species": [{"element": "Pt", "occu": 1}], "abc": [0.75, 0.24101092000000002, 0.5924037], "properties": {"magmom": 0.0}, "label": "Pt", "xyz": [-1.7065232014162361, -3.5514051525, -5.167465948277261]}, {"species": [{"element": "Pt", "occu": 1}], "abc": [0.75, 0.74101092, 0.907596299999999], "properties": {"magmom": 0.0}, "label": "Pt", "xyz": [-5.2468673514162365, -3.5514051525, -7.916852941722729]}, {"species": [{"element": "Pt", "occu": 1}], "abc": [0.25, 0.75898908, 0.407596299999999], "properties": {"magmom": 0.0}, "label": "Pt", "xyz": [-5.374165098583764, -1.1838017175, -3.555413311722729]}, {"species": [{"element": "Pt", "occu": 1}], "abc": [0.25, 0.25898908, 0.092403699999999], "properties": {"magmom": 0.0}, "label": "Pt", "xyz": [-1.833820948583764, -1.1838017175, -0.8060263182772532]}]}, "task_ids": null, "uncorrected_energy_per_atom": null, "energy_per_atom": -40.15351018333333, "formation_energy_per_atom": -1.070041939999995, "energy_above_hull": 0.0, "is_stable": true, "equilibrium_reaction_energy_per_atom": null, "decomposes_to": null, "xas": null, "grain_boundaries": null, "band_gap": 0.0, "cbm": null, "vbm": null, "efermi": 4.21290795, "is_gap_direct": null, "is_metal": null, "es_source_calc_id": null, "bandstructure": null, "dos": null, "dos_energy_up": null, "dos_energy_down": null, "is_magnetic": null, "ordering": null, "total_magnetization": 2e-07, "total_magnetization_normalized_vol": null, "total_magnetization_normalized_formula_units": null, "num_magnetic_sites": null, "num_unique_magnetic_sites": null, "types_of_magnetic_species": null, "bulk_modulus": null, "shear_modulus": null, "universal_anisotropy": null, "homogeneous_poisson": null, "e_total": null, "e_ionic": null, "e_electronic": null, "n": null, "e_ij_max": null, "weighted_surface_energy_EV_PER_ANG2": null, "weighted_surface_energy": null, "weighted_work_function": null, "surface_anisotropy": null, "shape_factor": null, "has_reconstructed": null, "possible_species": null, "has_props": null, "theoretical": null, "database_IDs": null, "fields_not_requested": ["builder_meta", "nsites", "elements", "nelements", "composition", "composition_reduced", "chemsys", "symmetry", "property_name", "deprecated", "deprecation_reasons", "last_updated", "origins", "warnings", "task_ids", "uncorrected_energy_per_atom", "equilibrium_reaction_energy_per_atom", "decomposes_to", "xas", "grain_boundaries", "cbm", "vbm", "is_gap_direct", "is_metal", "es_source_calc_id", "bandstructure", "dos", "dos_energy_up", "dos_energy_down", "is_magnetic", "ordering", "total_magnetization_normalized_vol", "total_magnetization_normalized_formula_units", "num_magnetic_sites", "num_unique_magnetic_sites", "types_of_magnetic_species", "bulk_modulus", "shear_modulus", "universal_anisotropy", "homogeneous_poisson", "e_total", "e_ionic", "e_electronic", "n", "e_ij_max", "weighted_surface_energy_EV_PER_ANG2", "weighted_surface_energy", "weighted_work_function", "surface_anisotropy", "shape_factor", "has_reconstructed", "possible_species", "has_props", "theoretical", "database_IDs"]}