{
  "builder_meta": null,
  "nsites": null,
  "elements": null,
  "nelements": null,
  "composition": null,
  "composition_reduced": null,
  "formula_pretty": "Ho2Si3",
  "formula_anonymous": "A2B3",
  "chemsys": null,
  "volume": 105.28250850816742,
  "density": 6.531547346873062,
  "density_atomic": 21.056501701633486,
  "symmetry": null,
  "property_name": null,
  "material_id": "mp-1223930",
  "deprecated": null,
  "deprecation_reasons": null,
  "last_updated": null,
  "origins": null,
  "warnings": null,
  "structure": {
    "@module": "pymatgen.core.structure",
    "@class": "Structure",
    "charge": 0,
    "lattice": {
      "matrix": [
        [0.0, -3.972896, 0.0],
        [-3.881537, 0.0, 0.0],
        [-1.940769, -1.986448, -6.827242]
      ],
      "pbc": [true, true, true],
      "a": 3.972896,
      "b": 3.881537,
      "c": 7.370467644229164,
      "alpha": 74.73303083611668,
      "beta": 74.3646203846227,
      "gamma": 90.0,
      "volume": 105.28250850816742
    },
    "properties": {},
    "sites": [
      {
        "species": [{ "element": "Ho", "occu": 1 }],
        "abc": [0.872552, 0.622552, 0.754896],
        "properties": { "magmom": 0.0 },
        "label": "Ho",
        "xyz": [-3.8815373774479998, -4.96612, -5.153857676832]
      },
      {
        "species": [{ "element": "Ho", "occu": 1 }],
        "abc": [0.117757, 0.367757, 0.264484999999999],
        "properties": { "magmom": 0.0 },
        "label": "Ho",
        "xyz": [-1.940766691473998, -0.993222013551998, -1.8057031003699933]
      },
      {
        "species": [{ "element": "Si", "occu": 1 }],
        "abc": [0.713911, 0.963911, 0.072176999999999],
        "properties": { "magmom": -0.0 },
        "label": "Si",
        "xyz": [-3.8815350953199976, -2.979670013551998, -0.4927698458339932]
      },
      {
        "species": [{ "element": "Si", "occu": 1 }],
        "abc": [0.442337, 0.192336999999999, 0.615325999999999],
        "properties": { "magmom": -0.0 },
        "label": "Si",
        "xyz": [-1.940768807662994, -2.979671999999998, -4.200979510891994]
      },
      {
        "species": [{ "element": "Si", "occu": 1 }],
        "abc": [0.543442, 0.793442, 0.413114999999999],
        "properties": { "magmom": -0.0 },
        "label": "Si",
        "xyz": [-3.881535265788998, -2.9796700135519982, -2.820436078829993]
      }
    ]
  },
  "task_ids": null,
  "uncorrected_energy_per_atom": null,
  "energy_per_atom": -19.072654730857145,
  "formation_energy_per_atom": -0.655858407857147,
  "energy_above_hull": 0.09238448485714201,
  "is_stable": false,
  "equilibrium_reaction_energy_per_atom": null,
  "decomposes_to": null,
  "xas": null,
  "grain_boundaries": null,
  "band_gap": 0.0,
  "cbm": null,
  "vbm": null,
  "efermi": 5.53883943,
  "is_gap_direct": null,
  "is_metal": null,
  "es_source_calc_id": null,
  "bandstructure": null,
  "dos": null,
  "dos_energy_up": null,
  "dos_energy_down": null,
  "is_magnetic": null,
  "ordering": null,
  "total_magnetization": 0.0011627,
  "total_magnetization_normalized_vol": null,
  "total_magnetization_normalized_formula_units": null,
  "num_magnetic_sites": null,
  "num_unique_magnetic_sites": null,
  "types_of_magnetic_species": null,
  "bulk_modulus": null,
  "shear_modulus": null,
  "universal_anisotropy": null,
  "homogeneous_poisson": null,
  "e_total": null,
  "e_ionic": null,
  "e_electronic": null,
  "n": null,
  "e_ij_max": null,
  "weighted_surface_energy_EV_PER_ANG2": null,
  "weighted_surface_energy": null,
  "weighted_work_function": null,
  "surface_anisotropy": null,
  "shape_factor": null,
  "has_reconstructed": null,
  "possible_species": null,
  "has_props": null,
  "theoretical": null,
  "database_IDs": null,
  "fields_not_requested": [
    "builder_meta",
    "nsites",
    "elements",
    "nelements",
    "composition",
    "composition_reduced",
    "chemsys",
    "symmetry",
    "property_name",
    "deprecated",
    "deprecation_reasons",
    "last_updated",
    "origins",
    "warnings",
    "task_ids",
    "uncorrected_energy_per_atom",
    "equilibrium_reaction_energy_per_atom",
    "decomposes_to",
    "xas",
    "grain_boundaries",
    "cbm",
    "vbm",
    "is_gap_direct",
    "is_metal",
    "es_source_calc_id",
    "bandstructure",
    "dos",
    "dos_energy_up",
    "dos_energy_down",
    "is_magnetic",
    "ordering",
    "total_magnetization_normalized_vol",
    "total_magnetization_normalized_formula_units",
    "num_magnetic_sites",
    "num_unique_magnetic_sites",
    "types_of_magnetic_species",
    "bulk_modulus",
    "shear_modulus",
    "universal_anisotropy",
    "homogeneous_poisson",
    "e_total",
    "e_ionic",
    "e_electronic",
    "n",
    "e_ij_max",
    "weighted_surface_energy_EV_PER_ANG2",
    "weighted_surface_energy",
    "weighted_work_function",
    "surface_anisotropy",
    "shape_factor",
    "has_reconstructed",
    "possible_species",
    "has_props",
    "theoretical",
    "database_IDs"
  ]
}
