{"builder_meta": null, "nsites": null, "elements": null, "nelements": null, "composition": null, "composition_reduced": null, "formula_pretty": "Ho2Se3", "formula_anonymous": "A2B3", "chemsys": null, "volume": 569.2317026956865, "density": 6.61308896811743, "density_atomic": 28.461585134784325, "symmetry": null, "property_name": null, "material_id": "mp-9824", "deprecated": null, "deprecation_reasons": null, "last_updated": null, "origins": null, "warnings": null, "structure": {"@module": "pymatgen.core.structure", "@class": "Structure", "charge": 0, "lattice": {"matrix": [[6.91142496, 0.00520289, -1.2982569800000001], [-2.57644276, 6.41324756, -1.29825699], [-0.00195012, -0.00288727, 12.83960507]], "pbc": [true, true, true], "a": 7.032303551034616, "b": 7.032302096290107, "c": 12.839605542728552, "alpha": 100.64730309976262, "beta": 100.64730125700194, "gamma": 108.9848531290674, "volume": 569.2317026956865}, "properties": {}, "sites": [{"species": [{"element": "Ho", "occu": 1}], "abc": [0.37781597, 0.12781597, 0.25563094000000003], "properties": {"magmom": -0.0}, "label": "Ho", "xyz": [2.2814376838170207, 0.8209431171195527, 2.625760116578765]}, {"species": [{"element": "Ho", "occu": 1}], "abc": [0.87218403, 0.62218403, 0.24436906], "properties": {"magmom": -0.0}, "label": "Ho", "xyz": [4.424536386182979, 3.994052530380448, 1.197528450921235]}, {"species": [{"element": "Ho", "occu": 1}], "abc": [0.62218403, 0.87218403, 0.74436906], "properties": {"magmom": -0.0}, "label": "Ho", "xyz": [2.0515943961829786, 5.594620062880448, 7.617330983421235]}, {"species": [{"element": "Ho", "occu": 1}], "abc": [0.12781597, 0.37781597, 0.75563094], "properties": {"magmom": -0.0}, "label": "Ho", "xyz": [-0.09150430618297876, 2.4215106496195524, 9.045562649078764]}, {"species": [{"element": "Ho", "occu": 1}], "abc": [0.04093734, 0.79093734, 0.58187467], "properties": {"magmom": 0.0}, "label": "Ho", "xyz": [-1.7560041552161125, 5.071009929066352, 6.391053845331937]}, {"species": [{"element": "Ho", "occu": 1}], "abc": [0.20906266, 0.9590626600000001, 0.9181253300000001], "properties": {"magmom": 0.0}, "label": "Ho", "xyz": [-1.0278396147838875, 6.149143118433648, 10.271839782168062]}, {"species": [{"element": "Ho", "occu": 1}], "abc": [0.9590626600000001, 0.20906266, 0.41812533], "properties": {"magmom": 0.0}, "label": "Ho", "xyz": [6.0890362352161125, 1.344553250933648, 3.852037254668063]}, {"species": [{"element": "Ho", "occu": 1}], "abc": [0.79093734, 0.04093734, 0.08187467], "properties": {"magmom": 0.0}, "label": "Ho", "xyz": [5.360871694783889, 0.2664200615663521, -0.028748682168063366]}, {"species": [{"element": "Se", "occu": 1}], "abc": [0.53898944, 0.28296798, 0.08827234], "properties": {"magmom": 0.0}, "label": "Se", "xyz": [2.9959621237539173, 1.8172931439814988, 0.0662700235972924]}, {"species": [{"element": "Se", "occu": 1}], "abc": [0.19469664, 0.9507181, 0.41172766], "properties": {"magmom": 0.0}, "label": "Se", "xyz": [-1.1046424665661407, 6.097014751353238, 3.7993778600881694]}, {"species": [{"element": "Se", "occu": 1}], "abc": [0.71703202, 0.46101056, 0.41172766], "properties": {"magmom": 0.0}, "label": "Se", "xyz": [3.767142762207355, 2.9591167188598835, 3.757018543962922]}, {"species": [{"element": "Se", "occu": 1}], "abc": [0.0492819, 0.80530336, 0.08827234], "properties": {"magmom": 0.0}, "label": "Se", "xyz": [-1.7343819993951306, 5.164611350805381, 0.02391069735161544]}, {"species": [{"element": "Se", "occu": 1}], "abc": [0.46101056, 0.71703202, 0.91172766], "properties": {"magmom": 0.0}, "label": "Se", "xyz": [1.3370699562460833, 4.598270036018501, 10.176821076402707]}, {"species": [{"element": "Se", "occu": 1}], "abc": [0.80530336, 0.0492819, 0.5882723400000001], "properties": {"magmom": 0.0}, "label": "Se", "xyz": [5.437674546566141, 0.3185484286467626, 6.443713239911831]}, {"species": [{"element": "Se", "occu": 1}], "abc": [0.28296798, 0.53898944, 0.5882723400000001], "properties": {"magmom": 0.0}, "label": "Se", "xyz": [0.5658893177926454, 3.4564464611401173, 6.486072556037078]}, {"species": [{"element": "Se", "occu": 1}], "abc": [0.9507181, 0.19469664, 0.91172766], "properties": {"magmom": 0.0}, "label": "Se", "xyz": [6.06741407939513, 1.2509518291946193, 10.219180402648384]}, {"species": [{"element": "Se", "occu": 1}], "abc": [0.6335436600000001, 0.8835436600000001, 0.25], "properties": {"magmom": -0.0}, "label": "Se", "xyz": [2.1018022690228526, 5.668958662121648, 1.2403320562050695]}, {"species": [{"element": "Se", "occu": 1}], "abc": [0.11645634, 0.36645634, 0.25], "properties": {"magmom": -0.0}, "label": "Se", "xyz": [-0.139762059022852, 2.3500593203783526, 2.58295650629493]}, {"species": [{"element": "Se", "occu": 1}], "abc": [0.36645634, 0.11645634, 0.75], "properties": {"magmom": -0.0}, "label": "Se", "xyz": [2.231229810977148, 0.7466045178783531, 9.00275904379493]}, {"species": [{"element": "Se", "occu": 1}], "abc": [0.8835436600000001, 0.6335436600000001, 0.75], "properties": {"magmom": -0.0}, "label": "Se", "xyz": [4.472794139022851, 4.065503859621648, 7.660134593705069]}]}, "task_ids": null, "uncorrected_energy_per_atom": null, "energy_per_atom": -23.9244038915, "formation_energy_per_atom": -2.184930186937501, "energy_above_hull": 0.0, "is_stable": true, "equilibrium_reaction_energy_per_atom": null, "decomposes_to": null, "xas": null, "grain_boundaries": null, "band_gap": 1.315, "cbm": null, "vbm": null, "efermi": 1.814991679999999, "is_gap_direct": null, "is_metal": null, "es_source_calc_id": null, "bandstructure": null, "dos": null, "dos_energy_up": null, "dos_energy_down": null, "is_magnetic": null, "ordering": null, "total_magnetization": 0.0, "total_magnetization_normalized_vol": null, "total_magnetization_normalized_formula_units": null, "num_magnetic_sites": null, "num_unique_magnetic_sites": null, "types_of_magnetic_species": null, "bulk_modulus": null, "shear_modulus": null, "universal_anisotropy": null, "homogeneous_poisson": null, "e_total": null, "e_ionic": null, "e_electronic": null, "n": null, "e_ij_max": null, "weighted_surface_energy_EV_PER_ANG2": null, "weighted_surface_energy": null, "weighted_work_function": null, "surface_anisotropy": null, "shape_factor": null, "has_reconstructed": null, "possible_species": null, "has_props": null, "theoretical": null, "database_IDs": null, "fields_not_requested": ["builder_meta", "nsites", "elements", "nelements", "composition", "composition_reduced", "chemsys", "symmetry", "property_name", "deprecated", "deprecation_reasons", "last_updated", "origins", "warnings", "task_ids", "uncorrected_energy_per_atom", "equilibrium_reaction_energy_per_atom", "decomposes_to", "xas", "grain_boundaries", "cbm", "vbm", "is_gap_direct", "is_metal", "es_source_calc_id", "bandstructure", "dos", "dos_energy_up", "dos_energy_down", "is_magnetic", "ordering", "total_magnetization_normalized_vol", "total_magnetization_normalized_formula_units", "num_magnetic_sites", "num_unique_magnetic_sites", "types_of_magnetic_species", "bulk_modulus", "shear_modulus", "universal_anisotropy", "homogeneous_poisson", "e_total", "e_ionic", "e_electronic", "n", "e_ij_max", "weighted_surface_energy_EV_PER_ANG2", "weighted_surface_energy", "weighted_work_function", "surface_anisotropy", "shape_factor", "has_reconstructed", "possible_species", "has_props", "theoretical", "database_IDs"]}