{
  "builder_meta": null,
  "nsites": null,
  "elements": null,
  "nelements": null,
  "composition": null,
  "composition_reduced": null,
  "formula_pretty": "Ho2S3",
  "formula_anonymous": "A2B3",
  "chemsys": null,
  "volume": 702.0518684032684,
  "density": 6.046408249359246,
  "density_atomic": 23.401728946775613,
  "symmetry": null,
  "property_name": null,
  "material_id": "mp-878",
  "deprecated": null,
  "deprecation_reasons": null,
  "last_updated": null,
  "origins": null,
  "warnings": null,
  "structure": {
    "@module": "pymatgen.core.structure",
    "@class": "Structure",
    "charge": 0,
    "lattice": {
      "matrix": [
        [3.99704149, 0.0, 0.0],
        [0.0, 10.0106799, -1.51506768],
        [0.0, -0.00898153, 17.54690858]
      ],
      "pbc": [true, true, true],
      "a": 3.99704149,
      "b": 10.124679853469175,
      "c": 17.546910878634986,
      "alpha": 98.63545252310047,
      "beta": 90.0,
      "gamma": 90.0,
      "volume": 702.0518684032684
    },
    "properties": {},
    "sites": [
      {
        "species": [{ "element": "Ho", "occu": 1 }],
        "abc": [0.75, 0.45123275, 0.8853883300000001],
        "properties": { "magmom": 0.0 },
        "label": "Ho",
        "xyz": [2.9977811174999998, 4.50919447879918, 14.852179928626352]
      },
      {
        "species": [{ "element": "Ho", "occu": 1 }],
        "abc": [0.25, 0.54876725, 0.11461167],
        "properties": { "magmom": 0.0 },
        "label": "Ho",
        "xyz": [0.9992603725, 5.49250389120082, 1.1796609713736488]
      },
      {
        "species": [{ "element": "Ho", "occu": 1 }],
        "abc": [0.75, 0.51323964, 0.60080292],
        "properties": { "magmom": -0.0 },
        "label": "Ho",
        "xyz": [2.9977811174999998, 5.132481618581168, 9.764641121178219]
      },
      {
        "species": [{ "element": "Ho", "occu": 1 }],
        "abc": [0.25, 0.48676036, 0.39919708],
        "properties": { "magmom": -0.0 },
        "label": "Ho",
        "xyz": [0.9992603725, 4.869216751418832, 6.267199778821781]
      },
      {
        "species": [{ "element": "Ho", "occu": 1 }],
        "abc": [0.75, 0.8120555500000001, 0.27945616],
        "properties": { "magmom": -0.0 },
        "label": "Ho",
        "xyz": [2.9977811174999998, 8.126718228183721, 3.673272573468229]
      },
      {
        "species": [{ "element": "Ho", "occu": 1 }],
        "abc": [0.25, 0.18794445, 0.72054384],
        "properties": { "magmom": -0.0 },
        "label": "Ho",
        "xyz": [0.9992603725, 1.87498014181628, 12.358568326531772]
      },
      {
        "species": [{ "element": "Ho", "occu": 1 }],
        "abc": [0.75, 0.17021552, 0.21848803],
        "properties": { "magmom": -0.0 },
        "label": "Ho",
        "xyz": [2.9977811174999998, 1.7020107279359622, 3.575901455247904]
      },
      {
        "species": [{ "element": "Ho", "occu": 1 }],
        "abc": [0.25, 0.82978448, 0.7815119700000001],
        "properties": { "magmom": -0.0 },
        "label": "Ho",
        "xyz": [0.9992603725, 8.299687642064038, 12.455939444752097]
      },
      {
        "species": [{ "element": "Ho", "occu": 1 }],
        "abc": [0.75, 0.87592032, 0.56983803],
        "properties": { "magmom": -0.0 },
        "label": "Ho",
        "xyz": [2.9977811174999998, 8.763439924063983, 8.67181725073004]
      },
      {
        "species": [{ "element": "Ho", "occu": 1 }],
        "abc": [0.25, 0.12407968, 0.43016197],
        "properties": { "magmom": -0.0 },
        "label": "Ho",
        "xyz": [0.9992603725, 1.2382584459360177, 7.36002364926996]
      },
      {
        "species": [{ "element": "Ho", "occu": 1 }],
        "abc": [0.75, 0.8114178200000001, 0.97969996],
        "properties": { "magmom": -0.0 },
        "label": "Ho",
        "xyz": [2.9977811174999998, 8.11404485659408, 15.9613527198916]
      },
      {
        "species": [{ "element": "Ho", "occu": 1 }],
        "abc": [0.25, 0.18858218000000002, 0.020300040000000002],
        "properties": { "magmom": -0.0 },
        "label": "Ho",
        "xyz": [0.9992603725, 1.887653513405921, 0.0704881801084008]
      },
      {
        "species": [{ "element": "S", "occu": 1 }],
        "abc": [0.75, 0.63250112, 0.46868411],
        "properties": { "magmom": 0.0 },
        "label": "S",
        "xyz": [2.9977811174999998, 6.327556748317, 7.265675226592862]
      },
      {
        "species": [{ "element": "S", "occu": 1 }],
        "abc": [0.25, 0.36749888, 0.53131589],
        "properties": { "magmom": 0.0 },
        "label": "S",
        "xyz": [0.9992603725, 3.6741416216830003, 8.766165673407139]
      },
      {
        "species": [{ "element": "S", "occu": 1 }],
        "abc": [0.75, 0.68130184, 0.8183843],
        "properties": { "magmom": 0.0 },
        "label": "S",
        "xyz": [2.9977811174999998, 6.812944292379037, 13.327896097298762]
      },
      {
        "species": [{ "element": "S", "occu": 1 }],
        "abc": [0.25, 0.31869816, 0.1816157],
        "properties": { "magmom": 0.0 },
        "label": "S",
        "xyz": [0.9992603725, 3.188754077620963, 2.7039448027012374]
      },
      {
        "species": [{ "element": "S", "occu": 1 }],
        "abc": [0.75, 0.04877453, 0.07587509],
        "properties": { "magmom": 0.0 },
        "label": "S",
        "xyz": [2.9977811174999998, 0.4875847327058593, 1.2574765537190817]
      },
      {
        "species": [{ "element": "S", "occu": 1 }],
        "abc": [0.25, 0.95122547, 0.92412491],
        "properties": { "magmom": 0.0 },
        "label": "S",
        "xyz": [0.9992603725, 9.51411363729414, 14.774364346280917]
      },
      {
        "species": [{ "element": "S", "occu": 1 }],
        "abc": [0.75, 0.28972642, 0.36862496],
        "properties": { "magmom": 0.0 },
        "label": "S",
        "xyz": [2.9977811174999998, 2.897047633055969, 6.029273338442051]
      },
      {
        "species": [{ "element": "S", "occu": 1 }],
        "abc": [0.25, 0.71027358, 0.63137504],
        "properties": { "magmom": 0.0 },
        "label": "S",
        "xyz": [0.9992603725, 7.104650736944031, 10.00256756155795]
      },
      {
        "species": [{ "element": "S", "occu": 1 }],
        "abc": [0.75, 0.9930652400000001, 0.73204093],
        "properties": { "magmom": -0.0 },
        "label": "S",
        "xyz": [2.9977811174999998, 9.934683389882654, 11.340494226272737]
      },
      {
        "species": [{ "element": "S", "occu": 1 }],
        "abc": [0.25, 0.00693476, 0.26795907],
        "properties": { "magmom": -0.0 },
        "label": "S",
        "xyz": [0.9992603725, 0.0670149801173469, 4.691346673727264]
      },
      {
        "species": [{ "element": "S", "occu": 1 }],
        "abc": [0.75, 0.36222138, 0.71746306],
        "properties": { "magmom": -0.0 },
        "label": "S",
        "xyz": [2.9977811174999998, 3.6196383721189798, 12.040468817504058]
      },
      {
        "species": [{ "element": "S", "occu": 1 }],
        "abc": [0.25, 0.63777862, 0.28253694],
        "properties": { "magmom": -0.0 },
        "label": "S",
        "xyz": [0.9992603725, 6.3820599978810195, 3.9913720824959444]
      },
      {
        "species": [{ "element": "S", "occu": 1 }],
        "abc": [0.25, 0.05195661, 0.57527158],
        "properties": { "magmom": 0.0 },
        "label": "S",
        "xyz": [0.9992603725, 0.5149541724452217, 10.01552004235879]
      },
      {
        "species": [{ "element": "S", "occu": 1 }],
        "abc": [0.75, 0.94804339, 0.42472842],
        "properties": { "magmom": 0.0 },
        "label": "S",
        "xyz": [2.9977811174999998, 9.486744197554778, 6.016320857641208]
      },
      {
        "species": [{ "element": "S", "occu": 1 }],
        "abc": [0.25, 0.26920252, 0.87283796],
        "properties": { "magmom": -0.0 },
        "label": "S",
        "xyz": [0.9992603725, 2.687060835670469, 14.907747851847144]
      },
      {
        "species": [{ "element": "S", "occu": 1 }],
        "abc": [0.75, 0.73079748, 0.12716204],
        "properties": { "magmom": -0.0 },
        "label": "S",
        "xyz": [2.9977811174999998, 7.31463753432953, 1.1240930481528568]
      },
      {
        "species": [{ "element": "S", "occu": 1 }],
        "abc": [0.25, 0.6156739, 0.96740781],
        "properties": { "magmom": -0.0 },
        "label": "S",
        "xyz": [0.9992603725, 6.15462553341686, 16.042228774338458]
      },
      {
        "species": [{ "element": "S", "occu": 1 }],
        "abc": [0.75, 0.3843261, 0.03259219],
        "properties": { "magmom": -0.0 },
        "label": "S",
        "xyz": [2.9977811174999998, 3.847072836583139, -0.010387874338457781]
      }
    ]
  },
  "task_ids": null,
  "uncorrected_energy_per_atom": null,
  "energy_per_atom": -20.349370451333336,
  "formation_energy_per_atom": -2.375833436020832,
  "energy_above_hull": 0.0,
  "is_stable": true,
  "equilibrium_reaction_energy_per_atom": null,
  "decomposes_to": null,
  "xas": null,
  "grain_boundaries": null,
  "band_gap": 1.4612999999999992,
  "cbm": null,
  "vbm": null,
  "efermi": 3.17920689,
  "is_gap_direct": null,
  "is_metal": null,
  "es_source_calc_id": null,
  "bandstructure": null,
  "dos": null,
  "dos_energy_up": null,
  "dos_energy_down": null,
  "is_magnetic": null,
  "ordering": null,
  "total_magnetization": 0.0,
  "total_magnetization_normalized_vol": null,
  "total_magnetization_normalized_formula_units": null,
  "num_magnetic_sites": null,
  "num_unique_magnetic_sites": null,
  "types_of_magnetic_species": null,
  "bulk_modulus": null,
  "shear_modulus": null,
  "universal_anisotropy": null,
  "homogeneous_poisson": null,
  "e_total": null,
  "e_ionic": null,
  "e_electronic": null,
  "n": null,
  "e_ij_max": null,
  "weighted_surface_energy_EV_PER_ANG2": null,
  "weighted_surface_energy": null,
  "weighted_work_function": null,
  "surface_anisotropy": null,
  "shape_factor": null,
  "has_reconstructed": null,
  "possible_species": null,
  "has_props": null,
  "theoretical": null,
  "database_IDs": null,
  "fields_not_requested": [
    "builder_meta",
    "nsites",
    "elements",
    "nelements",
    "composition",
    "composition_reduced",
    "chemsys",
    "symmetry",
    "property_name",
    "deprecated",
    "deprecation_reasons",
    "last_updated",
    "origins",
    "warnings",
    "task_ids",
    "uncorrected_energy_per_atom",
    "equilibrium_reaction_energy_per_atom",
    "decomposes_to",
    "xas",
    "grain_boundaries",
    "cbm",
    "vbm",
    "is_gap_direct",
    "is_metal",
    "es_source_calc_id",
    "bandstructure",
    "dos",
    "dos_energy_up",
    "dos_energy_down",
    "is_magnetic",
    "ordering",
    "total_magnetization_normalized_vol",
    "total_magnetization_normalized_formula_units",
    "num_magnetic_sites",
    "num_unique_magnetic_sites",
    "types_of_magnetic_species",
    "bulk_modulus",
    "shear_modulus",
    "universal_anisotropy",
    "homogeneous_poisson",
    "e_total",
    "e_ionic",
    "e_electronic",
    "n",
    "e_ij_max",
    "weighted_surface_energy_EV_PER_ANG2",
    "weighted_surface_energy",
    "weighted_work_function",
    "surface_anisotropy",
    "shape_factor",
    "has_reconstructed",
    "possible_species",
    "has_props",
    "theoretical",
    "database_IDs"
  ]
}
