{
  "builder_meta": null,
  "nsites": null,
  "elements": null,
  "nelements": null,
  "composition": null,
  "composition_reduced": null,
  "formula_pretty": "Ho2Sb5",
  "formula_anonymous": "A2B5",
  "chemsys": null,
  "volume": 793.8384745482914,
  "density": 7.85390334670628,
  "density_atomic": 28.351374091010406,
  "symmetry": null,
  "property_name": null,
  "material_id": "mp-11140",
  "deprecated": null,
  "deprecation_reasons": null,
  "last_updated": null,
  "origins": null,
  "warnings": null,
  "structure": {
    "@module": "pymatgen.core.structure",
    "@class": "Structure",
    "charge": 0,
    "lattice": {
      "matrix": [
        [4.20481881, 0.0, 0.0],
        [0.0, 12.83524746, -2.79355362],
        [0.0, -0.01812822, 14.71285964]
      ],
      "pbc": [true, true, true],
      "a": 4.20481881,
      "b": 13.135734436538048,
      "c": 14.712870808197199,
      "alpha": 102.34936041588432,
      "beta": 90.0,
      "gamma": 90.0,
      "volume": 793.8384745482914
    },
    "properties": {},
    "sites": [
      {
        "species": [{ "element": "Ho", "occu": 1 }],
        "abc": [0.25, 0.60597851, 0.77082891],
        "properties": { "magmom": -0.0 },
        "label": "Ho",
        "xyz": [1.0512047025, 7.763910375229245, 9.648264099031486]
      },
      {
        "species": [{ "element": "Ho", "occu": 1 }],
        "abc": [0.75, 0.39402149000000003, 0.22917109],
        "properties": { "magmom": -0.0 },
        "label": "Ho",
        "xyz": [3.1536141075, 5.053208864770756, 2.2710419209685133]
      },
      {
        "species": [{ "element": "Ho", "occu": 1 }],
        "abc": [0.25, 0.33777353, 0.8552381800000001],
        "properties": { "magmom": 0.0 },
        "label": "Ho",
        "xyz": [1.0512047025, 4.319902897108294, 11.639410833637376]
      },
      {
        "species": [{ "element": "Ho", "occu": 1 }],
        "abc": [0.75, 0.66222647, 0.14476182],
        "properties": { "magmom": 0.0 },
        "label": "Ho",
        "xyz": [3.1536141075, 8.497216342891706, 0.27989518636262356]
      },
      {
        "species": [{ "element": "Ho", "occu": 1 }],
        "abc": [0.25, 0.32985573, 0.57775847],
        "properties": { "magmom": 0.0 },
        "label": "Ho",
        "xyz": [1.0512047025, 4.223306187997922, 7.5790096063119075]
      },
      {
        "species": [{ "element": "Ho", "occu": 1 }],
        "abc": [0.75, 0.67014427, 0.42224153000000003],
        "properties": { "magmom": 0.0 },
        "label": "Ho",
        "xyz": [3.1536141075, 8.593813052002078, 4.340296413688092]
      },
      {
        "species": [{ "element": "Ho", "occu": 1 }],
        "abc": [0.25, 0.04780178, 0.36379051],
        "properties": { "magmom": 0.0 },
        "label": "Ho",
        "xyz": [1.0512047025, 0.6069528009292866, 5.218861876432573]
      },
      {
        "species": [{ "element": "Ho", "occu": 1 }],
        "abc": [0.75, 0.95219822, 0.63620849],
        "properties": { "magmom": 0.0 },
        "label": "Ho",
        "xyz": [3.1536141075, 12.210166457198932, 6.7004294307077865]
      },
      {
        "species": [{ "element": "Sb", "occu": 1 }],
        "abc": [0.25, 0.85929219, 0.7777117],
        "properties": { "magmom": -0.0 },
        "label": "Sb",
        "xyz": [1.0512047025, 11.015129370301164, 9.04188427447356]
      },
      {
        "species": [{ "element": "Sb", "occu": 1 }],
        "abc": [0.75, 0.14070781000000002, 0.2222883],
        "properties": { "magmom": -0.0 },
        "label": "Sb",
        "xyz": [3.1536141075, 1.8019898696988368, 2.8774217455264397]
      },
      {
        "species": [{ "element": "Sb", "occu": 1 }],
        "abc": [0.25, 0.85756422, 0.48133773],
        "properties": { "magmom": -0.0 },
        "label": "Sb",
        "xyz": [1.0512047025, 10.99832318027814, 4.686202829762741]
      },
      {
        "species": [{ "element": "Sb", "occu": 1 }],
        "abc": [0.75, 0.14243578, 0.51866227],
        "properties": { "magmom": -0.0 },
        "label": "Sb",
        "xyz": [3.1536141075, 1.8187960597218595, 7.233103190237259]
      },
      {
        "species": [{ "element": "Sb", "occu": 1 }],
        "abc": [0.25, 0.84713622, 0.17531013],
        "properties": { "magmom": -0.0 },
        "label": "Sb",
        "xyz": [1.0512047025, 10.870024955424132, 0.21279288214603698]
      },
      {
        "species": [{ "element": "Sb", "occu": 1 }],
        "abc": [0.75, 0.15286378, 0.82468987],
        "properties": { "magmom": -0.0 },
        "label": "Sb",
        "xyz": [3.1536141075, 1.9470942845758674, 11.706513137853962]
      },
      {
        "species": [{ "element": "Sb", "occu": 1 }],
        "abc": [0.25, 0.57995529, 0.974898199999999],
        "properties": { "magmom": -0.0 },
        "label": "Sb",
        "xyz": [1.0512047025, 7.42619649383886, 12.723404180070984]
      },
      {
        "species": [{ "element": "Sb", "occu": 1 }],
        "abc": [0.75, 0.42004471, 0.0251018],
        "properties": { "magmom": -0.0 },
        "label": "Sb",
        "xyz": [3.1536141075, 5.39092274616114, -0.8040981600709982]
      },
      {
        "species": [{ "element": "Sb", "occu": 1 }],
        "abc": [0.75, 0.96984324, 0.89872293],
        "properties": { "magmom": 0.0 },
        "label": "Sb",
        "xyz": [3.1536141075, 12.431885735814086, 10.513475230405016]
      },
      {
        "species": [{ "element": "Sb", "occu": 1 }],
        "abc": [0.25, 0.03015676, 0.10127707],
        "properties": { "magmom": 0.0 },
        "label": "Sb",
        "xyz": [1.0512047025, 0.3852335041859142, 1.4058307895949835]
      },
      {
        "species": [{ "element": "Sb", "occu": 1 }],
        "abc": [0.75, 0.8617361, 0.32309414000000003],
        "properties": { "magmom": -0.0 },
        "label": "Sb",
        "xyz": [3.1536141075, 11.054738967064674, 2.3463327306868282]
      },
      {
        "species": [{ "element": "Sb", "occu": 1 }],
        "abc": [0.25, 0.1382639, 0.67690586],
        "properties": { "magmom": -0.0 },
        "label": "Sb",
        "xyz": [1.0512047025, 1.7623802729353246, 9.572973289313172]
      },
      {
        "species": [{ "element": "Sb", "occu": 1 }],
        "abc": [0.75, 0.71905441, 0.939646499999999],
        "properties": { "magmom": -0.0 },
        "label": "Sb",
        "xyz": [3.1536141075, 9.212207171080069, 11.816170015684781]
      },
      {
        "species": [{ "element": "Sb", "occu": 1 }],
        "abc": [0.25, 0.28094559, 0.0603535],
        "properties": { "magmom": -0.0 },
        "label": "Sb",
        "xyz": [1.0512047025, 3.6049120689199317, 0.10313600431520409]
      },
      {
        "species": [{ "element": "Sb", "occu": 1 }],
        "abc": [0.75, 0.71226808, 0.65014933],
        "properties": { "magmom": 0.0 },
        "label": "Sb",
        "xyz": [3.1536141075, 9.130351014571984, 7.575796764035591]
      },
      {
        "species": [{ "element": "Sb", "occu": 1 }],
        "abc": [0.25, 0.28773192000000003, 0.34985067000000003],
        "properties": { "magmom": 0.0 },
        "label": "Sb",
        "xyz": [1.0512047025, 3.686768225428016, 4.343509255964408]
      },
      {
        "species": [{ "element": "Sb", "occu": 1 }],
        "abc": [0.75, 0.42381262000000003, 0.73455999],
        "properties": { "magmom": -0.0 },
        "label": "Sb",
        "xyz": [3.1536141075, 5.426423589269028, 9.623534751227119]
      },
      {
        "species": [{ "element": "Sb", "occu": 1 }],
        "abc": [0.25, 0.57618738, 0.26544001],
        "properties": { "magmom": -0.0 },
        "label": "Sb",
        "xyz": [1.0512047025, 7.390695650730972, 2.2957712687728806]
      },
      {
        "species": [{ "element": "Sb", "occu": 1 }],
        "abc": [0.75, 0.42402252, 0.44743811],
        "properties": { "magmom": 0.0 },
        "label": "Sb",
        "xyz": [3.1536141075, 5.434322716318335, 5.3985644643093575]
      },
      {
        "species": [{ "element": "Sb", "occu": 1 }],
        "abc": [0.25, 0.57597748, 0.55256189],
        "properties": { "magmom": 0.0 },
        "label": "Sb",
        "xyz": [1.0512047025, 7.382796523681665, 6.520741555690642]
      }
    ]
  },
  "task_ids": null,
  "uncorrected_energy_per_atom": null,
  "energy_per_atom": -28.485539149285717,
  "formation_energy_per_atom": -0.7292153664285721,
  "energy_above_hull": 0.037926623571426,
  "is_stable": false,
  "equilibrium_reaction_energy_per_atom": null,
  "decomposes_to": null,
  "xas": null,
  "grain_boundaries": null,
  "band_gap": 0.0,
  "cbm": null,
  "vbm": null,
  "efermi": 6.35278171,
  "is_gap_direct": null,
  "is_metal": null,
  "es_source_calc_id": null,
  "bandstructure": null,
  "dos": null,
  "dos_energy_up": null,
  "dos_energy_down": null,
  "is_magnetic": null,
  "ordering": null,
  "total_magnetization": 3e-7,
  "total_magnetization_normalized_vol": null,
  "total_magnetization_normalized_formula_units": null,
  "num_magnetic_sites": null,
  "num_unique_magnetic_sites": null,
  "types_of_magnetic_species": null,
  "bulk_modulus": null,
  "shear_modulus": null,
  "universal_anisotropy": null,
  "homogeneous_poisson": null,
  "e_total": null,
  "e_ionic": null,
  "e_electronic": null,
  "n": null,
  "e_ij_max": null,
  "weighted_surface_energy_EV_PER_ANG2": null,
  "weighted_surface_energy": null,
  "weighted_work_function": null,
  "surface_anisotropy": null,
  "shape_factor": null,
  "has_reconstructed": null,
  "possible_species": null,
  "has_props": null,
  "theoretical": null,
  "database_IDs": null,
  "fields_not_requested": [
    "builder_meta",
    "nsites",
    "elements",
    "nelements",
    "composition",
    "composition_reduced",
    "chemsys",
    "symmetry",
    "property_name",
    "deprecated",
    "deprecation_reasons",
    "last_updated",
    "origins",
    "warnings",
    "task_ids",
    "uncorrected_energy_per_atom",
    "equilibrium_reaction_energy_per_atom",
    "decomposes_to",
    "xas",
    "grain_boundaries",
    "cbm",
    "vbm",
    "is_gap_direct",
    "is_metal",
    "es_source_calc_id",
    "bandstructure",
    "dos",
    "dos_energy_up",
    "dos_energy_down",
    "is_magnetic",
    "ordering",
    "total_magnetization_normalized_vol",
    "total_magnetization_normalized_formula_units",
    "num_magnetic_sites",
    "num_unique_magnetic_sites",
    "types_of_magnetic_species",
    "bulk_modulus",
    "shear_modulus",
    "universal_anisotropy",
    "homogeneous_poisson",
    "e_total",
    "e_ionic",
    "e_electronic",
    "n",
    "e_ij_max",
    "weighted_surface_energy_EV_PER_ANG2",
    "weighted_surface_energy",
    "weighted_work_function",
    "surface_anisotropy",
    "shape_factor",
    "has_reconstructed",
    "possible_species",
    "has_props",
    "theoretical",
    "database_IDs"
  ]
}
