{"builder_meta": null, "nsites": null, "elements": null, "nelements": null, "composition": null, "composition_reduced": null, "formula_pretty": "Ho2Te3", "formula_anonymous": "A2B3", "chemsys": null, "volume": 693.9285991421946, "density": 6.821455898552266, "density_atomic": 34.69642995710973, "symmetry": null, "property_name": null, "material_id": "mp-1189209", "deprecated": null, "deprecation_reasons": null, "last_updated": null, "origins": null, "warnings": null, "structure": {"@module": "pymatgen.core.structure", "@class": "Structure", "charge": 0, "lattice": {"matrix": [[6.13447219, 4.34791061, 0.0], [-6.13447219, 4.34791061, -0.0], [0.0, -4.34791061, 13.00849284]], "pbc": [true, true, true], "a": 7.519047527608398, "b": 7.519047527608398, "c": 13.715874475981538, "alpha": 100.56234024996216, "beta": 100.56234024996216, "gamma": 109.34449894936596, "volume": 693.9285991421946}, "properties": {}, "sites": [{"species": [{"element": "Ho", "occu": 1}], "abc": [0.708089899999999, 0.958089899999999, 0.91617879], "properties": {"magmom": -0.0}, "label": "Ho", "xyz": [-1.5336180475, 3.260937348889707, 11.918105229874865]}, {"species": [{"element": "Ho", "occu": 1}], "abc": [0.5419101, 0.7919101, 0.58382121], "properties": {"magmom": -0.0}, "label": "Ho", "xyz": [-1.5336180475, 3.2609285661102834, 7.594634030125136]}, {"species": [{"element": "Ho", "occu": 1}], "abc": [0.2919101, 0.0419101, 0.08382121000000001], "properties": {"magmom": -0.0}, "label": "Ho", "xyz": [1.5336180475, 1.0869732611102838, 1.0903876101251366]}, {"species": [{"element": "Ho", "occu": 1}], "abc": [0.4580899, 0.2080899, 0.41617879], "properties": {"magmom": -0.0}, "label": "Ho", "xyz": [1.5336180474999999, 1.0869820438897158, 5.413858809874864]}, {"species": [{"element": "Ho", "occu": 1}], "abc": [0.37430535, 0.62430535, 0.24860969], "properties": {"magmom": 0.0}, "label": "Ho", "xyz": [-1.5336180475, 3.2609373488897155, 3.23403737231962]}, {"species": [{"element": "Ho", "occu": 1}], "abc": [0.87569465, 0.12569465, 0.25139031], "properties": {"magmom": 0.0}, "label": "Ho", "xyz": [4.600854142500001, 3.260928566110284, 3.2702090476803805]}, {"species": [{"element": "Ho", "occu": 1}], "abc": [0.62569465, 0.37569465, 0.75139031], "properties": {"magmom": 0.0}, "label": "Ho", "xyz": [1.5336180475, 1.086973261110284, 9.774455467680381]}, {"species": [{"element": "Ho", "occu": 1}], "abc": [0.12430535000000001, 0.87430535, 0.74860969], "properties": {"magmom": 0.0}, "label": "Ho", "xyz": [-4.600854142499999, 1.0869820438897158, 9.73828379231962]}, {"species": [{"element": "Te", "occu": 1}], "abc": [0.87465483, 0.12465483000000001, 0.75], "properties": {"magmom": 0.0}, "label": "Te", "xyz": [4.6008541425, 1.0839761158894925, 9.75636963]}, {"species": [{"element": "Te", "occu": 1}], "abc": [0.37534517, 0.62534517, 0.75], "properties": {"magmom": 0.0}, "label": "Te", "xyz": [-1.5336180475, 1.0899791891105073, 9.75636963]}, {"species": [{"element": "Te", "occu": 1}], "abc": [0.12534517, 0.87534517, 0.25], "properties": {"magmom": 0.0}, "label": "Te", "xyz": [-4.6008541425, 3.263934494110507, 3.25212321]}, {"species": [{"element": "Te", "occu": 1}], "abc": [0.62465483, 0.37465483, 0.25], "properties": {"magmom": 0.0}, "label": "Te", "xyz": [1.5336180475, 3.2579314208894923, 3.25212321]}, {"species": [{"element": "Te", "occu": 1}], "abc": [0.54393147, 0.79563651, 0.08496712000000001], "properties": {"magmom": -0.0}, "label": "Te", "xyz": [-1.5440775679628378, 5.454892390509124, 1.105294172155421]}, {"species": [{"element": "Te", "occu": 1}], "abc": [0.70436349, 0.95606853, 0.41503288], "properties": {"magmom": -0.0}, "label": "Te", "xyz": [-1.5440775679628373, 5.414884134490875, 5.398952247844579]}, {"species": [{"element": "Te", "occu": 1}], "abc": [0.21067039, 0.45896535, 0.41503288], "properties": {"magmom": -0.0}, "label": "Te", "xyz": [-1.5231585270371626, 1.1069904763303444, 5.398952247844579]}, {"species": [{"element": "Te", "occu": 1}], "abc": [0.04103465, 0.28933061, 0.08496712000000001], "properties": {"magmom": -0.0}, "label": "Te", "xyz": [-1.5231646615093526, 1.0669691765802651, 1.105294172155421]}, {"species": [{"element": "Te", "occu": 1}], "abc": [0.45606853, 0.20436349, 0.91503288], "properties": {"magmom": -0.0}, "label": "Te", "xyz": [1.5440775679628378, -1.1069817805091247, 11.903198667844581]}, {"species": [{"element": "Te", "occu": 1}], "abc": [0.29563651, 0.04393147, 0.5849671200000001], "properties": {"magmom": -0.0}, "label": "Te", "xyz": [1.5440775679628378, -1.0669735244908753, 7.609540592155422]}, {"species": [{"element": "Te", "occu": 1}], "abc": [0.78932961, 0.5410346500000001, 0.5849671200000001], "properties": {"magmom": -0.0}, "label": "Te", "xyz": [1.523158527037162, 3.240920133669655, 7.609540592155422]}, {"species": [{"element": "Te", "occu": 1}], "abc": [0.95896535, 0.71067039, 0.91503288], "properties": {"magmom": -0.0}, "label": "Te", "xyz": [1.5231585270371628, 3.280945781330344, 11.903198667844581]}]}, "task_ids": null, "uncorrected_energy_per_atom": null, "energy_per_atom": -30.068521443499996, "formation_energy_per_atom": -1.6656492915, "energy_above_hull": 0.0, "is_stable": true, "equilibrium_reaction_energy_per_atom": null, "decomposes_to": null, "xas": null, "grain_boundaries": null, "band_gap": 0.530799999999999, "cbm": null, "vbm": null, "efermi": 3.790564889999999, "is_gap_direct": null, "is_metal": null, "es_source_calc_id": null, "bandstructure": null, "dos": null, "dos_energy_up": null, "dos_energy_down": null, "is_magnetic": null, "ordering": null, "total_magnetization": 0.0, "total_magnetization_normalized_vol": null, "total_magnetization_normalized_formula_units": null, "num_magnetic_sites": null, "num_unique_magnetic_sites": null, "types_of_magnetic_species": null, "bulk_modulus": null, "shear_modulus": null, "universal_anisotropy": null, "homogeneous_poisson": null, "e_total": null, "e_ionic": null, "e_electronic": null, "n": null, "e_ij_max": null, "weighted_surface_energy_EV_PER_ANG2": null, "weighted_surface_energy": null, "weighted_work_function": null, "surface_anisotropy": null, "shape_factor": null, "has_reconstructed": null, "possible_species": null, "has_props": null, "theoretical": null, "database_IDs": null, "fields_not_requested": ["builder_meta", "nsites", "elements", "nelements", "composition", "composition_reduced", "chemsys", "symmetry", "property_name", "deprecated", "deprecation_reasons", "last_updated", "origins", "warnings", "task_ids", "uncorrected_energy_per_atom", "equilibrium_reaction_energy_per_atom", "decomposes_to", "xas", "grain_boundaries", "cbm", "vbm", "is_gap_direct", "is_metal", "es_source_calc_id", "bandstructure", "dos", "dos_energy_up", "dos_energy_down", "is_magnetic", "ordering", "total_magnetization_normalized_vol", "total_magnetization_normalized_formula_units", "num_magnetic_sites", "num_unique_magnetic_sites", "types_of_magnetic_species", "bulk_modulus", "shear_modulus", "universal_anisotropy", "homogeneous_poisson", "e_total", "e_ionic", "e_electronic", "n", "e_ij_max", "weighted_surface_energy_EV_PER_ANG2", "weighted_surface_energy", "weighted_work_function", "surface_anisotropy", "shape_factor", "has_reconstructed", "possible_species", "has_props", "theoretical", "database_IDs"]}