{
  "builder_meta": null,
  "nsites": null,
  "elements": null,
  "nelements": null,
  "composition": null,
  "composition_reduced": null,
  "formula_pretty": "Ho2Te5",
  "formula_anonymous": "A2B5",
  "chemsys": null,
  "volume": 419.59874646344997,
  "density": 7.660510987177004,
  "density_atomic": 29.97133903310357,
  "symmetry": null,
  "property_name": null,
  "material_id": "mp-1105026",
  "deprecated": null,
  "deprecation_reasons": null,
  "last_updated": null,
  "origins": null,
  "warnings": null,
  "structure": {
    "@module": "pymatgen.core.structure",
    "@class": "Structure",
    "charge": 0,
    "lattice": {
      "matrix": [
        [2.189832, -21.865473, 0.0],
        [2.189832, 21.865473, 0.0],
        [0.0, 0.0, 4.381618]
      ],
      "pbc": [true, true, true],
      "a": 21.974855487623874,
      "b": 21.974855487623874,
      "c": 4.381618,
      "alpha": 90.0,
      "beta": 90.0,
      "gamma": 168.5617701135235,
      "volume": 419.59874646344997
    },
    "properties": {},
    "sites": [
      {
        "species": [{ "element": "Ho", "occu": 1 }],
        "abc": [0.099666999999999, 0.900332999999999, 0.75],
        "properties": { "magmom": 0.0 },
        "label": "Ho",
        "xyz": [2.189831999999996, 17.506940805018004, 3.2862134999999997]
      },
      {
        "species": [{ "element": "Ho", "occu": 1 }],
        "abc": [0.900332999999999, 0.099666999999999, 0.25],
        "properties": { "magmom": 0.0 },
        "label": "Ho",
        "xyz": [2.189831999999996, -17.506940805018004, 1.0954045]
      },
      {
        "species": [{ "element": "Ho", "occu": 1 }],
        "abc": [0.306392999999999, 0.693607, 0.75],
        "properties": { "magmom": -0.0 },
        "label": "Ho",
        "xyz": [2.189831999999998, 8.46661726222202, 3.2862134999999997]
      },
      {
        "species": [{ "element": "Ho", "occu": 1 }],
        "abc": [0.693607, 0.306392999999999, 0.25],
        "properties": { "magmom": -0.0 },
        "label": "Ho",
        "xyz": [2.189831999999998, -8.46661726222202, 1.0954045]
      },
      {
        "species": [{ "element": "Te", "occu": 1 }],
        "abc": [0.9558300000000001, 0.04417, 0.75],
        "properties": { "magmom": 0.0 },
        "label": "Te",
        "xyz": [2.189832, -19.933877115180003, 3.2862134999999997]
      },
      {
        "species": [{ "element": "Te", "occu": 1 }],
        "abc": [0.04417, 0.9558300000000001, 0.25],
        "properties": { "magmom": 0.0 },
        "label": "Te",
        "xyz": [2.189832, 19.933877115180003, 1.0954045]
      },
      {
        "species": [{ "element": "Te", "occu": 1 }],
        "abc": [0.544241, 0.455758999999999, 0.75],
        "properties": { "magmom": 0.0 },
        "label": "Te",
        "xyz": [2.189831999999998, -1.9347007819860202, 3.2862134999999997]
      },
      {
        "species": [{ "element": "Te", "occu": 1 }],
        "abc": [0.455758999999999, 0.544241, 0.25],
        "properties": { "magmom": 0.0 },
        "label": "Te",
        "xyz": [2.189831999999998, 1.9347007819860202, 1.0954045]
      },
      {
        "species": [{ "element": "Te", "occu": 1 }],
        "abc": [0.750000999999999, 0.249999, 0.75],
        "properties": { "magmom": -0.0 },
        "label": "Te",
        "xyz": [2.1898319999999982, -10.93278023094598, 3.2862134999999997]
      },
      {
        "species": [{ "element": "Te", "occu": 1 }],
        "abc": [0.249999, 0.750000999999999, 0.25],
        "properties": { "magmom": -0.0 },
        "label": "Te",
        "xyz": [2.1898319999999982, 10.93278023094598, 1.0954045]
      },
      {
        "species": [{ "element": "Te", "occu": 1 }],
        "abc": [0.173514, 0.826485999999999, 0.75],
        "properties": { "magmom": -0.0 },
        "label": "Te",
        "xyz": [2.189831999999998, 14.27754163575598, 3.2862134999999997]
      },
      {
        "species": [{ "element": "Te", "occu": 1 }],
        "abc": [0.826485999999999, 0.173514, 0.25],
        "properties": { "magmom": -0.0 },
        "label": "Te",
        "xyz": [2.189831999999998, -14.27754163575598, 1.0954045]
      },
      {
        "species": [{ "element": "Te", "occu": 1 }],
        "abc": [0.378501, 0.621499, 0.75],
        "properties": { "magmom": -0.0 },
        "label": "Te",
        "xyz": [2.189832, 5.313266208054003, 3.2862134999999997]
      },
      {
        "species": [{ "element": "Te", "occu": 1 }],
        "abc": [0.621499, 0.378501, 0.25],
        "properties": { "magmom": -0.0 },
        "label": "Te",
        "xyz": [2.189832, -5.313266208054003, 1.0954045]
      }
    ]
  },
  "task_ids": null,
  "uncorrected_energy_per_atom": null,
  "energy_per_atom": -28.6798129625,
  "formation_energy_per_atom": -1.129983051071434,
  "energy_above_hull": 0.059766442857139,
  "is_stable": false,
  "equilibrium_reaction_energy_per_atom": null,
  "decomposes_to": null,
  "xas": null,
  "grain_boundaries": null,
  "band_gap": 0.0,
  "cbm": null,
  "vbm": null,
  "efermi": 5.93257793,
  "is_gap_direct": null,
  "is_metal": null,
  "es_source_calc_id": null,
  "bandstructure": null,
  "dos": null,
  "dos_energy_up": null,
  "dos_energy_down": null,
  "is_magnetic": null,
  "ordering": null,
  "total_magnetization": 0.0186969,
  "total_magnetization_normalized_vol": null,
  "total_magnetization_normalized_formula_units": null,
  "num_magnetic_sites": null,
  "num_unique_magnetic_sites": null,
  "types_of_magnetic_species": null,
  "bulk_modulus": null,
  "shear_modulus": null,
  "universal_anisotropy": null,
  "homogeneous_poisson": null,
  "e_total": null,
  "e_ionic": null,
  "e_electronic": null,
  "n": null,
  "e_ij_max": null,
  "weighted_surface_energy_EV_PER_ANG2": null,
  "weighted_surface_energy": null,
  "weighted_work_function": null,
  "surface_anisotropy": null,
  "shape_factor": null,
  "has_reconstructed": null,
  "possible_species": null,
  "has_props": null,
  "theoretical": null,
  "database_IDs": null,
  "fields_not_requested": [
    "builder_meta",
    "nsites",
    "elements",
    "nelements",
    "composition",
    "composition_reduced",
    "chemsys",
    "symmetry",
    "property_name",
    "deprecated",
    "deprecation_reasons",
    "last_updated",
    "origins",
    "warnings",
    "task_ids",
    "uncorrected_energy_per_atom",
    "equilibrium_reaction_energy_per_atom",
    "decomposes_to",
    "xas",
    "grain_boundaries",
    "cbm",
    "vbm",
    "is_gap_direct",
    "is_metal",
    "es_source_calc_id",
    "bandstructure",
    "dos",
    "dos_energy_up",
    "dos_energy_down",
    "is_magnetic",
    "ordering",
    "total_magnetization_normalized_vol",
    "total_magnetization_normalized_formula_units",
    "num_magnetic_sites",
    "num_unique_magnetic_sites",
    "types_of_magnetic_species",
    "bulk_modulus",
    "shear_modulus",
    "universal_anisotropy",
    "homogeneous_poisson",
    "e_total",
    "e_ionic",
    "e_electronic",
    "n",
    "e_ij_max",
    "weighted_surface_energy_EV_PER_ANG2",
    "weighted_surface_energy",
    "weighted_work_function",
    "surface_anisotropy",
    "shape_factor",
    "has_reconstructed",
    "possible_species",
    "has_props",
    "theoretical",
    "database_IDs"
  ]
}
