{
  "builder_meta": null,
  "nsites": null,
  "elements": null,
  "nelements": null,
  "composition": null,
  "composition_reduced": null,
  "formula_pretty": "Ho3Al2",
  "formula_anonymous": "A2B3",
  "chemsys": null,
  "volume": 504.59698753825137,
  "density": 7.223408297941876,
  "density_atomic": 25.22984937691257,
  "symmetry": null,
  "property_name": null,
  "material_id": "mp-1106135",
  "deprecated": null,
  "deprecation_reasons": null,
  "last_updated": null,
  "origins": null,
  "warnings": null,
  "structure": {
    "@module": "pymatgen.core.structure",
    "@class": "Structure",
    "charge": 0,
    "lattice": {
      "matrix": [
        [8.15342056, -0.0, 0.0],
        [-0.0, 8.15342056, 0.0],
        [0.0, 0.0, 7.59040528]
      ],
      "pbc": [true, true, true],
      "a": 8.15342056,
      "b": 8.15342056,
      "c": 7.59040528,
      "alpha": 90.0,
      "beta": 90.0,
      "gamma": 90.0,
      "volume": 504.59698753825137
    },
    "properties": {},
    "sites": [
      {
        "species": [{ "element": "Ho", "occu": 1 }],
        "abc": [-0.0, 0.5, 0.25],
        "properties": { "magmom": 0.0 },
        "label": "Ho",
        "xyz": [0.0, 4.07671028, 1.89760132]
      },
      {
        "species": [{ "element": "Ho", "occu": 1 }],
        "abc": [0.5, -0.0, 0.75],
        "properties": { "magmom": 0.0 },
        "label": "Ho",
        "xyz": [4.07671028, 0.0, 5.69280396]
      },
      {
        "species": [{ "element": "Ho", "occu": 1 }],
        "abc": [0.5, -0.0, 0.25],
        "properties": { "magmom": 0.0 },
        "label": "Ho",
        "xyz": [4.07671028, 0.0, 1.89760132]
      },
      {
        "species": [{ "element": "Ho", "occu": 1 }],
        "abc": [-0.0, 0.5, 0.75],
        "properties": { "magmom": 0.0 },
        "label": "Ho",
        "xyz": [0.0, 4.07671028, 5.69280396]
      },
      {
        "species": [{ "element": "Ho", "occu": 1 }],
        "abc": [0.15114971, 0.84885029, 0.5],
        "properties": { "magmom": -0.0 },
        "label": "Ho",
        "xyz": [1.2323871531520376, 6.921033406847963, 3.79520264]
      },
      {
        "species": [{ "element": "Ho", "occu": 1 }],
        "abc": [0.84885029, 0.15114971, 0.5],
        "properties": { "magmom": -0.0 },
        "label": "Ho",
        "xyz": [6.921033406847963, 1.2323871531520376, 3.79520264]
      },
      {
        "species": [{ "element": "Ho", "occu": 1 }],
        "abc": [0.34885129, 0.34885129, 0.0],
        "properties": { "magmom": -0.0 },
        "label": "Ho",
        "xyz": [2.8443312802685226, 2.8443312802685226, 0.0]
      },
      {
        "species": [{ "element": "Ho", "occu": 1 }],
        "abc": [0.65114871, 0.65114871, 0.0],
        "properties": { "magmom": -0.0 },
        "label": "Ho",
        "xyz": [5.309089279731478, 5.309089279731478, 0.0]
      },
      {
        "species": [{ "element": "Ho", "occu": 1 }],
        "abc": [0.201620599999999, 0.7983794, 0.0],
        "properties": { "magmom": -0.0 },
        "label": "Ho",
        "xyz": [1.6438975453595281, 6.509523014640465, 0.0]
      },
      {
        "species": [{ "element": "Ho", "occu": 1 }],
        "abc": [0.7983794, 0.201620599999999, 0.0],
        "properties": { "magmom": -0.0 },
        "label": "Ho",
        "xyz": [6.509523014640465, 1.6438975453595281, 0.0]
      },
      {
        "species": [{ "element": "Ho", "occu": 1 }],
        "abc": [0.2983784, 0.2983784, 0.5],
        "properties": { "magmom": -0.0 },
        "label": "Ho",
        "xyz": [2.432804581219904, 2.432804581219904, 3.79520264]
      },
      {
        "species": [{ "element": "Ho", "occu": 1 }],
        "abc": [0.7016216, 0.7016216, 0.5],
        "properties": { "magmom": -0.0 },
        "label": "Ho",
        "xyz": [5.7206159787800965, 5.7206159787800965, 3.79520264]
      },
      {
        "species": [{ "element": "Al", "occu": 1 }],
        "abc": [0.38149203, 0.61850797, 0.30357657],
        "properties": { "magmom": 0.0 },
        "label": "Al",
        "xyz": [3.110464960878137, 5.042955599121864, 2.3042691998122895]
      },
      {
        "species": [{ "element": "Al", "occu": 1 }],
        "abc": [0.61850797, 0.38149203, 0.30357657],
        "properties": { "magmom": 0.0 },
        "label": "Al",
        "xyz": [5.042955599121864, 3.110464960878137, 2.3042691998122895]
      },
      {
        "species": [{ "element": "Al", "occu": 1 }],
        "abc": [0.11850797, 0.11850797, 0.80357657],
        "properties": { "magmom": 0.0 },
        "label": "Al",
        "xyz": [0.9662453191218633, 0.9662453191218633, 6.099471839812289]
      },
      {
        "species": [{ "element": "Al", "occu": 1 }],
        "abc": [0.88149203, 0.88149203, 0.80357657],
        "properties": { "magmom": 0.0 },
        "label": "Al",
        "xyz": [7.187175240878137, 7.187175240878137, 6.099471839812289]
      },
      {
        "species": [{ "element": "Al", "occu": 1 }],
        "abc": [0.38149203, 0.61850797, 0.6964234300000001],
        "properties": { "magmom": 0.0 },
        "label": "Al",
        "xyz": [3.110464960878137, 5.042955599121864, 5.286136080187711]
      },
      {
        "species": [{ "element": "Al", "occu": 1 }],
        "abc": [0.61850797, 0.38149203, 0.6964234300000001],
        "properties": { "magmom": 0.0 },
        "label": "Al",
        "xyz": [5.042955599121864, 3.110464960878137, 5.286136080187711]
      },
      {
        "species": [{ "element": "Al", "occu": 1 }],
        "abc": [0.11850797, 0.11850797, 0.19642343],
        "properties": { "magmom": 0.0 },
        "label": "Al",
        "xyz": [0.9662453191218633, 0.9662453191218633, 1.4909334401877103]
      },
      {
        "species": [{ "element": "Al", "occu": 1 }],
        "abc": [0.88149203, 0.88149203, 0.19642343],
        "properties": { "magmom": 0.0 },
        "label": "Al",
        "xyz": [7.187175240878137, 7.187175240878137, 1.4909334401877103]
      }
    ]
  },
  "task_ids": null,
  "uncorrected_energy_per_atom": null,
  "energy_per_atom": -22.801095368,
  "formation_energy_per_atom": -0.37944968699999804,
  "energy_above_hull": 0.018532268749999,
  "is_stable": false,
  "equilibrium_reaction_energy_per_atom": null,
  "decomposes_to": null,
  "xas": null,
  "grain_boundaries": null,
  "band_gap": 0.0,
  "cbm": null,
  "vbm": null,
  "efermi": 3.96680289,
  "is_gap_direct": null,
  "is_metal": null,
  "es_source_calc_id": null,
  "bandstructure": null,
  "dos": null,
  "dos_energy_up": null,
  "dos_energy_down": null,
  "is_magnetic": null,
  "ordering": null,
  "total_magnetization": 1.0600000000000002e-5,
  "total_magnetization_normalized_vol": null,
  "total_magnetization_normalized_formula_units": null,
  "num_magnetic_sites": null,
  "num_unique_magnetic_sites": null,
  "types_of_magnetic_species": null,
  "bulk_modulus": null,
  "shear_modulus": null,
  "universal_anisotropy": null,
  "homogeneous_poisson": null,
  "e_total": null,
  "e_ionic": null,
  "e_electronic": null,
  "n": null,
  "e_ij_max": null,
  "weighted_surface_energy_EV_PER_ANG2": null,
  "weighted_surface_energy": null,
  "weighted_work_function": null,
  "surface_anisotropy": null,
  "shape_factor": null,
  "has_reconstructed": null,
  "possible_species": null,
  "has_props": null,
  "theoretical": null,
  "database_IDs": null,
  "fields_not_requested": [
    "builder_meta",
    "nsites",
    "elements",
    "nelements",
    "composition",
    "composition_reduced",
    "chemsys",
    "symmetry",
    "property_name",
    "deprecated",
    "deprecation_reasons",
    "last_updated",
    "origins",
    "warnings",
    "task_ids",
    "uncorrected_energy_per_atom",
    "equilibrium_reaction_energy_per_atom",
    "decomposes_to",
    "xas",
    "grain_boundaries",
    "cbm",
    "vbm",
    "is_gap_direct",
    "is_metal",
    "es_source_calc_id",
    "bandstructure",
    "dos",
    "dos_energy_up",
    "dos_energy_down",
    "is_magnetic",
    "ordering",
    "total_magnetization_normalized_vol",
    "total_magnetization_normalized_formula_units",
    "num_magnetic_sites",
    "num_unique_magnetic_sites",
    "types_of_magnetic_species",
    "bulk_modulus",
    "shear_modulus",
    "universal_anisotropy",
    "homogeneous_poisson",
    "e_total",
    "e_ionic",
    "e_electronic",
    "n",
    "e_ij_max",
    "weighted_surface_energy_EV_PER_ANG2",
    "weighted_surface_energy",
    "weighted_work_function",
    "surface_anisotropy",
    "shape_factor",
    "has_reconstructed",
    "possible_species",
    "has_props",
    "theoretical",
    "database_IDs"
  ]
}
