{"builder_meta": null, "nsites": null, "elements": null, "nelements": null, "composition": null, "composition_reduced": null, "formula_pretty": "Ho3Co", "formula_anonymous": "AB3", "chemsys": null, "volume": 396.1605677681754, "density": 9.28391835338477, "density_atomic": 24.76003548551096, "symmetry": null, "property_name": null, "material_id": "mp-622565", "deprecated": null, "deprecation_reasons": null, "last_updated": null, "origins": null, "warnings": null, "structure": {"@module": "pymatgen.core.structure", "@class": "Structure", "charge": 0, "lattice": {"matrix": [[6.17657475, 0.0, 0.0], [-0.0, 6.8411469799999995, 0.0], [0.0, 0.0, 9.37550398]], "pbc": [true, true, true], "a": 6.17657475, "b": 6.8411469799999995, "c": 9.37550398, "alpha": 90.0, "beta": 90.0, "gamma": 90.0, "volume": 396.1605677681753}, "properties": {}, "sites": [{"species": [{"element": "Ho", "occu": 1}], "abc": [0.6791479300000001, 0.17276281000000002, 0.06902511], "properties": {"magmom": 0.0}, "label": "Ho", "xyz": [4.1948079559527685, 1.181895775887814, 0.6471451935249378]}, {"species": [{"element": "Ho", "occu": 1}], "abc": [0.35981131, 0.54549165, 0.25], "properties": {"magmom": 0.0}, "label": "Ho", "xyz": [2.2224014521104225, 3.731788554012717, 2.343875995]}, {"species": [{"element": "Ho", "occu": 1}], "abc": [0.14018869, 0.04549165, 0.25], "properties": {"magmom": 0.0}, "label": "Ho", "xyz": [0.8658859228895776, 0.311215064012717, 2.343875995]}, {"species": [{"element": "Ho", "occu": 1}], "abc": [0.82085207, 0.67276281, 0.43097489], "properties": {"magmom": 0.0}, "label": "Ho", "xyz": [5.070054169047233, 4.602469265887814, 4.040606796475062]}, {"species": [{"element": "Ho", "occu": 1}], "abc": [0.32085207, 0.8272371900000001, 0.93097489], "properties": {"magmom": 0.0}, "label": "Ho", "xyz": [1.9817667940472325, 5.659251204112186, 8.728358786475061]}, {"species": [{"element": "Ho", "occu": 1}], "abc": [0.17914793, 0.32723719, 0.56902511], "properties": {"magmom": 0.0}, "label": "Ho", "xyz": [1.1065205809527676, 2.2386777141121863, 5.334897183524937]}, {"species": [{"element": "Ho", "occu": 1}], "abc": [0.6791479300000001, 0.17276281000000002, 0.43097489], "properties": {"magmom": 0.0}, "label": "Ho", "xyz": [4.1948079559527685, 1.181895775887814, 4.040606796475062]}, {"species": [{"element": "Ho", "occu": 1}], "abc": [0.17914793, 0.32723719, 0.93097489], "properties": {"magmom": 0.0}, "label": "Ho", "xyz": [1.1065205809527676, 2.2386777141121863, 8.728358786475061]}, {"species": [{"element": "Ho", "occu": 1}], "abc": [0.32085207, 0.8272371900000001, 0.56902511], "properties": {"magmom": 0.0}, "label": "Ho", "xyz": [1.9817667940472325, 5.659251204112186, 5.334897183524937]}, {"species": [{"element": "Ho", "occu": 1}], "abc": [0.85981131, 0.95450835, 0.75], "properties": {"magmom": 0.0}, "label": "Ho", "xyz": [5.310688827110423, 6.529931915987283, 7.031627985]}, {"species": [{"element": "Ho", "occu": 1}], "abc": [0.64018869, 0.45450835, 0.75], "properties": {"magmom": 0.0}, "label": "Ho", "xyz": [3.954173297889578, 3.1093584259872826, 7.031627985]}, {"species": [{"element": "Ho", "occu": 1}], "abc": [0.82085207, 0.67276281, 0.06902511], "properties": {"magmom": 0.0}, "label": "Ho", "xyz": [5.070054169047233, 4.602469265887814, 0.6471451935249378]}, {"species": [{"element": "Co", "occu": 1}], "abc": [0.95924537, 0.38902855000000003, 0.25], "properties": {"magmom": 0.0}, "label": "Co", "xyz": [5.924850731396408, 2.6614014899662792, 2.343875995]}, {"species": [{"element": "Co", "occu": 1}], "abc": [0.45924537, 0.11097145, 0.75], "properties": {"magmom": 0.0}, "label": "Co", "xyz": [2.8365633563964074, 0.759172000033721, 7.031627985]}, {"species": [{"element": "Co", "occu": 1}], "abc": [0.54075463, 0.88902855, 0.25], "properties": {"magmom": 0.0}, "label": "Co", "xyz": [3.340011393603593, 6.081974979966279, 2.343875995]}, {"species": [{"element": "Co", "occu": 1}], "abc": [0.04075463, 0.61097145, 0.75], "properties": {"magmom": 0.0}, "label": "Co", "xyz": [0.2517240186035925, 4.179745490033721, 7.031627985]}]}, "task_ids": null, "uncorrected_energy_per_atom": null, "energy_per_atom": -5.3846053806250005, "formation_energy_per_atom": -0.15299160187499602, "energy_above_hull": 0.0, "is_stable": true, "equilibrium_reaction_energy_per_atom": null, "decomposes_to": null, "xas": null, "grain_boundaries": null, "band_gap": 0.0, "cbm": null, "vbm": null, "efermi": 3.41272843, "is_gap_direct": null, "is_metal": null, "es_source_calc_id": null, "bandstructure": null, "dos": null, "dos_energy_up": null, "dos_energy_down": null, "is_magnetic": null, "ordering": null, "total_magnetization": 6.890000000000003e-05, "total_magnetization_normalized_vol": null, "total_magnetization_normalized_formula_units": null, "num_magnetic_sites": null, "num_unique_magnetic_sites": null, "types_of_magnetic_species": null, "bulk_modulus": null, "shear_modulus": null, "universal_anisotropy": null, "homogeneous_poisson": null, "e_total": null, "e_ionic": null, "e_electronic": null, "n": null, "e_ij_max": null, "weighted_surface_energy_EV_PER_ANG2": null, "weighted_surface_energy": null, "weighted_work_function": null, "surface_anisotropy": null, "shape_factor": null, "has_reconstructed": null, "possible_species": null, "has_props": null, "theoretical": null, "database_IDs": null, "fields_not_requested": ["builder_meta", "nsites", "elements", "nelements", "composition", "composition_reduced", "chemsys", "symmetry", "property_name", "deprecated", "deprecation_reasons", "last_updated", "origins", "warnings", "task_ids", "uncorrected_energy_per_atom", "equilibrium_reaction_energy_per_atom", "decomposes_to", "xas", "grain_boundaries", "cbm", "vbm", "is_gap_direct", "is_metal", "es_source_calc_id", "bandstructure", "dos", "dos_energy_up", "dos_energy_down", "is_magnetic", "ordering", "total_magnetization_normalized_vol", "total_magnetization_normalized_formula_units", "num_magnetic_sites", "num_unique_magnetic_sites", "types_of_magnetic_species", "bulk_modulus", "shear_modulus", "universal_anisotropy", "homogeneous_poisson", "e_total", "e_ionic", "e_electronic", "n", "e_ij_max", "weighted_surface_energy_EV_PER_ANG2", "weighted_surface_energy", "weighted_work_function", "surface_anisotropy", "shape_factor", "has_reconstructed", "possible_species", "has_props", "theoretical", "database_IDs"]}