{"builder_meta": null, "nsites": null, "elements": null, "nelements": null, "composition": null, "composition_reduced": null, "formula_pretty": "Ho3Er", "formula_anonymous": "AB3", "chemsys": null, "volume": 249.50538821244183, "density": 8.81231327705769, "density_atomic": 31.18817352655523, "symmetry": null, "property_name": null, "material_id": "mp-1184718", "deprecated": null, "deprecation_reasons": null, "last_updated": null, "origins": null, "warnings": null, "structure": {"@module": "pymatgen.core.structure", "@class": "Structure", "charge": 0, "lattice": {"matrix": [[7.21176577, -9.98e-06, 0.0], [-3.60589032, 6.24550663, 0.0], [0.0, 0.0, 5.53950539]], "pbc": [true, true, true], "a": 7.211765770006906, "b": 7.21171256119125, "c": 5.53950539, "alpha": 90.0, "beta": 90.0, "gamma": 120.00039156303663, "volume": 249.50538821244183}, "properties": {}, "sites": [{"species": [{"element": "Ho", "occu": 1}], "abc": [0.16691116, 0.33382511, 0.25], "properties": {"magmom": 0.0}, "label": "Ho", "xyz": [-1.2542402941795316e-05, 2.084905271992102, 1.3848763475]}, {"species": [{"element": "Ho", "occu": 1}], "abc": [0.66617185, 0.83308391, 0.25], "properties": {"magmom": 0.0}, "label": "Ho", "xyz": [1.8002661379508238, 5.203024434856261, 1.3848763475]}, {"species": [{"element": "Ho", "occu": 1}], "abc": [0.16691138, 0.83308258, 0.25], "properties": {"magmom": -0.0}, "label": "Ho", "xyz": [-1.8002786340751626, 5.2030211109519335, 1.3848763475]}, {"species": [{"element": "Ho", "occu": 1}], "abc": [0.83308632, 0.66617375, 0.75], "properties": {"magmom": -0.0}, "label": "Ho", "xyz": [3.605873929468167, 4.160584258155489, 4.1546290425]}, {"species": [{"element": "Ho", "occu": 1}], "abc": [0.33382612, 0.1669155, 0.749999], "properties": {"magmom": -0.0}, "label": "Ho", "xyz": [1.805596799639953, 1.0424685303150873, 4.15462350299461]}, {"species": [{"element": "Ho", "occu": 1}], "abc": [0.83308609, 0.16691627, 0.75], "properties": {"magmom": 0.0}, "label": "Ho", "xyz": [5.406139985081634, 1.042468356740692, 4.1546290425]}, {"species": [{"element": "Er", "occu": 1}], "abc": [0.33334028, 0.6666727, 0.75], "properties": {"magmom": -0.0}, "label": "Er", "xyz": [2.3385527951447216e-05, 4.163705441154007, 4.1546290425]}, {"species": [{"element": "Er", "occu": 1}], "abc": [0.6666628, 0.33332919, 0.249999], "properties": {"magmom": -0.0}, "label": "Er", "xyz": [3.605867461577916, 2.081803012822786, 1.3848708079946102]}]}, "task_ids": null, "uncorrected_energy_per_atom": null, "energy_per_atom": -33.1363041425, "formation_energy_per_atom": 0.006062585416664001, "energy_above_hull": 0.011822154999997002, "is_stable": false, "equilibrium_reaction_energy_per_atom": null, "decomposes_to": null, "xas": null, "grain_boundaries": null, "band_gap": 0.0, "cbm": null, "vbm": null, "efermi": 2.94937335, "is_gap_direct": null, "is_metal": null, "es_source_calc_id": null, "bandstructure": null, "dos": null, "dos_energy_up": null, "dos_energy_down": null, "is_magnetic": null, "ordering": null, "total_magnetization": 3.1e-06, "total_magnetization_normalized_vol": null, "total_magnetization_normalized_formula_units": null, "num_magnetic_sites": null, "num_unique_magnetic_sites": null, "types_of_magnetic_species": null, "bulk_modulus": null, "shear_modulus": null, "universal_anisotropy": null, "homogeneous_poisson": null, "e_total": null, "e_ionic": null, "e_electronic": null, "n": null, "e_ij_max": null, "weighted_surface_energy_EV_PER_ANG2": null, "weighted_surface_energy": null, "weighted_work_function": null, "surface_anisotropy": null, "shape_factor": null, "has_reconstructed": null, "possible_species": null, "has_props": null, "theoretical": null, "database_IDs": null, "fields_not_requested": ["builder_meta", "nsites", "elements", "nelements", "composition", "composition_reduced", "chemsys", "symmetry", "property_name", "deprecated", "deprecation_reasons", "last_updated", "origins", "warnings", "task_ids", "uncorrected_energy_per_atom", "equilibrium_reaction_energy_per_atom", "decomposes_to", "xas", "grain_boundaries", "cbm", "vbm", "is_gap_direct", "is_metal", "es_source_calc_id", "bandstructure", "dos", "dos_energy_up", "dos_energy_down", "is_magnetic", "ordering", "total_magnetization_normalized_vol", "total_magnetization_normalized_formula_units", "num_magnetic_sites", "num_unique_magnetic_sites", "types_of_magnetic_species", "bulk_modulus", "shear_modulus", "universal_anisotropy", "homogeneous_poisson", "e_total", "e_ionic", "e_electronic", "n", "e_ij_max", "weighted_surface_energy_EV_PER_ANG2", "weighted_surface_energy", "weighted_work_function", "surface_anisotropy", "shape_factor", "has_reconstructed", "possible_species", "has_props", "theoretical", "database_IDs"]}