{
  "builder_meta": null,
  "nsites": null,
  "elements": null,
  "nelements": null,
  "composition": null,
  "composition_reduced": null,
  "formula_pretty": "Ho3Ge5",
  "formula_anonymous": "A3B5",
  "chemsys": null,
  "volume": 335.74733351311494,
  "density": 8.486902891897339,
  "density_atomic": 20.984208344569684,
  "symmetry": null,
  "property_name": null,
  "material_id": "mp-542748",
  "deprecated": null,
  "deprecation_reasons": null,
  "last_updated": null,
  "origins": null,
  "warnings": null,
  "structure": {
    "@module": "pymatgen.core.structure",
    "@class": "Structure",
    "charge": 0,
    "lattice": {
      "matrix": [
        [5.42705179, 0.00041153, 1.79633883],
        [2.71460912, 6.82921689, 0.89864453],
        [-0.0238659, 0.00027798, 9.05132014]
      ],
      "pbc": [true, true, true],
      "a": 5.716618274195411,
      "b": 7.403706368863325,
      "c": 9.051351608197821,
      "alpha": 83.0825726705898,
      "beta": 71.83667527355719,
      "gamma": 67.27614600664023,
      "volume": 335.74733351311494
    },
    "properties": {},
    "sites": [
      {
        "species": [{ "element": "Ho", "occu": 1 }],
        "abc": [0.00197702, 0.9959171, 3.0010000000000002e-5],
        "properties": { "magmom": 0.0 },
        "label": "Ho",
        "xyz": [2.7142543161381587, 6.801334702305039, 0.898798482159551]
      },
      {
        "species": [{ "element": "Ho", "occu": 1 }],
        "abc": [0.25213884000000003, 0.49578435, 0.50004275],
        "properties": { "magmom": 0.0 },
        "label": "Ho",
        "xyz": [2.7022972907465705, 3.386061621398141, 5.424507696966248]
      },
      {
        "species": [{ "element": "Ho", "occu": 1 }],
        "abc": [0.57916409, 0.48127405, 0.83515056],
        "properties": { "magmom": -0.0 },
        "label": "Ho",
        "xyz": [4.429692816937653, 3.287195369529331, 9.03208431993234]
      },
      {
        "species": [{ "element": "Ho", "occu": 1 }],
        "abc": [0.939372099999999, 0.48110873, 0.16490871000000001],
        "properties": { "magmom": -0.0 },
        "label": "Ho",
        "xyz": [6.400107488168683, 3.286028285965968, 3.612417835682807]
      },
      {
        "species": [{ "element": "Ho", "occu": 1 }],
        "abc": [0.35442407, 0.9813341800000001, 0.33527385],
        "properties": { "magmom": 0.0 },
        "label": "Ho",
        "xyz": [4.579414886131592, 6.70198301235265, 4.553207263107012]
      },
      {
        "species": [{ "element": "Ho", "occu": 1 }],
        "abc": [0.66408693, 0.98134716, 0.6647841600000001],
        "properties": { "magmom": 0.0 },
        "label": "Ho",
        "xyz": [6.2521424403100605, 6.702290688420631, 8.09198165238051]
      },
      {
        "species": [{ "element": "Ge", "occu": 1 }],
        "abc": [0.44846741, 0.10276988000000001, 1.00007017],
        "properties": { "magmom": -0.0 },
        "label": "Ge",
        "xyz": [2.6889683390362666, 0.7023003575783672, 9.94990828421751]
      },
      {
        "species": [{ "element": "Ge", "occu": 1 }],
        "abc": [0.6975714, 0.60463422, 0.49998471],
        "properties": { "magmom": -0.0 },
        "label": "Ge",
        "xyz": [5.415169097808503, 4.129604284803904, 6.3219475022863385]
      },
      {
        "species": [{ "element": "Ge", "occu": 1 }],
        "abc": [0.91173032, 0.68678792, 0.87048853],
        "properties": { "magmom": 0.0 },
        "label": "Ge",
        "xyz": [6.7915934240829765, 4.690840845892128, 10.134025147110396]
      },
      {
        "species": [{ "element": "Ge", "occu": 1 }],
        "abc": [0.40177077, 0.6873095100000001, 0.12920775],
        "properties": { "magmom": 0.0 },
        "label": "Ge",
        "xyz": [4.043123781366185, 4.6939869722449465, 2.5088640763075647]
      },
      {
        "species": [{ "element": "Ge", "occu": 1 }],
        "abc": [0.78081086, 0.18601071, 0.3701429],
        "properties": { "magmom": 0.0 },
        "label": "Ge",
        "xyz": [4.733613551761005, 1.2707317018694495, 4.920040259214616]
      },
      {
        "species": [{ "element": "Ge", "occu": 1 }],
        "abc": [0.03291844, 0.18595388000000002, 0.63000831],
        "properties": { "magmom": 0.0 },
        "label": "Ge",
        "xyz": [0.6684064619477642, 1.2701080546926604, 5.928646013759665]
      },
      {
        "species": [{ "element": "Ge", "occu": 1 }],
        "abc": [0.17717387, 0.32321001, 0.82585251],
        "properties": { "magmom": -0.0 },
        "label": "Ge",
        "xyz": [1.8192108957276096, 2.20757374215252, 8.08377066630267]
      },
      {
        "species": [{ "element": "Ge", "occu": 1 }],
        "abc": [0.49961215000000003, 0.32341541, 0.17394695000000002],
        "properties": { "magmom": -0.0 },
        "label": "Ge",
        "xyz": [3.5852160339837833, 2.2089279396195254, 2.762557725925565]
      },
      {
        "species": [{ "element": "Ge", "occu": 1 }],
        "abc": [0.92506561, 0.8221748, 0.32580134],
        "properties": { "magmom": 0.0 },
        "label": "Ge",
        "xyz": [7.244486642731812, 5.615281289199348, 5.349506392645468]
      },
      {
        "species": [{ "element": "Ge", "occu": 1 }],
        "abc": [0.2531151, 0.822167099999999, 0.67430279],
        "properties": { "magmom": 0.0 },
        "label": "Ge",
        "xyz": [3.589438221399117, 5.61504905286898, 7.296846873335486]
      }
    ]
  },
  "task_ids": null,
  "uncorrected_energy_per_atom": null,
  "energy_per_atom": -5.302418370625002,
  "formation_energy_per_atom": -0.688896161875,
  "energy_above_hull": 0.0,
  "is_stable": true,
  "equilibrium_reaction_energy_per_atom": null,
  "decomposes_to": null,
  "xas": null,
  "grain_boundaries": null,
  "band_gap": 0.0,
  "cbm": null,
  "vbm": null,
  "efermi": 5.4011507,
  "is_gap_direct": null,
  "is_metal": null,
  "es_source_calc_id": null,
  "bandstructure": null,
  "dos": null,
  "dos_energy_up": null,
  "dos_energy_down": null,
  "is_magnetic": null,
  "ordering": null,
  "total_magnetization": 3e-7,
  "total_magnetization_normalized_vol": null,
  "total_magnetization_normalized_formula_units": null,
  "num_magnetic_sites": null,
  "num_unique_magnetic_sites": null,
  "types_of_magnetic_species": null,
  "bulk_modulus": null,
  "shear_modulus": null,
  "universal_anisotropy": null,
  "homogeneous_poisson": null,
  "e_total": null,
  "e_ionic": null,
  "e_electronic": null,
  "n": null,
  "e_ij_max": null,
  "weighted_surface_energy_EV_PER_ANG2": null,
  "weighted_surface_energy": null,
  "weighted_work_function": null,
  "surface_anisotropy": null,
  "shape_factor": null,
  "has_reconstructed": null,
  "possible_species": null,
  "has_props": null,
  "theoretical": null,
  "database_IDs": null,
  "fields_not_requested": [
    "builder_meta",
    "nsites",
    "elements",
    "nelements",
    "composition",
    "composition_reduced",
    "chemsys",
    "symmetry",
    "property_name",
    "deprecated",
    "deprecation_reasons",
    "last_updated",
    "origins",
    "warnings",
    "task_ids",
    "uncorrected_energy_per_atom",
    "equilibrium_reaction_energy_per_atom",
    "decomposes_to",
    "xas",
    "grain_boundaries",
    "cbm",
    "vbm",
    "is_gap_direct",
    "is_metal",
    "es_source_calc_id",
    "bandstructure",
    "dos",
    "dos_energy_up",
    "dos_energy_down",
    "is_magnetic",
    "ordering",
    "total_magnetization_normalized_vol",
    "total_magnetization_normalized_formula_units",
    "num_magnetic_sites",
    "num_unique_magnetic_sites",
    "types_of_magnetic_species",
    "bulk_modulus",
    "shear_modulus",
    "universal_anisotropy",
    "homogeneous_poisson",
    "e_total",
    "e_ionic",
    "e_electronic",
    "n",
    "e_ij_max",
    "weighted_surface_energy_EV_PER_ANG2",
    "weighted_surface_energy",
    "weighted_work_function",
    "surface_anisotropy",
    "shape_factor",
    "has_reconstructed",
    "possible_species",
    "has_props",
    "theoretical",
    "database_IDs"
  ]
}
