{
  "builder_meta": null,
  "nsites": null,
  "elements": null,
  "nelements": null,
  "composition": null,
  "composition_reduced": null,
  "formula_pretty": "Ho3Ga5",
  "formula_anonymous": "A3B5",
  "chemsys": null,
  "volume": 656.6912325435343,
  "density": 8.53069738823067,
  "density_atomic": 20.521601016985446,
  "symmetry": null,
  "property_name": null,
  "material_id": "mp-1197590",
  "deprecated": null,
  "deprecation_reasons": null,
  "last_updated": null,
  "origins": null,
  "warnings": null,
  "structure": {
    "@module": "pymatgen.core.structure",
    "@class": "Structure",
    "charge": 0,
    "lattice": {
      "matrix": [
        [-2.294e-5, 0.0, -6.05854138],
        [0.0, -9.55039886, 0.0],
        [-11.34936674, 0.0, -4.3150000000000005e-5]
      ],
      "pbc": [true, true, true],
      "a": 6.05854138004343,
      "b": 9.55039886,
      "c": 11.34936674008203,
      "alpha": 90.0,
      "beta": 89.99956521876025,
      "gamma": 90.0,
      "volume": 656.6912325435343
    },
    "properties": {},
    "sites": [
      {
        "species": [{ "element": "Ho", "occu": 1 }],
        "abc": [0.6509682800000001, 0.75, 0.42322387],
        "properties": { "magmom": 0.0 },
        "label": "Ho",
        "xyz": [-4.8033378469644274, -7.162799144999999, -3.9439365235574173]
      },
      {
        "species": [{ "element": "Ho", "occu": 1 }],
        "abc": [0.84903339, 0.75, 0.9232248999999991],
        "properties": { "magmom": -0.0 },
        "label": "Ho",
        "xyz": [-10.478037450425784, -7.162799144999999, -5.143943763471113]
      },
      {
        "species": [{ "element": "Ho", "occu": 1 }],
        "abc": [0.34903172, 0.25, 0.57677513],
        "properties": { "magmom": 0.0 },
        "label": "Ho",
        "xyz": [-6.5460404836688335, -2.387599715, -2.114648006399433]
      },
      {
        "species": [{ "element": "Ho", "occu": 1 }],
        "abc": [0.15096661, 0.25, 0.0767751],
        "properties": { "magmom": -0.0 },
        "label": "Ho",
        "xyz": [-0.8713522295742074, -2.387599715, -0.9146407665288868]
      },
      {
        "species": [{ "element": "Ho", "occu": 1 }],
        "abc": [0.61108862, 0.98994169, 0.14852837],
        "properties": { "magmom": -0.0 },
        "label": "Ho",
        "xyz": [-1.6857169607973568, -9.454337987642473, -3.702312100116261]
      },
      {
        "species": [{ "element": "Ho", "occu": 1 }],
        "abc": [0.88890961, 0.51006186, 0.64852865],
        "properties": { "magmom": -0.0 },
        "label": "Ho",
        "xyz": [-7.360409881833555, -4.871294206273479, -5.38552363927591]
      },
      {
        "species": [{ "element": "Ho", "occu": 1 }],
        "abc": [0.38891138000000003, 0.48994169, 0.85147163],
        "properties": { "magmom": -0.0 },
        "label": "Ho",
        "xyz": [-9.663672719202644, -4.679138557642473, -2.3562724298837394]
      },
      {
        "species": [{ "element": "Ho", "occu": 1 }],
        "abc": [0.11109039, 0.01006186, 0.35147135],
        "properties": { "magmom": -0.0 },
        "label": "Ho",
        "xyz": [-3.988979798166446, -0.0960947762734796, -0.6730608907240907]
      },
      {
        "species": [{ "element": "Ho", "occu": 1 }],
        "abc": [0.38891138000000003, 0.01005831, 0.85147163],
        "properties": { "magmom": -0.0 },
        "label": "Ho",
        "xyz": [-9.663672719202644, -0.09606087235752661, -2.3562724298837394]
      },
      {
        "species": [{ "element": "Ho", "occu": 1 }],
        "abc": [0.11109039, 0.48993814, 0.35147135],
        "properties": { "magmom": -0.0 },
        "label": "Ho",
        "xyz": [-3.988979798166446, -4.679104653726521, -0.6730608907240907]
      },
      {
        "species": [{ "element": "Ho", "occu": 1 }],
        "abc": [0.61108862, 0.51005831, 0.14852837],
        "properties": { "magmom": -0.0 },
        "label": "Ho",
        "xyz": [-1.6857169607973568, -4.871260302357527, -3.702312100116261]
      },
      {
        "species": [{ "element": "Ho", "occu": 1 }],
        "abc": [0.88890961, 0.98993814, 0.64852865],
        "properties": { "magmom": -0.0 },
        "label": "Ho",
        "xyz": [-7.360409881833555, -9.45430408372652, -5.38552363927591]
      },
      {
        "species": [{ "element": "Ga", "occu": 1 }],
        "abc": [0.62754005, 0.44610414, 0.4098246],
        "properties": { "magmom": -0.0 },
        "label": "Ga",
        "xyz": [-4.651264080242551, -4.26047247009728, -3.801995044463759]
      },
      {
        "species": [{ "element": "Ga", "occu": 1 }],
        "abc": [0.87246548, 0.05388369, 0.90982207],
        "properties": { "magmom": -0.0 },
        "label": "Ga",
        "xyz": [-10.325924354934063, -0.5146107315485934, -5.285907472023883]
      },
      {
        "species": [{ "element": "Ga", "occu": 1 }],
        "abc": [0.37245995, 0.94610414, 0.5901754],
        "properties": { "magmom": -0.0 },
        "label": "Ga",
        "xyz": [-6.69812559975745, -9.03567190009728, -2.256589485536241]
      },
      {
        "species": [{ "element": "Ga", "occu": 1 }],
        "abc": [0.12753452, 0.55388369, 0.09017693],
        "properties": { "magmom": -0.0 },
        "label": "Ga",
        "xyz": [-1.023453975699197, -5.289810161548593, -0.7726770579329671]
      },
      {
        "species": [{ "element": "Ga", "occu": 1 }],
        "abc": [0.37245995, 0.55389586, 0.5901754],
        "properties": { "magmom": -0.0 },
        "label": "Ga",
        "xyz": [-6.69812559975745, -5.289926389902719, -2.256589485536241]
      },
      {
        "species": [{ "element": "Ga", "occu": 1 }],
        "abc": [0.12753452, 0.9461163100000001, 0.09017793],
        "properties": { "magmom": -0.0 },
        "label": "Ga",
        "xyz": [-1.0234653250659371, -9.035788128451406, -0.7726770579761172]
      },
      {
        "species": [{ "element": "Ga", "occu": 1 }],
        "abc": [0.62754005, 0.053895860000000004, 0.4098246],
        "properties": { "magmom": -0.0 },
        "label": "Ga",
        "xyz": [-4.651264080242551, -0.5147269599027197, -3.801995044463759]
      },
      {
        "species": [{ "element": "Ga", "occu": 1 }],
        "abc": [0.87246548, 0.44611631, 0.9098230700000001],
        "properties": { "magmom": -0.0 },
        "label": "Ga",
        "xyz": [-10.325935704300804, -4.260588698451406, -5.285907472067033]
      },
      {
        "species": [{ "element": "Ga", "occu": 1 }],
        "abc": [0.32300062, 0.75, 0.247047799999999],
        "properties": { "magmom": 0.0 },
        "label": "Ga",
        "xyz": [-2.8038434941443837, -7.162799144999999, -1.9569232821482259]
      },
      {
        "species": [{ "element": "Ga", "occu": 1 }],
        "abc": [0.17701026, 0.75, 0.7470529100000001],
        "properties": { "magmom": 0.0 },
        "label": "Ga",
        "xyz": [-8.478581510389578, -7.162799144999999, -1.0724562202276253]
      },
      {
        "species": [{ "element": "Ga", "occu": 1 }],
        "abc": [0.67699938, 0.25, 0.7529522],
        "properties": { "magmom": 0.0 },
        "label": "Ga",
        "xyz": [-8.545546185855606, -2.387599715, -4.101661247851775]
      },
      {
        "species": [{ "element": "Ga", "occu": 1 }],
        "abc": [0.82298974, 0.25, 0.25294709],
        "properties": { "magmom": 0.0 },
        "label": "Ga",
        "xyz": [-2.8708081696104224, -2.387599715, -4.986128309772376]
      },
      {
        "species": [{ "element": "Ga", "occu": 1 }],
        "abc": [0.12786584, 0.75, 0.49580787],
        "properties": { "magmom": 0.0 },
        "label": "Ga",
        "xyz": [-5.627108282450614, -7.162799144999999, -0.7747018768380497]
      },
      {
        "species": [{ "element": "Ga", "occu": 1 }],
        "abc": [0.37213265, 0.75, 0.9958068600000001],
        "properties": { "magmom": 0.0 },
        "label": "Ga",
        "xyz": [-11.30178579307083, -7.162799144999999, -2.254624027940066]
      },
      {
        "species": [{ "element": "Ga", "occu": 1 }],
        "abc": [0.87213416, 0.25, 0.50419213],
        "properties": { "magmom": 0.0 },
        "label": "Ga",
        "xyz": [-5.722281397549386, -2.387599715, -5.2838826531619505]
      },
      {
        "species": [{ "element": "Ga", "occu": 1 }],
        "abc": [0.62786735, 0.25, 0.00419314],
        "properties": { "magmom": 0.0 },
        "label": "Ga",
        "xyz": [-0.047603886929172605, -2.387599715, -3.8039605020599345]
      },
      {
        "species": [{ "element": "Ga", "occu": 1 }],
        "abc": [0.9021266, 0.75, 0.19819461],
        "properties": { "magmom": 0.0 },
        "label": "Ga",
        "xyz": [-2.2494040095654757, -7.162799144999999, -5.46557988819613]
      },
      {
        "species": [{ "element": "Ga", "occu": 1 }],
        "abc": [0.5978648, 0.75, 0.69819641],
        "properties": { "magmom": 0.0 },
        "label": "Ga",
        "xyz": [-7.924100828659916, -7.162799144999999, -3.6222187576205154]
      },
      {
        "species": [{ "element": "Ga", "occu": 1 }],
        "abc": [0.0978734, 0.25, 0.8018053900000001],
        "properties": { "magmom": 0.0 },
        "label": "Ga",
        "xyz": [-9.099985670434526, -2.387599715, -0.5930046418038706]
      },
      {
        "species": [{ "element": "Ga", "occu": 1 }],
        "abc": [0.402135199999999, 0.25, 0.30180359],
        "properties": { "magmom": 0.0 },
        "label": "Ga",
        "xyz": [-3.4252888513400848, -2.387599715, -2.436365772379479]
      }
    ]
  },
  "task_ids": null,
  "uncorrected_energy_per_atom": null,
  "energy_per_atom": -4.2586977728125,
  "formation_energy_per_atom": -0.642007959374997,
  "energy_above_hull": 0.0,
  "is_stable": true,
  "equilibrium_reaction_energy_per_atom": null,
  "decomposes_to": null,
  "xas": null,
  "grain_boundaries": null,
  "band_gap": 0.0,
  "cbm": null,
  "vbm": null,
  "efermi": 3.60365561,
  "is_gap_direct": null,
  "is_metal": null,
  "es_source_calc_id": null,
  "bandstructure": null,
  "dos": null,
  "dos_energy_up": null,
  "dos_energy_down": null,
  "is_magnetic": null,
  "ordering": null,
  "total_magnetization": 4e-7,
  "total_magnetization_normalized_vol": null,
  "total_magnetization_normalized_formula_units": null,
  "num_magnetic_sites": null,
  "num_unique_magnetic_sites": null,
  "types_of_magnetic_species": null,
  "bulk_modulus": null,
  "shear_modulus": null,
  "universal_anisotropy": null,
  "homogeneous_poisson": null,
  "e_total": null,
  "e_ionic": null,
  "e_electronic": null,
  "n": null,
  "e_ij_max": null,
  "weighted_surface_energy_EV_PER_ANG2": null,
  "weighted_surface_energy": null,
  "weighted_work_function": null,
  "surface_anisotropy": null,
  "shape_factor": null,
  "has_reconstructed": null,
  "possible_species": null,
  "has_props": null,
  "theoretical": null,
  "database_IDs": null,
  "fields_not_requested": [
    "builder_meta",
    "nsites",
    "elements",
    "nelements",
    "composition",
    "composition_reduced",
    "chemsys",
    "symmetry",
    "property_name",
    "deprecated",
    "deprecation_reasons",
    "last_updated",
    "origins",
    "warnings",
    "task_ids",
    "uncorrected_energy_per_atom",
    "equilibrium_reaction_energy_per_atom",
    "decomposes_to",
    "xas",
    "grain_boundaries",
    "cbm",
    "vbm",
    "is_gap_direct",
    "is_metal",
    "es_source_calc_id",
    "bandstructure",
    "dos",
    "dos_energy_up",
    "dos_energy_down",
    "is_magnetic",
    "ordering",
    "total_magnetization_normalized_vol",
    "total_magnetization_normalized_formula_units",
    "num_magnetic_sites",
    "num_unique_magnetic_sites",
    "types_of_magnetic_species",
    "bulk_modulus",
    "shear_modulus",
    "universal_anisotropy",
    "homogeneous_poisson",
    "e_total",
    "e_ionic",
    "e_electronic",
    "n",
    "e_ij_max",
    "weighted_surface_energy_EV_PER_ANG2",
    "weighted_surface_energy",
    "weighted_work_function",
    "surface_anisotropy",
    "shape_factor",
    "has_reconstructed",
    "possible_species",
    "has_props",
    "theoretical",
    "database_IDs"
  ]
}
