{"builder_meta": null, "nsites": null, "elements": null, "nelements": null, "composition": null, "composition_reduced": null, "formula_pretty": "Ho3Ge4", "formula_anonymous": "A3B4", "chemsys": null, "volume": 302.3220519217521, "density": 8.62726315716689, "density_atomic": 21.59443228012515, "symmetry": null, "property_name": null, "material_id": "mp-1675", "deprecated": null, "deprecation_reasons": null, "last_updated": null, "origins": null, "warnings": null, "structure": {"@module": "pymatgen.core.structure", "@class": "Structure", "charge": 0, "lattice": {"matrix": [[4.03565346, -0.0, -0.0], [-2.01782724, 5.28981134, 0.0], [-0.0, -0.0, 14.16171261]], "pbc": [true, true, true], "a": 4.03565346, "b": 5.6616014327466235, "c": 14.16171261, "alpha": 90.0, "beta": 90.0, "gamma": 110.87962346757926, "volume": 302.3220519217521}, "properties": {}, "sites": [{"species": [{"element": "Ho", "occu": 1}], "abc": [0.95308518, 0.90617135, 0.25], "properties": {"magmom": 0.0}, "label": "Ho", "xyz": [2.017824270204149, 4.7934754832131095, 3.5404281525]}, {"species": [{"element": "Ho", "occu": 1}], "abc": [0.04691482, 0.09382865, 0.75], "properties": {"magmom": 0.0}, "label": "Ho", "xyz": [1.949795851219349e-06, 0.496335856786891, 10.6212844575]}, {"species": [{"element": "Ho", "occu": 1}], "abc": [0.33133607, 0.66267114, 0.59646879], "properties": {"magmom": 0.0}, "label": "Ho", "xyz": [1.679864448433932e-06, 3.5054053110627277, 8.447019584814441]}, {"species": [{"element": "Ho", "occu": 1}], "abc": [0.66866393, 0.33732886, 0.40353121000000003], "properties": {"magmom": 0.0}, "label": "Ho", "xyz": [2.0178245401355515, 1.7844060289372725, 5.714693025185559]}, {"species": [{"element": "Ho", "occu": 1}], "abc": [0.66866393, 0.33732886, 0.09646879], "properties": {"magmom": 0.0}, "label": "Ho", "xyz": [2.0178245401355515, 1.7844060289372725, 1.3661632798144419]}, {"species": [{"element": "Ho", "occu": 1}], "abc": [0.33133607, 0.66267114, 0.90353121], "properties": {"magmom": 0.0}, "label": "Ho", "xyz": [1.679864448433932e-06, 3.5054053110627277, 12.795549330185558]}, {"species": [{"element": "Ge", "occu": 1}], "abc": [-0.0, -0.0, 0.5], "properties": {"magmom": 0.0}, "label": "Ge", "xyz": [0.0, 0.0, 7.080856305]}, {"species": [{"element": "Ge", "occu": 1}], "abc": [-0.0, -0.0, -0.0], "properties": {"magmom": 0.0}, "label": "Ge", "xyz": [0.0, 0.0, 0.0]}, {"species": [{"element": "Ge", "occu": 1}], "abc": [0.22458998, 0.44918097, 0.25], "properties": {"magmom": -0.0}, "label": "Ge", "xyz": [-2.2670872921182195e-06, 2.3760825888182, 3.5404281525]}, {"species": [{"element": "Ge", "occu": 1}], "abc": [0.77541002, 0.55081903, 0.75], "properties": {"magmom": -0.0}, "label": "Ge", "xyz": [2.017828487087292, 2.9137287511818, 10.6212844575]}, {"species": [{"element": "Ge", "occu": 1}], "abc": [0.37916579, 0.75833059, 0.39107344], "properties": {"magmom": 0.0}, "label": "Ge", "xyz": [1.6108998617259118e-06, 4.011425754450891, 5.538269666684078]}, {"species": [{"element": "Ge", "occu": 1}], "abc": [0.62083421, 0.24166941, 0.60892656], "properties": {"magmom": 0.0}, "label": "Ge", "xyz": [2.0178246091001384, 1.2783855855491093, 8.623442943315922]}, {"species": [{"element": "Ge", "occu": 1}], "abc": [0.37916579, 0.75833059, 0.10892656], "properties": {"magmom": 0.0}, "label": "Ge", "xyz": [1.6108998617259118e-06, 4.011425754450891, 1.5425866383159217]}, {"species": [{"element": "Ge", "occu": 1}], "abc": [0.62083421, 0.24166941, 0.89107344], "properties": {"magmom": 0.0}, "label": "Ge", "xyz": [2.0178246091001384, 1.2783855855491093, 12.61912597168408]}]}, "task_ids": null, "uncorrected_energy_per_atom": null, "energy_per_atom": -5.384269283571426, "formation_energy_per_atom": -0.772105024285708, "energy_above_hull": 0.0, "is_stable": true, "equilibrium_reaction_energy_per_atom": null, "decomposes_to": null, "xas": null, "grain_boundaries": null, "band_gap": 0.0, "cbm": null, "vbm": null, "efermi": 5.08666256, "is_gap_direct": null, "is_metal": null, "es_source_calc_id": null, "bandstructure": null, "dos": null, "dos_energy_up": null, "dos_energy_down": null, "is_magnetic": null, "ordering": null, "total_magnetization": 0.0, "total_magnetization_normalized_vol": null, "total_magnetization_normalized_formula_units": null, "num_magnetic_sites": null, "num_unique_magnetic_sites": null, "types_of_magnetic_species": null, "bulk_modulus": null, "shear_modulus": null, "universal_anisotropy": null, "homogeneous_poisson": null, "e_total": null, "e_ionic": null, "e_electronic": null, "n": null, "e_ij_max": null, "weighted_surface_energy_EV_PER_ANG2": null, "weighted_surface_energy": null, "weighted_work_function": null, "surface_anisotropy": null, "shape_factor": null, "has_reconstructed": null, "possible_species": null, "has_props": null, "theoretical": null, "database_IDs": null, "fields_not_requested": ["builder_meta", "nsites", "elements", "nelements", "composition", "composition_reduced", "chemsys", "symmetry", "property_name", "deprecated", "deprecation_reasons", "last_updated", "origins", "warnings", "task_ids", "uncorrected_energy_per_atom", "equilibrium_reaction_energy_per_atom", "decomposes_to", "xas", "grain_boundaries", "cbm", "vbm", "is_gap_direct", "is_metal", "es_source_calc_id", "bandstructure", "dos", "dos_energy_up", "dos_energy_down", "is_magnetic", "ordering", "total_magnetization_normalized_vol", "total_magnetization_normalized_formula_units", "num_magnetic_sites", "num_unique_magnetic_sites", "types_of_magnetic_species", "bulk_modulus", "shear_modulus", "universal_anisotropy", "homogeneous_poisson", "e_total", "e_ionic", "e_electronic", "n", "e_ij_max", "weighted_surface_energy_EV_PER_ANG2", "weighted_surface_energy", "weighted_work_function", "surface_anisotropy", "shape_factor", "has_reconstructed", "possible_species", "has_props", "theoretical", "database_IDs"]}