{"builder_meta": null, "nsites": null, "elements": null, "nelements": null, "composition": null, "composition_reduced": null, "formula_pretty": "Ho3Ga2", "formula_anonymous": "A2B3", "chemsys": null, "volume": 952.4089457439591, "density": 8.846412073451917, "density_atomic": 23.810223643598977, "symmetry": null, "property_name": null, "material_id": "mp-1197194", "deprecated": null, "deprecation_reasons": null, "last_updated": null, "origins": null, "warnings": null, "structure": {"@module": "pymatgen.core.structure", "@class": "Structure", "charge": 0, "lattice": {"matrix": [[-5.70935007, -5.7093088, 7.30328266], [-5.70989133, 5.70917526, -7.30380891], [5.7092165900000005, -5.7098939600000005, -7.30384347]], "pbc": [true, true, true], "a": 10.887186174922478, "b": 10.887753016283966, "c": 10.887799251466634, "alpha": 95.73797924279846, "beta": 116.74180462309852, "gamma": 116.74141594497684, "volume": 952.4089457439592}, "properties": {}, "sites": [{"species": [{"element": "Ho", "occu": 1}], "abc": [0.49999349, 0.85312577, 0.35312545], "properties": {"magmom": 0.008}, "label": "Ho", "xyz": [-5.709823627162401, -0.00028156672454349163, -5.158646826720039]}, {"species": [{"element": "Ho", "occu": 1}], "abc": [0.49999405, 0.35312827, 0.85312802], "properties": {"magmom": 0.008}, "label": "Ho", "xyz": [-0.00027246644012990373, -5.7098197754268, -5.158697047281741]}, {"species": [{"element": "Ho", "occu": 1}], "abc": [0.50000749, 0.14687495, 0.64687499], "properties": {"magmom": 0.008}, "label": "Ho", "xyz": [-0.0002083770671230667, -5.709749930145236, -2.145724208496497]}, {"species": [{"element": "Ho", "occu": 1}], "abc": [0.50000719, 0.64687286, 0.14687253], "properties": {"magmom": 0.008}, "label": "Ho", "xyz": [-5.709762735262035, -0.00021149318974711395, -2.1456758870657358]}, {"species": [{"element": "Ho", "occu": 1}], "abc": [0.16319063, 0.33159184, 0.83159298], "properties": {"magmom": 0.025}, "label": "Ho", "xyz": [1.9226786304149477, -3.786897504271067, -7.30388109379266]}, {"species": [{"element": "Ho", "occu": 1}], "abc": [0.83680994, 0.6684085200000001, 0.16840737], "properties": {"magmom": 0.025}, "label": "Ho", "xyz": [-7.632706752079559, -1.9231331931947406, -0.0004896490526473674]}, {"species": [{"element": "Ho", "occu": 1}], "abc": [0.49999883, 0.16840355, 0.33159532], "properties": {"magmom": 0.025}, "label": "Ho", "xyz": [-1.9230848230362805, -3.7865764535847983, -0.00027487647090351786]}, {"species": [{"element": "Ho", "occu": 1}], "abc": [0.50000121, 0.83159624, 0.6684049400000001], "properties": {"magmom": 0.025}, "label": "Ho", "xyz": [-3.786937531864228, -1.923453958286788, -7.304094916597221]}, {"species": [{"element": "Ho", "occu": 1}], "abc": [0.73096536, 0.56850541, 0.43335284], "properties": {"magmom": 0.014}, "label": "Ho", "xyz": [-4.945336017449054, -3.402008704059858, -1.9789495508324997]}, {"species": [{"element": "Ho", "occu": 1}], "abc": [0.26903061, 0.7023835700000001, 0.83753634], "properties": {"magmom": 0.014}, "label": "Ho", "xyz": [-0.7648474216572092, -2.308191617314396, -9.282503115578088]}, {"species": [{"element": "Ho", "occu": 1}], "abc": [0.8648497700000001, 0.20238573, 0.933357099999999], "properties": {"magmom": 0.013000000000000001}, "label": "Ho", "xyz": [-0.7645927802174217, -9.111608867659047, -1.9790385292979966]}, {"species": [{"element": "Ho", "occu": 1}], "abc": [0.13515043000000002, 0.06850718, 0.33753474], "properties": {"magmom": 0.013000000000000001}, "label": "Ho", "xyz": [0.7642692672035571, -2.307783615350588, -1.978622466419578]}, {"species": [{"element": "Ho", "occu": 1}], "abc": [0.86484573, 0.43335187000000003, 0.70238459], "properties": {"magmom": 0.014}, "label": "Ho", "xyz": [-3.40203336067864, -6.474131089890763, -1.9790135268872477]}, {"species": [{"element": "Ho", "occu": 1}], "abc": [0.13515458, 0.83753747, 0.56850661], "properties": {"magmom": 0.014}, "label": "Ho", "xyz": [-2.308165379950295, 0.7638965114336118, -9.282424826411612]}, {"species": [{"element": "Ho", "occu": 1}], "abc": [0.73096988, 0.93335714, 0.06850727], "properties": {"magmom": 0.013000000000000001}, "label": "Ho", "xyz": [-9.111607934605878, 0.7641974768243235, -1.9789489223948644]}, {"species": [{"element": "Ho", "occu": 1}], "abc": [0.26902738, 0.33753287, 0.20238594000000001], "properties": {"magmom": 0.013000000000000001}, "label": "Ho", "xyz": [-2.307782332607189, -0.7645283336290702, -1.978687810193453]}, {"species": [{"element": "Ho", "occu": 1}], "abc": [0.26903359, 0.43149333, 0.56664734], "properties": {"magmom": 0.014}, "label": "Ho", "xyz": [-0.7646745756113087, -2.308021022507643, -5.325419949506891]}, {"species": [{"element": "Ho", "occu": 1}], "abc": [0.73096812, 0.29761521, 0.16246396], "properties": {"magmom": 0.014}, "label": "Ho", "xyz": [-4.945161458635801, -3.401837310025433, 1.9781308399029363]}, {"species": [{"element": "Ho", "occu": 1}], "abc": [0.13514866, 0.7976131, 0.06664312], "properties": {"magmom": 0.013000000000000001}, "label": "Ho", "xyz": [-4.945415129502468, 3.401582395362143, -5.3253357182449115]}, {"species": [{"element": "Ho", "occu": 1}], "abc": [0.86484785, 0.93149103, 0.66246507], "properties": {"magmom": 0.013000000000000001}, "label": "Ho", "xyz": [-6.474275121167109, -3.4022431991821387, -5.32574535367839]}, {"species": [{"element": "Ho", "occu": 1}], "abc": [0.1351529, 0.56664766, 0.29761401], "properties": {"magmom": 0.014}, "label": "Ho", "xyz": [-2.3079889367660646, 0.7641167221829923, -5.325352540438952]}, {"species": [{"element": "Ho", "occu": 1}], "abc": [0.8648438700000001, 0.16246204, 0.4314926], "properties": {"magmom": 0.014}, "label": "Ho", "xyz": [-3.4018522929914505, -6.4739134486846215, 1.9780531352261952]}, {"species": [{"element": "Ho", "occu": 1}], "abc": [0.26903036, 0.06664199, 0.931493599999999], "properties": {"magmom": 0.013000000000000001}, "label": "Ho", "xyz": [3.4015916889857474, -6.474236281648651, -5.325419044847358]}, {"species": [{"element": "Ho", "occu": 1}], "abc": [0.73097289, 0.66246654, 0.79761509], "properties": {"magmom": 0.013000000000000001}, "label": "Ho", "xyz": [-3.4022347695883566, -4.945509957488486, -5.325683151631747]}, {"species": [{"element": "Ga", "occu": 1}], "abc": [4e-07, 0.74998594, 0.74998712], "properties": {"magmom": -0.005}, "label": "Ga", "xyz": [-0.0005015923776063858, -0.0005480362934706662, -10.955539598629768]}, {"species": [{"element": "Ga", "occu": 1}], "abc": [-4e-07, 0.25001442, 0.25001307], "properties": {"magmom": -0.005}, "label": "Ga", "xyz": [-0.00017411843211911915, -0.0001696932832877529, -3.652116798471699]}, {"species": [{"element": "Ga", "occu": 1}], "abc": [-8e-08, 0.49999995, 0.49999996], "properties": {"magmom": -0.008}, "label": "Ga", "xyz": [-0.00033685612609124505, -0.00035895031830079915, -7.3038261169184295]}, {"species": [{"element": "Ga", "occu": 1}], "abc": [-2.1e-07, -3.299999999999998e-07, 2.9e-07], "properties": {"magmom": -0.008}, "label": "Ga", "xyz": [4.7389004646999995e-06, -2.340942236199999e-06, -1.2415470246000015e-06]}, {"species": [{"element": "Ga", "occu": 1}], "abc": [0.26479756, 0.8823958900000001, 0.38239426], "properties": {"magmom": -0.002}, "label": "Ga", "xyz": [-4.367034956547689, 1.3425110696744844, -7.303907354037553]}, {"species": [{"element": "Ga", "occu": 1}], "abc": [0.7352037100000001, 0.117604599999999, 0.6176066100000001], "properties": {"magmom": -0.002}, "label": "Ga", "xyz": [-1.3429949351552124, -7.052547990608534, -0.0004630240036469502]}, {"species": [{"element": "Ga", "occu": 1}], "abc": [0.50000211, 0.61759674, 0.88240543], "properties": {"magmom": -0.002}, "label": "Ga", "xyz": [-1.3432536328288274, -4.367139853005119, -7.304102970270582]}, {"species": [{"element": "Ga", "occu": 1}], "abc": [0.49999863, 0.38240484, 0.11759441], "properties": {"magmom": -0.002}, "label": "Ga", "xyz": [-4.366785337193179, -1.3428819378034487, -0.00027171670337122755]}, {"species": [{"element": "Ga", "occu": 1}], "abc": [0.14478195, 0.12098407, 0.62097986], "properties": {"magmom": -0.001}, "label": "Ga", "xyz": [2.0278917900395284, -3.681614753813698, -4.361800718980592]}, {"species": [{"element": "Ga", "occu": 1}], "abc": [0.85519952, 0.47620515, 0.9762088600000001], "properties": {"magmom": -0.001}, "label": "Ga", "xyz": [-2.028325277845328, -7.737908557639672, -4.362424299768708]}, {"species": [{"element": "Ga", "occu": 1}], "abc": [0.50000057, 0.9761987, 0.12100701], "properties": {"magmom": -0.001}, "label": "Ga", "xyz": [-7.737811553818514, 2.027694617061487, -4.362139529932025]}, {"species": [{"element": "Ga", "occu": 1}], "abc": [0.49999209, 0.62100299, 0.47619305], "properties": {"magmom": -0.001}, "label": "Ga", "xyz": [-3.6818002014433233, -2.028206152462342, -4.362143109166366]}, {"species": [{"element": "Ga", "occu": 1}], "abc": [0.85521948, 0.8790165600000001, 0.37902036], "properties": {"magmom": -0.001}, "label": "Ga", "xyz": [-7.737927105614017, -2.028418569894143, -2.942564765570383]}, {"species": [{"element": "Ga", "occu": 1}], "abc": [0.14480144, 0.52379611, 0.0237911], "properties": {"magmom": -0.001}, "label": "Ga", "xyz": [-3.681712435962478, 2.027882998659811, -2.941947319725427]}, {"species": [{"element": "Ga", "occu": 1}], "abc": [0.49999957, 0.02380303, 0.87899309], "properties": {"magmom": -0.001}, "label": "Ga", "xyz": [2.027776637319164, -7.737713610480915, -2.9422425335821636]}, {"species": [{"element": "Ga", "occu": 1}], "abc": [0.50000788, 0.37899715, 0.52380571], "properties": {"magmom": -0.001}, "label": "Ga", "xyz": [-2.028232316089532, -3.681813296705346, -2.9422187956994597]}]}, "task_ids": null, "uncorrected_energy_per_atom": null, "energy_per_atom": -4.5018289105000004, "formation_energy_per_atom": -0.5319828224999961, "energy_above_hull": 0.0, "is_stable": true, "equilibrium_reaction_energy_per_atom": null, "decomposes_to": null, "xas": null, "grain_boundaries": null, "band_gap": 0.027600000000000003, "cbm": null, "vbm": null, "efermi": 3.14692053, "is_gap_direct": null, "is_metal": null, "es_source_calc_id": null, "bandstructure": null, "dos": null, "dos_energy_up": null, "dos_energy_down": null, "is_magnetic": null, "ordering": null, "total_magnetization": 3.65e-05, "total_magnetization_normalized_vol": null, "total_magnetization_normalized_formula_units": null, "num_magnetic_sites": null, "num_unique_magnetic_sites": null, "types_of_magnetic_species": null, "bulk_modulus": null, "shear_modulus": null, "universal_anisotropy": null, "homogeneous_poisson": null, "e_total": null, "e_ionic": null, "e_electronic": null, "n": null, "e_ij_max": null, "weighted_surface_energy_EV_PER_ANG2": null, "weighted_surface_energy": null, "weighted_work_function": null, "surface_anisotropy": null, "shape_factor": null, "has_reconstructed": null, "possible_species": null, "has_props": null, "theoretical": null, "database_IDs": null, "fields_not_requested": ["builder_meta", "nsites", "elements", "nelements", "composition", "composition_reduced", "chemsys", "symmetry", "property_name", "deprecated", "deprecation_reasons", "last_updated", "origins", "warnings", "task_ids", "uncorrected_energy_per_atom", "equilibrium_reaction_energy_per_atom", "decomposes_to", "xas", "grain_boundaries", "cbm", "vbm", "is_gap_direct", "is_metal", "es_source_calc_id", "bandstructure", "dos", "dos_energy_up", "dos_energy_down", "is_magnetic", "ordering", "total_magnetization_normalized_vol", "total_magnetization_normalized_formula_units", "num_magnetic_sites", "num_unique_magnetic_sites", "types_of_magnetic_species", "bulk_modulus", "shear_modulus", "universal_anisotropy", "homogeneous_poisson", "e_total", "e_ionic", "e_electronic", "n", "e_ij_max", "weighted_surface_energy_EV_PER_ANG2", "weighted_surface_energy", "weighted_work_function", "surface_anisotropy", "shape_factor", "has_reconstructed", "possible_species", "has_props", "theoretical", "database_IDs"]}