{"builder_meta": null, "nsites": null, "elements": null, "nelements": null, "composition": null, "composition_reduced": null, "formula_pretty": "Ho3Ir", "formula_anonymous": "AB3", "chemsys": null, "volume": 418.1969443100168, "density": 10.911639333256074, "density_atomic": 26.13730901937605, "symmetry": null, "property_name": null, "material_id": "mp-1189120", "deprecated": null, "deprecation_reasons": null, "last_updated": null, "origins": null, "warnings": null, "structure": {"@module": "pymatgen.core.structure", "@class": "Structure", "charge": 0, "lattice": {"matrix": [[0.0, 0.0, 6.39435358], [7.1729161, 0.0, -0.0], [0.0, 9.11776631, 0.0]], "pbc": [true, true, true], "a": 6.39435358, "b": 7.1729161, "c": 9.11776631, "alpha": 90.0, "beta": 90.0, "gamma": 90.0, "volume": 418.1969443100168}, "properties": {}, "sites": [{"species": [{"element": "Ho", "occu": 1}], "abc": [0.32237611, 0.67529772, 0.06295306], "properties": {"magmom": -0.0}, "label": "Ho", "xyz": [4.843853888081292, 0.5739912895794087, 2.0613868330849736]}, {"species": [{"element": "Ho", "occu": 1}], "abc": [0.17762389, 0.17529772, 0.43704694], "properties": {"magmom": -0.0}, "label": "Ho", "xyz": [1.257395838081292, 3.9848918654205914, 1.1357899569150263]}, {"species": [{"element": "Ho", "occu": 1}], "abc": [0.67762489, 0.32470228, 0.56295306], "properties": {"magmom": -0.0}, "label": "Ho", "xyz": [2.3290622119187083, 5.132874444579409, 4.3329731412686066]}, {"species": [{"element": "Ho", "occu": 1}], "abc": [0.82237511, 0.82470228, 0.93704694], "properties": {"magmom": -0.0}, "label": "Ho", "xyz": [5.915520261918708, 8.543775020420592, 5.2585572287313935]}, {"species": [{"element": "Ho", "occu": 1}], "abc": [0.67762489, 0.32470228, 0.93704694], "properties": {"magmom": -0.0}, "label": "Ho", "xyz": [2.3290622119187083, 8.543775020420592, 4.3329731412686066]}, {"species": [{"element": "Ho", "occu": 1}], "abc": [0.82237511, 0.82470228, 0.56295306], "properties": {"magmom": -0.0}, "label": "Ho", "xyz": [5.915520261918708, 5.132874444579409, 5.2585572287313935]}, {"species": [{"element": "Ho", "occu": 1}], "abc": [0.32237611, 0.67529772, 0.43704694], "properties": {"magmom": -0.0}, "label": "Ho", "xyz": [4.843853888081292, 3.9848918654205914, 2.0613868330849736]}, {"species": [{"element": "Ho", "occu": 1}], "abc": [0.17762389, 0.17529772, 0.06295306], "properties": {"magmom": -0.0}, "label": "Ho", "xyz": [1.257395838081292, 0.5739912895794087, 1.1357899569150263]}, {"species": [{"element": "Ho", "occu": 1}], "abc": [0.8726708200000001, 0.53665089, 0.25], "properties": {"magmom": -0.0}, "label": "Ho", "xyz": [3.849351808960329, 2.2794415775, 5.580165782028536]}, {"species": [{"element": "Ho", "occu": 1}], "abc": [0.62732918, 0.03665089, 0.25], "properties": {"magmom": -0.0}, "label": "Ho", "xyz": [0.262893758960329, 2.2794415775, 4.011364587971465]}, {"species": [{"element": "Ho", "occu": 1}], "abc": [0.12732918000000001, 0.46334911, 0.75], "properties": {"magmom": -0.0}, "label": "Ho", "xyz": [3.323564291039671, 6.8383247325, 0.8141877979714645]}, {"species": [{"element": "Ho", "occu": 1}], "abc": [0.37267082, 0.96334911, 0.75], "properties": {"magmom": -0.0}, "label": "Ho", "xyz": [6.910022341039671, 6.8383247325, 2.3829889920285354]}, {"species": [{"element": "Ir", "occu": 1}], "abc": [0.03760968, 0.88635676, 0.25], "properties": {"magmom": 0.0}, "label": "Ir", "xyz": [6.3577626741478355, 2.2794415775, 0.2404895919506544]}, {"species": [{"element": "Ir", "occu": 1}], "abc": [0.46239032, 0.38635676, 0.25], "properties": {"magmom": 0.0}, "label": "Ir", "xyz": [2.7713046241478363, 2.2794415775, 2.9566871980493454]}, {"species": [{"element": "Ir", "occu": 1}], "abc": [0.96239032, 0.11364324, 0.75], "properties": {"magmom": 0.0}, "label": "Ir", "xyz": [0.8151534258521641, 6.8383247325, 6.153863988049346]}, {"species": [{"element": "Ir", "occu": 1}], "abc": [0.53760968, 0.61364324, 0.75], "properties": {"magmom": 0.0}, "label": "Ir", "xyz": [4.401611475852165, 6.8383247325, 3.4376663819506543]}]}, "task_ids": null, "uncorrected_energy_per_atom": null, "energy_per_atom": -6.246242194375, "formation_energy_per_atom": -0.588374050624995, "energy_above_hull": 0.0, "is_stable": true, "equilibrium_reaction_energy_per_atom": null, "decomposes_to": null, "xas": null, "grain_boundaries": null, "band_gap": 0.0, "cbm": null, "vbm": null, "efermi": 3.97752136, "is_gap_direct": null, "is_metal": null, "es_source_calc_id": null, "bandstructure": null, "dos": null, "dos_energy_up": null, "dos_energy_down": null, "is_magnetic": null, "ordering": null, "total_magnetization": 1.2e-06, "total_magnetization_normalized_vol": null, "total_magnetization_normalized_formula_units": null, "num_magnetic_sites": null, "num_unique_magnetic_sites": null, "types_of_magnetic_species": null, "bulk_modulus": null, "shear_modulus": null, "universal_anisotropy": null, "homogeneous_poisson": null, "e_total": null, "e_ionic": null, "e_electronic": null, "n": null, "e_ij_max": null, "weighted_surface_energy_EV_PER_ANG2": null, "weighted_surface_energy": null, "weighted_work_function": null, "surface_anisotropy": null, "shape_factor": null, "has_reconstructed": null, "possible_species": null, "has_props": null, "theoretical": null, "database_IDs": null, "fields_not_requested": ["builder_meta", "nsites", "elements", "nelements", "composition", "composition_reduced", "chemsys", "symmetry", "property_name", "deprecated", "deprecation_reasons", "last_updated", "origins", "warnings", "task_ids", "uncorrected_energy_per_atom", "equilibrium_reaction_energy_per_atom", "decomposes_to", "xas", "grain_boundaries", "cbm", "vbm", "is_gap_direct", "is_metal", "es_source_calc_id", "bandstructure", "dos", "dos_energy_up", "dos_energy_down", "is_magnetic", "ordering", "total_magnetization_normalized_vol", "total_magnetization_normalized_formula_units", "num_magnetic_sites", "num_unique_magnetic_sites", "types_of_magnetic_species", "bulk_modulus", "shear_modulus", "universal_anisotropy", "homogeneous_poisson", "e_total", "e_ionic", "e_electronic", "n", "e_ij_max", "weighted_surface_energy_EV_PER_ANG2", "weighted_surface_energy", "weighted_work_function", "surface_anisotropy", "shape_factor", "has_reconstructed", "possible_species", "has_props", "theoretical", "database_IDs"]}