{
  "builder_meta": null,
  "nsites": null,
  "elements": null,
  "nelements": null,
  "composition": null,
  "composition_reduced": null,
  "formula_pretty": "Ho3In",
  "formula_anonymous": "AB3",
  "chemsys": null,
  "volume": 110.92779070554123,
  "density": 9.125571572199625,
  "density_atomic": 27.731947676385307,
  "symmetry": null,
  "property_name": null,
  "material_id": "mp-863737",
  "deprecated": null,
  "deprecation_reasons": null,
  "last_updated": null,
  "origins": null,
  "warnings": null,
  "structure": {
    "@module": "pymatgen.core.structure",
    "@class": "Structure",
    "charge": 0,
    "lattice": {
      "matrix": [
        [4.80631329, 0.00150066, -0.00026523],
        [0.00134413, 4.80601183, 0.00059237],
        [-0.00014212, 0.0006846900000000001, 4.80223599]
      ],
      "pbc": [true, true, true],
      "a": 4.80631353159134,
      "b": 4.8060120544675735,
      "c": 4.802236040913625,
      "alpha": 89.98476934443481,
      "beta": 90.00485488307095,
      "gamma": 89.96608681080583,
      "volume": 110.92779070554124
    },
    "properties": {},
    "sites": [
      {
        "species": [{ "element": "Ho", "occu": 1 }],
        "abc": [1e-6, 0.499996999999999, 0.499998999999999],
        "properties": { "magmom": 0.352 },
        "label": "Ho",
        "xyz": [0.0006058074230199988, 2.403333842780475, 2.4014093757216655]
      },
      {
        "species": [{ "element": "Ho", "occu": 1 }],
        "abc": [0.500002, 2e-6, 0.5],
        "properties": { "magmom": 0.352 },
        "label": "Ho",
        "xyz": [2.40309520031484, 0.00110229002498, 2.40098538065428]
      },
      {
        "species": [{ "element": "Ho", "occu": 1 }],
        "abc": [0.499998, 0.5, 1e-6],
        "properties": { "magmom": 0.352 },
        "label": "Ho",
        "xyz": [2.4038190972313, 2.4037562426833703, 0.00016837276645000003]
      },
      {
        "species": [{ "element": "In", "occu": 1 }],
        "abc": [1e-6, 0.0, 0.0],
        "properties": { "magmom": -0.044 },
        "label": "In",
        "xyz": [4.80631329e-6, 1.5006599999999999e-9, -2.6522999999999997e-10]
      }
    ]
  },
  "task_ids": null,
  "uncorrected_energy_per_atom": null,
  "energy_per_atom": -4.382043532499999,
  "formation_energy_per_atom": -0.24399049791666003,
  "energy_above_hull": 0.005633348749999,
  "is_stable": false,
  "equilibrium_reaction_energy_per_atom": null,
  "decomposes_to": null,
  "xas": null,
  "grain_boundaries": null,
  "band_gap": 0.0,
  "cbm": null,
  "vbm": null,
  "efermi": 4.21956586,
  "is_gap_direct": null,
  "is_metal": null,
  "es_source_calc_id": null,
  "bandstructure": null,
  "dos": null,
  "dos_energy_up": null,
  "dos_energy_down": null,
  "is_magnetic": null,
  "ordering": null,
  "total_magnetization": 1.1886602,
  "total_magnetization_normalized_vol": null,
  "total_magnetization_normalized_formula_units": null,
  "num_magnetic_sites": null,
  "num_unique_magnetic_sites": null,
  "types_of_magnetic_species": null,
  "bulk_modulus": null,
  "shear_modulus": null,
  "universal_anisotropy": null,
  "homogeneous_poisson": null,
  "e_total": null,
  "e_ionic": null,
  "e_electronic": null,
  "n": null,
  "e_ij_max": null,
  "weighted_surface_energy_EV_PER_ANG2": null,
  "weighted_surface_energy": null,
  "weighted_work_function": null,
  "surface_anisotropy": null,
  "shape_factor": null,
  "has_reconstructed": null,
  "possible_species": null,
  "has_props": null,
  "theoretical": null,
  "database_IDs": null,
  "fields_not_requested": [
    "builder_meta",
    "nsites",
    "elements",
    "nelements",
    "composition",
    "composition_reduced",
    "chemsys",
    "symmetry",
    "property_name",
    "deprecated",
    "deprecation_reasons",
    "last_updated",
    "origins",
    "warnings",
    "task_ids",
    "uncorrected_energy_per_atom",
    "equilibrium_reaction_energy_per_atom",
    "decomposes_to",
    "xas",
    "grain_boundaries",
    "cbm",
    "vbm",
    "is_gap_direct",
    "is_metal",
    "es_source_calc_id",
    "bandstructure",
    "dos",
    "dos_energy_up",
    "dos_energy_down",
    "is_magnetic",
    "ordering",
    "total_magnetization_normalized_vol",
    "total_magnetization_normalized_formula_units",
    "num_magnetic_sites",
    "num_unique_magnetic_sites",
    "types_of_magnetic_species",
    "bulk_modulus",
    "shear_modulus",
    "universal_anisotropy",
    "homogeneous_poisson",
    "e_total",
    "e_ionic",
    "e_electronic",
    "n",
    "e_ij_max",
    "weighted_surface_energy_EV_PER_ANG2",
    "weighted_surface_energy",
    "weighted_work_function",
    "surface_anisotropy",
    "shape_factor",
    "has_reconstructed",
    "possible_species",
    "has_props",
    "theoretical",
    "database_IDs"
  ]
}
