{"builder_meta": null, "nsites": null, "elements": null, "nelements": null, "composition": null, "composition_reduced": null, "formula_pretty": "Ho3Ir2", "formula_anonymous": "A2B3", "chemsys": null, "volume": 1583.25407368531, "density": 12.91000848282053, "density_atomic": 22.61791533836157, "symmetry": null, "property_name": null, "material_id": "mp-1198319", "deprecated": null, "deprecation_reasons": null, "last_updated": null, "origins": null, "warnings": null, "structure": {"@module": "pymatgen.core.structure", "@class": "Structure", "charge": 0, "lattice": {"matrix": [[-5.609568, 5.609568, 12.578585], [5.609568, -5.609568, 12.578585], [5.609568, 5.609568, -12.578585]], "pbc": [true, true, true], "a": 14.871291366101097, "b": 14.871291366101097, "c": 14.871291366101097, "alpha": 135.67832401145802, "beta": 135.67832401145802, "gamma": 64.47804528273765, "volume": 1583.25407368531}, "properties": {}, "sites": [{"species": [{"element": "Ho", "occu": 1}], "abc": [0.632249, 0.503894, 0.279277999999999], "properties": {"magmom": 0.001}, "label": "Ho", "xyz": [0.8466128312639944, 2.2866450325439946, 10.77814923602501]}, {"species": [{"element": "Ho", "occu": 1}], "abc": [0.224616999999999, 0.352971, 0.720722], "properties": {"magmom": 0.001}, "label": "Ho", "xyz": [4.762949559168006, 3.322928577023995, -1.800423185390013]}, {"species": [{"element": "Ho", "occu": 1}], "abc": [0.132249, 0.852970999999999, 0.128354], "properties": {"magmom": 0.001}, "label": "Ho", "xyz": [4.762949559167995, -3.322928577023995, 10.778161814609987]}, {"species": [{"element": "Ho", "occu": 1}], "abc": [0.724617, 0.003894, 0.871645999999999], "properties": {"magmom": 0.001}, "label": "Ho", "xyz": [0.8466128312639949, 8.932502186591995, -1.8004357639749884]}, {"species": [{"element": "Ho", "occu": 1}], "abc": [0.352971, 0.632249, 0.128354], "properties": {"magmom": 0.001}, "label": "Ho", "xyz": [2.286639422976, -0.8466184408319999, 10.77816181461]}, {"species": [{"element": "Ho", "occu": 1}], "abc": [0.503894, 0.224616999999999, 0.871645999999999], "properties": {"magmom": 0.001}, "label": "Ho", "xyz": [3.3229341865919895, 6.456180831264, -1.8004357639750008]}, {"species": [{"element": "Ho", "occu": 1}], "abc": [0.003894, 0.132249, 0.279277999999999], "properties": {"magmom": 0.001}, "label": "Ho", "xyz": [2.2866450325439946, 0.8466128312639946, -1.8004357639749877]}, {"species": [{"element": "Ho", "occu": 1}], "abc": [0.852970999999999, 0.724617, 0.720722], "properties": {"magmom": 0.001}, "label": "Ho", "xyz": [3.3229285770240056, 4.762949559167995, 10.778161814609987]}, {"species": [{"element": "Ho", "occu": 1}], "abc": [0.367751, 0.496106, 0.720722], "properties": {"magmom": 0.001}, "label": "Ho", "xyz": [4.762955168736001, 3.3229229674560004, 1.800435763974999]}, {"species": [{"element": "Ho", "occu": 1}], "abc": [0.775382999999999, 0.647029, 0.279277999999999], "properties": {"magmom": 0.001}, "label": "Ho", "xyz": [0.8466184408319997, 2.2866394229759894, 14.379008185390001]}, {"species": [{"element": "Ho", "occu": 1}], "abc": [0.867750999999999, 0.147029, 0.871645999999999], "properties": {"magmom": 0.001}, "label": "Ho", "xyz": [0.8466184408319997, 8.93249657702399, 1.8004231853900006]}, {"species": [{"element": "Ho", "occu": 1}], "abc": [0.275383, 0.996105999999999, 0.128354], "properties": {"magmom": 0.001}, "label": "Ho", "xyz": [4.762955168735995, -3.3229341865919944, 14.379020763974987]}, {"species": [{"element": "Ho", "occu": 1}], "abc": [0.647029, 0.367751, 0.871645999999999], "properties": {"magmom": 0.001}, "label": "Ho", "xyz": [3.322928577023995, 6.456186440831995, 1.800423185390013]}, {"species": [{"element": "Ho", "occu": 1}], "abc": [0.496106, 0.775382999999999, 0.128354], "properties": {"magmom": 0.001}, "label": "Ho", "xyz": [2.2866338134079944, -0.8466128312639947, 14.379020763974987]}, {"species": [{"element": "Ho", "occu": 1}], "abc": [0.996105999999999, 0.867750999999999, 0.720722], "properties": {"magmom": 0.001}, "label": "Ho", "xyz": [3.322922967456001, 4.762955168736, 14.379020763974975]}, {"species": [{"element": "Ho", "occu": 1}], "abc": [0.147029, 0.275383, 0.279277999999999], "properties": {"magmom": 0.001}, "label": "Ho", "xyz": [2.2866394229759948, 0.8466184408319946, 1.8004231853900121]}, {"species": [{"element": "Ho", "occu": 1}], "abc": [0.385787, 0.516797, 0.290142], "properties": {"magmom": 0.001}, "label": "Ho", "xyz": [2.362480782336, 0.8926617749760002, 7.703653754569999]}, {"species": [{"element": "Ho", "occu": 1}], "abc": [0.226655, 0.095645, 0.709858], "properties": {"magmom": 0.001}, "label": "Ho", "xyz": [3.247087217664, 4.716906225024, -4.87493124543]}, {"species": [{"element": "Ho", "occu": 1}], "abc": [0.885787, 0.595645, 0.86899], "properties": {"magmom": 0.001}, "label": "Ho", "xyz": [3.2470872176639998, 6.502229774976001, 7.703653754569999]}, {"species": [{"element": "Ho", "occu": 1}], "abc": [0.726654999999999, 0.016797, 0.13101000000000002], "properties": {"magmom": 0.001}, "label": "Ho", "xyz": [-3.247087217663995, 4.716906225023995, 7.703653754569987]}, {"species": [{"element": "Ho", "occu": 1}], "abc": [0.095645, 0.385787, 0.86899], "properties": {"magmom": 0.0}, "label": "Ho", "xyz": [6.5022297749760005, 3.247087217664, -4.874931245430001]}, {"species": [{"element": "Ho", "occu": 1}], "abc": [0.516797, 0.226655, 0.13101000000000002], "properties": {"magmom": 0.001}, "label": "Ho", "xyz": [-0.8926617749759996, 2.3624807823359997, 7.7036537545699995]}, {"species": [{"element": "Ho", "occu": 1}], "abc": [0.016797, 0.885787, 0.290142], "properties": {"magmom": 0.002}, "label": "Ho", "xyz": [6.5022297749760005, -3.247087217664, 7.703653754569999]}, {"species": [{"element": "Ho", "occu": 1}], "abc": [0.595645, 0.726654999999999, 0.709858], "properties": {"magmom": 0.002}, "label": "Ho", "xyz": [4.716906225023996, 3.247087217664005, 7.703653754569988]}, {"species": [{"element": "Ho", "occu": 1}], "abc": [0.614213, 0.483203, 0.709858], "properties": {"magmom": 0.001}, "label": "Ho", "xyz": [3.2470872176639998, 4.716906225024001, 4.874931245430002]}, {"species": [{"element": "Ho", "occu": 1}], "abc": [0.773345, 0.904354999999999, 0.290142], "properties": {"magmom": 0.001}, "label": "Ho", "xyz": [2.362480782335995, 0.8926617749760055, 17.453516245429988]}, {"species": [{"element": "Ho", "occu": 1}], "abc": [0.114213, 0.404354999999999, 0.13101000000000002], "properties": {"magmom": 0.001}, "label": "Ho", "xyz": [2.362480782335995, -0.8926617749759945, 4.874931245429988]}, {"species": [{"element": "Ho", "occu": 1}], "abc": [0.273345, 0.983202999999999, 0.86899], "properties": {"magmom": 0.001}, "label": "Ho", "xyz": [8.856655217663995, 0.8926617749760055, 4.874931245429988]}, {"species": [{"element": "Ho", "occu": 1}], "abc": [0.904354999999999, 0.614213, 0.13101000000000002], "properties": {"magmom": 0.002}, "label": "Ho", "xyz": [-0.8926617749759939, 2.362480782335994, 17.453516245429988]}, {"species": [{"element": "Ho", "occu": 1}], "abc": [0.483203, 0.773345, 0.86899], "properties": {"magmom": 0.002}, "label": "Ho", "xyz": [6.502229774976, 3.2470872176640007, 4.874931245429998]}, {"species": [{"element": "Ho", "occu": 1}], "abc": [0.983202999999999, 0.114213, 0.709858], "properties": {"magmom": 0.001}, "label": "Ho", "xyz": [-0.8926617749759949, 8.856655217663995, 4.874931245429989]}, {"species": [{"element": "Ho", "occu": 1}], "abc": [0.404354999999999, 0.273345, 0.290142], "properties": {"magmom": 0.001}, "label": "Ho", "xyz": [0.8926617749760055, 2.362480782335995, 4.874931245429988]}, {"species": [{"element": "Ho", "occu": 1}], "abc": [0.850279, 0.350279, 0.200556999999999], "properties": {"magmom": 0.001}, "label": "Ho", "xyz": [-1.6797458706240052, 3.929822129375994, 12.578597578585015]}, {"species": [{"element": "Ho", "occu": 1}], "abc": [0.149721, 0.649721, 0.799443], "properties": {"magmom": 0.001}, "label": "Ho", "xyz": [7.289313870624001, 1.6797458706240005, -1.2578585002032128e-05]}, {"species": [{"element": "Ho", "occu": 1}], "abc": [0.350279, 0.149721, 0.5], "properties": {"magmom": 0.002}, "label": "Ho", "xyz": [1.6797402610560002, 3.929827738944, 0.0]}, {"species": [{"element": "Ho", "occu": 1}], "abc": [0.649721, 0.850279, 0.5], "properties": {"magmom": 0.002}, "label": "Ho", "xyz": [3.929827738944, 1.6797402610560002, 12.578584999999999]}, {"species": [{"element": "Ho", "occu": 1}], "abc": [0.387727999999999, 0.887728, 0.5], "properties": {"magmom": 0.001}, "label": "Ho", "xyz": [5.609568000000005, -4.884981308350689e-15, 9.754139209759986]}, {"species": [{"element": "Ho", "occu": 1}], "abc": [0.887728, 0.387727999999999, 0.5], "properties": {"magmom": 0.002}, "label": "Ho", "xyz": [-4.884981308350689e-15, 5.609568000000005, 9.754139209759986]}, {"species": [{"element": "Ho", "occu": 1}], "abc": [0.612271999999999, 0.112272, 0.5], "properties": {"magmom": 0.001}, "label": "Ho", "xyz": [5.329070518200751e-15, 5.609567999999995, 2.824445790239988]}, {"species": [{"element": "Ho", "occu": 1}], "abc": [0.112272, 0.612271999999999, 0.5], "properties": {"magmom": 0.002}, "label": "Ho", "xyz": [5.609567999999995, 5.329070518200751e-15, 2.824445790239988]}, {"species": [{"element": "Ho", "occu": 1}], "abc": [0.25, 0.75, 0.5], "properties": {"magmom": 0.001}, "label": "Ho", "xyz": [5.609568000000001, -4.440892098500626e-16, 6.2892925]}, {"species": [{"element": "Ho", "occu": 1}], "abc": [0.75, 0.25, 0.5], "properties": {"magmom": 0.001}, "label": "Ho", "xyz": [-4.440892098500626e-16, 5.609568000000001, 6.2892925]}, {"species": [{"element": "Ir", "occu": 1}], "abc": [0.714823, 0.214823, 0.141660999999999], "properties": {"magmom": -0.0}, "label": "Ir", "xyz": [-2.010126987552006, 3.599441012447995, 9.911736301225012]}, {"species": [{"element": "Ir", "occu": 1}], "abc": [0.073161999999999, 0.573162, 0.858339], "properties": {"magmom": -0.0}, "label": "Ir", "xyz": [7.6196949875520055, 2.010126987551995, -2.666848698775013]}, {"species": [{"element": "Ir", "occu": 1}], "abc": [0.214823, 0.073161999999999, 0.5], "properties": {"magmom": 0.0}, "label": "Ir", "xyz": [2.0101269875519945, 3.599441012448006, -2.666848698775013]}, {"species": [{"element": "Ir", "occu": 1}], "abc": [0.573162, 0.714823, 0.5], "properties": {"magmom": 0.0}, "label": "Ir", "xyz": [3.5994410124480005, 2.010126987552, 9.911736301225]}, {"species": [{"element": "Ir", "occu": 1}], "abc": [0.285177, 0.785177, 0.858339], "properties": {"magmom": -0.0}, "label": "Ir", "xyz": [7.619694987552001, 2.010126987552, 2.6668486987750004]}, {"species": [{"element": "Ir", "occu": 1}], "abc": [0.926837999999999, 0.426838, 0.141660999999999], "properties": {"magmom": -0.0}, "label": "Ir", "xyz": [-2.0101269875520007, 3.59944101244799, 15.245433698775003]}, {"species": [{"element": "Ir", "occu": 1}], "abc": [0.785177, 0.926837999999999, 0.5], "properties": {"magmom": 0.0}, "label": "Ir", "xyz": [3.5994410124479947, 2.0101269875520056, 15.24543369877499]}, {"species": [{"element": "Ir", "occu": 1}], "abc": [0.426838, 0.285177, 0.5], "properties": {"magmom": 0.0}, "label": "Ir", "xyz": [2.0101269875520007, 3.5994410124479996, 2.6668486987750004]}, {"species": [{"element": "Ir", "occu": 1}], "abc": [0.465535, 0.965534999999999, 0.80808], "properties": {"magmom": 0.001}, "label": "Ir", "xyz": [7.3377637094399955, 1.728195709440005, 7.836332669149989]}, {"species": [{"element": "Ir", "occu": 1}], "abc": [0.157454999999999, 0.657455, 0.19192], "properties": {"magmom": 0.001}, "label": "Ir", "xyz": [3.881372290560006, -1.7281957094400058, 7.836332669149989]}, {"species": [{"element": "Ir", "occu": 1}], "abc": [0.965534999999999, 0.157454999999999, 0.5], "properties": {"magmom": 0.0}, "label": "Ir", "xyz": [-1.728195709440001, 7.337763709440001, 7.836332669149977]}, {"species": [{"element": "Ir", "occu": 1}], "abc": [0.657455, 0.465535, 0.5], "properties": {"magmom": 0.0}, "label": "Ir", "xyz": [1.7281957094399996, 3.8813722905600008, 7.836332669150002]}, {"species": [{"element": "Ir", "occu": 1}], "abc": [0.534465, 0.034464999999999, 0.19192], "properties": {"magmom": 0.001}, "label": "Ir", "xyz": [-1.7281957094400053, 3.8813722905600057, 4.742252330849988]}, {"species": [{"element": "Ir", "occu": 1}], "abc": [0.842545, 0.342545, 0.80808], "properties": {"magmom": 0.001}, "label": "Ir", "xyz": [1.7281957094400004, 7.33776370944, 4.742252330849999]}, {"species": [{"element": "Ir", "occu": 1}], "abc": [0.034464999999999, 0.842545, 0.5], "properties": {"magmom": 0.0}, "label": "Ir", "xyz": [7.337763709440006, -1.7281957094400053, 4.742252330849986]}, {"species": [{"element": "Ir", "occu": 1}], "abc": [0.342545, 0.534465, 0.5], "properties": {"magmom": 0.0}, "label": "Ir", "xyz": [3.88137229056, 1.7281957094400002, 4.742252330849999]}, {"species": [{"element": "Ir", "occu": 1}], "abc": [0.596676, 0.096676, 0.693350999999999], "properties": {"magmom": -0.0}, "label": "Ir", "xyz": [1.0846155823679946, 6.6941835823679945, 1.2578585012690269e-05]}, {"species": [{"element": "Ir", "occu": 1}], "abc": [0.403323999999999, 0.903323999999999, 0.306649], "properties": {"magmom": -0.0}, "label": "Ir", "xyz": [4.524952417632001, -1.0846155823680004, 12.578572421414977]}, {"species": [{"element": "Ir", "occu": 1}], "abc": [0.096676, 0.403323999999999, 0.5], "properties": {"magmom": -0.0}, "label": "Ir", "xyz": [4.524946808063994, 1.0846211919360056, -1.2434497875801753e-14]}, {"species": [{"element": "Ir", "occu": 1}], "abc": [0.903323999999999, 0.596676, 0.5], "properties": {"magmom": 0.0}, "label": "Ir", "xyz": [1.0846211919360051, 4.524946808063995, 12.578584999999988]}, {"species": [{"element": "Ir", "occu": 1}], "abc": [0.366074, 0.366074, 0.0], "properties": {"magmom": 0.0}, "label": "Ir", "xyz": [0.0, 0.0, 9.20938585058]}, {"species": [{"element": "Ir", "occu": 1}], "abc": [0.866074, 0.866074, 0.0], "properties": {"magmom": 0.001}, "label": "Ir", "xyz": [0.0, 0.0, 21.787970850580002]}, {"species": [{"element": "Ir", "occu": 1}], "abc": [0.633926, 0.633926, 0.0], "properties": {"magmom": 0.001}, "label": "Ir", "xyz": [0.0, 0.0, 15.94778414942]}, {"species": [{"element": "Ir", "occu": 1}], "abc": [0.133926, 0.133926, 0.0], "properties": {"magmom": 0.0}, "label": "Ir", "xyz": [0.0, 0.0, 3.36919914942]}, {"species": [{"element": "Ir", "occu": 1}], "abc": [0.5, 0.5, 0.0], "properties": {"magmom": 0.0}, "label": "Ir", "xyz": [0.0, 0.0, 12.578585]}, {"species": [{"element": "Ir", "occu": 1}], "abc": [0.0, 0.0, 0.0], "properties": {"magmom": 0.0}, "label": "Ir", "xyz": [0.0, 0.0, 0.0]}, {"species": [{"element": "Ir", "occu": 1}], "abc": [0.25, 0.25, 0.0], "properties": {"magmom": 0.001}, "label": "Ir", "xyz": [0.0, 0.0, 6.2892925]}, {"species": [{"element": "Ir", "occu": 1}], "abc": [0.75, 0.75, 0.0], "properties": {"magmom": 0.002}, "label": "Ir", "xyz": [0.0, 0.0, 18.8678775]}]}, "task_ids": null, "uncorrected_energy_per_atom": null, "energy_per_atom": -7.114589138857142, "formation_energy_per_atom": -0.8206077878571381, "energy_above_hull": 0.017080930392856002, "is_stable": false, "equilibrium_reaction_energy_per_atom": null, "decomposes_to": null, "xas": null, "grain_boundaries": null, "band_gap": 0.0, "cbm": null, "vbm": null, "efermi": 4.91902233, "is_gap_direct": null, "is_metal": null, "es_source_calc_id": null, "bandstructure": null, "dos": null, "dos_energy_up": null, "dos_energy_down": null, "is_magnetic": null, "ordering": null, "total_magnetization": 0.0847459, "total_magnetization_normalized_vol": null, "total_magnetization_normalized_formula_units": null, "num_magnetic_sites": null, "num_unique_magnetic_sites": null, "types_of_magnetic_species": null, "bulk_modulus": null, "shear_modulus": null, "universal_anisotropy": null, "homogeneous_poisson": null, "e_total": null, "e_ionic": null, "e_electronic": null, "n": null, "e_ij_max": null, "weighted_surface_energy_EV_PER_ANG2": null, "weighted_surface_energy": null, "weighted_work_function": null, "surface_anisotropy": null, "shape_factor": null, "has_reconstructed": null, "possible_species": null, "has_props": null, "theoretical": null, "database_IDs": null, "fields_not_requested": ["builder_meta", "nsites", "elements", "nelements", "composition", "composition_reduced", "chemsys", "symmetry", "property_name", "deprecated", "deprecation_reasons", "last_updated", "origins", "warnings", "task_ids", "uncorrected_energy_per_atom", "equilibrium_reaction_energy_per_atom", "decomposes_to", "xas", "grain_boundaries", "cbm", "vbm", "is_gap_direct", "is_metal", "es_source_calc_id", "bandstructure", "dos", "dos_energy_up", "dos_energy_down", "is_magnetic", "ordering", "total_magnetization_normalized_vol", "total_magnetization_normalized_formula_units", "num_magnetic_sites", "num_unique_magnetic_sites", "types_of_magnetic_species", "bulk_modulus", "shear_modulus", "universal_anisotropy", "homogeneous_poisson", "e_total", "e_ionic", "e_electronic", "n", "e_ij_max", "weighted_surface_energy_EV_PER_ANG2", "weighted_surface_energy", "weighted_work_function", "surface_anisotropy", "shape_factor", "has_reconstructed", "possible_species", "has_props", "theoretical", "database_IDs"]}