{
  "builder_meta": null,
  "nsites": null,
  "elements": null,
  "nelements": null,
  "composition": null,
  "composition_reduced": null,
  "formula_pretty": "Ho3In5",
  "formula_anonymous": "A3B5",
  "chemsys": null,
  "volume": 404.5255640903319,
  "density": 8.775309889827216,
  "density_atomic": 25.282847755645744,
  "symmetry": null,
  "property_name": null,
  "material_id": "mp-1188109",
  "deprecated": null,
  "deprecation_reasons": null,
  "last_updated": null,
  "origins": null,
  "warnings": null,
  "structure": {
    "@module": "pymatgen.core.structure",
    "@class": "Structure",
    "charge": 0,
    "lattice": {
      "matrix": [
        [4.89736454, 4.00675085, -0.0],
        [-4.89736454, 4.00675085, -0.0],
        [0.0, -0.0, 10.30768662]
      ],
      "pbc": [true, true, true],
      "a": 6.327577088556499,
      "b": 6.327577088556499,
      "c": 10.30768662,
      "alpha": 90.0,
      "beta": 90.0,
      "gamma": 101.42376209429713,
      "volume": 404.5255640903319
    },
    "properties": {},
    "sites": [
      {
        "species": [{ "element": "Ho", "occu": 1 }],
        "abc": [0.62137713, 0.62137713, 0.25],
        "properties": { "magmom": 0.0 },
        "label": "Ho",
        "xyz": [0.0, 4.979406687596122, 2.576921655]
      },
      {
        "species": [{ "element": "Ho", "occu": 1 }],
        "abc": [0.37862287, 0.37862287, 0.75],
        "properties": { "magmom": 0.0 },
        "label": "Ho",
        "xyz": [0.0, 3.0340950124038795, 7.7307649650000005]
      },
      {
        "species": [{ "element": "Ho", "occu": 1 }],
        "abc": [0.79627051, 0.20372949, 0.5],
        "properties": { "magmom": 0.0 },
        "label": "Ho",
        "xyz": [2.901889379843431, 4.00675085, 5.15384331]
      },
      {
        "species": [{ "element": "Ho", "occu": 1 }],
        "abc": [0.79627051, 0.20372949, 0.0],
        "properties": { "magmom": 0.0 },
        "label": "Ho",
        "xyz": [2.901889379843431, 4.00675085, 0.0]
      },
      {
        "species": [{ "element": "Ho", "occu": 1 }],
        "abc": [0.20372949, 0.79627051, 0.5],
        "properties": { "magmom": 0.0 },
        "label": "Ho",
        "xyz": [-2.901889379843431, 4.00675085, 5.15384331]
      },
      {
        "species": [{ "element": "Ho", "occu": 1 }],
        "abc": [0.20372949, 0.79627051, 0.0],
        "properties": { "magmom": 0.0 },
        "label": "Ho",
        "xyz": [-2.901889379843431, 4.00675085, 0.0]
      },
      {
        "species": [{ "element": "In", "occu": 1 }],
        "abc": [0.00647633, 0.00647633, 0.25],
        "properties": { "magmom": 0.0 },
        "label": "In",
        "xyz": [0.0, 0.051898081464761006, 2.576921655]
      },
      {
        "species": [{ "element": "In", "occu": 1 }],
        "abc": [0.99352367, 0.99352367, 0.75],
        "properties": { "magmom": 0.0 },
        "label": "In",
        "xyz": [0.0, 7.961603618535239, 7.7307649650000005]
      },
      {
        "species": [{ "element": "In", "occu": 1 }],
        "abc": [0.30811729, 0.30811729, 0.04470737],
        "properties": { "magmom": -0.0 },
        "label": "In",
        "xyz": [0.0, 2.469098427214393, 0.4608295595643894]
      },
      {
        "species": [{ "element": "In", "occu": 1 }],
        "abc": [0.69188271, 0.69188271, 0.95529263],
        "properties": { "magmom": -0.0 },
        "label": "In",
        "xyz": [0.0, 5.544403272785607, 9.84685706043561]
      },
      {
        "species": [{ "element": "In", "occu": 1 }],
        "abc": [0.30811729, 0.30811729, 0.45529263000000003],
        "properties": { "magmom": -0.0 },
        "label": "In",
        "xyz": [0.0, 2.469098427214393, 4.693013750435611]
      },
      {
        "species": [{ "element": "In", "occu": 1 }],
        "abc": [0.69188271, 0.69188271, 0.54470737],
        "properties": { "magmom": -0.0 },
        "label": "In",
        "xyz": [0.0, 5.544403272785607, 5.61467286956439]
      },
      {
        "species": [{ "element": "In", "occu": 1 }],
        "abc": [0.07453796, 0.508925, 0.25],
        "properties": { "magmom": 0.0 },
        "label": "In",
        "xyz": [-2.1273516863315614, 2.337790710923516, 2.576921655]
      },
      {
        "species": [{ "element": "In", "occu": 1 }],
        "abc": [0.491075999999999, 0.92546304, 0.75],
        "properties": { "magmom": 0.0 },
        "label": "In",
        "xyz": [-2.1273516863315662, 5.67571900257818, 7.7307649650000005]
      },
      {
        "species": [{ "element": "In", "occu": 1 }],
        "abc": [0.92546204, 0.491075, 0.75],
        "properties": { "magmom": 0.0 },
        "label": "In",
        "xyz": [2.127351686331562, 5.675710989076484, 7.7307649650000005]
      },
      {
        "species": [{ "element": "In", "occu": 1 }],
        "abc": [0.508923999999999, 0.07453696, 0.25],
        "properties": { "magmom": 0.0 },
        "label": "In",
        "xyz": [2.127351686331557, 2.337782697421812, 2.576921655]
      }
    ]
  },
  "task_ids": null,
  "uncorrected_energy_per_atom": null,
  "energy_per_atom": -3.873950894374996,
  "formation_energy_per_atom": -0.42533750541665905,
  "energy_above_hull": 0.0,
  "is_stable": true,
  "equilibrium_reaction_energy_per_atom": null,
  "decomposes_to": null,
  "xas": null,
  "grain_boundaries": null,
  "band_gap": 0.0,
  "cbm": null,
  "vbm": null,
  "efermi": 6.30773447,
  "is_gap_direct": null,
  "is_metal": null,
  "es_source_calc_id": null,
  "bandstructure": null,
  "dos": null,
  "dos_energy_up": null,
  "dos_energy_down": null,
  "is_magnetic": null,
  "ordering": null,
  "total_magnetization": 0.0,
  "total_magnetization_normalized_vol": null,
  "total_magnetization_normalized_formula_units": null,
  "num_magnetic_sites": null,
  "num_unique_magnetic_sites": null,
  "types_of_magnetic_species": null,
  "bulk_modulus": null,
  "shear_modulus": null,
  "universal_anisotropy": null,
  "homogeneous_poisson": null,
  "e_total": null,
  "e_ionic": null,
  "e_electronic": null,
  "n": null,
  "e_ij_max": null,
  "weighted_surface_energy_EV_PER_ANG2": null,
  "weighted_surface_energy": null,
  "weighted_work_function": null,
  "surface_anisotropy": null,
  "shape_factor": null,
  "has_reconstructed": null,
  "possible_species": null,
  "has_props": null,
  "theoretical": null,
  "database_IDs": null,
  "fields_not_requested": [
    "builder_meta",
    "nsites",
    "elements",
    "nelements",
    "composition",
    "composition_reduced",
    "chemsys",
    "symmetry",
    "property_name",
    "deprecated",
    "deprecation_reasons",
    "last_updated",
    "origins",
    "warnings",
    "task_ids",
    "uncorrected_energy_per_atom",
    "equilibrium_reaction_energy_per_atom",
    "decomposes_to",
    "xas",
    "grain_boundaries",
    "cbm",
    "vbm",
    "is_gap_direct",
    "is_metal",
    "es_source_calc_id",
    "bandstructure",
    "dos",
    "dos_energy_up",
    "dos_energy_down",
    "is_magnetic",
    "ordering",
    "total_magnetization_normalized_vol",
    "total_magnetization_normalized_formula_units",
    "num_magnetic_sites",
    "num_unique_magnetic_sites",
    "types_of_magnetic_species",
    "bulk_modulus",
    "shear_modulus",
    "universal_anisotropy",
    "homogeneous_poisson",
    "e_total",
    "e_ionic",
    "e_electronic",
    "n",
    "e_ij_max",
    "weighted_surface_energy_EV_PER_ANG2",
    "weighted_surface_energy",
    "weighted_work_function",
    "surface_anisotropy",
    "shape_factor",
    "has_reconstructed",
    "possible_species",
    "has_props",
    "theoretical",
    "database_IDs"
  ]
}
