{
  "builder_meta": null,
  "nsites": null,
  "elements": null,
  "nelements": null,
  "composition": null,
  "composition_reduced": null,
  "formula_pretty": "Ho3Lu",
  "formula_anonymous": "AB3",
  "chemsys": null,
  "volume": 246.2538157085382,
  "density": 9.032625582237902,
  "density_atomic": 30.781726963567277,
  "symmetry": null,
  "property_name": null,
  "material_id": "mp-973689",
  "deprecated": null,
  "deprecation_reasons": null,
  "last_updated": null,
  "origins": null,
  "warnings": null,
  "structure": {
    "@module": "pymatgen.core.structure",
    "@class": "Structure",
    "charge": 0,
    "lattice": {
      "matrix": [
        [7.16911224, 1.08e-6, 0.0],
        [-3.58455454, 6.20863302, 1.32e-6],
        [0.0, 1.189999999999999e-6, 5.53250176]
      ],
      "pbc": [true, true, true],
      "a": 7.16911224000008,
      "b": 7.1691111880951235,
      "c": 5.532501760000128,
      "alpha": 89.99997877770701,
      "beta": 89.99999999999814,
      "gamma": 119.9999816414265,
      "volume": 246.2538157085382
    },
    "properties": {},
    "sites": [
      {
        "species": [{ "element": "Ho", "occu": 1 }],
        "abc": [0.16759063, 0.33518127000000003, 0.2500015],
        "properties": { "magmom": 0.0 },
        "label": "Ho",
        "xyz": [4.937408450977898e-7, 2.0810179791072008, 1.3831341811919162]
      },
      {
        "species": [{ "element": "Ho", "occu": 1 }],
        "abc": [0.83240893, 0.16758944, 0.75000195],
        "properties": { "magmom": 0.0 },
        "label": "Ho",
        "xyz": [5.366899560740245, 1.0405031224912737, 4.149387329596492]
      },
      {
        "species": [{ "element": "Ho", "occu": 1 }],
        "abc": [0.33518051, 0.16758944, 0.75000195],
        "properties": { "magmom": 0.0 },
        "label": "Ho",
        "xyz": [1.8022132088423848, 1.0405025854845802, 4.149387329596492]
      },
      {
        "species": [{ "element": "Ho", "occu": 1 }],
        "abc": [0.83240902, 0.66481804, 0.750001399999999],
        "properties": { "magmom": 0.0 },
        "label": "Ho",
        "xyz": [3.584557170412503, 4.1276130269390885, 4.1493849430622705]
      },
      {
        "species": [{ "element": "Ho", "occu": 1 }],
        "abc": [0.16759000000000002, 0.83240978, 0.25000107],
        "properties": { "magmom": 0.0 },
        "label": "Ho",
        "xyz": [-1.7823467357378011, 5.168127324777409, 1.3831324585577927]
      },
      {
        "species": [{ "element": "Ho", "occu": 1 }],
        "abc": [0.66481977, 0.83240978, 0.25000107],
        "properties": { "magmom": 0.0 },
        "label": "Ho",
        "xyz": [1.7823492944615835, 5.1681278617855595, 1.3831324585577927]
      },
      {
        "species": [{ "element": "Lu", "occu": 1 }],
        "abc": [0.6666657500000001, 0.33333051, 0.25000035],
        "properties": { "magmom": 0.0 },
        "label": "Lu",
        "xyz": [3.5845601953727644, 2.0695278284588667, 1.383127816371889]
      },
      {
        "species": [{ "element": "Lu", "occu": 1 }],
        "abc": [0.33333337, 0.66666674, 0.75000272],
        "properties": { "magmom": 0.0 },
        "label": "Lu",
        "xyz": [1.0533334489082335e-6, 4.139090387803031, 4.149392248404884]
      }
    ]
  },
  "task_ids": null,
  "uncorrected_energy_per_atom": null,
  "energy_per_atom": -34.1786545,
  "formation_energy_per_atom": 0.002323482083333,
  "energy_above_hull": 0.002323482083333,
  "is_stable": false,
  "equilibrium_reaction_energy_per_atom": null,
  "decomposes_to": null,
  "xas": null,
  "grain_boundaries": null,
  "band_gap": 0.0,
  "cbm": null,
  "vbm": null,
  "efermi": 2.9997903999999993,
  "is_gap_direct": null,
  "is_metal": null,
  "es_source_calc_id": null,
  "bandstructure": null,
  "dos": null,
  "dos_energy_up": null,
  "dos_energy_down": null,
  "is_magnetic": null,
  "ordering": null,
  "total_magnetization": 0.00024219999999900002,
  "total_magnetization_normalized_vol": null,
  "total_magnetization_normalized_formula_units": null,
  "num_magnetic_sites": null,
  "num_unique_magnetic_sites": null,
  "types_of_magnetic_species": null,
  "bulk_modulus": null,
  "shear_modulus": null,
  "universal_anisotropy": null,
  "homogeneous_poisson": null,
  "e_total": null,
  "e_ionic": null,
  "e_electronic": null,
  "n": null,
  "e_ij_max": null,
  "weighted_surface_energy_EV_PER_ANG2": null,
  "weighted_surface_energy": null,
  "weighted_work_function": null,
  "surface_anisotropy": null,
  "shape_factor": null,
  "has_reconstructed": null,
  "possible_species": null,
  "has_props": null,
  "theoretical": null,
  "database_IDs": null,
  "fields_not_requested": [
    "builder_meta",
    "nsites",
    "elements",
    "nelements",
    "composition",
    "composition_reduced",
    "chemsys",
    "symmetry",
    "property_name",
    "deprecated",
    "deprecation_reasons",
    "last_updated",
    "origins",
    "warnings",
    "task_ids",
    "uncorrected_energy_per_atom",
    "equilibrium_reaction_energy_per_atom",
    "decomposes_to",
    "xas",
    "grain_boundaries",
    "cbm",
    "vbm",
    "is_gap_direct",
    "is_metal",
    "es_source_calc_id",
    "bandstructure",
    "dos",
    "dos_energy_up",
    "dos_energy_down",
    "is_magnetic",
    "ordering",
    "total_magnetization_normalized_vol",
    "total_magnetization_normalized_formula_units",
    "num_magnetic_sites",
    "num_unique_magnetic_sites",
    "types_of_magnetic_species",
    "bulk_modulus",
    "shear_modulus",
    "universal_anisotropy",
    "homogeneous_poisson",
    "e_total",
    "e_ionic",
    "e_electronic",
    "n",
    "e_ij_max",
    "weighted_surface_energy_EV_PER_ANG2",
    "weighted_surface_energy",
    "weighted_work_function",
    "surface_anisotropy",
    "shape_factor",
    "has_reconstructed",
    "possible_species",
    "has_props",
    "theoretical",
    "database_IDs"
  ]
}
