{"builder_meta": null, "nsites": null, "elements": null, "nelements": null, "composition": null, "composition_reduced": null, "formula_pretty": "Ho3Ni2", "formula_anonymous": "A2B3", "chemsys": null, "volume": 217.7473897610678, "density": 9.336920982603964, "density_atomic": 21.774738976106782, "symmetry": null, "property_name": null, "material_id": "mp-1080523", "deprecated": null, "deprecation_reasons": null, "last_updated": null, "origins": null, "warnings": null, "structure": {"@module": "pymatgen.core.structure", "@class": "Structure", "charge": 0, "lattice": {"matrix": [[1.80407154, 6.57616412, -0.03722869], [-1.80407154, 6.57616412, -0.03722869], [0.0, 2.50605514, 9.16272475]], "pbc": [true, true, true], "a": 6.819237100290065, "b": 6.819237100290065, "c": 9.49925456070017, "alpha": 75.57300229721665, "beta": 75.57300229721665, "gamma": 30.68116910496209, "volume": 217.7473897610678}, "properties": {}, "sites": [{"species": [{"element": "Ho", "occu": 1}], "abc": [0.13132674, 0.13132674, 0.00216214], "properties": {"magmom": -0.027}, "label": "Ho", "xyz": [0.0, 1.732670833229537, 0.010032848706623798]}, {"species": [{"element": "Ho", "occu": 1}], "abc": [0.86867326, 0.86867326, 0.99783786], "properties": {"magmom": -0.027}, "label": "Ho", "xyz": [0.0, 13.925712546770463, 9.078234521293377]}, {"species": [{"element": "Ho", "occu": 1}], "abc": [0.40277511, 0.40277511, 0.67381006], "properties": {"magmom": 0.08}, "label": "Ho", "xyz": [0.0, 6.986035617868815, 6.143946534141173]}, {"species": [{"element": "Ho", "occu": 1}], "abc": [0.59722489, 0.59722489, 0.32618994], "properties": {"magmom": 0.08}, "label": "Ho", "xyz": [0.0, 8.672347762131185, 2.944320835858827]}, {"species": [{"element": "Ho", "occu": 1}], "abc": [0.14453968, 0.14453968, 0.63713726], "properties": {"magmom": 0.113}, "label": "Ho", "xyz": [0.0, 3.49773442037308, 5.8271512954703475]}, {"species": [{"element": "Ho", "occu": 1}], "abc": [0.85546032, 0.85546032, 0.36286274], "properties": {"magmom": 0.113}, "label": "Ho", "xyz": [0.0, 12.16064895962692, 3.261116074529654]}, {"species": [{"element": "Ni", "occu": 1}], "abc": [0.53418041, 0.53418041, 0.85616718], "properties": {"magmom": 0.031}, "label": "Ni", "xyz": [0.0, 9.171318253836084, 7.80505053654778]}, {"species": [{"element": "Ni", "occu": 1}], "abc": [0.46581959, 0.46581959, 0.14383282], "properties": {"magmom": 0.031}, "label": "Ni", "xyz": [0.0, 6.487065126163916, 1.283216833452221]}, {"species": [{"element": "Ni", "occu": 1}], "abc": [0.7436296800000001, 0.7436296800000001, 0.77621639], "properties": {"magmom": 0.002}, "label": "Ni", "xyz": [0.0, 11.725702714277908, 7.056888410345615]}, {"species": [{"element": "Ni", "occu": 1}], "abc": [0.25637032, 0.25637032, 0.22378361], "properties": {"magmom": 0.002}, "label": "Ni", "xyz": [0.0, 3.932680665722092, 2.031378959654386]}]}, "task_ids": null, "uncorrected_energy_per_atom": null, "energy_per_atom": -5.439923531999997, "formation_energy_per_atom": -0.36926118099999305, "energy_above_hull": 0.005092273500003, "is_stable": false, "equilibrium_reaction_energy_per_atom": null, "decomposes_to": null, "xas": null, "grain_boundaries": null, "band_gap": 0.0, "cbm": null, "vbm": null, "efermi": 4.33327659, "is_gap_direct": null, "is_metal": null, "es_source_calc_id": null, "bandstructure": null, "dos": null, "dos_energy_up": null, "dos_energy_down": null, "is_magnetic": null, "ordering": null, "total_magnetization": 0.5230244, "total_magnetization_normalized_vol": null, "total_magnetization_normalized_formula_units": null, "num_magnetic_sites": null, "num_unique_magnetic_sites": null, "types_of_magnetic_species": null, "bulk_modulus": null, "shear_modulus": null, "universal_anisotropy": null, "homogeneous_poisson": null, "e_total": null, "e_ionic": null, "e_electronic": null, "n": null, "e_ij_max": null, "weighted_surface_energy_EV_PER_ANG2": null, "weighted_surface_energy": null, "weighted_work_function": null, "surface_anisotropy": null, "shape_factor": null, "has_reconstructed": null, "possible_species": null, "has_props": null, "theoretical": null, "database_IDs": null, "fields_not_requested": ["builder_meta", "nsites", "elements", "nelements", "composition", "composition_reduced", "chemsys", "symmetry", "property_name", "deprecated", "deprecation_reasons", "last_updated", "origins", "warnings", "task_ids", "uncorrected_energy_per_atom", "equilibrium_reaction_energy_per_atom", "decomposes_to", "xas", "grain_boundaries", "cbm", "vbm", "is_gap_direct", "is_metal", "es_source_calc_id", "bandstructure", "dos", "dos_energy_up", "dos_energy_down", "is_magnetic", "ordering", "total_magnetization_normalized_vol", "total_magnetization_normalized_formula_units", "num_magnetic_sites", "num_unique_magnetic_sites", "types_of_magnetic_species", "bulk_modulus", "shear_modulus", "universal_anisotropy", "homogeneous_poisson", "e_total", "e_ionic", "e_electronic", "n", "e_ij_max", "weighted_surface_energy_EV_PER_ANG2", "weighted_surface_energy", "weighted_work_function", "surface_anisotropy", "shape_factor", "has_reconstructed", "possible_species", "has_props", "theoretical", "database_IDs"]}