{"builder_meta": null, "nsites": null, "elements": null, "nelements": null, "composition": null, "composition_reduced": null, "formula_pretty": "Ho3Ni", "formula_anonymous": "AB3", "chemsys": null, "volume": 406.47139907224613, "density": 9.044497641210329, "density_atomic": 25.404462442015383, "symmetry": null, "property_name": null, "material_id": "mp-1189188", "deprecated": null, "deprecation_reasons": null, "last_updated": null, "origins": null, "warnings": null, "structure": {"@module": "pymatgen.core.structure", "@class": "Structure", "charge": 0, "lattice": {"matrix": [[0.0, 0.0, 6.262922], [6.806703, 0.0, 0.0], [0.0, 9.534901, 0.0]], "pbc": [true, true, true], "a": 6.262922, "b": 6.806703, "c": 9.534901, "alpha": 90.0, "beta": 90.0, "gamma": 90.0, "volume": 406.47139907224613}, "properties": {}, "sites": [{"species": [{"element": "Ho", "occu": 1}], "abc": [0.321032, 0.678361, 0.066395], "properties": {"magmom": 0.0}, "label": "Ho", "xyz": [4.617401853783, 0.6330697518949999, 2.010598375504]}, {"species": [{"element": "Ho", "occu": 1}], "abc": [0.178968, 0.178361, 0.433604999999999], "properties": {"magmom": 0.0}, "label": "Ho", "xyz": [1.2140503537829999, 4.134380748104991, 1.1208626244959998]}, {"species": [{"element": "Ho", "occu": 1}], "abc": [0.678968, 0.321639, 0.566395], "properties": {"magmom": 0.0}, "label": "Ho", "xyz": [2.189301146217, 5.400520251894999, 4.252323624495999]}, {"species": [{"element": "Ho", "occu": 1}], "abc": [0.821032, 0.821639, 0.933604999999999], "properties": {"magmom": 0.0}, "label": "Ho", "xyz": [5.592652646217, 8.90183124810499, 5.142059375504]}, {"species": [{"element": "Ho", "occu": 1}], "abc": [0.678968, 0.321639, 0.933604999999999], "properties": {"magmom": 0.0}, "label": "Ho", "xyz": [2.189301146217, 8.90183124810499, 4.252323624495999]}, {"species": [{"element": "Ho", "occu": 1}], "abc": [0.821032, 0.821639, 0.566395], "properties": {"magmom": 0.0}, "label": "Ho", "xyz": [5.592652646217, 5.400520251894999, 5.142059375504]}, {"species": [{"element": "Ho", "occu": 1}], "abc": [0.321032, 0.678361, 0.433604999999999], "properties": {"magmom": 0.0}, "label": "Ho", "xyz": [4.617401853783, 4.134380748104991, 2.010598375504]}, {"species": [{"element": "Ho", "occu": 1}], "abc": [0.178968, 0.178361, 0.066395], "properties": {"magmom": 0.0}, "label": "Ho", "xyz": [1.2140503537829999, 0.6330697518949999, 1.1208626244959998]}, {"species": [{"element": "Ho", "occu": 1}], "abc": [0.859260999999999, 0.533723, 0.25], "properties": {"magmom": 0.0}, "label": "Ho", "xyz": [3.6328939452689997, 2.38372525, 5.381484620641994]}, {"species": [{"element": "Ho", "occu": 1}], "abc": [0.640739, 0.033722999999999004, 0.25], "properties": {"magmom": 0.0}, "label": "Ho", "xyz": [0.2295424452689932, 2.38372525, 4.012898379357999]}, {"species": [{"element": "Ho", "occu": 1}], "abc": [0.140739, 0.466277, 0.75], "properties": {"magmom": 0.0}, "label": "Ho", "xyz": [3.173809054731, 7.15117575, 0.8814373793579999]}, {"species": [{"element": "Ho", "occu": 1}], "abc": [0.359261, 0.966276999999999, 0.75], "properties": {"magmom": 0.0}, "label": "Ho", "xyz": [6.577160554730994, 7.15117575, 2.2500236206419997]}, {"species": [{"element": "Ni", "occu": 1}], "abc": [0.054015, 0.890589, 0.25], "properties": {"magmom": 0.0}, "label": "Ni", "xyz": [6.061974818066999, 2.38372525, 0.33829173183]}, {"species": [{"element": "Ni", "occu": 1}], "abc": [0.445984999999999, 0.390588999999999, 0.25], "properties": {"magmom": 0.0}, "label": "Ni", "xyz": [2.658623318066993, 2.38372525, 2.7931692681699936]}, {"species": [{"element": "Ni", "occu": 1}], "abc": [0.945985, 0.109411, 0.75], "properties": {"magmom": 0.0}, "label": "Ni", "xyz": [0.7447281819329999, 7.15117575, 5.92463026817]}, {"species": [{"element": "Ni", "occu": 1}], "abc": [0.554014999999999, 0.609410999999999, 0.75], "properties": {"magmom": 0.0}, "label": "Ni", "xyz": [4.148079681932994, 7.15117575, 3.4697527318299937]}]}, "task_ids": null, "uncorrected_energy_per_atom": null, "energy_per_atom": -5.138256285, "formation_energy_per_atom": -0.24496251624999402, "energy_above_hull": 0.0, "is_stable": true, "equilibrium_reaction_energy_per_atom": null, "decomposes_to": null, "xas": null, "grain_boundaries": null, "band_gap": 0.0, "cbm": null, "vbm": null, "efermi": 3.6527351, "is_gap_direct": null, "is_metal": null, "es_source_calc_id": null, "bandstructure": null, "dos": null, "dos_energy_up": null, "dos_energy_down": null, "is_magnetic": null, "ordering": null, "total_magnetization": 0.0007172, "total_magnetization_normalized_vol": null, "total_magnetization_normalized_formula_units": null, "num_magnetic_sites": null, "num_unique_magnetic_sites": null, "types_of_magnetic_species": null, "bulk_modulus": null, "shear_modulus": null, "universal_anisotropy": null, "homogeneous_poisson": null, "e_total": null, "e_ionic": null, "e_electronic": null, "n": null, "e_ij_max": null, "weighted_surface_energy_EV_PER_ANG2": null, "weighted_surface_energy": null, "weighted_work_function": null, "surface_anisotropy": null, "shape_factor": null, "has_reconstructed": null, "possible_species": null, "has_props": null, "theoretical": null, "database_IDs": null, "fields_not_requested": ["builder_meta", "nsites", "elements", "nelements", "composition", "composition_reduced", "chemsys", "symmetry", "property_name", "deprecated", "deprecation_reasons", "last_updated", "origins", "warnings", "task_ids", "uncorrected_energy_per_atom", "equilibrium_reaction_energy_per_atom", "decomposes_to", "xas", "grain_boundaries", "cbm", "vbm", "is_gap_direct", "is_metal", "es_source_calc_id", "bandstructure", "dos", "dos_energy_up", "dos_energy_down", "is_magnetic", "ordering", "total_magnetization_normalized_vol", "total_magnetization_normalized_formula_units", "num_magnetic_sites", "num_unique_magnetic_sites", "types_of_magnetic_species", "bulk_modulus", "shear_modulus", "universal_anisotropy", "homogeneous_poisson", "e_total", "e_ionic", "e_electronic", "n", "e_ij_max", "weighted_surface_energy_EV_PER_ANG2", "weighted_surface_energy", "weighted_work_function", "surface_anisotropy", "shape_factor", "has_reconstructed", "possible_species", "has_props", "theoretical", "database_IDs"]}