{"builder_meta": null, "nsites": null, "elements": null, "nelements": null, "composition": null, "composition_reduced": null, "formula_pretty": "Ho3Np", "formula_anonymous": "AB3", "chemsys": null, "volume": 239.8401037608838, "density": 10.13314669740318, "density_atomic": 29.980012970110476, "symmetry": null, "property_name": null, "material_id": "mp-1184795", "deprecated": null, "deprecation_reasons": null, "last_updated": null, "origins": null, "warnings": null, "structure": {"@module": "pymatgen.core.structure", "@class": "Structure", "charge": 0, "lattice": {"matrix": [[3.508007, -6.076046, 0.0], [3.508007, 6.076046, 0.0], [0.0, 0.0, 5.626137]], "pbc": [true, true, true], "a": 7.016013690562826, "b": 7.016013690562826, "c": 5.626137, "alpha": 90.0, "beta": 90.0, "gamma": 119.99999708207542, "volume": 239.8401037608838}, "properties": {}, "sites": [{"species": [{"element": "Ho", "occu": 1}], "abc": [0.831252, 0.168747999999999, 0.75], "properties": {"magmom": 0.17500000000000002}, "label": "Ho", "xyz": [3.5080069999999965, -4.025404779184005, 4.21960275]}, {"species": [{"element": "Ho", "occu": 1}], "abc": [0.337497, 0.168747999999999, 0.75], "properties": {"magmom": 0.166}, "label": "Ho", "xyz": [1.7759110037149965, -1.025326686454006, 4.21960275]}, {"species": [{"element": "Ho", "occu": 1}], "abc": [0.662503, 0.831252, 0.25], "properties": {"magmom": 0.166}, "label": "Ho", "xyz": [5.240102996285, 1.025326686454, 1.40653425]}, {"species": [{"element": "Ho", "occu": 1}], "abc": [0.831252, 0.662503, 0.75], "properties": {"magmom": 0.17500000000000002}, "label": "Ho", "xyz": [5.240102996285, -1.025326686454, 4.21960275]}, {"species": [{"element": "Ho", "occu": 1}], "abc": [0.168747999999999, 0.831252, 0.25], "properties": {"magmom": 0.17500000000000002}, "label": "Ho", "xyz": [3.5080069999999965, 4.025404779184005, 1.40653425]}, {"species": [{"element": "Ho", "occu": 1}], "abc": [0.168747999999999, 0.337497, 0.25], "properties": {"magmom": 0.17500000000000002}, "label": "Ho", "xyz": [1.7759110037149965, 1.025326686454006, 1.40653425]}, {"species": [{"element": "Np", "occu": 1}], "abc": [0.333333, 0.666667, 0.75], "properties": {"magmom": 4.068}, "label": "Np", "xyz": [3.508007, 2.0253527173640005, 4.21960275]}, {"species": [{"element": "Np", "occu": 1}], "abc": [0.666667, 0.333333, 0.25], "properties": {"magmom": 4.068}, "label": "Np", "xyz": [3.508007, -2.0253527173640005, 1.40653425]}]}, "task_ids": null, "uncorrected_energy_per_atom": null, "energy_per_atom": -45.063901625, "formation_energy_per_atom": 0.353159194062499, "energy_above_hull": 0.353159194062499, "is_stable": false, "equilibrium_reaction_energy_per_atom": null, "decomposes_to": null, "xas": null, "grain_boundaries": null, "band_gap": 0.0, "cbm": null, "vbm": null, "efermi": 5.07476101, "is_gap_direct": null, "is_metal": null, "es_source_calc_id": null, "bandstructure": null, "dos": null, "dos_energy_up": null, "dos_energy_down": null, "is_magnetic": null, "ordering": null, "total_magnetization": 9.985215, "total_magnetization_normalized_vol": null, "total_magnetization_normalized_formula_units": null, "num_magnetic_sites": null, "num_unique_magnetic_sites": null, "types_of_magnetic_species": null, "bulk_modulus": null, "shear_modulus": null, "universal_anisotropy": null, "homogeneous_poisson": null, "e_total": null, "e_ionic": null, "e_electronic": null, "n": null, "e_ij_max": null, "weighted_surface_energy_EV_PER_ANG2": null, "weighted_surface_energy": null, "weighted_work_function": null, "surface_anisotropy": null, "shape_factor": null, "has_reconstructed": null, "possible_species": null, "has_props": null, "theoretical": null, "database_IDs": null, "fields_not_requested": ["builder_meta", "nsites", "elements", "nelements", "composition", "composition_reduced", "chemsys", "symmetry", "property_name", "deprecated", "deprecation_reasons", "last_updated", "origins", "warnings", "task_ids", "uncorrected_energy_per_atom", "equilibrium_reaction_energy_per_atom", "decomposes_to", "xas", "grain_boundaries", "cbm", "vbm", "is_gap_direct", "is_metal", "es_source_calc_id", "bandstructure", "dos", "dos_energy_up", "dos_energy_down", "is_magnetic", "ordering", "total_magnetization_normalized_vol", "total_magnetization_normalized_formula_units", "num_magnetic_sites", "num_unique_magnetic_sites", "types_of_magnetic_species", "bulk_modulus", "shear_modulus", "universal_anisotropy", "homogeneous_poisson", "e_total", "e_ionic", "e_electronic", "n", "e_ij_max", "weighted_surface_energy_EV_PER_ANG2", "weighted_surface_energy", "weighted_work_function", "surface_anisotropy", "shape_factor", "has_reconstructed", "possible_species", "has_props", "theoretical", "database_IDs"]}