{"builder_meta": null, "nsites": null, "elements": null, "nelements": null, "composition": null, "composition_reduced": null, "formula_pretty": "Ho3Os", "formula_anonymous": "AB3", "chemsys": null, "volume": 413.74463717285073, "density": 10.997160695954774, "density_atomic": 25.85903982330317, "symmetry": null, "property_name": null, "material_id": "mp-1190011", "deprecated": null, "deprecation_reasons": null, "last_updated": null, "origins": null, "warnings": null, "structure": {"@module": "pymatgen.core.structure", "@class": "Structure", "charge": 0, "lattice": {"matrix": [[-0.0, 0.0, 6.29108989], [7.34215766, 0.0, -0.0], [0.0, 8.95741676, 0.0]], "pbc": [true, true, true], "a": 6.29108989, "b": 7.34215766, "c": 8.95741676, "alpha": 90.0, "beta": 90.0, "gamma": 90.0, "volume": 413.74463717285073}, "properties": {}, "sites": [{"species": [{"element": "Ho", "occu": 1}], "abc": [0.33073296, 0.67319829, 0.06301259000000001], "properties": {"magmom": 0.0}, "label": "Ho", "xyz": [4.942727981622401, 0.5644300297570084, 2.0806707809457747]}, {"species": [{"element": "Ho", "occu": 1}], "abc": [0.16926704, 0.17319829, 0.43698741], "properties": {"magmom": 0.0}, "label": "Ho", "xyz": [1.2716491516224013, 3.9142783502429914, 1.0648741640542256]}, {"species": [{"element": "Ho", "occu": 1}], "abc": [0.66926704, 0.32680171, 0.56301259], "properties": {"magmom": 0.0}, "label": "Ho", "xyz": [2.3994296783775986, 5.043138409757009, 4.210419109054226]}, {"species": [{"element": "Ho", "occu": 1}], "abc": [0.83073296, 0.82680171, 0.93698741], "properties": {"magmom": 0.0}, "label": "Ho", "xyz": [6.070508508377599, 8.39298673024299, 5.226215725945774]}, {"species": [{"element": "Ho", "occu": 1}], "abc": [0.66926704, 0.32680171, 0.93698741], "properties": {"magmom": 0.0}, "label": "Ho", "xyz": [2.3994296783775986, 8.39298673024299, 4.210419109054226]}, {"species": [{"element": "Ho", "occu": 1}], "abc": [0.83073296, 0.82680171, 0.56301259], "properties": {"magmom": 0.0}, "label": "Ho", "xyz": [6.070508508377599, 5.043138409757009, 5.226215725945774]}, {"species": [{"element": "Ho", "occu": 1}], "abc": [0.33073296, 0.67319829, 0.43698741], "properties": {"magmom": 0.0}, "label": "Ho", "xyz": [4.942727981622401, 3.9142783502429914, 2.0806707809457747]}, {"species": [{"element": "Ho", "occu": 1}], "abc": [0.16926704, 0.17319829, 0.06301259000000001], "properties": {"magmom": 0.0}, "label": "Ho", "xyz": [1.2716491516224013, 0.5644300297570084, 1.0648741640542256]}, {"species": [{"element": "Ho", "occu": 1}], "abc": [0.87253737, 0.54132937, 0.25], "properties": {"magmom": -0.0}, "label": "Ho", "xyz": [3.9745255805284745, 2.23935419, 5.489211027054189]}, {"species": [{"element": "Ho", "occu": 1}], "abc": [0.62746263, 0.041329370000000004, 0.25], "properties": {"magmom": -0.0}, "label": "Ho", "xyz": [0.3034467505284742, 2.23935419, 3.947423807945811]}, {"species": [{"element": "Ho", "occu": 1}], "abc": [0.12746263, 0.45867063, 0.75], "properties": {"magmom": -0.0}, "label": "Ho", "xyz": [3.3676320794715258, 6.718062569999999, 0.8018788629458107]}, {"species": [{"element": "Ho", "occu": 1}], "abc": [0.37253737000000003, 0.95867063, 0.75], "properties": {"magmom": -0.0}, "label": "Ho", "xyz": [7.038710909471526, 6.718062569999999, 2.3436660820541895]}, {"species": [{"element": "Os", "occu": 1}], "abc": [0.03517242, 0.88357897, 0.25], "properties": {"magmom": -0.0}, "label": "Os", "xyz": [6.487376102800409, 2.23935419, 0.22127285586883383]}, {"species": [{"element": "Os", "occu": 1}], "abc": [0.46482758, 0.38357897, 0.25], "properties": {"magmom": -0.0}, "label": "Os", "xyz": [2.8162972728004103, 2.23935419, 2.9242720891311667]}, {"species": [{"element": "Os", "occu": 1}], "abc": [0.96482758, 0.11642103000000001, 0.75], "properties": {"magmom": -0.0}, "label": "Os", "xyz": [0.8547815571995898, 6.718062569999999, 6.069817034131167]}, {"species": [{"element": "Os", "occu": 1}], "abc": [0.53517242, 0.61642103, 0.75], "properties": {"magmom": -0.0}, "label": "Os", "xyz": [4.52586038719959, 6.718062569999999, 3.3668178008688336]}]}, "task_ids": null, "uncorrected_energy_per_atom": null, "energy_per_atom": -38.240859908125, "formation_energy_per_atom": -0.333544759375001, "energy_above_hull": 0.0, "is_stable": true, "equilibrium_reaction_energy_per_atom": null, "decomposes_to": null, "xas": null, "grain_boundaries": null, "band_gap": 0.0, "cbm": null, "vbm": null, "efermi": 3.7545473, "is_gap_direct": null, "is_metal": null, "es_source_calc_id": null, "bandstructure": null, "dos": null, "dos_energy_up": null, "dos_energy_down": null, "is_magnetic": null, "ordering": null, "total_magnetization": 1e-07, "total_magnetization_normalized_vol": null, "total_magnetization_normalized_formula_units": null, "num_magnetic_sites": null, "num_unique_magnetic_sites": null, "types_of_magnetic_species": null, "bulk_modulus": null, "shear_modulus": null, "universal_anisotropy": null, "homogeneous_poisson": null, "e_total": null, "e_ionic": null, "e_electronic": null, "n": null, "e_ij_max": null, "weighted_surface_energy_EV_PER_ANG2": null, "weighted_surface_energy": null, "weighted_work_function": null, "surface_anisotropy": null, "shape_factor": null, "has_reconstructed": null, "possible_species": null, "has_props": null, "theoretical": null, "database_IDs": null, "fields_not_requested": ["builder_meta", "nsites", "elements", "nelements", "composition", "composition_reduced", "chemsys", "symmetry", "property_name", "deprecated", "deprecation_reasons", "last_updated", "origins", "warnings", "task_ids", "uncorrected_energy_per_atom", "equilibrium_reaction_energy_per_atom", "decomposes_to", "xas", "grain_boundaries", "cbm", "vbm", "is_gap_direct", "is_metal", "es_source_calc_id", "bandstructure", "dos", "dos_energy_up", "dos_energy_down", "is_magnetic", "ordering", "total_magnetization_normalized_vol", "total_magnetization_normalized_formula_units", "num_magnetic_sites", "num_unique_magnetic_sites", "types_of_magnetic_species", "bulk_modulus", "shear_modulus", "universal_anisotropy", "homogeneous_poisson", "e_total", "e_ionic", "e_electronic", "n", "e_ij_max", "weighted_surface_energy_EV_PER_ANG2", "weighted_surface_energy", "weighted_work_function", "surface_anisotropy", "shape_factor", "has_reconstructed", "possible_species", "has_props", "theoretical", "database_IDs"]}