{
  "builder_meta": null,
  "nsites": null,
  "elements": null,
  "nelements": null,
  "composition": null,
  "composition_reduced": null,
  "formula_pretty": "Ho3Pd2",
  "formula_anonymous": "A2B3",
  "chemsys": null,
  "volume": 233.72979997542544,
  "density": 10.054762841017341,
  "density_atomic": 23.372979997542544,
  "symmetry": null,
  "property_name": null,
  "material_id": "mp-12544",
  "deprecated": null,
  "deprecation_reasons": null,
  "last_updated": null,
  "origins": null,
  "warnings": null,
  "structure": {
    "@module": "pymatgen.core.structure",
    "@class": "Structure",
    "charge": 0,
    "lattice": {
      "matrix": [
        [3.97016573, 0.0, 0.0],
        [0.0, 7.67277964, 0.0],
        [0.0, 0.0, 7.67277964]
      ],
      "pbc": [true, true, true],
      "a": 3.97016573,
      "b": 7.67277964,
      "c": 7.67277964,
      "alpha": 90.0,
      "beta": 90.0,
      "gamma": 90.0,
      "volume": 233.72979997542544
    },
    "properties": {},
    "sites": [
      {
        "species": [{ "element": "Ho", "occu": 1 }],
        "abc": [0.5, 0.66418133, 0.83581867],
        "properties": { "magmom": -0.0 },
        "label": "Ho",
        "xyz": [1.985082865, 5.096116986092121, 6.413052473907879]
      },
      {
        "species": [{ "element": "Ho", "occu": 1 }],
        "abc": [0.5, 0.83581867, 0.33581867],
        "properties": { "magmom": -0.0 },
        "label": "Ho",
        "xyz": [1.985082865, 6.413052473907879, 2.5766626539078787]
      },
      {
        "species": [{ "element": "Ho", "occu": 1 }],
        "abc": [0.5, 0.33581867, 0.16418133000000001],
        "properties": { "magmom": -0.0 },
        "label": "Ho",
        "xyz": [1.985082865, 2.5766626539078787, 1.2597271660921212]
      },
      {
        "species": [{ "element": "Ho", "occu": 1 }],
        "abc": [0.5, 0.16418133000000001, 0.66418133],
        "properties": { "magmom": -0.0 },
        "label": "Ho",
        "xyz": [1.985082865, 1.2597271660921212, 5.096116986092121]
      },
      {
        "species": [{ "element": "Ho", "occu": 1 }],
        "abc": [0.0, 0.5, 0.5],
        "properties": { "magmom": 0.0 },
        "label": "Ho",
        "xyz": [0.0, 3.83638982, 3.83638982]
      },
      {
        "species": [{ "element": "Ho", "occu": 1 }],
        "abc": [-0.0, 0.0, -0.0],
        "properties": { "magmom": 0.0 },
        "label": "Ho",
        "xyz": [0.0, 0.0, 0.0]
      },
      {
        "species": [{ "element": "Pd", "occu": 1 }],
        "abc": [0.0, 0.63399089, 0.13399089],
        "properties": { "magmom": 0.0 },
        "label": "Pd",
        "xyz": [0.0, 4.864472392737479, 1.0280825727374796]
      },
      {
        "species": [{ "element": "Pd", "occu": 1 }],
        "abc": [-0.0, 0.86600911, 0.63399089],
        "properties": { "magmom": 0.0 },
        "label": "Pd",
        "xyz": [0.0, 6.644697067262521, 4.864472392737479]
      },
      {
        "species": [{ "element": "Pd", "occu": 1 }],
        "abc": [0.0, 0.13399089, 0.36600911],
        "properties": { "magmom": 0.0 },
        "label": "Pd",
        "xyz": [0.0, 1.0280825727374796, 2.8083072472625203]
      },
      {
        "species": [{ "element": "Pd", "occu": 1 }],
        "abc": [-0.0, 0.36600911, 0.86600911],
        "properties": { "magmom": 0.0 },
        "label": "Pd",
        "xyz": [0.0, 2.8083072472625203, 6.644697067262521]
      }
    ]
  },
  "task_ids": null,
  "uncorrected_energy_per_atom": null,
  "energy_per_atom": -29.685696114000002,
  "formation_energy_per_atom": -0.7727083209999991,
  "energy_above_hull": 0.00616033,
  "is_stable": false,
  "equilibrium_reaction_energy_per_atom": null,
  "decomposes_to": null,
  "xas": null,
  "grain_boundaries": null,
  "band_gap": 0.0,
  "cbm": null,
  "vbm": null,
  "efermi": 4.13307627,
  "is_gap_direct": null,
  "is_metal": null,
  "es_source_calc_id": null,
  "bandstructure": null,
  "dos": null,
  "dos_energy_up": null,
  "dos_energy_down": null,
  "is_magnetic": null,
  "ordering": null,
  "total_magnetization": 6e-7,
  "total_magnetization_normalized_vol": null,
  "total_magnetization_normalized_formula_units": null,
  "num_magnetic_sites": null,
  "num_unique_magnetic_sites": null,
  "types_of_magnetic_species": null,
  "bulk_modulus": null,
  "shear_modulus": null,
  "universal_anisotropy": null,
  "homogeneous_poisson": null,
  "e_total": null,
  "e_ionic": null,
  "e_electronic": null,
  "n": null,
  "e_ij_max": null,
  "weighted_surface_energy_EV_PER_ANG2": null,
  "weighted_surface_energy": null,
  "weighted_work_function": null,
  "surface_anisotropy": null,
  "shape_factor": null,
  "has_reconstructed": null,
  "possible_species": null,
  "has_props": null,
  "theoretical": null,
  "database_IDs": null,
  "fields_not_requested": [
    "builder_meta",
    "nsites",
    "elements",
    "nelements",
    "composition",
    "composition_reduced",
    "chemsys",
    "symmetry",
    "property_name",
    "deprecated",
    "deprecation_reasons",
    "last_updated",
    "origins",
    "warnings",
    "task_ids",
    "uncorrected_energy_per_atom",
    "equilibrium_reaction_energy_per_atom",
    "decomposes_to",
    "xas",
    "grain_boundaries",
    "cbm",
    "vbm",
    "is_gap_direct",
    "is_metal",
    "es_source_calc_id",
    "bandstructure",
    "dos",
    "dos_energy_up",
    "dos_energy_down",
    "is_magnetic",
    "ordering",
    "total_magnetization_normalized_vol",
    "total_magnetization_normalized_formula_units",
    "num_magnetic_sites",
    "num_unique_magnetic_sites",
    "types_of_magnetic_species",
    "bulk_modulus",
    "shear_modulus",
    "universal_anisotropy",
    "homogeneous_poisson",
    "e_total",
    "e_ionic",
    "e_electronic",
    "n",
    "e_ij_max",
    "weighted_surface_energy_EV_PER_ANG2",
    "weighted_surface_energy",
    "weighted_work_function",
    "surface_anisotropy",
    "shape_factor",
    "has_reconstructed",
    "possible_species",
    "has_props",
    "theoretical",
    "database_IDs"
  ]
}
