{"builder_meta": null, "nsites": null, "elements": null, "nelements": null, "composition": null, "composition_reduced": null, "formula_pretty": "Ho3Pd4", "formula_anonymous": "A3B4", "chemsys": null, "volume": 281.83113695348976, "density": 10.846764521998495, "density_atomic": 20.13079549667784, "symmetry": null, "property_name": null, "material_id": "mp-1104206", "deprecated": null, "deprecation_reasons": null, "last_updated": null, "origins": null, "warnings": null, "structure": {"@module": "pymatgen.core.structure", "@class": "Structure", "charge": 0, "lattice": {"matrix": [[-0.0, -0.0, -5.69500032], [0.0004936, -7.55931292, 1.898333099999999], [-6.54680291, 3.77922936, 1.898333099999999]], "pbc": [true, true, true], "a": 5.69500032, "b": 7.7940285234707405, "c": 7.794027935312144, "alpha": 114.26867667363402, "beta": 104.09689915151336, "gamma": 104.0968980657249, "volume": 281.83113695348976}, "properties": {}, "sites": [{"species": [{"element": "Ho", "occu": 1}], "abc": [0.40571138, 0.1287206, 0.37999159], "properties": {"magmom": 0.0}, "label": "Ho", "xyz": [-2.4876665106993667, 0.46303607883093034, -1.3448212502771533]}, {"species": [{"element": "Ho", "occu": 1}], "abc": [0.025720780000000002, 0.6200084100000001, 0.74872901], "properties": {"magmom": 0.0}, "label": "Ho", "xyz": [-4.901475225318243, -1.8572189269459236, 2.4518396992639513]}, {"species": [{"element": "Ho", "occu": 1}], "abc": [0.27699177, 0.25127099, 0.871279399999999], "properties": {"magmom": 0.0}, "label": "Ho", "xyz": [-5.703970483982384, 1.3933286481149894, 0.5535063429675395]}, {"species": [{"element": "Ho", "occu": 1}], "abc": [0.59428862, 0.871279399999999, 0.6200084100000001], "properties": {"magmom": 0.0}, "label": "Ho", "xyz": [-4.0586427993006335, -4.2431196388309225, -0.5535128697228511]}, {"species": [{"element": "Ho", "occu": 1}], "abc": [0.97427922, 0.37999159, 0.25127099], "properties": {"magmom": 0.0}, "label": "Ho", "xyz": [-1.644834084681757, -1.922864633054076, -4.3501738192639525]}, {"species": [{"element": "Ho", "occu": 1}], "abc": [0.72300823, 0.74872901, 0.1287206], "properties": {"magmom": 0.0}, "label": "Ho", "xyz": [-0.84233882601761, -5.173412208114994, -2.451840462967543]}, {"species": [{"element": "Pd", "occu": 1}], "abc": [0.0, 0.0, 0.0], "properties": {"magmom": 0.0}, "label": "Pd", "xyz": [0.0, 0.0, 0.0]}, {"species": [{"element": "Pd", "occu": 1}], "abc": [0.5, 0.0, 0.0], "properties": {"magmom": -0.0}, "label": "Pd", "xyz": [0.0, 0.0, -2.84750016]}, {"species": [{"element": "Pd", "occu": 1}], "abc": [0.22718814, 0.67816318, 0.1654638], "properties": {"magmom": -0.0}, "label": "Pd", "xyz": [-1.08292414599401, -4.501122037465117, 0.30764849018683216]}, {"species": [{"element": "Pd", "occu": 1}], "abc": [0.06172434, 0.8345362, 0.51269938], "properties": {"magmom": -0.0}, "label": "Pd", "xyz": [-3.356129865870876, -4.370911729117907, 2.205981758959908]}, {"species": [{"element": "Pd", "occu": 1}], "abc": [0.54902496, 0.48730062, 0.32183682], "properties": {"magmom": -0.0}, "label": "Pd", "xyz": [-2.1067616981351147, -2.4673627134169753, -1.5906849380867243]}, {"species": [{"element": "Pd", "occu": 1}], "abc": [0.77281186, 0.32183682, 0.8345362], "properties": {"magmom": -0.0}, "label": "Pd", "xyz": [-5.46338516400599, 0.7210384774651173, -2.205982610186835]}, {"species": [{"element": "Pd", "occu": 1}], "abc": [0.9382756600000001, 0.1654638, 0.48730062], "properties": {"magmom": -0.0}, "label": "Pd", "xyz": [-3.1901794441291247, 0.5908281691179071, -4.104315878959911]}, {"species": [{"element": "Pd", "occu": 1}], "abc": [0.45097504, 0.51269938, 0.67816318], "properties": {"magmom": -0.0}, "label": "Pd", "xyz": [-4.439547611864886, -1.3127208465830251, -0.30764918191327784]}]}, "task_ids": null, "uncorrected_energy_per_atom": null, "energy_per_atom": -28.194827032857145, "formation_energy_per_atom": -0.9825632921428561, "energy_above_hull": 0.0, "is_stable": true, "equilibrium_reaction_energy_per_atom": null, "decomposes_to": null, "xas": null, "grain_boundaries": null, "band_gap": 0.0, "cbm": null, "vbm": null, "efermi": 4.51489066, "is_gap_direct": null, "is_metal": null, "es_source_calc_id": null, "bandstructure": null, "dos": null, "dos_energy_up": null, "dos_energy_down": null, "is_magnetic": null, "ordering": null, "total_magnetization": 0.0, "total_magnetization_normalized_vol": null, "total_magnetization_normalized_formula_units": null, "num_magnetic_sites": null, "num_unique_magnetic_sites": null, "types_of_magnetic_species": null, "bulk_modulus": null, "shear_modulus": null, "universal_anisotropy": null, "homogeneous_poisson": null, "e_total": null, "e_ionic": null, "e_electronic": null, "n": null, "e_ij_max": null, "weighted_surface_energy_EV_PER_ANG2": null, "weighted_surface_energy": null, "weighted_work_function": null, "surface_anisotropy": null, "shape_factor": null, "has_reconstructed": null, "possible_species": null, "has_props": null, "theoretical": null, "database_IDs": null, "fields_not_requested": ["builder_meta", "nsites", "elements", "nelements", "composition", "composition_reduced", "chemsys", "symmetry", "property_name", "deprecated", "deprecation_reasons", "last_updated", "origins", "warnings", "task_ids", "uncorrected_energy_per_atom", "equilibrium_reaction_energy_per_atom", "decomposes_to", "xas", "grain_boundaries", "cbm", "vbm", "is_gap_direct", "is_metal", "es_source_calc_id", "bandstructure", "dos", "dos_energy_up", "dos_energy_down", "is_magnetic", "ordering", "total_magnetization_normalized_vol", "total_magnetization_normalized_formula_units", "num_magnetic_sites", "num_unique_magnetic_sites", "types_of_magnetic_species", "bulk_modulus", "shear_modulus", "universal_anisotropy", "homogeneous_poisson", "e_total", "e_ionic", "e_electronic", "n", "e_ij_max", "weighted_surface_energy_EV_PER_ANG2", "weighted_surface_energy", "weighted_work_function", "surface_anisotropy", "shape_factor", "has_reconstructed", "possible_species", "has_props", "theoretical", "database_IDs"]}