{
  "builder_meta": null,
  "nsites": null,
  "elements": null,
  "nelements": null,
  "composition": null,
  "composition_reduced": null,
  "formula_pretty": "Ho3Pt",
  "formula_anonymous": "AB3",
  "chemsys": null,
  "volume": 430.2921397258139,
  "density": 10.649177304322373,
  "density_atomic": 26.89325873286337,
  "symmetry": null,
  "property_name": null,
  "material_id": "mp-1188476",
  "deprecated": null,
  "deprecation_reasons": null,
  "last_updated": null,
  "origins": null,
  "warnings": null,
  "structure": {
    "@module": "pymatgen.core.structure",
    "@class": "Structure",
    "charge": 0,
    "lattice": {
      "matrix": [
        [6.4309234, -0.0, 0.0],
        [0.0, 6.98988776, 0.0],
        [0.0, 0.0, 9.57237875]
      ],
      "pbc": [true, true, true],
      "a": 6.4309234,
      "b": 6.98988776,
      "c": 9.57237875,
      "alpha": 90.0,
      "beta": 90.0,
      "gamma": 90.0,
      "volume": 430.2921397258139
    },
    "properties": {},
    "sites": [
      {
        "species": [{ "element": "Ho", "occu": 1 }],
        "abc": [0.318863299999999, 0.67614484, 0.0623513],
        "properties": { "magmom": 0.088 },
        "label": "Ho",
        "xyz": [2.0505854573712137, 4.726176541103158, 0.596850259154875]
      },
      {
        "species": [{ "element": "Ho", "occu": 1 }],
        "abc": [0.181136699999999, 0.17614484, 0.4376487],
        "properties": { "magmom": 0.088 },
        "label": "Ho",
        "xyz": [1.1648762426287738, 1.2312326611031583, 4.189339115845125]
      },
      {
        "species": [{ "element": "Ho", "occu": 1 }],
        "abc": [0.681136699999999, 0.32385516000000003, 0.5623513],
        "properties": { "magmom": 0.088 },
        "label": "Ho",
        "xyz": [4.380337942628774, 2.263711218896842, 5.383039634154875]
      },
      {
        "species": [{ "element": "Ho", "occu": 1 }],
        "abc": [0.8188633, 0.82385516, 0.9376487],
        "properties": { "magmom": 0.088 },
        "label": "Ho",
        "xyz": [5.2660471573712195, 5.758655098896842, 8.975528490845125]
      },
      {
        "species": [{ "element": "Ho", "occu": 1 }],
        "abc": [0.681136699999999, 0.32385516000000003, 0.9376487],
        "properties": { "magmom": 0.088 },
        "label": "Ho",
        "xyz": [4.380337942628774, 2.263711218896842, 8.975528490845125]
      },
      {
        "species": [{ "element": "Ho", "occu": 1 }],
        "abc": [0.8188633, 0.82385516, 0.5623513],
        "properties": { "magmom": 0.088 },
        "label": "Ho",
        "xyz": [5.2660471573712195, 5.758655098896842, 5.383039634154875]
      },
      {
        "species": [{ "element": "Ho", "occu": 1 }],
        "abc": [0.318863299999999, 0.67614484, 0.4376487],
        "properties": { "magmom": 0.088 },
        "label": "Ho",
        "xyz": [2.0505854573712137, 4.726176541103158, 4.189339115845125]
      },
      {
        "species": [{ "element": "Ho", "occu": 1 }],
        "abc": [0.181136699999999, 0.17614484, 0.0623513],
        "properties": { "magmom": 0.088 },
        "label": "Ho",
        "xyz": [1.1648762426287738, 1.2312326611031583, 0.596850259154875]
      },
      {
        "species": [{ "element": "Ho", "occu": 1 }],
        "abc": [0.86590332, 0.52827736, 0.25],
        "properties": { "magmom": 0.081 },
        "label": "Ho",
        "xyz": [5.568557922725688, 3.6925994525491137, 2.3930946875]
      },
      {
        "species": [{ "element": "Ho", "occu": 1 }],
        "abc": [0.63409768, 0.02827736, 0.25],
        "properties": { "magmom": 0.081 },
        "label": "Ho",
        "xyz": [4.077833608197712, 0.19765557254911362, 2.3930946875]
      },
      {
        "species": [{ "element": "Ho", "occu": 1 }],
        "abc": [0.13409668, 0.47172264, 0.75],
        "properties": { "magmom": 0.081 },
        "label": "Ho",
        "xyz": [0.862365477274312, 3.2972883074508865, 7.179284062500001]
      },
      {
        "species": [{ "element": "Ho", "occu": 1 }],
        "abc": [0.36590232, 0.97172264, 0.75],
        "properties": { "magmom": 0.081 },
        "label": "Ho",
        "xyz": [2.353089791802288, 6.792232187450886, 7.179284062500001]
      },
      {
        "species": [{ "element": "Pt", "occu": 1 }],
        "abc": [0.05014848, 0.8856510400000001, 0.25],
        "properties": { "magmom": 0.0 },
        "label": "Pt",
        "xyz": [0.322501033506432, 6.190601364127271, 2.3930946875]
      },
      {
        "species": [{ "element": "Pt", "occu": 1 }],
        "abc": [0.44985152, 0.38565004, 0.25],
        "properties": { "magmom": 0.0 },
        "label": "Pt",
        "xyz": [2.8929606664935683, 2.6956504942395108, 2.3930946875]
      },
      {
        "species": [{ "element": "Pt", "occu": 1 }],
        "abc": [0.9498515200000001, 0.11434896, 0.75],
        "properties": { "magmom": 0.0 },
        "label": "Pt",
        "xyz": [6.108422366493569, 0.7992863958727296, 7.179284062500001]
      },
      {
        "species": [{ "element": "Pt", "occu": 1 }],
        "abc": [0.55014848, 0.61434996, 0.75],
        "properties": { "magmom": 0.0 },
        "label": "Pt",
        "xyz": [3.5379627335064323, 4.29423726576049, 7.179284062500001]
      }
    ]
  },
  "task_ids": null,
  "uncorrected_energy_per_atom": null,
  "energy_per_atom": -38.337071705625,
  "formation_energy_per_atom": -0.8041345443749961,
  "energy_above_hull": 0.0,
  "is_stable": true,
  "equilibrium_reaction_energy_per_atom": null,
  "decomposes_to": null,
  "xas": null,
  "grain_boundaries": null,
  "band_gap": 0.0,
  "cbm": null,
  "vbm": null,
  "efermi": 3.87685359,
  "is_gap_direct": null,
  "is_metal": null,
  "es_source_calc_id": null,
  "bandstructure": null,
  "dos": null,
  "dos_energy_up": null,
  "dos_energy_down": null,
  "is_magnetic": null,
  "ordering": null,
  "total_magnetization": 1.6074396,
  "total_magnetization_normalized_vol": null,
  "total_magnetization_normalized_formula_units": null,
  "num_magnetic_sites": null,
  "num_unique_magnetic_sites": null,
  "types_of_magnetic_species": null,
  "bulk_modulus": null,
  "shear_modulus": null,
  "universal_anisotropy": null,
  "homogeneous_poisson": null,
  "e_total": null,
  "e_ionic": null,
  "e_electronic": null,
  "n": null,
  "e_ij_max": null,
  "weighted_surface_energy_EV_PER_ANG2": null,
  "weighted_surface_energy": null,
  "weighted_work_function": null,
  "surface_anisotropy": null,
  "shape_factor": null,
  "has_reconstructed": null,
  "possible_species": null,
  "has_props": null,
  "theoretical": null,
  "database_IDs": null,
  "fields_not_requested": [
    "builder_meta",
    "nsites",
    "elements",
    "nelements",
    "composition",
    "composition_reduced",
    "chemsys",
    "symmetry",
    "property_name",
    "deprecated",
    "deprecation_reasons",
    "last_updated",
    "origins",
    "warnings",
    "task_ids",
    "uncorrected_energy_per_atom",
    "equilibrium_reaction_energy_per_atom",
    "decomposes_to",
    "xas",
    "grain_boundaries",
    "cbm",
    "vbm",
    "is_gap_direct",
    "is_metal",
    "es_source_calc_id",
    "bandstructure",
    "dos",
    "dos_energy_up",
    "dos_energy_down",
    "is_magnetic",
    "ordering",
    "total_magnetization_normalized_vol",
    "total_magnetization_normalized_formula_units",
    "num_magnetic_sites",
    "num_unique_magnetic_sites",
    "types_of_magnetic_species",
    "bulk_modulus",
    "shear_modulus",
    "universal_anisotropy",
    "homogeneous_poisson",
    "e_total",
    "e_ionic",
    "e_electronic",
    "n",
    "e_ij_max",
    "weighted_surface_energy_EV_PER_ANG2",
    "weighted_surface_energy",
    "weighted_work_function",
    "surface_anisotropy",
    "shape_factor",
    "has_reconstructed",
    "possible_species",
    "has_props",
    "theoretical",
    "database_IDs"
  ]
}
