{
  "builder_meta": null,
  "nsites": null,
  "elements": null,
  "nelements": null,
  "composition": null,
  "composition_reduced": null,
  "formula_pretty": "Ho3Pt4",
  "formula_anonymous": "A3B4",
  "chemsys": null,
  "volume": 281.2080248485312,
  "density": 15.059300907898365,
  "density_atomic": 20.086287489180798,
  "symmetry": null,
  "property_name": null,
  "material_id": "mp-1103863",
  "deprecated": null,
  "deprecation_reasons": null,
  "last_updated": null,
  "origins": null,
  "warnings": null,
  "structure": {
    "@module": "pymatgen.core.structure",
    "@class": "Structure",
    "charge": 0,
    "lattice": {
      "matrix": [
        [0.0, -0.0, -5.68476456],
        [0.00051626, -7.5577462, 1.89492152],
        [-6.54545813, 3.77842498, 1.89492152]
      ],
      "pbc": [true, true, true],
      "a": 5.68476456,
      "b": 7.79167860329839,
      "c": 7.791677934054397,
      "alpha": 114.2853888374556,
      "beta": 104.07537391130599,
      "gamma": 104.07537267741998,
      "volume": 281.2080248485312
    },
    "properties": {},
    "sites": [
      {
        "species": [{ "element": "Ho", "occu": 1 }],
        "abc": [0.40514451, 0.12572815, 0.37757703],
        "properties": { "magmom": 0.0 },
        "label": "Ho",
        "xyz": [-2.471349732300035, 0.47642503413067916, -1.349427335417092]
      },
      {
        "species": [{ "element": "Ho", "occu": 1 }],
        "abc": [0.02756648, 0.62242297, 0.74815212],
        "properties": { "magmom": 0.0 },
        "label": "Ho",
        "xyz": [-4.896677044248243, -1.8772781772622569, 2.440423284268988]
      },
      {
        "species": [{ "element": "Ho", "occu": 1 }],
        "abc": [0.27941536, 0.25184788, 0.8742718500000001],
        "properties": { "magmom": 0.0 },
        "label": "Ho",
        "xyz": [-5.722379769426112, 1.399968239302757, 0.5454979744259483]
      },
      {
        "species": [{ "element": "Ho", "occu": 1 }],
        "abc": [0.59485549, 0.8742718500000001, 0.62242297],
        "properties": { "magmom": 0.0 },
        "label": "Ho",
        "xyz": [-4.073592137699966, -4.25574625413068, -0.5454941845829078]
      },
      {
        "species": [{ "element": "Ho", "occu": 1 }],
        "abc": [0.97243352, 0.37757703, 0.25184788],
        "properties": { "magmom": 0.0 },
        "label": "Ho",
        "xyz": [-1.648264825751757, -1.9020430427377435, -4.3353448042689875]
      },
      {
        "species": [{ "element": "Ho", "occu": 1 }],
        "abc": [0.72058464, 0.74815212, 0.12572815],
        "properties": { "magmom": 0.0 },
        "label": "Ho",
        "xyz": [-0.8225621005738885, -5.179289459302757, -2.4404194944259476]
      },
      {
        "species": [{ "element": "Pt", "occu": 1 }],
        "abc": [-0.0, -0.0, -0.0],
        "properties": { "magmom": 0.0 },
        "label": "Pt",
        "xyz": [0.0, 0.0, 0.0]
      },
      {
        "species": [{ "element": "Pt", "occu": 1 }],
        "abc": [0.5, -0.0, -0.0],
        "properties": { "magmom": 0.0 },
        "label": "Pt",
        "xyz": [0.0, 0.0, -2.84238228]
      },
      {
        "species": [{ "element": "Pt", "occu": 1 }],
        "abc": [0.22748883, 0.67430357, 0.16576608],
        "properties": { "magmom": -0.0 },
        "label": "Pt",
        "xyz": [-1.0846668200531824, -4.469880546305256, 0.29864561950400337]
      },
      {
        "species": [{ "element": "Pt", "occu": 1 }],
        "abc": [0.06172275, 0.83423392, 0.50853649],
        "properties": { "magmom": -0.0 },
        "label": "Pt",
        "xyz": [-3.3281736212686246, -4.383461261733583, 2.193565244582483]
      },
      {
        "species": [{ "element": "Pt", "occu": 1 }],
        "abc": [0.55318626, 0.49146351, 0.32569643],
        "properties": { "magmom": -0.0 },
        "label": "Pt",
        "xyz": [-2.1315786227038034, -2.4837369481323406, -1.5962796903390368]
      },
      {
        "species": [{ "element": "Pt", "occu": 1 }],
        "abc": [0.77251117, 0.32569643, 0.83423392],
        "properties": { "magmom": -0.0 },
        "label": "Pt",
        "xyz": [-5.460275049946818, 0.6905593263052552, -2.1935671395040033]
      },
      {
        "species": [{ "element": "Pt", "occu": 1 }],
        "abc": [0.9382772500000001, 0.16576608, 0.49146351],
        "properties": { "magmom": -0.0 },
        "label": "Pt",
        "xyz": [-3.2167682487313756, 0.6041400417335836, -4.088486764582483]
      },
      {
        "species": [{ "element": "Pt", "occu": 1 }],
        "abc": [0.44681374, 0.50853649, 0.67430357],
        "properties": { "magmom": -0.0 },
        "label": "Pt",
        "xyz": [-4.413363247296196, -1.2955842718676598, -0.2986418296609632]
      }
    ]
  },
  "task_ids": null,
  "uncorrected_energy_per_atom": null,
  "energy_per_atom": -44.87537159285714,
  "formation_energy_per_atom": -1.361814543571418,
  "energy_above_hull": 0.0,
  "is_stable": true,
  "equilibrium_reaction_energy_per_atom": null,
  "decomposes_to": null,
  "xas": null,
  "grain_boundaries": null,
  "band_gap": 0.0,
  "cbm": null,
  "vbm": null,
  "efermi": 5.21444629,
  "is_gap_direct": null,
  "is_metal": null,
  "es_source_calc_id": null,
  "bandstructure": null,
  "dos": null,
  "dos_energy_up": null,
  "dos_energy_down": null,
  "is_magnetic": null,
  "ordering": null,
  "total_magnetization": 0.0,
  "total_magnetization_normalized_vol": null,
  "total_magnetization_normalized_formula_units": null,
  "num_magnetic_sites": null,
  "num_unique_magnetic_sites": null,
  "types_of_magnetic_species": null,
  "bulk_modulus": null,
  "shear_modulus": null,
  "universal_anisotropy": null,
  "homogeneous_poisson": null,
  "e_total": null,
  "e_ionic": null,
  "e_electronic": null,
  "n": null,
  "e_ij_max": null,
  "weighted_surface_energy_EV_PER_ANG2": null,
  "weighted_surface_energy": null,
  "weighted_work_function": null,
  "surface_anisotropy": null,
  "shape_factor": null,
  "has_reconstructed": null,
  "possible_species": null,
  "has_props": null,
  "theoretical": null,
  "database_IDs": null,
  "fields_not_requested": [
    "builder_meta",
    "nsites",
    "elements",
    "nelements",
    "composition",
    "composition_reduced",
    "chemsys",
    "symmetry",
    "property_name",
    "deprecated",
    "deprecation_reasons",
    "last_updated",
    "origins",
    "warnings",
    "task_ids",
    "uncorrected_energy_per_atom",
    "equilibrium_reaction_energy_per_atom",
    "decomposes_to",
    "xas",
    "grain_boundaries",
    "cbm",
    "vbm",
    "is_gap_direct",
    "is_metal",
    "es_source_calc_id",
    "bandstructure",
    "dos",
    "dos_energy_up",
    "dos_energy_down",
    "is_magnetic",
    "ordering",
    "total_magnetization_normalized_vol",
    "total_magnetization_normalized_formula_units",
    "num_magnetic_sites",
    "num_unique_magnetic_sites",
    "types_of_magnetic_species",
    "bulk_modulus",
    "shear_modulus",
    "universal_anisotropy",
    "homogeneous_poisson",
    "e_total",
    "e_ionic",
    "e_electronic",
    "n",
    "e_ij_max",
    "weighted_surface_energy_EV_PER_ANG2",
    "weighted_surface_energy",
    "weighted_work_function",
    "surface_anisotropy",
    "shape_factor",
    "has_reconstructed",
    "possible_species",
    "has_props",
    "theoretical",
    "database_IDs"
  ]
}
