{
  "builder_meta": null,
  "nsites": null,
  "elements": null,
  "nelements": null,
  "composition": null,
  "composition_reduced": null,
  "formula_pretty": "Ho3Ru2",
  "formula_anonymous": "A2B3",
  "chemsys": null,
  "volume": 233.84479709532727,
  "density": 9.897856186479736,
  "density_atomic": 23.384479709532727,
  "symmetry": null,
  "property_name": null,
  "material_id": "mp-1205524",
  "deprecated": null,
  "deprecation_reasons": null,
  "last_updated": null,
  "origins": null,
  "warnings": null,
  "structure": {
    "@module": "pymatgen.core.structure",
    "@class": "Structure",
    "charge": 0,
    "lattice": {
      "matrix": [
        [0.0, 0.0, -4.721909],
        [-3.781025999999999, -6.548931, 0.0],
        [-3.781027, 6.54893, 0.0]
      ],
      "pbc": [true, true, true],
      "a": 4.721909,
      "b": 7.562053613631484,
      "c": 7.562053247606037,
      "alpha": 120.00000376742959,
      "beta": 90.0,
      "gamma": 90.0,
      "volume": 233.8447970953272
    },
    "properties": {},
    "sites": [
      {
        "species": [{ "element": "Ho", "occu": 1 }],
        "abc": [0.75, 0.616556, 0.695265],
        "properties": { "magmom": 0.003 },
        "label": "Ho",
        "xyz": [-4.960030003610999, 0.5154591148140009, -3.54143175]
      },
      {
        "species": [{ "element": "Ho", "occu": 1 }],
        "abc": [0.25, 0.383444, 0.304735],
        "properties": { "magmom": 0.003 },
        "label": "Ho",
        "xyz": [-2.6020229963889996, -0.5154601148140001, -1.18047725]
      },
      {
        "species": [{ "element": "Ho", "occu": 1 }],
        "abc": [0.75, 0.078709, 0.383444],
        "properties": { "magmom": 0.003 },
        "label": "Ho",
        "xyz": [-1.747412892422, 1.995688104841, -3.54143175]
      },
      {
        "species": [{ "element": "Ho", "occu": 1 }],
        "abc": [0.25, 0.921291, 0.616556],
        "properties": { "magmom": 0.003 },
        "label": "Ho",
        "xyz": [-5.814640107577999, -1.9956891048409995, -1.18047725]
      },
      {
        "species": [{ "element": "Ho", "occu": 1 }],
        "abc": [0.75, 0.304735, 0.921291],
        "properties": { "magmom": 0.004 },
        "label": "Ho",
        "xyz": [-4.6356371039669995, 4.037781780345001, -3.54143175]
      },
      {
        "species": [{ "element": "Ho", "occu": 1 }],
        "abc": [0.25, 0.695265, 0.078709],
        "properties": { "magmom": 0.004 },
        "label": "Ho",
        "xyz": [-2.9264158960329993, -4.037782780345, -1.18047725]
      },
      {
        "species": [{ "element": "Ru", "occu": 1 }],
        "abc": [0.75, 0.666667, 0.333333],
        "properties": { "magmom": -0.006 },
        "label": "Ru",
        "xyz": [-3.781026333332999, -2.1829816992869993, -3.54143175]
      },
      {
        "species": [{ "element": "Ru", "occu": 1 }],
        "abc": [0.25, 0.333333, 0.666667],
        "properties": { "magmom": -0.006 },
        "label": "Ru",
        "xyz": [-3.7810266666669996, 2.182980699287001, -1.18047725]
      },
      {
        "species": [{ "element": "Ru", "occu": 1 }],
        "abc": [0.0, 0.0, 0.0],
        "properties": { "magmom": -0.004 },
        "label": "Ru",
        "xyz": [0.0, 0.0, 0.0]
      },
      {
        "species": [{ "element": "Ru", "occu": 1 }],
        "abc": [0.5, 0.0, 0.0],
        "properties": { "magmom": -0.004 },
        "label": "Ru",
        "xyz": [0.0, 0.0, -2.3609545]
      }
    ]
  },
  "task_ids": null,
  "uncorrected_energy_per_atom": null,
  "energy_per_atom": -6.75440062,
  "formation_energy_per_atom": -0.286031924999996,
  "energy_above_hull": 0.07015158574999901,
  "is_stable": false,
  "equilibrium_reaction_energy_per_atom": null,
  "decomposes_to": null,
  "xas": null,
  "grain_boundaries": null,
  "band_gap": 0.0,
  "cbm": null,
  "vbm": null,
  "efermi": 4.19152882,
  "is_gap_direct": null,
  "is_metal": null,
  "es_source_calc_id": null,
  "bandstructure": null,
  "dos": null,
  "dos_energy_up": null,
  "dos_energy_down": null,
  "is_magnetic": null,
  "ordering": null,
  "total_magnetization": 0.000383,
  "total_magnetization_normalized_vol": null,
  "total_magnetization_normalized_formula_units": null,
  "num_magnetic_sites": null,
  "num_unique_magnetic_sites": null,
  "types_of_magnetic_species": null,
  "bulk_modulus": null,
  "shear_modulus": null,
  "universal_anisotropy": null,
  "homogeneous_poisson": null,
  "e_total": null,
  "e_ionic": null,
  "e_electronic": null,
  "n": null,
  "e_ij_max": null,
  "weighted_surface_energy_EV_PER_ANG2": null,
  "weighted_surface_energy": null,
  "weighted_work_function": null,
  "surface_anisotropy": null,
  "shape_factor": null,
  "has_reconstructed": null,
  "possible_species": null,
  "has_props": null,
  "theoretical": null,
  "database_IDs": null,
  "fields_not_requested": [
    "builder_meta",
    "nsites",
    "elements",
    "nelements",
    "composition",
    "composition_reduced",
    "chemsys",
    "symmetry",
    "property_name",
    "deprecated",
    "deprecation_reasons",
    "last_updated",
    "origins",
    "warnings",
    "task_ids",
    "uncorrected_energy_per_atom",
    "equilibrium_reaction_energy_per_atom",
    "decomposes_to",
    "xas",
    "grain_boundaries",
    "cbm",
    "vbm",
    "is_gap_direct",
    "is_metal",
    "es_source_calc_id",
    "bandstructure",
    "dos",
    "dos_energy_up",
    "dos_energy_down",
    "is_magnetic",
    "ordering",
    "total_magnetization_normalized_vol",
    "total_magnetization_normalized_formula_units",
    "num_magnetic_sites",
    "num_unique_magnetic_sites",
    "types_of_magnetic_species",
    "bulk_modulus",
    "shear_modulus",
    "universal_anisotropy",
    "homogeneous_poisson",
    "e_total",
    "e_ionic",
    "e_electronic",
    "n",
    "e_ij_max",
    "weighted_surface_energy_EV_PER_ANG2",
    "weighted_surface_energy",
    "weighted_work_function",
    "surface_anisotropy",
    "shape_factor",
    "has_reconstructed",
    "possible_species",
    "has_props",
    "theoretical",
    "database_IDs"
  ]
}
