{
  "builder_meta": null,
  "nsites": null,
  "elements": null,
  "nelements": null,
  "composition": null,
  "composition_reduced": null,
  "formula_pretty": "Ho3Rh2",
  "formula_anonymous": "A2B3",
  "chemsys": null,
  "volume": 1507.8836463925888,
  "density": 10.801414940069527,
  "density_atomic": 21.541194948465556,
  "symmetry": null,
  "property_name": null,
  "material_id": "mp-1200753",
  "deprecated": null,
  "deprecation_reasons": null,
  "last_updated": null,
  "origins": null,
  "warnings": null,
  "structure": {
    "@module": "pymatgen.core.structure",
    "@class": "Structure",
    "charge": 0,
    "lattice": {
      "matrix": [
        [11.03471871, 0.0, 0.0],
        [-0.0, 11.03471871, 0.0],
        [-5.51735936, -5.51735936, 12.38355386]
      ],
      "pbc": [true, true, true],
      "a": 11.03471871,
      "b": 11.03471871,
      "c": 14.636765859242269,
      "alpha": 112.14501489486895,
      "beta": 112.14501489486895,
      "gamma": 90.0,
      "volume": 1507.8836463925888
    },
    "properties": {},
    "sites": [
      {
        "species": [{ "element": "Ho", "occu": 1 }],
        "abc": [0.50370165, 0.63254826, 0.85690731],
        "properties": { "magmom": -0.0 },
        "label": "Ho",
        "xyz": [0.8303404540319494, 2.252126552119022, 10.611557826412715]
      },
      {
        "species": [{ "element": "Ho", "occu": 1 }],
        "abc": [0.35320466, 0.22435905, 0.85690731],
        "properties": { "magmom": -0.0 },
        "label": "Ho",
        "xyz": [-0.8303514973197337, -2.252126560688097, 10.611557826412715]
      },
      {
        "species": [{ "element": "Ho", "occu": 1 }],
        "abc": [0.8532046600000001, 0.13254826, 0.85690731],
        "properties": { "magmom": -0.0 },
        "label": "Ho",
        "xyz": [4.687007857680268, -3.265232802880978, 10.611557826412715]
      },
      {
        "species": [{ "element": "Ho", "occu": 1 }],
        "abc": [0.00370165, 0.72435905, 0.85690731],
        "properties": { "magmom": -0.0 },
        "label": "Ho",
        "xyz": [-4.6870189009680505, 3.2652327943119035, 10.611557826412715]
      },
      {
        "species": [{ "element": "Ho", "occu": 1 }],
        "abc": [0.63254826, 0.35320466, 0.85690731],
        "properties": { "magmom": -0.0 },
        "label": "Ho",
        "xyz": [2.252126552119022, -0.8303514973197337, 10.611557826412715]
      },
      {
        "species": [{ "element": "Ho", "occu": 1 }],
        "abc": [0.22435905, 0.50370165, 0.85690731],
        "properties": { "magmom": -0.0 },
        "label": "Ho",
        "xyz": [-2.252126560688097, 0.8303404540319494, 10.611557826412715]
      },
      {
        "species": [{ "element": "Ho", "occu": 1 }],
        "abc": [0.13254826, 0.00370165, 0.85690731],
        "properties": { "magmom": -0.0 },
        "label": "Ho",
        "xyz": [-3.265232802880978, -4.6870189009680505, 10.611557826412715]
      },
      {
        "species": [{ "element": "Ho", "occu": 1 }],
        "abc": [0.72435905, 0.8532046600000001, 0.85690731],
        "properties": { "magmom": -0.0 },
        "label": "Ho",
        "xyz": [3.2652327943119035, 4.687007857680268, 10.611557826412715]
      },
      {
        "species": [{ "element": "Ho", "occu": 1 }],
        "abc": [0.49629835, 0.36745174, 0.14309269],
        "properties": { "magmom": -0.0 },
        "label": "Ho",
        "xyz": [4.68701889596805, 3.265232797880977, 1.7719960335872833]
      },
      {
        "species": [{ "element": "Ho", "occu": 1 }],
        "abc": [0.64679534, 0.77564095, 0.14309269],
        "properties": { "magmom": -0.0 },
        "label": "Ho",
        "xyz": [6.347710847319734, 7.769485910688097, 1.7719960335872833]
      },
      {
        "species": [{ "element": "Ho", "occu": 1 }],
        "abc": [0.14679534, 0.86745174, 0.14309269],
        "properties": { "magmom": -0.0 },
        "label": "Ho",
        "xyz": [0.8303514923197329, 8.782592152880978, 1.7719960335872833]
      },
      {
        "species": [{ "element": "Ho", "occu": 1 }],
        "abc": [0.99629835, 0.27564095, 0.14309269],
        "properties": { "magmom": -0.0 },
        "label": "Ho",
        "xyz": [10.20437825096805, 2.252126555688096, 1.7719960335872833]
      },
      {
        "species": [{ "element": "Ho", "occu": 1 }],
        "abc": [0.36745174, 0.64679534, 0.14309269],
        "properties": { "magmom": -0.0 },
        "label": "Ho",
        "xyz": [3.265232797880977, 6.347710847319734, 1.7719960335872833]
      },
      {
        "species": [{ "element": "Ho", "occu": 1 }],
        "abc": [0.77564095, 0.49629835, 0.14309269],
        "properties": { "magmom": -0.0 },
        "label": "Ho",
        "xyz": [7.769485910688097, 4.68701889596805, 1.7719960335872833]
      },
      {
        "species": [{ "element": "Ho", "occu": 1 }],
        "abc": [0.86745174, 0.99629835, 0.14309269],
        "properties": { "magmom": -0.0 },
        "label": "Ho",
        "xyz": [8.782592152880978, 10.20437825096805, 1.7719960335872833]
      },
      {
        "species": [{ "element": "Ho", "occu": 1 }],
        "abc": [0.27564095, 0.14679534, 0.14309269],
        "properties": { "magmom": -0.0 },
        "label": "Ho",
        "xyz": [2.252126555688096, 0.8303514923197329, 1.7719960335872833]
      },
      {
        "species": [{ "element": "Ho", "occu": 1 }],
        "abc": [0.51672594, 0.38616762, 0.61275092],
        "properties": { "magmom": -0.0 },
        "label": "Ho",
        "xyz": [2.3211583742497264, 0.8804840377995586, 7.5880340205845505]
      },
      {
        "species": [{ "element": "Ho", "occu": 1 }],
        "abc": [0.09602498, 0.22658329, 0.61275092],
        "properties": { "magmom": -0.0 },
        "label": "Ho",
        "xyz": [-2.3211583803772355, -0.8804841542742556, 7.5880340205845505]
      },
      {
        "species": [{ "element": "Ho", "occu": 1 }],
        "abc": [0.59602498, 0.88616762, 0.61275092],
        "properties": { "magmom": -0.0 },
        "label": "Ho",
        "xyz": [3.1962009746227644, 6.39784339279956, 7.5880340205845505]
      },
      {
        "species": [{ "element": "Ho", "occu": 1 }],
        "abc": [0.01672594, 0.72658329, 0.61275092],
        "properties": { "magmom": -0.0 },
        "label": "Ho",
        "xyz": [-3.196200980750274, 4.636875200725745, 7.5880340205845505]
      },
      {
        "species": [{ "element": "Ho", "occu": 1 }],
        "abc": [0.38616762, 0.09602498, 0.61275092],
        "properties": { "magmom": -0.0 },
        "label": "Ho",
        "xyz": [0.8804840377995586, -2.3211583803772355, 7.5880340205845505]
      },
      {
        "species": [{ "element": "Ho", "occu": 1 }],
        "abc": [0.22658329, 0.51672594, 0.61275092],
        "properties": { "magmom": -0.0 },
        "label": "Ho",
        "xyz": [-0.8804841542742556, 2.3211583742497264, 7.5880340205845505]
      },
      {
        "species": [{ "element": "Ho", "occu": 1 }],
        "abc": [0.88616762, 0.01672594, 0.61275092],
        "properties": { "magmom": -0.0 },
        "label": "Ho",
        "xyz": [6.39784339279956, -3.196200980750274, 7.5880340205845505]
      },
      {
        "species": [{ "element": "Ho", "occu": 1 }],
        "abc": [0.72658329, 0.59602498, 0.61275092],
        "properties": { "magmom": -0.0 },
        "label": "Ho",
        "xyz": [4.636875200725745, 3.1962009746227644, 7.5880340205845505]
      },
      {
        "species": [{ "element": "Ho", "occu": 1 }],
        "abc": [0.48327406, 0.6138323800000001, 0.38724908],
        "properties": { "magmom": -0.0 },
        "label": "Ho",
        "xyz": [3.196200975750273, 4.636875312200441, 4.795519839415449]
      },
      {
        "species": [{ "element": "Ho", "occu": 1 }],
        "abc": [0.9039750200000001, 0.77341671, 0.38724908],
        "properties": { "magmom": -0.0 },
        "label": "Ho",
        "xyz": [7.8385177303772355, 6.397843504274254, 4.795519839415449]
      },
      {
        "species": [{ "element": "Ho", "occu": 1 }],
        "abc": [0.40397502, 0.11383238, 0.38724908],
        "properties": { "magmom": -0.0 },
        "label": "Ho",
        "xyz": [2.321158375377235, -0.8804840427995593, 4.795519839415449]
      },
      {
        "species": [{ "element": "Ho", "occu": 1 }],
        "abc": [0.9832740600000001, 0.27341671, 0.38724908],
        "properties": { "magmom": -0.0 },
        "label": "Ho",
        "xyz": [8.713560330750274, 0.8804841492742552, 4.795519839415449]
      },
      {
        "species": [{ "element": "Ho", "occu": 1 }],
        "abc": [0.6138323800000001, 0.9039750200000001, 0.38724908],
        "properties": { "magmom": -0.0 },
        "label": "Ho",
        "xyz": [4.636875312200441, 7.8385177303772355, 4.795519839415449]
      },
      {
        "species": [{ "element": "Ho", "occu": 1 }],
        "abc": [0.77341671, 0.48327406, 0.38724908],
        "properties": { "magmom": -0.0 },
        "label": "Ho",
        "xyz": [6.397843504274254, 3.196200975750273, 4.795519839415449]
      },
      {
        "species": [{ "element": "Ho", "occu": 1 }],
        "abc": [0.11383238, 0.9832740600000001, 0.38724908],
        "properties": { "magmom": -0.0 },
        "label": "Ho",
        "xyz": [-0.8804840427995593, 8.713560330750274, 4.795519839415449]
      },
      {
        "species": [{ "element": "Ho", "occu": 1 }],
        "abc": [0.27341671, 0.40397502, 0.38724908],
        "properties": { "magmom": -0.0 },
        "label": "Ho",
        "xyz": [0.8804841492742552, 2.321158375377235, 4.795519839415449]
      },
      {
        "species": [{ "element": "Ho", "occu": 1 }],
        "abc": [0.35067052, 0.85067052, 0.0],
        "properties": { "magmom": 0.0 },
        "label": "Ho",
        "xyz": [3.869550548089429, 9.386909903089428, 0.0]
      },
      {
        "species": [{ "element": "Ho", "occu": 1 }],
        "abc": [0.64932948, 0.14932948000000001, 0.0],
        "properties": { "magmom": 0.0 },
        "label": "Ho",
        "xyz": [7.165168161910571, 1.647808806910571, 0.0]
      },
      {
        "species": [{ "element": "Ho", "occu": 1 }],
        "abc": [0.14932948000000001, 0.35067052, 0.0],
        "properties": { "magmom": 0.0 },
        "label": "Ho",
        "xyz": [1.647808806910571, 3.869550548089429, 0.0]
      },
      {
        "species": [{ "element": "Ho", "occu": 1 }],
        "abc": [0.85067052, 0.64932948, 0.0],
        "properties": { "magmom": 0.0 },
        "label": "Ho",
        "xyz": [9.386909903089428, 7.165168161910571, 0.0]
      },
      {
        "species": [{ "element": "Ho", "occu": 1 }],
        "abc": [0.8873787200000001, 0.38737872, 0.77475845],
        "properties": { "magmom": -0.0 },
        "label": "Ho",
        "xyz": [5.517353778593259, -5.576406740814832e-6, 9.594262994065117]
      },
      {
        "species": [{ "element": "Ho", "occu": 1 }],
        "abc": [0.38737872, 0.8873787200000001, 0.77475845],
        "properties": { "magmom": -0.0 },
        "label": "Ho",
        "xyz": [-5.576406740814832e-6, 5.517353778593259, 9.594262994065117]
      },
      {
        "species": [{ "element": "Ho", "occu": 1 }],
        "abc": [0.11262128, 0.61262128, 0.22524155],
        "properties": { "magmom": -0.0 },
        "label": "Ho",
        "xyz": [5.5714067408452195e-6, 5.51736492640674, 2.789290865934883]
      },
      {
        "species": [{ "element": "Ho", "occu": 1 }],
        "abc": [0.61262128, 0.11262128, 0.22524155],
        "properties": { "magmom": -0.0 },
        "label": "Ho",
        "xyz": [5.51736492640674, 5.5714067408452195e-6, 2.789290865934883]
      },
      {
        "species": [{ "element": "Ho", "occu": 1 }],
        "abc": [0.75, 0.25, 0.5],
        "properties": { "magmom": 0.0 },
        "label": "Ho",
        "xyz": [5.5173593525, -2.5000002068509275e-9, 6.19177693]
      },
      {
        "species": [{ "element": "Ho", "occu": 1 }],
        "abc": [0.25, 0.75, 0.5],
        "properties": { "magmom": 0.0 },
        "label": "Ho",
        "xyz": [-2.5000002068509275e-9, 5.5173593525, 6.19177693]
      },
      {
        "species": [{ "element": "Rh", "occu": 1 }],
        "abc": [0.21439834, 0.71439834, 0.78682451],
        "properties": { "magmom": -0.0 },
        "label": "Rh",
        "xyz": [-1.9753682011349722, 3.5419911538650277, 9.743683697953108]
      },
      {
        "species": [{ "element": "Rh", "occu": 1 }],
        "abc": [0.57242716, 0.07242716, 0.78682451],
        "properties": { "magmom": -0.0 },
        "label": "Rh",
        "xyz": [1.9753791176382505, -3.54198023736175, 9.743683697953108]
      },
      {
        "species": [{ "element": "Rh", "occu": 1 }],
        "abc": [0.07242716, 0.21439834, 0.78682451],
        "properties": { "magmom": -0.0 },
        "label": "Rh",
        "xyz": [-3.54198023736175, -1.9753682011349722, 9.743683697953108]
      },
      {
        "species": [{ "element": "Rh", "occu": 1 }],
        "abc": [0.71439834, 0.57242716, 0.78682451],
        "properties": { "magmom": -0.0 },
        "label": "Rh",
        "xyz": [3.5419911538650277, 1.9753791176382505, 9.743683697953108]
      },
      {
        "species": [{ "element": "Rh", "occu": 1 }],
        "abc": [0.78560166, 0.28560166, 0.21317549],
        "properties": { "magmom": -0.0 },
        "label": "Rh",
        "xyz": [7.492727551134971, 1.9753681961349716, 2.639870162046891]
      },
      {
        "species": [{ "element": "Rh", "occu": 1 }],
        "abc": [0.42757284, 0.9275728400000001, 0.21317549],
        "properties": { "magmom": -0.0 },
        "label": "Rh",
        "xyz": [3.54198023236175, 9.05933958736175, 2.639870162046891]
      },
      {
        "species": [{ "element": "Rh", "occu": 1 }],
        "abc": [0.9275728400000001, 0.78560166, 0.21317549],
        "properties": { "magmom": -0.0 },
        "label": "Rh",
        "xyz": [9.05933958736175, 7.492727551134971, 2.639870162046891]
      },
      {
        "species": [{ "element": "Rh", "occu": 1 }],
        "abc": [0.28560166, 0.42757284, 0.21317549],
        "properties": { "magmom": -0.0 },
        "label": "Rh",
        "xyz": [1.9753681961349716, 3.54198023236175, 2.639870162046891]
      },
      {
        "species": [{ "element": "Rh", "occu": 1 }],
        "abc": [0.964975399999999, 0.4649754, 0.62324682],
        "properties": { "magmom": 0.0 },
        "label": "Rh",
        "xyz": [7.209555425152488, 1.692196070152499, 7.718010563543724]
      },
      {
        "species": [{ "element": "Rh", "occu": 1 }],
        "abc": [0.65827042, 0.15827042, 0.62324682],
        "properties": { "magmom": 0.0 },
        "label": "Rh",
        "xyz": [3.8251522438963237, -1.692207111103677, 7.718010563543724]
      },
      {
        "species": [{ "element": "Rh", "occu": 1 }],
        "abc": [0.15827042, 0.964975399999999, 0.62324682],
        "properties": { "magmom": 0.0 },
        "label": "Rh",
        "xyz": [-1.692207111103677, 7.209555425152488, 7.718010563543724]
      },
      {
        "species": [{ "element": "Rh", "occu": 1 }],
        "abc": [0.4649754, 0.65827042, 0.62324682],
        "properties": { "magmom": 0.0 },
        "label": "Rh",
        "xyz": [1.692196070152499, 3.8251522438963237, 7.718010563543724]
      },
      {
        "species": [{ "element": "Rh", "occu": 1 }],
        "abc": [0.035024599999999004, 0.5350246, 0.37675318],
        "properties": { "magmom": 0.0 },
        "label": "Rh",
        "xyz": [-1.6921960751525102, 3.8251632798475006, 4.665543296456275]
      },
      {
        "species": [{ "element": "Rh", "occu": 1 }],
        "abc": [0.34172958000000003, 0.84172958, 0.37675318],
        "properties": { "magmom": 0.0 },
        "label": "Rh",
        "xyz": [1.6922071061036768, 7.209566461103676, 4.665543296456275]
      },
      {
        "species": [{ "element": "Rh", "occu": 1 }],
        "abc": [0.84172958, 0.035024599999999004, 0.37675318],
        "properties": { "magmom": 0.0 },
        "label": "Rh",
        "xyz": [7.209566461103676, -1.6921960751525102, 4.665543296456275]
      },
      {
        "species": [{ "element": "Rh", "occu": 1 }],
        "abc": [0.5350246, 0.34172958000000003, 0.37675318],
        "properties": { "magmom": 0.0 },
        "label": "Rh",
        "xyz": [3.8251632798475006, 1.6922071061036768, 4.665543296456275]
      },
      {
        "species": [{ "element": "Rh", "occu": 1 }],
        "abc": [0.09770412, 0.5977041200000001, 0.0],
        "properties": { "magmom": -0.0 },
        "label": "Rh",
        "xyz": [1.0781374810080853, 6.595496836008086, 0.0]
      },
      {
        "species": [{ "element": "Rh", "occu": 1 }],
        "abc": [0.90229588, 0.40229588, 0.0],
        "properties": { "magmom": -0.0 },
        "label": "Rh",
        "xyz": [9.956581228991915, 4.439221873991915, 0.0]
      },
      {
        "species": [{ "element": "Rh", "occu": 1 }],
        "abc": [0.40229588, 0.09770412, 0.0],
        "properties": { "magmom": -0.0 },
        "label": "Rh",
        "xyz": [4.439221873991915, 1.0781374810080853, 0.0]
      },
      {
        "species": [{ "element": "Rh", "occu": 1 }],
        "abc": [0.5977041200000001, 0.90229588, 0.0],
        "properties": { "magmom": -0.0 },
        "label": "Rh",
        "xyz": [6.595496836008086, 9.956581228991915, 0.0]
      },
      {
        "species": [{ "element": "Rh", "occu": 1 }],
        "abc": [0.36761717, 0.36761717, 0.73523434],
        "properties": { "magmom": 0.0 },
        "label": "Rh",
        "xyz": [-3.676171367317238e-9, -3.676171367317238e-9, 9.104814049111551]
      },
      {
        "species": [{ "element": "Rh", "occu": 1 }],
        "abc": [0.86761717, 0.86761717, 0.73523434],
        "properties": { "magmom": 0.0 },
        "label": "Rh",
        "xyz": [5.5173593513238295, 5.5173593513238295, 9.104814049111551]
      },
      {
        "species": [{ "element": "Rh", "occu": 1 }],
        "abc": [0.6323828300000001, 0.6323828300000001, 0.26476566],
        "properties": { "magmom": 0.0 },
        "label": "Rh",
        "xyz": [5.517359353676172, 5.517359353676172, 3.278739810888448]
      },
      {
        "species": [{ "element": "Rh", "occu": 1 }],
        "abc": [0.13238283, 0.13238283, 0.26476566],
        "properties": { "magmom": 0.0 },
        "label": "Rh",
        "xyz": [
          -1.3238283802508022e-9, -1.3238283802508022e-9, 3.278739810888448
        ]
      },
      {
        "species": [{ "element": "Rh", "occu": 1 }],
        "abc": [0.5, 0.5, 0.0],
        "properties": { "magmom": 0.0 },
        "label": "Rh",
        "xyz": [5.517359355, 5.517359355, 0.0]
      },
      {
        "species": [{ "element": "Rh", "occu": 1 }],
        "abc": [-0.0, -0.0, 0.0],
        "properties": { "magmom": 0.0 },
        "label": "Rh",
        "xyz": [0.0, 0.0, 0.0]
      },
      {
        "species": [{ "element": "Rh", "occu": 1 }],
        "abc": [0.25, 0.25, 0.5],
        "properties": { "magmom": 0.0 },
        "label": "Rh",
        "xyz": [-2.5000002068509275e-9, -2.5000002068509275e-9, 6.19177693]
      },
      {
        "species": [{ "element": "Rh", "occu": 1 }],
        "abc": [0.75, 0.75, 0.5],
        "properties": { "magmom": 0.0 },
        "label": "Rh",
        "xyz": [5.5173593525, 5.5173593525, 6.19177693]
      }
    ]
  },
  "task_ids": null,
  "uncorrected_energy_per_atom": null,
  "energy_per_atom": -6.482149527714286,
  "formation_energy_per_atom": -0.777818700714282,
  "energy_above_hull": 0.0,
  "is_stable": true,
  "equilibrium_reaction_energy_per_atom": null,
  "decomposes_to": null,
  "xas": null,
  "grain_boundaries": null,
  "band_gap": 0.0,
  "cbm": null,
  "vbm": null,
  "efermi": 4.43125893,
  "is_gap_direct": null,
  "is_metal": null,
  "es_source_calc_id": null,
  "bandstructure": null,
  "dos": null,
  "dos_energy_up": null,
  "dos_energy_down": null,
  "is_magnetic": null,
  "ordering": null,
  "total_magnetization": 3.9e-6,
  "total_magnetization_normalized_vol": null,
  "total_magnetization_normalized_formula_units": null,
  "num_magnetic_sites": null,
  "num_unique_magnetic_sites": null,
  "types_of_magnetic_species": null,
  "bulk_modulus": null,
  "shear_modulus": null,
  "universal_anisotropy": null,
  "homogeneous_poisson": null,
  "e_total": null,
  "e_ionic": null,
  "e_electronic": null,
  "n": null,
  "e_ij_max": null,
  "weighted_surface_energy_EV_PER_ANG2": null,
  "weighted_surface_energy": null,
  "weighted_work_function": null,
  "surface_anisotropy": null,
  "shape_factor": null,
  "has_reconstructed": null,
  "possible_species": null,
  "has_props": null,
  "theoretical": null,
  "database_IDs": null,
  "fields_not_requested": [
    "builder_meta",
    "nsites",
    "elements",
    "nelements",
    "composition",
    "composition_reduced",
    "chemsys",
    "symmetry",
    "property_name",
    "deprecated",
    "deprecation_reasons",
    "last_updated",
    "origins",
    "warnings",
    "task_ids",
    "uncorrected_energy_per_atom",
    "equilibrium_reaction_energy_per_atom",
    "decomposes_to",
    "xas",
    "grain_boundaries",
    "cbm",
    "vbm",
    "is_gap_direct",
    "is_metal",
    "es_source_calc_id",
    "bandstructure",
    "dos",
    "dos_energy_up",
    "dos_energy_down",
    "is_magnetic",
    "ordering",
    "total_magnetization_normalized_vol",
    "total_magnetization_normalized_formula_units",
    "num_magnetic_sites",
    "num_unique_magnetic_sites",
    "types_of_magnetic_species",
    "bulk_modulus",
    "shear_modulus",
    "universal_anisotropy",
    "homogeneous_poisson",
    "e_total",
    "e_ionic",
    "e_electronic",
    "n",
    "e_ij_max",
    "weighted_surface_energy_EV_PER_ANG2",
    "weighted_surface_energy",
    "weighted_work_function",
    "surface_anisotropy",
    "shape_factor",
    "has_reconstructed",
    "possible_species",
    "has_props",
    "theoretical",
    "database_IDs"
  ]
}
