{
  "builder_meta": null,
  "nsites": null,
  "elements": null,
  "nelements": null,
  "composition": null,
  "composition_reduced": null,
  "formula_pretty": "Ho3Ru",
  "formula_anonymous": "AB3",
  "chemsys": null,
  "volume": 416.1511575692062,
  "density": 9.51049044891563,
  "density_atomic": 26.009447348075387,
  "symmetry": null,
  "property_name": null,
  "material_id": "mp-1189938",
  "deprecated": null,
  "deprecation_reasons": null,
  "last_updated": null,
  "origins": null,
  "warnings": null,
  "structure": {
    "@module": "pymatgen.core.structure",
    "@class": "Structure",
    "charge": 0,
    "lattice": {
      "matrix": [
        [0.0, 0.0, 6.249068],
        [7.290958, 0.0, 0.0],
        [0.0, 9.133795, 0.0]
      ],
      "pbc": [true, true, true],
      "a": 6.249068,
      "b": 7.290958,
      "c": 9.133795,
      "alpha": 90.0,
      "beta": 90.0,
      "gamma": 90.0,
      "volume": 416.1511575692062
    },
    "properties": {},
    "sites": [
      {
        "species": [{ "element": "Ho", "occu": 1 }],
        "abc": [0.330464, 0.675867, 0.064889],
        "properties": { "magmom": 0.0 },
        "label": "Ho",
        "xyz": [4.927717910586, 0.5926828237549999, 2.065092007552]
      },
      {
        "species": [{ "element": "Ho", "occu": 1 }],
        "abc": [0.169536, 0.175867, 0.435110999999999],
        "properties": { "magmom": -0.0 },
        "label": "Ho",
        "xyz": [1.282238910586, 3.9742146762449906, 1.059441992448]
      },
      {
        "species": [{ "element": "Ho", "occu": 1 }],
        "abc": [0.669536, 0.324133, 0.564889],
        "properties": { "magmom": 0.0 },
        "label": "Ho",
        "xyz": [2.363240089414, 5.159580323755, 4.1839759924480004]
      },
      {
        "species": [{ "element": "Ho", "occu": 1 }],
        "abc": [0.830464, 0.824133, 0.935110999999999],
        "properties": { "magmom": -0.0 },
        "label": "Ho",
        "xyz": [6.008719089414, 8.54111217624499, 5.189626007552]
      },
      {
        "species": [{ "element": "Ho", "occu": 1 }],
        "abc": [0.669536, 0.324133, 0.935110999999999],
        "properties": { "magmom": 0.0 },
        "label": "Ho",
        "xyz": [2.363240089414, 8.54111217624499, 4.1839759924480004]
      },
      {
        "species": [{ "element": "Ho", "occu": 1 }],
        "abc": [0.830464, 0.824133, 0.564889],
        "properties": { "magmom": -0.0 },
        "label": "Ho",
        "xyz": [6.008719089414, 5.159580323755, 5.189626007552]
      },
      {
        "species": [{ "element": "Ho", "occu": 1 }],
        "abc": [0.330464, 0.675867, 0.435110999999999],
        "properties": { "magmom": 0.0 },
        "label": "Ho",
        "xyz": [4.927717910586, 3.9742146762449906, 2.065092007552]
      },
      {
        "species": [{ "element": "Ho", "occu": 1 }],
        "abc": [0.169536, 0.175867, 0.064889],
        "properties": { "magmom": -0.0 },
        "label": "Ho",
        "xyz": [1.282238910586, 0.5926828237549999, 1.059441992448]
      },
      {
        "species": [{ "element": "Ho", "occu": 1 }],
        "abc": [0.864408, 0.538906, 0.25],
        "properties": { "magmom": -0.001 },
        "label": "Ho",
        "xyz": [3.929141011948, 2.28344875, 5.401744371744]
      },
      {
        "species": [{ "element": "Ho", "occu": 1 }],
        "abc": [0.635591999999999, 0.038905999999999004, 0.25],
        "properties": { "magmom": 0.001 },
        "label": "Ho",
        "xyz": [0.28366201194799273, 2.28344875, 3.9718576282559943]
      },
      {
        "species": [{ "element": "Ho", "occu": 1 }],
        "abc": [0.135592, 0.461095, 0.75],
        "properties": { "magmom": -0.001 },
        "label": "Ho",
        "xyz": [3.36182427901, 6.850346249999999, 0.8473236282559999]
      },
      {
        "species": [{ "element": "Ho", "occu": 1 }],
        "abc": [0.364408, 0.961094, 0.75],
        "properties": { "magmom": 0.001 },
        "label": "Ho",
        "xyz": [7.007295988052, 6.850346249999999, 2.277210371744]
      },
      {
        "species": [{ "element": "Ru", "occu": 1 }],
        "abc": [0.041506, 0.882385, 0.25],
        "properties": { "magmom": -0.0 },
        "label": "Ru",
        "xyz": [6.4334319748299995, 2.28344875, 0.259373816408]
      },
      {
        "species": [{ "element": "Ru", "occu": 1 }],
        "abc": [0.458493999999999, 0.382385, 0.25],
        "properties": { "magmom": 0.0 },
        "label": "Ru",
        "xyz": [2.7879529748299996, 2.28344875, 2.865160183591994]
      },
      {
        "species": [{ "element": "Ru", "occu": 1 }],
        "abc": [0.958494, 0.117615, 0.75],
        "properties": { "magmom": -0.0 },
        "label": "Ru",
        "xyz": [0.85752602517, 6.850346249999999, 5.989694183592]
      },
      {
        "species": [{ "element": "Ru", "occu": 1 }],
        "abc": [0.541505999999999, 0.617615, 0.75],
        "properties": { "magmom": 0.0 },
        "label": "Ru",
        "xyz": [4.50300502517, 6.850346249999999, 3.3839078164079943]
      }
    ]
  },
  "task_ids": null,
  "uncorrected_energy_per_atom": null,
  "energy_per_atom": -6.093017748125,
  "formation_energy_per_atom": -0.326157514374995,
  "energy_above_hull": 0.0,
  "is_stable": true,
  "equilibrium_reaction_energy_per_atom": null,
  "decomposes_to": null,
  "xas": null,
  "grain_boundaries": null,
  "band_gap": 0.0,
  "cbm": null,
  "vbm": null,
  "efermi": 3.81315314,
  "is_gap_direct": null,
  "is_metal": null,
  "es_source_calc_id": null,
  "bandstructure": null,
  "dos": null,
  "dos_energy_up": null,
  "dos_energy_down": null,
  "is_magnetic": null,
  "ordering": null,
  "total_magnetization": 0.0001473,
  "total_magnetization_normalized_vol": null,
  "total_magnetization_normalized_formula_units": null,
  "num_magnetic_sites": null,
  "num_unique_magnetic_sites": null,
  "types_of_magnetic_species": null,
  "bulk_modulus": null,
  "shear_modulus": null,
  "universal_anisotropy": null,
  "homogeneous_poisson": null,
  "e_total": null,
  "e_ionic": null,
  "e_electronic": null,
  "n": null,
  "e_ij_max": null,
  "weighted_surface_energy_EV_PER_ANG2": null,
  "weighted_surface_energy": null,
  "weighted_work_function": null,
  "surface_anisotropy": null,
  "shape_factor": null,
  "has_reconstructed": null,
  "possible_species": null,
  "has_props": null,
  "theoretical": null,
  "database_IDs": null,
  "fields_not_requested": [
    "builder_meta",
    "nsites",
    "elements",
    "nelements",
    "composition",
    "composition_reduced",
    "chemsys",
    "symmetry",
    "property_name",
    "deprecated",
    "deprecation_reasons",
    "last_updated",
    "origins",
    "warnings",
    "task_ids",
    "uncorrected_energy_per_atom",
    "equilibrium_reaction_energy_per_atom",
    "decomposes_to",
    "xas",
    "grain_boundaries",
    "cbm",
    "vbm",
    "is_gap_direct",
    "is_metal",
    "es_source_calc_id",
    "bandstructure",
    "dos",
    "dos_energy_up",
    "dos_energy_down",
    "is_magnetic",
    "ordering",
    "total_magnetization_normalized_vol",
    "total_magnetization_normalized_formula_units",
    "num_magnetic_sites",
    "num_unique_magnetic_sites",
    "types_of_magnetic_species",
    "bulk_modulus",
    "shear_modulus",
    "universal_anisotropy",
    "homogeneous_poisson",
    "e_total",
    "e_ionic",
    "e_electronic",
    "n",
    "e_ij_max",
    "weighted_surface_energy_EV_PER_ANG2",
    "weighted_surface_energy",
    "weighted_work_function",
    "surface_anisotropy",
    "shape_factor",
    "has_reconstructed",
    "possible_species",
    "has_props",
    "theoretical",
    "database_IDs"
  ]
}
