{
  "builder_meta": null,
  "nsites": null,
  "elements": null,
  "nelements": null,
  "composition": null,
  "composition_reduced": null,
  "formula_pretty": "Ho3Si4",
  "formula_anonymous": "A3B4",
  "chemsys": null,
  "volume": 580.414804203918,
  "density": 6.947913743056726,
  "density_atomic": 20.72910015013993,
  "symmetry": null,
  "property_name": null,
  "material_id": "mp-1224909",
  "deprecated": null,
  "deprecation_reasons": null,
  "last_updated": null,
  "origins": null,
  "warnings": null,
  "structure": {
    "@module": "pymatgen.core.structure",
    "@class": "Structure",
    "charge": 0,
    "lattice": {
      "matrix": [
        [2.066631, 36.295142, 0.0],
        [-2.066631, 36.295142, 0.0],
        [0.0, 0.027330000000000004, 3.868985]
      ],
      "pbc": [true, true, true],
      "a": 36.35393096338173,
      "b": 36.35393096338173,
      "c": 3.8690815265544614,
      "alpha": 89.59593139822655,
      "beta": 89.59593139822655,
      "gamma": 6.517760248771674,
      "volume": 580.414804203918
    },
    "properties": {},
    "sites": [
      {
        "species": [{ "element": "Ho", "occu": 1 }],
        "abc": [0.476829, 0.476829, 0.2508],
        "properties": { "magmom": -0.0 },
        "label": "Ho",
        "xyz": [0.0, 34.620006893436, 0.9703414380000001]
      },
      {
        "species": [{ "element": "Ho", "occu": 1 }],
        "abc": [0.809423999999999, 0.809423999999999, 0.24646099999999901],
        "properties": { "magmom": -0.004 },
        "label": "Ho",
        "xyz": [0.0, 58.76305381554592, 0.9535539120849962]
      },
      {
        "species": [{ "element": "Ho", "occu": 1 }],
        "abc": [0.142667, 0.142667, 0.246426999999999],
        "properties": { "magmom": -0.001 },
        "label": "Ho",
        "xyz": [0.0, 10.362972897337999, 0.9534223665949961]
      },
      {
        "species": [{ "element": "Ho", "occu": 1 }],
        "abc": [0.856897999999999, 0.856897999999999, 0.766228999999999],
        "properties": { "magmom": 0.0 },
        "label": "Ho",
        "xyz": [0.0, 62.22341021760193, 2.9645285075649963]
      },
      {
        "species": [{ "element": "Ho", "occu": 1 }],
        "abc": [0.190016, 0.190016, 0.765660999999999],
        "properties": { "magmom": -0.0 },
        "label": "Ho",
        "xyz": [0.0, 13.814240919673997, 2.962330924084996]
      },
      {
        "species": [{ "element": "Ho", "occu": 1 }],
        "abc": [0.523065, 0.523065, 0.749694],
        "properties": { "magmom": 0.0 },
        "label": "Ho",
        "xyz": [0.0, 37.98992603748, 2.90055484059]
      },
      {
        "species": [{ "element": "Ho", "occu": 1 }],
        "abc": [0.900223, 0.900223, 0.250666],
        "properties": { "magmom": -0.003 },
        "label": "Ho",
        "xyz": [0.0, 65.354293935112, 0.9698229940099999]
      },
      {
        "species": [{ "element": "Ho", "occu": 1 }],
        "abc": [0.23363899999999901, 0.23363899999999901, 0.250421],
        "properties": { "magmom": -0.003 },
        "label": "Ho",
        "xyz": [0.0, 16.966765369405927, 0.9688750926849999]
      },
      {
        "species": [{ "element": "Ho", "occu": 1 }],
        "abc": [0.567857, 0.567857, 0.249312999999999],
        "properties": { "magmom": -0.001 },
        "label": "Ho",
        "xyz": [0.0, 41.22771462567799, 0.9645882573049961]
      },
      {
        "species": [{ "element": "Ho", "occu": 1 }],
        "abc": [0.431782, 0.431782, 0.751070999999999],
        "properties": { "magmom": -0.001 },
        "label": "Ho",
        "xyz": [0.0, 31.363704776518, 2.9058824329349964]
      },
      {
        "species": [{ "element": "Ho", "occu": 1 }],
        "abc": [0.76595, 0.76595, 0.750352999999999],
        "properties": { "magmom": -0.001 },
        "label": "Ho",
        "xyz": [0.0, 55.62103517729, 2.903104501704996]
      },
      {
        "species": [{ "element": "Ho", "occu": 1 }],
        "abc": [0.099721999999999, 0.099721999999999, 0.75051],
        "properties": { "magmom": 0.0 },
        "label": "Ho",
        "xyz": [0.0, 7.259359739347928, 2.90371193235]
      },
      {
        "species": [{ "element": "Si", "occu": 1 }],
        "abc": [0.939840999999999, 0.939840999999999, 0.250102],
        "properties": { "magmom": 0.0 },
        "label": "Si",
        "xyz": [0.0, 68.23016039250392, 0.9676408864699999]
      },
      {
        "species": [{ "element": "Si", "occu": 1 }],
        "abc": [0.27555, 0.27555, 0.250346],
        "properties": { "magmom": 0.0 },
        "label": "Si",
        "xyz": [0.0, 20.00909471238, 0.96858491881]
      },
      {
        "species": [{ "element": "Si", "occu": 1 }],
        "abc": [0.60924, 0.60924, 0.250635999999999],
        "properties": { "magmom": 0.0 },
        "label": "Si",
        "xyz": [0.0, 44.23175450604, 0.9697069244599962]
      },
      {
        "species": [{ "element": "Si", "occu": 1 }],
        "abc": [0.391113, 0.391113, 0.751459],
        "properties": { "magmom": 0.0 },
        "label": "Si",
        "xyz": [0.0, 28.411541120561996, 2.9073835991149997]
      },
      {
        "species": [{ "element": "Si", "occu": 1 }],
        "abc": [0.724691, 0.724691, 0.750961],
        "properties": { "magmom": 0.0 },
        "label": "Si",
        "xyz": [0.0, 52.626049266374, 2.9054568445849998]
      },
      {
        "species": [{ "element": "Si", "occu": 1 }],
        "abc": [0.060094999999999, 0.060094999999999, 0.749997999999999],
        "properties": { "magmom": 0.0 },
        "label": "Si",
        "xyz": [0.0, 4.382810562319928, 2.9017310120299964]
      },
      {
        "species": [{ "element": "Si", "occu": 1 }],
        "abc": [0.370801, 0.370801, 0.258741],
        "properties": { "magmom": -0.001 },
        "label": "Si",
        "xyz": [0.0, 26.923621289014, 1.001065047885]
      },
      {
        "species": [{ "element": "Si", "occu": 1 }],
        "abc": [0.704054, 0.704054, 0.258688],
        "properties": { "magmom": -0.001 },
        "label": "Si",
        "xyz": [0.0, 51.11454975437599, 1.0008599916799998]
      },
      {
        "species": [{ "element": "Si", "occu": 1 }],
        "abc": [0.040040000000000006, 0.040040000000000006, 0.251806],
        "properties": { "magmom": -0.0 },
        "label": "Si",
        "xyz": [0.0, 2.9133968293400003, 0.9742336369099999]
      },
      {
        "species": [{ "element": "Si", "occu": 1 }],
        "abc": [0.959785, 0.959785, 0.748455],
        "properties": { "magmom": -0.0 },
        "label": "Si",
        "xyz": [0.0, 69.69152100408999, 2.895761168175]
      },
      {
        "species": [{ "element": "Si", "occu": 1 }],
        "abc": [0.296655, 0.296655, 0.7475900000000001],
        "properties": { "magmom": -0.0 },
        "label": "Si",
        "xyz": [0.0, 21.554702334719998, 2.8924144961500002]
      },
      {
        "species": [{ "element": "Si", "occu": 1 }],
        "abc": [0.630143999999999, 0.630143999999999, 0.747466],
        "properties": { "magmom": 0.0 },
        "label": "Si",
        "xyz": [0.0, 45.76276016667593, 2.8919347420099997]
      },
      {
        "species": [{ "element": "Si", "occu": 1 }],
        "abc": [0.338474, 0.338474, 0.303137999999999],
        "properties": { "magmom": -0.003 },
        "label": "Si",
        "xyz": [0.0, 24.578208548156, 1.1728363749299962]
      },
      {
        "species": [{ "element": "Si", "occu": 1 }],
        "abc": [0.671646, 0.671646, 0.304492],
        "properties": { "magmom": -0.001 },
        "label": "Si",
        "xyz": [0.0, 48.763295653823995, 1.17807498062]
      },
      {
        "species": [{ "element": "Si", "occu": 1 }],
        "abc": [0.008393, 0.008393, 0.249230999999999],
        "properties": { "magmom": -0.0 },
        "label": "Si",
        "xyz": [0.0, 0.6160617368419999, 0.9642710005349961]
      },
      {
        "species": [{ "element": "Si", "occu": 1 }],
        "abc": [0.991459, 0.991459, 0.751285],
        "properties": { "magmom": -0.0 },
        "label": "Si",
        "xyz": [0.0, 71.99082300340599, 2.906710395725]
      }
    ]
  },
  "task_ids": null,
  "uncorrected_energy_per_atom": null,
  "energy_per_atom": -19.39207063632653,
  "formation_energy_per_atom": -0.286486332755097,
  "energy_above_hull": 0.5040976156122451,
  "is_stable": false,
  "equilibrium_reaction_energy_per_atom": null,
  "decomposes_to": null,
  "xas": null,
  "grain_boundaries": null,
  "band_gap": 0.0,
  "cbm": null,
  "vbm": null,
  "efermi": 5.80565438,
  "is_gap_direct": null,
  "is_metal": null,
  "es_source_calc_id": null,
  "bandstructure": null,
  "dos": null,
  "dos_energy_up": null,
  "dos_energy_down": null,
  "is_magnetic": null,
  "ordering": null,
  "total_magnetization": 0.0357482,
  "total_magnetization_normalized_vol": null,
  "total_magnetization_normalized_formula_units": null,
  "num_magnetic_sites": null,
  "num_unique_magnetic_sites": null,
  "types_of_magnetic_species": null,
  "bulk_modulus": null,
  "shear_modulus": null,
  "universal_anisotropy": null,
  "homogeneous_poisson": null,
  "e_total": null,
  "e_ionic": null,
  "e_electronic": null,
  "n": null,
  "e_ij_max": null,
  "weighted_surface_energy_EV_PER_ANG2": null,
  "weighted_surface_energy": null,
  "weighted_work_function": null,
  "surface_anisotropy": null,
  "shape_factor": null,
  "has_reconstructed": null,
  "possible_species": null,
  "has_props": null,
  "theoretical": null,
  "database_IDs": null,
  "fields_not_requested": [
    "builder_meta",
    "nsites",
    "elements",
    "nelements",
    "composition",
    "composition_reduced",
    "chemsys",
    "symmetry",
    "property_name",
    "deprecated",
    "deprecation_reasons",
    "last_updated",
    "origins",
    "warnings",
    "task_ids",
    "uncorrected_energy_per_atom",
    "equilibrium_reaction_energy_per_atom",
    "decomposes_to",
    "xas",
    "grain_boundaries",
    "cbm",
    "vbm",
    "is_gap_direct",
    "is_metal",
    "es_source_calc_id",
    "bandstructure",
    "dos",
    "dos_energy_up",
    "dos_energy_down",
    "is_magnetic",
    "ordering",
    "total_magnetization_normalized_vol",
    "total_magnetization_normalized_formula_units",
    "num_magnetic_sites",
    "num_unique_magnetic_sites",
    "types_of_magnetic_species",
    "bulk_modulus",
    "shear_modulus",
    "universal_anisotropy",
    "homogeneous_poisson",
    "e_total",
    "e_ionic",
    "e_electronic",
    "n",
    "e_ij_max",
    "weighted_surface_energy_EV_PER_ANG2",
    "weighted_surface_energy",
    "weighted_work_function",
    "surface_anisotropy",
    "shape_factor",
    "has_reconstructed",
    "possible_species",
    "has_props",
    "theoretical",
    "database_IDs"
  ]
}
