{"builder_meta": null, "nsites": null, "elements": null, "nelements": null, "composition": null, "composition_reduced": null, "formula_pretty": "Ho3Si", "formula_anonymous": "AB3", "chemsys": null, "volume": 196.54899380916103, "density": 8.835016369288002, "density_atomic": 24.56862422614513, "symmetry": null, "property_name": null, "material_id": "mp-1184706", "deprecated": null, "deprecation_reasons": null, "last_updated": null, "origins": null, "warnings": null, "structure": {"@module": "pymatgen.core.structure", "@class": "Structure", "charge": 0, "lattice": {"matrix": [[6.620681, 0.0, 0.0], [-3.310341, 5.733679, 0.0], [0.0, 0.0, 5.177675]], "pbc": [true, true, true], "a": 6.620681, "b": 6.620682171145358, "c": 5.177675, "alpha": 90.0, "beta": 90.0, "gamma": 119.99999914488527, "volume": 196.54899380916103}, "properties": {}, "sites": [{"species": [{"element": "Ho", "occu": 1}], "abc": [0.174844, 0.34968899999999903, 0.250001], "properties": {"magmom": 0.001}, "label": "Ho", "xyz": [-3.4851849968209336e-06, 2.0050044758309946, 1.2944239276749998]}, {"species": [{"element": "Ho", "occu": 1}], "abc": [0.650311, 0.825156999999999, 0.250001], "properties": {"magmom": 0.001}, "label": "Ho", "xyz": [1.573950633254003, 4.731185362602995, 1.2944239276749998]}, {"species": [{"element": "Ho", "occu": 1}], "abc": [0.174846, 0.825156999999999, 0.250001], "properties": {"magmom": 0.001}, "label": "Ho", "xyz": [-1.573951458410997, 4.731185362602995, 1.2944239276749998]}, {"species": [{"element": "Ho", "occu": 1}], "abc": [0.825153999999999, 0.650309, 0.75], "properties": {"magmom": 0.001}, "label": "Ho", "xyz": [3.3103368645049938, 3.7286630568110004, 3.8832562499999996]}, {"species": [{"element": "Ho", "occu": 1}], "abc": [0.825156, 0.174844, 0.75], "properties": {"magmom": 0.001}, "label": "Ho", "xyz": [4.884301389432, 1.0024993710760002, 3.8832562499999996]}, {"species": [{"element": "Ho", "occu": 1}], "abc": [0.34968899999999903, 0.174844, 0.75], "properties": {"magmom": 0.001}, "label": "Ho", "xyz": [1.7363860564049935, 1.0024993710760002, 3.8832562499999996]}, {"species": [{"element": "Si", "occu": 1}], "abc": [0.333333, 0.666667, 0.75], "properties": {"magmom": -0.0}, "label": "Si", "xyz": [-3.6436740002976364e-06, 3.822454577893, 3.8832562499999996]}, {"species": [{"element": "Si", "occu": 1}], "abc": [0.666667, 0.333333, 0.250001], "properties": {"magmom": -0.0}, "label": "Si", "xyz": [3.3103436436740004, 1.911224422107, 1.2944239276749998]}]}, "task_ids": null, "uncorrected_energy_per_atom": null, "energy_per_atom": -27.153944868333333, "formation_energy_per_atom": -0.29949578333333005, "energy_above_hull": 0.22102019249999902, "is_stable": false, "equilibrium_reaction_energy_per_atom": null, "decomposes_to": null, "xas": null, "grain_boundaries": null, "band_gap": 0.0, "cbm": null, "vbm": null, "efermi": 4.50702645, "is_gap_direct": null, "is_metal": null, "es_source_calc_id": null, "bandstructure": null, "dos": null, "dos_energy_up": null, "dos_energy_down": null, "is_magnetic": null, "ordering": null, "total_magnetization": 0.0081522, "total_magnetization_normalized_vol": null, "total_magnetization_normalized_formula_units": null, "num_magnetic_sites": null, "num_unique_magnetic_sites": null, "types_of_magnetic_species": null, "bulk_modulus": null, "shear_modulus": null, "universal_anisotropy": null, "homogeneous_poisson": null, "e_total": null, "e_ionic": null, "e_electronic": null, "n": null, "e_ij_max": null, "weighted_surface_energy_EV_PER_ANG2": null, "weighted_surface_energy": null, "weighted_work_function": null, "surface_anisotropy": null, "shape_factor": null, "has_reconstructed": null, "possible_species": null, "has_props": null, "theoretical": null, "database_IDs": null, "fields_not_requested": ["builder_meta", "nsites", "elements", "nelements", "composition", "composition_reduced", "chemsys", "symmetry", "property_name", "deprecated", "deprecation_reasons", "last_updated", "origins", "warnings", "task_ids", "uncorrected_energy_per_atom", "equilibrium_reaction_energy_per_atom", "decomposes_to", "xas", "grain_boundaries", "cbm", "vbm", "is_gap_direct", "is_metal", "es_source_calc_id", "bandstructure", "dos", "dos_energy_up", "dos_energy_down", "is_magnetic", "ordering", "total_magnetization_normalized_vol", "total_magnetization_normalized_formula_units", "num_magnetic_sites", "num_unique_magnetic_sites", "types_of_magnetic_species", "bulk_modulus", "shear_modulus", "universal_anisotropy", "homogeneous_poisson", "e_total", "e_ionic", "e_electronic", "n", "e_ij_max", "weighted_surface_energy_EV_PER_ANG2", "weighted_surface_energy", "weighted_work_function", "surface_anisotropy", "shape_factor", "has_reconstructed", "possible_species", "has_props", "theoretical", "database_IDs"]}