{"builder_meta": null, "nsites": null, "elements": null, "nelements": null, "composition": null, "composition_reduced": null, "formula_pretty": "Ho3Sc", "formula_anonymous": "AB3", "chemsys": null, "volume": 236.89942387441812, "density": 7.566677473274636, "density_atomic": 29.612427984302265, "symmetry": null, "property_name": null, "material_id": "mp-1184707", "deprecated": null, "deprecation_reasons": null, "last_updated": null, "origins": null, "warnings": null, "structure": {"@module": "pymatgen.core.structure", "@class": "Structure", "charge": 0, "lattice": {"matrix": [[3.5372920800000003, -6.12677075, 0.0], [3.5372920800000003, 6.12677075, -0.0], [0.0, 0.0, 5.46551961]], "pbc": [true, true, true], "a": 7.074585152663461, "b": 7.074585152663461, "c": 5.46551961, "alpha": 90.0, "beta": 90.0, "gamma": 120.00000928310044, "volume": 236.89942387441812}, "properties": {}, "sites": [{"species": [{"element": "Ho", "occu": 1}], "abc": [0.16914133, 0.33828365, 0.25], "properties": {"magmom": 0.0}, "label": "Ho", "xyz": [1.7949103629481584, 1.0362962187631397, 1.3663799025]}, {"species": [{"element": "Ho", "occu": 1}], "abc": [0.6617163500000001, 0.83085867, 0.25], "properties": {"magmom": 0.0}, "label": "Ho", "xyz": [5.279673797051842, 1.0362962187631402, 1.3663799025]}, {"species": [{"element": "Ho", "occu": 1}], "abc": [0.16914133, 0.83085867, 0.25], "properties": {"magmom": 0.0}, "label": "Ho", "xyz": [3.5372920800000003, 4.054190443479806, 1.3663799025]}, {"species": [{"element": "Ho", "occu": 1}], "abc": [0.83085867, 0.6617163500000001, 0.75], "properties": {"magmom": 0.0}, "label": "Ho", "xyz": [5.279673797051842, -1.0362962187631402, 4.0991397075]}, {"species": [{"element": "Ho", "occu": 1}], "abc": [0.33828365, 0.16914133, 0.75], "properties": {"magmom": 0.0}, "label": "Ho", "xyz": [1.7949103629481584, -1.0362962187631397, 4.0991397075]}, {"species": [{"element": "Ho", "occu": 1}], "abc": [0.83085867, 0.16914133, 0.75], "properties": {"magmom": 0.0}, "label": "Ho", "xyz": [3.5372920800000003, -4.054190443479806, 4.0991397075]}, {"species": [{"element": "Sc", "occu": 1}], "abc": [0.333333, 0.666667, 0.75], "properties": {"magmom": 0.0}, "label": "Sc", "xyz": [3.5372920800000003, 2.0422610011805005, 4.0991397075]}, {"species": [{"element": "Sc", "occu": 1}], "abc": [0.666667, 0.333333, 0.25], "properties": {"magmom": 0.0}, "label": "Sc", "xyz": [3.5372920800000003, -2.0422610011805005, 1.3663799025]}]}, "task_ids": null, "uncorrected_energy_per_atom": null, "energy_per_atom": -27.48630067125, "formation_energy_per_atom": 0.024329103750002003, "energy_above_hull": 0.024329103750002003, "is_stable": false, "equilibrium_reaction_energy_per_atom": null, "decomposes_to": null, "xas": null, "grain_boundaries": null, "band_gap": 0.0, "cbm": null, "vbm": null, "efermi": 3.17663017, "is_gap_direct": null, "is_metal": null, "es_source_calc_id": null, "bandstructure": null, "dos": null, "dos_energy_up": null, "dos_energy_down": null, "is_magnetic": null, "ordering": null, "total_magnetization": 8.49e-05, "total_magnetization_normalized_vol": null, "total_magnetization_normalized_formula_units": null, "num_magnetic_sites": null, "num_unique_magnetic_sites": null, "types_of_magnetic_species": null, "bulk_modulus": null, "shear_modulus": null, "universal_anisotropy": null, "homogeneous_poisson": null, "e_total": null, "e_ionic": null, "e_electronic": null, "n": null, "e_ij_max": null, "weighted_surface_energy_EV_PER_ANG2": null, "weighted_surface_energy": null, "weighted_work_function": null, "surface_anisotropy": null, "shape_factor": null, "has_reconstructed": null, "possible_species": null, "has_props": null, "theoretical": null, "database_IDs": null, "fields_not_requested": ["builder_meta", "nsites", "elements", "nelements", "composition", "composition_reduced", "chemsys", "symmetry", "property_name", "deprecated", "deprecation_reasons", "last_updated", "origins", "warnings", "task_ids", "uncorrected_energy_per_atom", "equilibrium_reaction_energy_per_atom", "decomposes_to", "xas", "grain_boundaries", "cbm", "vbm", "is_gap_direct", "is_metal", "es_source_calc_id", "bandstructure", "dos", "dos_energy_up", "dos_energy_down", "is_magnetic", "ordering", "total_magnetization_normalized_vol", "total_magnetization_normalized_formula_units", "num_magnetic_sites", "num_unique_magnetic_sites", "types_of_magnetic_species", "bulk_modulus", "shear_modulus", "universal_anisotropy", "homogeneous_poisson", "e_total", "e_ionic", "e_electronic", "n", "e_ij_max", "weighted_surface_energy_EV_PER_ANG2", "weighted_surface_energy", "weighted_work_function", "surface_anisotropy", "shape_factor", "has_reconstructed", "possible_species", "has_props", "theoretical", "database_IDs"]}