{
  "builder_meta": null,
  "nsites": null,
  "elements": null,
  "nelements": null,
  "composition": null,
  "composition_reduced": null,
  "formula_pretty": "Ho3Th",
  "formula_anonymous": "AB3",
  "chemsys": null,
  "volume": 254.66775311300245,
  "density": 9.47845157225735,
  "density_atomic": 31.833469139125306,
  "symmetry": null,
  "property_name": null,
  "material_id": "mp-1184722",
  "deprecated": null,
  "deprecation_reasons": null,
  "last_updated": null,
  "origins": null,
  "warnings": null,
  "structure": {
    "@module": "pymatgen.core.structure",
    "@class": "Structure",
    "charge": 0,
    "lattice": {
      "matrix": [
        [3.581580879999999, -6.20348028, -0.0],
        [3.581580879999999, 6.20348028, 0.0],
        [0.0, -0.0, 5.73104465]
      ],
      "pbc": [true, true, true],
      "a": 7.163161954355803,
      "b": 7.163161954355803,
      "c": 5.73104465,
      "alpha": 90.0,
      "beta": 90.0,
      "gamma": 120.00000179508386,
      "volume": 254.66775311300236
    },
    "properties": {},
    "sites": [
      {
        "species": [{ "element": "Ho", "occu": 1 }],
        "abc": [0.16762866, 0.33525933, 0.25],
        "properties": { "magmom": -0.0 },
        "label": "Ho",
        "xyz": [1.8011340097656308, 1.0398935556681874, 1.4327611625]
      },
      {
        "species": [{ "element": "Ho", "occu": 1 }],
        "abc": [0.66474067, 0.83237134, 0.25],
        "properties": { "magmom": -0.0 },
        "label": "Ho",
        "xyz": [5.362027750234367, 1.0398935556681872, 1.4327611625]
      },
      {
        "species": [{ "element": "Ho", "occu": 1 }],
        "abc": [0.16762866, 0.83237134, 0.25],
        "properties": { "magmom": -0.0 },
        "label": "Ho",
        "xyz": [3.581580879999999, 4.1237181066543505, 1.4327611625]
      },
      {
        "species": [{ "element": "Ho", "occu": 1 }],
        "abc": [0.83237134, 0.66474067, 0.75],
        "properties": { "magmom": -0.0 },
        "label": "Ho",
        "xyz": [5.362027750234367, -1.0398935556681872, 4.2982834875]
      },
      {
        "species": [{ "element": "Ho", "occu": 1 }],
        "abc": [0.33525933, 0.16762866, 0.75],
        "properties": { "magmom": -0.0 },
        "label": "Ho",
        "xyz": [1.8011340097656308, -1.0398935556681874, 4.2982834875]
      },
      {
        "species": [{ "element": "Ho", "occu": 1 }],
        "abc": [0.83237134, 0.16762866, 0.75],
        "properties": { "magmom": -0.0 },
        "label": "Ho",
        "xyz": [3.581580879999999, -4.1237181066543505, 4.2982834875]
      },
      {
        "species": [{ "element": "Th", "occu": 1 }],
        "abc": [0.333333, 0.666667, 0.75],
        "properties": { "magmom": 0.0 },
        "label": "Th",
        "xyz": [3.581580879999999, 2.0678308956535205, 4.2982834875]
      },
      {
        "species": [{ "element": "Th", "occu": 1 }],
        "abc": [0.666667, 0.333333, 0.25],
        "properties": { "magmom": 0.0 },
        "label": "Th",
        "xyz": [3.581580879999999, -2.0678308956535205, 1.4327611625]
      }
    ]
  },
  "task_ids": null,
  "uncorrected_energy_per_atom": null,
  "energy_per_atom": -42.98694580375,
  "formation_energy_per_atom": 0.042877670000002005,
  "energy_above_hull": 0.042877670000002005,
  "is_stable": false,
  "equilibrium_reaction_energy_per_atom": null,
  "decomposes_to": null,
  "xas": null,
  "grain_boundaries": null,
  "band_gap": 0.0,
  "cbm": null,
  "vbm": null,
  "efermi": 4.1058381,
  "is_gap_direct": null,
  "is_metal": null,
  "es_source_calc_id": null,
  "bandstructure": null,
  "dos": null,
  "dos_energy_up": null,
  "dos_energy_down": null,
  "is_magnetic": null,
  "ordering": null,
  "total_magnetization": 5.9000000000000025e-5,
  "total_magnetization_normalized_vol": null,
  "total_magnetization_normalized_formula_units": null,
  "num_magnetic_sites": null,
  "num_unique_magnetic_sites": null,
  "types_of_magnetic_species": null,
  "bulk_modulus": null,
  "shear_modulus": null,
  "universal_anisotropy": null,
  "homogeneous_poisson": null,
  "e_total": null,
  "e_ionic": null,
  "e_electronic": null,
  "n": null,
  "e_ij_max": null,
  "weighted_surface_energy_EV_PER_ANG2": null,
  "weighted_surface_energy": null,
  "weighted_work_function": null,
  "surface_anisotropy": null,
  "shape_factor": null,
  "has_reconstructed": null,
  "possible_species": null,
  "has_props": null,
  "theoretical": null,
  "database_IDs": null,
  "fields_not_requested": [
    "builder_meta",
    "nsites",
    "elements",
    "nelements",
    "composition",
    "composition_reduced",
    "chemsys",
    "symmetry",
    "property_name",
    "deprecated",
    "deprecation_reasons",
    "last_updated",
    "origins",
    "warnings",
    "task_ids",
    "uncorrected_energy_per_atom",
    "equilibrium_reaction_energy_per_atom",
    "decomposes_to",
    "xas",
    "grain_boundaries",
    "cbm",
    "vbm",
    "is_gap_direct",
    "is_metal",
    "es_source_calc_id",
    "bandstructure",
    "dos",
    "dos_energy_up",
    "dos_energy_down",
    "is_magnetic",
    "ordering",
    "total_magnetization_normalized_vol",
    "total_magnetization_normalized_formula_units",
    "num_magnetic_sites",
    "num_unique_magnetic_sites",
    "types_of_magnetic_species",
    "bulk_modulus",
    "shear_modulus",
    "universal_anisotropy",
    "homogeneous_poisson",
    "e_total",
    "e_ionic",
    "e_electronic",
    "n",
    "e_ij_max",
    "weighted_surface_energy_EV_PER_ANG2",
    "weighted_surface_energy",
    "weighted_work_function",
    "surface_anisotropy",
    "shape_factor",
    "has_reconstructed",
    "possible_species",
    "has_props",
    "theoretical",
    "database_IDs"
  ]
}
