{"builder_meta": null, "nsites": null, "elements": null, "nelements": null, "composition": null, "composition_reduced": null, "formula_pretty": "Ho3Tm", "formula_anonymous": "AB3", "chemsys": null, "volume": 248.45256597258503, "density": 8.872048231470789, "density_atomic": 31.05657074657313, "symmetry": null, "property_name": null, "material_id": "mp-982619", "deprecated": null, "deprecation_reasons": null, "last_updated": null, "origins": null, "warnings": null, "structure": {"@module": "pymatgen.core.structure", "@class": "Structure", "charge": 0, "lattice": {"matrix": [[7.19903045, -1.08e-06, -0.0], [-3.59951732, 6.23454167, 0.0], [0.0, -0.0, 5.53560358]], "pbc": [true, true, true], "a": 7.199030450000081, "b": 7.199030127173129, "c": 5.53560358, "alpha": 90.0, "beta": 90.0, "gamma": 120.00002933208532, "volume": 248.45256597258503}, "properties": {}, "sites": [{"species": [{"element": "Ho", "occu": 1}], "abc": [0.16687119, 0.33374238, 0.250001], "properties": {"magmom": 0.0}, "label": "Ho", "xyz": [-6.991902858910493e-07, 2.080730594934089, 1.3839064306035798]}, {"species": [{"element": "Ho", "occu": 1}], "abc": [0.66625862, 0.83312881, 0.250001], "properties": {"magmom": 0.0}, "label": "Ho", "xyz": [1.7975545115689902, 5.194175562863203, 1.3839064306035798]}, {"species": [{"element": "Ho", "occu": 1}], "abc": [0.16687019, 0.83312881, 0.250001], "properties": {"magmom": 0.0}, "label": "Ho", "xyz": [-1.7975580023787037, 5.194176102202707, 1.3839064306035798]}, {"species": [{"element": "Ho", "occu": 1}], "abc": [0.83312881, 0.66625762, 0.750000999999999], "properties": {"magmom": 0.0}, "label": "Ho", "xyz": [3.599513829190287, 4.1538099950659095, 4.151708220603575]}, {"species": [{"element": "Ho", "occu": 1}], "abc": [0.33374138000000003, 0.16687119, 0.750000999999999], "properties": {"magmom": 0.0}, "label": "Ho", "xyz": [1.8019586184310106, 1.0403650271367968, 4.151708220603575]}, {"species": [{"element": "Ho", "occu": 1}], "abc": [0.83312881, 0.16687119, 0.750000999999999], "properties": {"magmom": 0.0}, "label": "Ho", "xyz": [5.397063933348255, 1.0403644877983724, 4.151708220603575]}, {"species": [{"element": "Tm", "occu": 1}], "abc": [0.333333999999999, 0.666667, 0.750000999999999], "properties": {"magmom": -0.0}, "label": "Tm", "xyz": [2.2028478530167206e-06, 4.15636283151317, 4.151708220603575]}, {"species": [{"element": "Tm", "occu": 1}], "abc": [0.666667, 0.333333, 0.250001], "properties": {"magmom": -0.0}, "label": "Tm", "xyz": [3.5995181261825904, 2.0781777584857495, 1.3839064306035798]}]}, "task_ids": null, "uncorrected_energy_per_atom": null, "energy_per_atom": -33.43891921, "formation_energy_per_atom": 0.002350798750001, "energy_above_hull": 0.008873038333341, "is_stable": false, "equilibrium_reaction_energy_per_atom": null, "decomposes_to": null, "xas": null, "grain_boundaries": null, "band_gap": 0.0, "cbm": null, "vbm": null, "efermi": 3.008426, "is_gap_direct": null, "is_metal": null, "es_source_calc_id": null, "bandstructure": null, "dos": null, "dos_energy_up": null, "dos_energy_down": null, "is_magnetic": null, "ordering": null, "total_magnetization": 3e-07, "total_magnetization_normalized_vol": null, "total_magnetization_normalized_formula_units": null, "num_magnetic_sites": null, "num_unique_magnetic_sites": null, "types_of_magnetic_species": null, "bulk_modulus": null, "shear_modulus": null, "universal_anisotropy": null, "homogeneous_poisson": null, "e_total": null, "e_ionic": null, "e_electronic": null, "n": null, "e_ij_max": null, "weighted_surface_energy_EV_PER_ANG2": null, "weighted_surface_energy": null, "weighted_work_function": null, "surface_anisotropy": null, "shape_factor": null, "has_reconstructed": null, "possible_species": null, "has_props": null, "theoretical": null, "database_IDs": null, "fields_not_requested": ["builder_meta", "nsites", "elements", "nelements", "composition", "composition_reduced", "chemsys", "symmetry", "property_name", "deprecated", "deprecation_reasons", "last_updated", "origins", "warnings", "task_ids", "uncorrected_energy_per_atom", "equilibrium_reaction_energy_per_atom", "decomposes_to", "xas", "grain_boundaries", "cbm", "vbm", "is_gap_direct", "is_metal", "es_source_calc_id", "bandstructure", "dos", "dos_energy_up", "dos_energy_down", "is_magnetic", "ordering", "total_magnetization_normalized_vol", "total_magnetization_normalized_formula_units", "num_magnetic_sites", "num_unique_magnetic_sites", "types_of_magnetic_species", "bulk_modulus", "shear_modulus", "universal_anisotropy", "homogeneous_poisson", "e_total", "e_ionic", "e_electronic", "n", "e_ij_max", "weighted_surface_energy_EV_PER_ANG2", "weighted_surface_energy", "weighted_work_function", "surface_anisotropy", "shape_factor", "has_reconstructed", "possible_species", "has_props", "theoretical", "database_IDs"]}