{"builder_meta": null, "nsites": null, "elements": null, "nelements": null, "composition": null, "composition_reduced": null, "formula_pretty": "Ho3Tl5", "formula_anonymous": "A3B5", "chemsys": null, "volume": 431.5808313508794, "density": 11.67128754097074, "density_atomic": 26.973801959429963, "symmetry": null, "property_name": null, "material_id": "mp-1188242", "deprecated": null, "deprecation_reasons": null, "last_updated": null, "origins": null, "warnings": null, "structure": {"@module": "pymatgen.core.structure", "@class": "Structure", "charge": 0, "lattice": {"matrix": [[5.144004, 3.959832999999999, 0.0], [-5.144004, 3.959832999999999, 0.0], [0.0, 0.0, 10.593854]], "pbc": [true, true, true], "a": 6.4916141705977095, "b": 6.4916141705977095, "c": 10.593854, "alpha": 90.0, "beta": 90.0, "gamma": 104.8221445353221, "volume": 431.58083135087924}, "properties": {}, "sites": [{"species": [{"element": "Ho", "occu": 1}], "abc": [0.613346, 0.613346, 0.25], "properties": {"magmom": 0.004}, "label": "Ho", "xyz": [0.0, 4.857495462435998, 2.6484635]}, {"species": [{"element": "Ho", "occu": 1}], "abc": [0.386654, 0.386654, 0.75], "properties": {"magmom": 0.004}, "label": "Ho", "xyz": [0.0, 3.062170537563999, 7.9453905]}, {"species": [{"element": "Ho", "occu": 1}], "abc": [0.792925999999999, 0.207073999999999, 0.5], "properties": {"magmom": 0.003}, "label": "Ho", "xyz": [3.013625031408, 3.959832999999991, 5.296927]}, {"species": [{"element": "Ho", "occu": 1}], "abc": [0.792925999999999, 0.207073999999999, 0.0], "properties": {"magmom": 0.003}, "label": "Ho", "xyz": [3.013625031408, 3.959832999999991, 0.0]}, {"species": [{"element": "Ho", "occu": 1}], "abc": [0.207073999999999, 0.792925999999999, 0.5], "properties": {"magmom": 0.003}, "label": "Ho", "xyz": [-3.013625031408, 3.959832999999991, 5.296927]}, {"species": [{"element": "Ho", "occu": 1}], "abc": [0.207073999999999, 0.792925999999999, 0.0], "properties": {"magmom": 0.003}, "label": "Ho", "xyz": [-3.013625031408, 3.959832999999991, 0.0]}, {"species": [{"element": "Tl", "occu": 1}], "abc": [0.999686, 0.999686, 0.25], "properties": {"magmom": 0.001}, "label": "Tl", "xyz": [0.0, 7.917179224875998, 2.6484635]}, {"species": [{"element": "Tl", "occu": 1}], "abc": [0.000314, 0.000314, 0.75], "properties": {"magmom": 0.001}, "label": "Tl", "xyz": [0.0, 0.002486775123999999, 7.9453905]}, {"species": [{"element": "Tl", "occu": 1}], "abc": [0.299761, 0.299761, 0.042571], "properties": {"magmom": -0.0}, "label": "Tl", "xyz": [0.0, 2.3740069998259994, 0.450990958634]}, {"species": [{"element": "Tl", "occu": 1}], "abc": [0.700239, 0.700239, 0.957429], "properties": {"magmom": -0.0}, "label": "Tl", "xyz": [0.0, 5.545659000173998, 10.142863041366]}, {"species": [{"element": "Tl", "occu": 1}], "abc": [0.299761, 0.299761, 0.457429], "properties": {"magmom": -0.0}, "label": "Tl", "xyz": [0.0, 2.3740069998259994, 4.8459360413659995]}, {"species": [{"element": "Tl", "occu": 1}], "abc": [0.700239, 0.700239, 0.542571], "properties": {"magmom": -0.0}, "label": "Tl", "xyz": [0.0, 5.545659000173998, 5.747917958634001]}, {"species": [{"element": "Tl", "occu": 1}], "abc": [0.058830999999999, 0.514809, 0.25], "properties": {"magmom": -0.0}, "label": "Tl", "xyz": [-2.345552655912005, 2.271518602119995, 2.6484635]}, {"species": [{"element": "Tl", "occu": 1}], "abc": [0.485191, 0.941168999999999, 0.75], "properties": {"magmom": -0.0}, "label": "Tl", "xyz": [-2.3455526559119955, 5.6481473978799945, 7.9453905]}, {"species": [{"element": "Tl", "occu": 1}], "abc": [0.941168999999999, 0.485191, 0.75], "properties": {"magmom": -0.0}, "label": "Tl", "xyz": [2.3455526559119955, 5.6481473978799945, 7.9453905]}, {"species": [{"element": "Tl", "occu": 1}], "abc": [0.514809, 0.058830999999999, 0.25], "properties": {"magmom": -0.0}, "label": "Tl", "xyz": [2.345552655912005, 2.271518602119995, 2.6484635]}]}, "task_ids": null, "uncorrected_energy_per_atom": null, "energy_per_atom": -45.913880704374996, "formation_energy_per_atom": -0.34631137374999804, "energy_above_hull": 0.004081896875, "is_stable": false, "equilibrium_reaction_energy_per_atom": null, "decomposes_to": null, "xas": null, "grain_boundaries": null, "band_gap": 0.0, "cbm": null, "vbm": null, "efermi": 6.02889065, "is_gap_direct": null, "is_metal": null, "es_source_calc_id": null, "bandstructure": null, "dos": null, "dos_energy_up": null, "dos_energy_down": null, "is_magnetic": null, "ordering": null, "total_magnetization": 0.150882699999999, "total_magnetization_normalized_vol": null, "total_magnetization_normalized_formula_units": null, "num_magnetic_sites": null, "num_unique_magnetic_sites": null, "types_of_magnetic_species": null, "bulk_modulus": null, "shear_modulus": null, "universal_anisotropy": null, "homogeneous_poisson": null, "e_total": null, "e_ionic": null, "e_electronic": null, "n": null, "e_ij_max": null, "weighted_surface_energy_EV_PER_ANG2": null, "weighted_surface_energy": null, "weighted_work_function": null, "surface_anisotropy": null, "shape_factor": null, "has_reconstructed": null, "possible_species": null, "has_props": null, "theoretical": null, "database_IDs": null, "fields_not_requested": ["builder_meta", "nsites", "elements", "nelements", "composition", "composition_reduced", "chemsys", "symmetry", "property_name", "deprecated", "deprecation_reasons", "last_updated", "origins", "warnings", "task_ids", "uncorrected_energy_per_atom", "equilibrium_reaction_energy_per_atom", "decomposes_to", "xas", "grain_boundaries", "cbm", "vbm", "is_gap_direct", "is_metal", "es_source_calc_id", "bandstructure", "dos", "dos_energy_up", "dos_energy_down", "is_magnetic", "ordering", "total_magnetization_normalized_vol", "total_magnetization_normalized_formula_units", "num_magnetic_sites", "num_unique_magnetic_sites", "types_of_magnetic_species", "bulk_modulus", "shear_modulus", "universal_anisotropy", "homogeneous_poisson", "e_total", "e_ionic", "e_electronic", "n", "e_ij_max", "weighted_surface_energy_EV_PER_ANG2", "weighted_surface_energy", "weighted_work_function", "surface_anisotropy", "shape_factor", "has_reconstructed", "possible_species", "has_props", "theoretical", "database_IDs"]}