{
  "builder_meta": null,
  "nsites": null,
  "elements": null,
  "nelements": null,
  "composition": null,
  "composition_reduced": null,
  "formula_pretty": "Ho4Al",
  "formula_anonymous": "AB4",
  "chemsys": null,
  "volume": 342.625888849137,
  "density": 6.656221228698347,
  "density_atomic": 34.262588884913704,
  "symmetry": null,
  "property_name": null,
  "material_id": "mp-1212293",
  "deprecated": null,
  "deprecation_reasons": null,
  "last_updated": null,
  "origins": null,
  "warnings": null,
  "structure": {
    "@module": "pymatgen.core.structure",
    "@class": "Structure",
    "charge": 0,
    "lattice": {
      "matrix": [
        [-5.553883, -5.553883, 0.0],
        [-5.553883, 0.0, -5.553883],
        [0.0, -5.553883, -5.553883]
      ],
      "pbc": [true, true, true],
      "a": 7.854376662433372,
      "b": 7.854376662433372,
      "c": 7.854376662433372,
      "alpha": 60.00000000000001,
      "beta": 60.00000000000001,
      "gamma": 60.00000000000001,
      "volume": 342.625888849137
    },
    "properties": {},
    "sites": [
      {
        "species": [{ "element": "Ho", "occu": 1 }],
        "abc": [0.606368, 0.606368, 0.606368],
        "properties": { "magmom": 0.001 },
        "label": "Ho",
        "xyz": [-6.7353938538880005, -6.7353938538880005, -6.7353938538880005]
      },
      {
        "species": [{ "element": "Ho", "occu": 1 }],
        "abc": [0.180897, 0.606368, 0.606368],
        "properties": { "magmom": 0.001 },
        "label": "Ho",
        "xyz": [-4.372377699995, -4.372377699995, -6.7353938538880005]
      },
      {
        "species": [{ "element": "Ho", "occu": 1 }],
        "abc": [0.606368, 0.180897, 0.606368],
        "properties": { "magmom": 0.001 },
        "label": "Ho",
        "xyz": [-4.372377699995, -6.7353938538880005, -4.372377699995]
      },
      {
        "species": [{ "element": "Ho", "occu": 1 }],
        "abc": [0.569103, 0.143631999999999, 0.143631999999999],
        "properties": { "magmom": 0.001 },
        "label": "Ho",
        "xyz": [-3.9584468000049946, -3.9584468000049946, -1.595430646111989]
      },
      {
        "species": [{ "element": "Ho", "occu": 1 }],
        "abc": [0.143631999999999, 0.143631999999999, 0.143631999999999],
        "properties": { "magmom": 0.001 },
        "label": "Ho",
        "xyz": [-1.595430646111989, -1.595430646111989, -1.595430646111989]
      },
      {
        "species": [{ "element": "Ho", "occu": 1 }],
        "abc": [0.606368, 0.606368, 0.180897],
        "properties": { "magmom": 0.001 },
        "label": "Ho",
        "xyz": [-6.7353938538880005, -4.372377699995, -4.372377699995]
      },
      {
        "species": [{ "element": "Ho", "occu": 1 }],
        "abc": [0.143631999999999, 0.569103, 0.143631999999999],
        "properties": { "magmom": 0.001 },
        "label": "Ho",
        "xyz": [-3.9584468000049946, -1.595430646111989, -3.9584468000049946]
      },
      {
        "species": [{ "element": "Ho", "occu": 1 }],
        "abc": [0.143631999999999, 0.143631999999999, 0.569103],
        "properties": { "magmom": 0.001 },
        "label": "Ho",
        "xyz": [-1.595430646111989, -3.9584468000049946, -3.9584468000049946]
      },
      {
        "species": [{ "element": "Al", "occu": 1 }],
        "abc": [0.0, 0.0, 0.0],
        "properties": { "magmom": 0.0 },
        "label": "Al",
        "xyz": [0.0, 0.0, 0.0]
      },
      {
        "species": [{ "element": "Al", "occu": 1 }],
        "abc": [0.75, 0.75, 0.75],
        "properties": { "magmom": 0.0 },
        "label": "Al",
        "xyz": [-8.3308245, -8.3308245, -8.3308245]
      }
    ]
  },
  "task_ids": null,
  "uncorrected_energy_per_atom": null,
  "energy_per_atom": -27.170142290499996,
  "formation_energy_per_atom": 0.481352507500008,
  "energy_above_hull": 0.688144725500002,
  "is_stable": false,
  "equilibrium_reaction_energy_per_atom": null,
  "decomposes_to": null,
  "xas": null,
  "grain_boundaries": null,
  "band_gap": 0.0,
  "cbm": null,
  "vbm": null,
  "efermi": 2.24098794,
  "is_gap_direct": null,
  "is_metal": null,
  "es_source_calc_id": null,
  "bandstructure": null,
  "dos": null,
  "dos_energy_up": null,
  "dos_energy_down": null,
  "is_magnetic": null,
  "ordering": null,
  "total_magnetization": 0.0099936,
  "total_magnetization_normalized_vol": null,
  "total_magnetization_normalized_formula_units": null,
  "num_magnetic_sites": null,
  "num_unique_magnetic_sites": null,
  "types_of_magnetic_species": null,
  "bulk_modulus": null,
  "shear_modulus": null,
  "universal_anisotropy": null,
  "homogeneous_poisson": null,
  "e_total": null,
  "e_ionic": null,
  "e_electronic": null,
  "n": null,
  "e_ij_max": null,
  "weighted_surface_energy_EV_PER_ANG2": null,
  "weighted_surface_energy": null,
  "weighted_work_function": null,
  "surface_anisotropy": null,
  "shape_factor": null,
  "has_reconstructed": null,
  "possible_species": null,
  "has_props": null,
  "theoretical": null,
  "database_IDs": null,
  "fields_not_requested": [
    "builder_meta",
    "nsites",
    "elements",
    "nelements",
    "composition",
    "composition_reduced",
    "chemsys",
    "symmetry",
    "property_name",
    "deprecated",
    "deprecation_reasons",
    "last_updated",
    "origins",
    "warnings",
    "task_ids",
    "uncorrected_energy_per_atom",
    "equilibrium_reaction_energy_per_atom",
    "decomposes_to",
    "xas",
    "grain_boundaries",
    "cbm",
    "vbm",
    "is_gap_direct",
    "is_metal",
    "es_source_calc_id",
    "bandstructure",
    "dos",
    "dos_energy_up",
    "dos_energy_down",
    "is_magnetic",
    "ordering",
    "total_magnetization_normalized_vol",
    "total_magnetization_normalized_formula_units",
    "num_magnetic_sites",
    "num_unique_magnetic_sites",
    "types_of_magnetic_species",
    "bulk_modulus",
    "shear_modulus",
    "universal_anisotropy",
    "homogeneous_poisson",
    "e_total",
    "e_ionic",
    "e_electronic",
    "n",
    "e_ij_max",
    "weighted_surface_energy_EV_PER_ANG2",
    "weighted_surface_energy",
    "weighted_work_function",
    "surface_anisotropy",
    "shape_factor",
    "has_reconstructed",
    "possible_species",
    "has_props",
    "theoretical",
    "database_IDs"
  ]
}
