{"builder_meta": null, "nsites": null, "elements": null, "nelements": null, "composition": null, "composition_reduced": null, "formula_pretty": "Ho4Co", "formula_anonymous": "AB4", "chemsys": null, "volume": 291.6758100115402, "density": 8.182741181568657, "density_atomic": 29.16758100115402, "symmetry": null, "property_name": null, "material_id": "mp-1212427", "deprecated": null, "deprecation_reasons": null, "last_updated": null, "origins": null, "warnings": null, "structure": {"@module": "pymatgen.core.structure", "@class": "Structure", "charge": 0, "lattice": {"matrix": [[0.0, 5.263688, 5.263688], [5.263688, 0.0, 5.263688], [5.263688, 5.263688, 0.0]], "pbc": [true, true, true], "a": 7.443978957700512, "b": 7.443978957700512, "c": 7.443978957700512, "alpha": 59.99999999999999, "beta": 59.99999999999999, "gamma": 59.99999999999999, "volume": 291.6758100115402}, "properties": {}, "sites": [{"species": [{"element": "Ho", "occu": 1}], "abc": [0.385063, 0.385063, 0.385063], "properties": {"magmom": -0.003}, "label": "Ho", "xyz": [4.053702984688, 4.053702984688, 4.053702984688]}, {"species": [{"element": "Ho", "occu": 1}], "abc": [0.385063, 0.385063, 0.844812], "properties": {"magmom": -0.003}, "label": "Ho", "xyz": [6.4736782790000005, 6.4736782790000005, 4.053702984688]}, {"species": [{"element": "Ho", "occu": 1}], "abc": [0.385063, 0.844812, 0.385063], "properties": {"magmom": -0.007}, "label": "Ho", "xyz": [6.4736782790000005, 4.053702984688, 6.4736782790000005]}, {"species": [{"element": "Ho", "occu": 1}], "abc": [0.864937, 0.864937, 0.405188], "properties": {"magmom": -0.003}, "label": "Ho", "xyz": [6.685541721, 6.685541721, 9.105517015312]}, {"species": [{"element": "Ho", "occu": 1}], "abc": [0.864937, 0.864937, 0.864937], "properties": {"magmom": -0.003}, "label": "Ho", "xyz": [9.105517015312, 9.105517015312, 9.105517015312]}, {"species": [{"element": "Ho", "occu": 1}], "abc": [0.844812, 0.385063, 0.385063], "properties": {"magmom": -0.002}, "label": "Ho", "xyz": [4.053702984688, 6.4736782790000005, 6.4736782790000005]}, {"species": [{"element": "Ho", "occu": 1}], "abc": [0.864937, 0.405188, 0.864937], "properties": {"magmom": -0.007}, "label": "Ho", "xyz": [6.685541721, 9.105517015312, 6.685541721]}, {"species": [{"element": "Ho", "occu": 1}], "abc": [0.405188, 0.864937, 0.864937], "properties": {"magmom": -0.002}, "label": "Ho", "xyz": [9.105517015312, 6.685541721, 6.685541721]}, {"species": [{"element": "Co", "occu": 1}], "abc": [0.0, 0.0, 0.0], "properties": {"magmom": 0.006}, "label": "Co", "xyz": [0.0, 0.0, 0.0]}, {"species": [{"element": "Co", "occu": 1}], "abc": [0.25, 0.25, 0.25], "properties": {"magmom": 0.006}, "label": "Co", "xyz": [2.631844, 2.631844, 2.631844]}]}, "task_ids": null, "uncorrected_energy_per_atom": null, "energy_per_atom": -4.787727943, "formation_energy_per_atom": 0.317098973000004, "energy_above_hull": 0.439492254500001, "is_stable": false, "equilibrium_reaction_energy_per_atom": null, "decomposes_to": null, "xas": null, "grain_boundaries": null, "band_gap": 0.0, "cbm": null, "vbm": null, "efermi": 2.79191743, "is_gap_direct": null, "is_metal": null, "es_source_calc_id": null, "bandstructure": null, "dos": null, "dos_energy_up": null, "dos_energy_down": null, "is_magnetic": null, "ordering": null, "total_magnetization": 0.025653, "total_magnetization_normalized_vol": null, "total_magnetization_normalized_formula_units": null, "num_magnetic_sites": null, "num_unique_magnetic_sites": null, "types_of_magnetic_species": null, "bulk_modulus": null, "shear_modulus": null, "universal_anisotropy": null, "homogeneous_poisson": null, "e_total": null, "e_ionic": null, "e_electronic": null, "n": null, "e_ij_max": null, "weighted_surface_energy_EV_PER_ANG2": null, "weighted_surface_energy": null, "weighted_work_function": null, "surface_anisotropy": null, "shape_factor": null, "has_reconstructed": null, "possible_species": null, "has_props": null, "theoretical": null, "database_IDs": null, "fields_not_requested": ["builder_meta", "nsites", "elements", "nelements", "composition", "composition_reduced", "chemsys", "symmetry", "property_name", "deprecated", "deprecation_reasons", "last_updated", "origins", "warnings", "task_ids", "uncorrected_energy_per_atom", "equilibrium_reaction_energy_per_atom", "decomposes_to", "xas", "grain_boundaries", "cbm", "vbm", "is_gap_direct", "is_metal", "es_source_calc_id", "bandstructure", "dos", "dos_energy_up", "dos_energy_down", "is_magnetic", "ordering", "total_magnetization_normalized_vol", "total_magnetization_normalized_formula_units", "num_magnetic_sites", "num_unique_magnetic_sites", "types_of_magnetic_species", "bulk_modulus", "shear_modulus", "universal_anisotropy", "homogeneous_poisson", "e_total", "e_ionic", "e_electronic", "n", "e_ij_max", "weighted_surface_energy_EV_PER_ANG2", "weighted_surface_energy", "weighted_work_function", "surface_anisotropy", "shape_factor", "has_reconstructed", "possible_species", "has_props", "theoretical", "database_IDs"]}