{"builder_meta": null, "nsites": null, "elements": null, "nelements": null, "composition": null, "composition_reduced": null, "formula_pretty": "Ho4Co3", "formula_anonymous": "A3B4", "chemsys": null, "volume": 434.25796627242477, "density": 9.596200997407449, "density_atomic": 20.67895077487737, "symmetry": null, "property_name": null, "material_id": "mp-1224199", "deprecated": null, "deprecation_reasons": null, "last_updated": null, "origins": null, "warnings": null, "structure": {"@module": "pymatgen.core.structure", "@class": "Structure", "charge": 0, "lattice": {"matrix": [[1.527e-05, 1.1670000000000002e-05, -4.04348636], [-11.13594433, -0.00035617, 7.555000000000003e-05], [-5.56762466, 9.64398978, 1.4350000000000002e-05]], "pbc": [true, true, true], "a": 4.043486360045674, "b": 11.135944335952116, "c": 11.135752477115792, "alpha": 60.003327199162335, "beta": 90.00003880558107, "gamma": 90.00060509347544, "volume": 434.25796627242477}, "properties": {}, "sites": [{"species": [{"element": "Ho", "occu": 1}], "abc": [0.74960748, 0.61959445, 0.86635259], "properties": {"magmom": 0.324}, "label": "Ho", "xyz": [-11.723283900209617, 8.354883590800565, -3.030968378213609]}, {"species": [{"element": "Ho", "occu": 1}], "abc": [0.74962143, 0.51403859, 0.61957953], "properties": {"magmom": 0.324}, "label": "Ho", "xyz": [-9.173879945051667, 5.975044318174691, -3.031036300786965]}, {"species": [{"element": "Ho", "occu": 1}], "abc": [0.74961194, 0.86631914, 0.51406167], "properties": {"magmom": 0.325}, "label": "Ho", "xyz": [-12.509372699131935, 4.9573056828529785, -3.030972827487147]}, {"species": [{"element": "Ho", "occu": 1}], "abc": [0.25039252, 0.38040555, 0.13364741], "properties": {"magmom": 0.324}, "label": "Ho", "xyz": [-4.980269819790381, 1.2887616891994347, -1.0124280817863913]}, {"species": [{"element": "Ho", "occu": 1}], "abc": [0.25037857, 0.48596141, 0.38042047], "properties": {"magmom": 0.324}, "label": "Ho", "xyz": [-7.529673774948331, 3.668600961825309, -1.0123601592130353]}, {"species": [{"element": "Ho", "occu": 1}], "abc": [0.25038806, 0.13368086, 0.48593833000000003], "properties": {"magmom": 0.325}, "label": "Ho", "xyz": [-4.194181020868065, 4.686339597147022, -1.0124236325128535]}, {"species": [{"element": "Ho", "occu": 1}], "abc": [0.75020531, 0.77912077, 0.24912465], "properties": {"magmom": 0.18}, "label": "Ho", "xyz": [-10.063266610185519, 2.402286833997394, -3.0333825006716704]}, {"species": [{"element": "Ho", "occu": 1}], "abc": [0.75021472, 0.97170254, 0.77918234], "properties": {"magmom": 0.18}, "label": "Ho", "xyz": [-15.159008745801328, 7.5140891874285956, -3.0333983939977434]}, {"species": [{"element": "Ho", "occu": 1}], "abc": [0.75021591, 0.24913548, 0.97173404], "properties": {"magmom": 0.18}, "label": "Ho", "xyz": [-8.184597784176308, 9.371313171073869, -3.0334550325709992]}, {"species": [{"element": "Ho", "occu": 1}], "abc": [0.24979469, 0.22087923, 0.75087535], "properties": {"magmom": 0.18}, "label": "Ho", "xyz": [-6.640287109814481, 7.241358446002607, -1.0100139593283295]}, {"species": [{"element": "Ho", "occu": 1}], "abc": [0.24978528, 0.02829746, 0.22081766], "properties": {"magmom": 0.18}, "label": "Ho", "xyz": [-1.5445449741986716, 2.1295560925714043, -1.009998066002257]}, {"species": [{"element": "Ho", "occu": 1}], "abc": [0.24978409000000001, 0.75086452, 0.02826596], "properties": {"magmom": 0.18}, "label": "Ho", "xyz": [-8.51895593582369, 0.2723321089261307, -1.0099414274290006]}, {"species": [{"element": "Co", "occu": 1}], "abc": [0.74873213, 0.33333891, 0.33335558], "properties": {"magmom": -0.9470000000000001}, "label": "Co", "xyz": [-5.568030859399857, 3.214767819010355, -3.0274581875415234]}, {"species": [{"element": "Co", "occu": 1}], "abc": [0.25126787, 0.6666610900000001, 0.66664442], "properties": {"magmom": -0.9470000000000001}, "label": "Co", "xyz": [-11.13552286060014, 6.428877460989645, -1.0159382724584767]}, {"species": [{"element": "Co", "occu": 1}], "abc": [0.74865366, 0.28432771, 0.55768385], "properties": {"magmom": -0.647}, "label": "Co", "xyz": [-6.271220473838737, 5.378204817658794, -3.0271413788523396]}, {"species": [{"element": "Co", "occu": 1}], "abc": [0.74864904, 0.15805432, 0.28426241], "properties": {"magmom": -0.648}, "label": "Co", "xyz": [-3.342739080592195, 2.7413762194053124, -3.027136161497635]}, {"species": [{"element": "Co", "occu": 1}], "abc": [0.74863147, 0.55771286, 0.15800968], "properties": {"magmom": -0.647}, "label": "Co", "xyz": [-7.090386520369245, 1.5236538350009794, -3.0270367349662677]}, {"species": [{"element": "Co", "occu": 1}], "abc": [0.25134634, 0.71567229, 0.44231615], "properties": {"magmom": -0.647}, "label": "Co", "xyz": [-10.432333246161262, 4.265440462341206, -1.0162550811476607]}, {"species": [{"element": "Co", "occu": 1}], "abc": [0.25135096, 0.84194568, 0.71573759], "properties": {"magmom": -0.648}, "label": "Co", "xyz": [-13.360814639407804, 6.902269060594689, -1.0162602985023652]}, {"species": [{"element": "Co", "occu": 1}], "abc": [0.25136853, 0.44228714, 0.8419903200000001], "properties": {"magmom": -0.647}, "label": "Co", "xyz": [-9.613167199630755, 8.119991444999021, -1.0163597250337317]}, {"species": [{"element": "Co", "occu": 1}], "abc": [0.5, 0.0, -0.0], "properties": {"magmom": 1.217}, "label": "Co", "xyz": [7.635e-06, 5.835000000000001e-06, -2.02174318]}]}, "task_ids": null, "uncorrected_energy_per_atom": null, "energy_per_atom": -5.85241312, "formation_energy_per_atom": -0.167989117142853, "energy_above_hull": 0.01272040105042, "is_stable": false, "equilibrium_reaction_energy_per_atom": null, "decomposes_to": null, "xas": null, "grain_boundaries": null, "band_gap": 0.0, "cbm": null, "vbm": null, "efermi": 3.73094384, "is_gap_direct": null, "is_metal": null, "es_source_calc_id": null, "bandstructure": null, "dos": null, "dos_energy_up": null, "dos_energy_down": null, "is_magnetic": null, "ordering": null, "total_magnetization": 0.707207399999999, "total_magnetization_normalized_vol": null, "total_magnetization_normalized_formula_units": null, "num_magnetic_sites": null, "num_unique_magnetic_sites": null, "types_of_magnetic_species": null, "bulk_modulus": null, "shear_modulus": null, "universal_anisotropy": null, "homogeneous_poisson": null, "e_total": null, "e_ionic": null, "e_electronic": null, "n": null, "e_ij_max": null, "weighted_surface_energy_EV_PER_ANG2": null, "weighted_surface_energy": null, "weighted_work_function": null, "surface_anisotropy": null, "shape_factor": null, "has_reconstructed": null, "possible_species": null, "has_props": null, "theoretical": null, "database_IDs": null, "fields_not_requested": ["builder_meta", "nsites", "elements", "nelements", "composition", "composition_reduced", "chemsys", "symmetry", "property_name", "deprecated", "deprecation_reasons", "last_updated", "origins", "warnings", "task_ids", "uncorrected_energy_per_atom", "equilibrium_reaction_energy_per_atom", "decomposes_to", "xas", "grain_boundaries", "cbm", "vbm", "is_gap_direct", "is_metal", "es_source_calc_id", "bandstructure", "dos", "dos_energy_up", "dos_energy_down", "is_magnetic", "ordering", "total_magnetization_normalized_vol", "total_magnetization_normalized_formula_units", "num_magnetic_sites", "num_unique_magnetic_sites", "types_of_magnetic_species", "bulk_modulus", "shear_modulus", "universal_anisotropy", "homogeneous_poisson", "e_total", "e_ionic", "e_electronic", "n", "e_ij_max", "weighted_surface_energy_EV_PER_ANG2", "weighted_surface_energy", "weighted_work_function", "surface_anisotropy", "shape_factor", "has_reconstructed", "possible_species", "has_props", "theoretical", "database_IDs"]}