{"builder_meta": null, "nsites": null, "elements": null, "nelements": null, "composition": null, "composition_reduced": null, "formula_pretty": "Ho4C7", "formula_anonymous": "A4B7", "chemsys": null, "volume": 620.8304193180988, "density": 7.957745471521479, "density_atomic": 14.109782257229519, "symmetry": null, "property_name": null, "material_id": "mp-1154", "deprecated": null, "deprecation_reasons": null, "last_updated": null, "origins": null, "warnings": null, "structure": {"@module": "pymatgen.core.structure", "@class": "Structure", "charge": 0, "lattice": {"matrix": [[3.64781487, 0.0, -0.42759933], [0.0, 12.49005463, 0.0], [-0.01013326, 0.0, 13.6274224]], "pbc": [true, true, true], "a": 3.672791106612186, "b": 12.49005463, "c": 13.627426167511603, "alpha": 90.0, "beta": 96.72834402277749, "gamma": 90.0, "volume": 620.8304193180987}, "properties": {}, "sites": [{"species": [{"element": "Ho", "occu": 1}], "abc": [0.19337972, 0.01532761, 0.892749], "properties": {"magmom": -0.0}, "label": "Ho", "xyz": [0.6963669604406965, 0.1914426862473343, 12.083178681470011]}, {"species": [{"element": "Ho", "occu": 1}], "abc": [0.30662028, 0.51532761, 0.607251], "properties": {"magmom": -0.0}, "label": "Ho", "xyz": [1.1123405845593037, 6.436470001247335, 8.144155253529988]}, {"species": [{"element": "Ho", "occu": 1}], "abc": [0.80662028, 0.9846723900000001, 0.107251], "properties": {"magmom": -0.0}, "label": "Ho", "xyz": [2.9413146495593034, 12.298611943752666, 1.1166443885299875]}, {"species": [{"element": "Ho", "occu": 1}], "abc": [0.69337972, 0.48467239, 0.392748999999999], "properties": {"magmom": -0.0}, "label": "Ho", "xyz": [2.5253410254406967, 6.053584628752666, 5.05566781647]}, {"species": [{"element": "Ho", "occu": 1}], "abc": [0.74116562, 0.03956025, 0.6182853500000001], "properties": {"magmom": 0.0}, "label": "Ho", "xyz": [2.6973697235630283, 0.49410968367645747, 8.108713705650805]}, {"species": [{"element": "Ho", "occu": 1}], "abc": [0.75883438, 0.53956025, 0.88171465], "properties": {"magmom": 0.0}, "label": "Ho", "xyz": [2.759152691436972, 6.739136998676456, 11.691020899349196]}, {"species": [{"element": "Ho", "occu": 1}], "abc": [0.25883438000000003, 0.96043975, 0.38171465], "properties": {"magmom": 0.0}, "label": "Ho", "xyz": [0.9403118864369716, 11.995944946323542, 5.091109364349195]}, {"species": [{"element": "Ho", "occu": 1}], "abc": [0.24116562, 0.46043975000000004, 0.11828535], "properties": {"magmom": 0.0}, "label": "Ho", "xyz": [0.8785289185630284, 5.750917631323543, 1.5088021706508055]}, {"species": [{"element": "Ho", "occu": 1}], "abc": [0.65704019, 0.8049541, 0.7897557], "properties": {"magmom": 0.0}, "label": "Ho", "xyz": [2.3887581754250435, 10.053920683642483, 10.481384571680607]}, {"species": [{"element": "Ho", "occu": 1}], "abc": [0.84295981, 0.3049541, 0.710244299999999], "properties": {"magmom": 0.0}, "label": "Ho", "xyz": [3.0677642395749567, 3.808893368642483, 9.31835003331938]}, {"species": [{"element": "Ho", "occu": 1}], "abc": [0.34295981000000003, 0.1950459, 0.2102443], "properties": {"magmom": 0.0}, "label": "Ho", "xyz": [1.248923434574957, 2.4361339463575167, 2.7184384983193928]}, {"species": [{"element": "Ho", "occu": 1}], "abc": [0.15704019, 0.6950459, 0.2897557], "properties": {"magmom": 0.0}, "label": "Ho", "xyz": [0.5699173704250433, 8.681161261357516, 3.881473036680607]}, {"species": [{"element": "Ho", "occu": 1}], "abc": [0.27113956, 0.76306743, 0.00703066], "properties": {"magmom": -0.0}, "label": "Ho", "xyz": [0.9889956753075055, 9.5307538870737, -0.0201293206217108]}, {"species": [{"element": "Ho", "occu": 1}], "abc": [0.22886044, 0.26306743, 0.49296934000000003], "properties": {"magmom": -0.0}, "label": "Ho", "xyz": [0.8298451296924945, 3.285726572073701, 6.620040855621712]}, {"species": [{"element": "Ho", "occu": 1}], "abc": [0.72886044, 0.23693257, 0.99296934], "properties": {"magmom": -0.0}, "label": "Ho", "xyz": [2.648685934692495, 2.959300742926299, 13.219952390621712]}, {"species": [{"element": "Ho", "occu": 1}], "abc": [0.7711395600000001, 0.73693257, 0.50703066], "properties": {"magmom": -0.0}, "label": "Ho", "xyz": [2.8078364803075058, 9.204328057926299, 6.579782214378289]}, {"species": [{"element": "C", "occu": 1}], "abc": [0.25782706, 0.1166328, 0.05015262], "properties": {"magmom": 0.0}, "label": "C", "xyz": [0.9399971738182409, 1.456750043649864, 0.5732042590948182]}, {"species": [{"element": "C", "occu": 1}], "abc": [0.24217294, 0.6166328, 0.44984738], "properties": {"magmom": 0.0}, "label": "C", "xyz": [0.878843631181759, 7.7017773586498635, 6.026707275905182]}, {"species": [{"element": "C", "occu": 1}], "abc": [0.74217294, 0.883367199999999, 0.94984738], "properties": {"magmom": 0.0}, "label": "C", "xyz": [2.697684436181759, 11.033304586350123, 12.626618810905182]}, {"species": [{"element": "C", "occu": 1}], "abc": [0.75782706, 0.383367199999999, 0.55015262], "properties": {"magmom": 0.0}, "label": "C", "xyz": [2.758837978818241, 4.788277271350124, 7.1731157940948185]}, {"species": [{"element": "C", "occu": 1}], "abc": [0.84135621, 0.64086141, 0.67455562], "properties": {"magmom": -0.0}, "label": "C", "xyz": [3.062276246322922, 8.004394021158827, 8.83269101434655]}, {"species": [{"element": "C", "occu": 1}], "abc": [0.6586437900000001, 0.14086141, 0.82544438], "properties": {"magmom": -0.0}, "label": "C", "xyz": [2.3942461686770784, 1.759366706158828, 10.96704359065345]}, {"species": [{"element": "C", "occu": 1}], "abc": [0.15864379, 0.35913859, 0.32544438000000003], "properties": {"magmom": -0.0}, "label": "C", "xyz": [0.5754053636770785, 4.4856606088411715, 4.367132055653451]}, {"species": [{"element": "C", "occu": 1}], "abc": [0.34135621, 0.85913859, 0.17455562], "properties": {"magmom": -0.0}, "label": "C", "xyz": [1.2434354413229214, 10.730687923841172, 2.2327794793465485]}, {"species": [{"element": "C", "occu": 1}], "abc": [0.30261175, 0.89007629, 0.5474764], "properties": {"magmom": 0.0}, "label": "C", "xyz": [1.0983239207816584, 11.117101486967723, 7.331295575281232]}, {"species": [{"element": "C", "occu": 1}], "abc": [0.19738825000000002, 0.39007629, 0.952523599999999], "properties": {"magmom": 0.0}, "label": "C", "xyz": [0.7103836242183416, 4.872074171967722, 12.896038359718755]}, {"species": [{"element": "C", "occu": 1}], "abc": [0.69738825, 0.10992371000000001, 0.452523599999999], "properties": {"magmom": 0.0}, "label": "C", "xyz": [2.539357689218342, 1.3729531430322774, 5.868527494718754]}, {"species": [{"element": "C", "occu": 1}], "abc": [0.8026117500000001, 0.60992371, 0.047476399999999], "properties": {"magmom": 0.0}, "label": "C", "xyz": [2.927297985781659, 7.617980458032277, 0.30378471028121884]}, {"species": [{"element": "C", "occu": 1}], "abc": [0.13896423, 0.91693764, 0.72918074], "properties": {"magmom": -0.0}, "label": "C", "xyz": [0.4995268065666877, 11.452601215903274, 9.87743293828261]}, {"species": [{"element": "C", "occu": 1}], "abc": [0.36103577000000003, 0.41693764, 0.77081926], "properties": {"magmom": -0.0}, "label": "C", "xyz": [1.3091807384333125, 5.207573900903273, 10.349900996717391]}, {"species": [{"element": "C", "occu": 1}], "abc": [0.86103577, 0.08306236, 0.27081926], "properties": {"magmom": -0.0}, "label": "C", "xyz": [3.1381548034333124, 1.0374534140967269, 3.3223901317173903]}, {"species": [{"element": "C", "occu": 1}], "abc": [0.63896423, 0.58306236, 0.22918074], "properties": {"magmom": -0.0}, "label": "C", "xyz": [2.3285008715666877, 7.282480729096727, 2.84992207328261]}, {"species": [{"element": "C", "occu": 1}], "abc": [0.224588799999999, 0.6712781600000001, 0.84803181], "properties": {"magmom": 0.0}, "label": "C", "xyz": [0.8106650374564518, 8.384300890325882, 11.46045366310104]}, {"species": [{"element": "C", "occu": 1}], "abc": [0.275411199999999, 0.17127816, 0.6519681900000001], "properties": {"magmom": 0.0}, "label": "C", "xyz": [0.998042507543541, 2.139273575325881, 8.766880271898962]}, {"species": [{"element": "C", "occu": 1}], "abc": [0.7754112, 0.32872184, 0.15196819], "properties": {"magmom": 0.0}, "label": "C", "xyz": [2.8270165725435445, 4.105753739674119, 1.73936940689896]}, {"species": [{"element": "C", "occu": 1}], "abc": [0.724588799999999, 0.82872184, 0.34803181], "properties": {"magmom": 0.0}, "label": "C", "xyz": [2.6396391024564516, 10.350781054674119, 4.432942798101041]}, {"species": [{"element": "C", "occu": 1}], "abc": [0.22466577000000001, 0.89579411, 0.63939839], "properties": {"magmom": 0.0}, "label": "C", "xyz": [0.8130599464565486, 11.188517371132228, 8.617285009684002]}, {"species": [{"element": "C", "occu": 1}], "abc": [0.27533423, 0.39579411000000003, 0.86060161], "properties": {"magmom": 0.0}, "label": "C", "xyz": [0.9956475985434515, 4.943490056132229, 11.610048925315999]}, {"species": [{"element": "C", "occu": 1}], "abc": [0.77533423, 0.10420589, 0.36060161], "properties": {"magmom": 0.0}, "label": "C", "xyz": [2.824621663543452, 1.3015372588677705, 4.582538060315998]}, {"species": [{"element": "C", "occu": 1}], "abc": [0.72466577, 0.60420589, 0.13939839], "properties": {"magmom": 0.0}, "label": "C", "xyz": [2.6420340114565484, 7.54656457386777, 1.5897741446840021]}, {"species": [{"element": "C", "occu": 1}], "abc": [0.060514120000000005, 0.65170497, 0.75647134], "properties": {"magmom": -0.0}, "label": "C", "xyz": [0.213078786010196, 8.139830677942511, 10.282878686506477]}, {"species": [{"element": "C", "occu": 1}], "abc": [0.43948588, 0.15170497, 0.7435286600000001], "properties": {"magmom": -0.0}, "label": "C", "xyz": [1.595628758989804, 1.894803362942511, 9.944455248493526]}, {"species": [{"element": "C", "occu": 1}], "abc": [0.93948588, 0.34829503, 0.24352866], "properties": {"magmom": -0.0}, "label": "C", "xyz": [3.424602823989804, 4.350223952057489, 2.9169443834935236]}, {"species": [{"element": "C", "occu": 1}], "abc": [0.56051412, 0.8482950300000001, 0.25647134], "properties": {"magmom": -0.0}, "label": "C", "xyz": [2.0420528510101956, 10.59525126705749, 3.2553678215064767]}]}, "task_ids": null, "uncorrected_energy_per_atom": null, "energy_per_atom": -7.832266037954543, "formation_energy_per_atom": -0.28759546454545004, "energy_above_hull": 0.0, "is_stable": true, "equilibrium_reaction_energy_per_atom": null, "decomposes_to": null, "xas": null, "grain_boundaries": null, "band_gap": 0.7510000000000001, "cbm": null, "vbm": null, "efermi": 3.94912141, "is_gap_direct": null, "is_metal": null, "es_source_calc_id": null, "bandstructure": null, "dos": null, "dos_energy_up": null, "dos_energy_down": null, "is_magnetic": null, "ordering": null, "total_magnetization": 0.0, "total_magnetization_normalized_vol": null, "total_magnetization_normalized_formula_units": null, "num_magnetic_sites": null, "num_unique_magnetic_sites": null, "types_of_magnetic_species": null, "bulk_modulus": null, "shear_modulus": null, "universal_anisotropy": null, "homogeneous_poisson": null, "e_total": null, "e_ionic": null, "e_electronic": null, "n": null, "e_ij_max": null, "weighted_surface_energy_EV_PER_ANG2": null, "weighted_surface_energy": null, "weighted_work_function": null, "surface_anisotropy": null, "shape_factor": null, "has_reconstructed": null, "possible_species": null, "has_props": null, "theoretical": null, "database_IDs": null, "fields_not_requested": ["builder_meta", "nsites", "elements", "nelements", "composition", "composition_reduced", "chemsys", "symmetry", "property_name", "deprecated", "deprecation_reasons", "last_updated", "origins", "warnings", "task_ids", "uncorrected_energy_per_atom", "equilibrium_reaction_energy_per_atom", "decomposes_to", "xas", "grain_boundaries", "cbm", "vbm", "is_gap_direct", "is_metal", "es_source_calc_id", "bandstructure", "dos", "dos_energy_up", "dos_energy_down", "is_magnetic", "ordering", "total_magnetization_normalized_vol", "total_magnetization_normalized_formula_units", "num_magnetic_sites", "num_unique_magnetic_sites", "types_of_magnetic_species", "bulk_modulus", "shear_modulus", "universal_anisotropy", "homogeneous_poisson", "e_total", "e_ionic", "e_electronic", "n", "e_ij_max", "weighted_surface_energy_EV_PER_ANG2", "weighted_surface_energy", "weighted_work_function", "surface_anisotropy", "shape_factor", "has_reconstructed", "possible_species", "has_props", "theoretical", "database_IDs"]}