{"builder_meta": null, "nsites": null, "elements": null, "nelements": null, "composition": null, "composition_reduced": null, "formula_pretty": "Ho4C5", "formula_anonymous": "A4B5", "chemsys": null, "volume": 280.7547261490039, "density": 8.514294008422773, "density_atomic": 15.597484786055771, "symmetry": null, "property_name": null, "material_id": "mp-15238", "deprecated": null, "deprecation_reasons": null, "last_updated": null, "origins": null, "warnings": null, "structure": {"@module": "pymatgen.core.structure", "@class": "Structure", "charge": 0, "lattice": {"matrix": [[3.62422011, 0.0, 0.0], [0.0, 6.52670237, -0.0], [0.0, -0.0, 11.86912494]], "pbc": [true, true, true], "a": 3.62422011, "b": 6.52670237, "c": 11.86912494, "alpha": 90.0, "beta": 90.0, "gamma": 90.0, "volume": 280.7547261490039}, "properties": {}, "sites": [{"species": [{"element": "Ho", "occu": 1}], "abc": [-0.0, 0.25685598, 0.54242833], "properties": {"magmom": -0.0}, "label": "Ho", "xyz": [0.0, 1.6764225334146725, 6.438149619765551]}, {"species": [{"element": "Ho", "occu": 1}], "abc": [0.0, 0.74314402, 0.45757167], "properties": {"magmom": -0.0}, "label": "Ho", "xyz": [0.0, 4.850279836585328, 5.43097532023445]}, {"species": [{"element": "Ho", "occu": 1}], "abc": [-0.0, 0.75685598, 0.95757167], "properties": {"magmom": -0.0}, "label": "Ho", "xyz": [0.0, 4.939773718414672, 11.36553779023445]}, {"species": [{"element": "Ho", "occu": 1}], "abc": [0.0, 0.24314402000000002, 0.04242833], "properties": {"magmom": -0.0}, "label": "Ho", "xyz": [0.0, 1.5869286515853274, 0.5035871497655502]}, {"species": [{"element": "Ho", "occu": 1}], "abc": [0.5, 0.1072813, 0.80439353], "properties": {"magmom": 0.0}, "label": "Ho", "xyz": [1.812110055, 0.7001931149666809, 9.54744730849764]}, {"species": [{"element": "Ho", "occu": 1}], "abc": [0.5, 0.8927187, 0.19560647], "properties": {"magmom": 0.0}, "label": "Ho", "xyz": [1.812110055, 5.826509255033319, 2.321677631502362]}, {"species": [{"element": "Ho", "occu": 1}], "abc": [0.5, 0.6072813, 0.69560647], "properties": {"magmom": 0.0}, "label": "Ho", "xyz": [1.812110055, 3.963544299966681, 8.256240101502362]}, {"species": [{"element": "Ho", "occu": 1}], "abc": [0.5, 0.3927187, 0.30439353], "properties": {"magmom": 0.0}, "label": "Ho", "xyz": [1.812110055, 2.5631580700333187, 3.6128848384976386]}, {"species": [{"element": "C", "occu": 1}], "abc": [0.5, 0.5, 0.5], "properties": {"magmom": 0.0}, "label": "C", "xyz": [1.812110055, 3.263351185, 5.93456247]}, {"species": [{"element": "C", "occu": 1}], "abc": [0.5, -0.0, -0.0], "properties": {"magmom": 0.0}, "label": "C", "xyz": [1.812110055, 0.0, 0.0]}, {"species": [{"element": "C", "occu": 1}], "abc": [0.0, 0.36196516, 0.73466129], "properties": {"magmom": -0.0}, "label": "C", "xyz": [0.0, 2.3624388676294292, 8.719786639591574]}, {"species": [{"element": "C", "occu": 1}], "abc": [-0.0, 0.63803484, 0.26533871000000003], "properties": {"magmom": -0.0}, "label": "C", "xyz": [0.0, 4.164263502370571, 3.149338300408428]}, {"species": [{"element": "C", "occu": 1}], "abc": [0.0, 0.86196516, 0.76533871], "properties": {"magmom": -0.0}, "label": "C", "xyz": [0.0, 5.625790052629429, 9.083900770408428]}, {"species": [{"element": "C", "occu": 1}], "abc": [0.0, 0.13803484, 0.23466129], "properties": {"magmom": -0.0}, "label": "C", "xyz": [0.0, 0.9009123173705708, 2.7852241695915727]}, {"species": [{"element": "C", "occu": 1}], "abc": [0.0, 0.4020735, 0.84449685], "properties": {"magmom": 0.0}, "label": "C", "xyz": [0.0, 2.6242140653641948, 10.02343862408644]}, {"species": [{"element": "C", "occu": 1}], "abc": [0.0, 0.5979265, 0.15550315], "properties": {"magmom": 0.0}, "label": "C", "xyz": [0.0, 3.902488304635805, 1.8456863159135612]}, {"species": [{"element": "C", "occu": 1}], "abc": [0.0, 0.0979265, 0.34449685], "properties": {"magmom": 0.0}, "label": "C", "xyz": [0.0, 0.639137119635805, 4.08887615408644]}, {"species": [{"element": "C", "occu": 1}], "abc": [0.0, 0.9020735, 0.65550315], "properties": {"magmom": 0.0}, "label": "C", "xyz": [0.0, 5.887565250364195, 7.780248785913562]}]}, "task_ids": null, "uncorrected_energy_per_atom": null, "energy_per_atom": -7.500271937222221, "formation_energy_per_atom": -0.329822456944441, "energy_above_hull": 0.0, "is_stable": true, "equilibrium_reaction_energy_per_atom": null, "decomposes_to": null, "xas": null, "grain_boundaries": null, "band_gap": 0.0, "cbm": null, "vbm": null, "efermi": 4.07219986, "is_gap_direct": null, "is_metal": null, "es_source_calc_id": null, "bandstructure": null, "dos": null, "dos_energy_up": null, "dos_energy_down": null, "is_magnetic": null, "ordering": null, "total_magnetization": 5e-07, "total_magnetization_normalized_vol": null, "total_magnetization_normalized_formula_units": null, "num_magnetic_sites": null, "num_unique_magnetic_sites": null, "types_of_magnetic_species": null, "bulk_modulus": null, "shear_modulus": null, "universal_anisotropy": null, "homogeneous_poisson": null, "e_total": null, "e_ionic": null, "e_electronic": null, "n": null, "e_ij_max": null, "weighted_surface_energy_EV_PER_ANG2": null, "weighted_surface_energy": null, "weighted_work_function": null, "surface_anisotropy": null, "shape_factor": null, "has_reconstructed": null, "possible_species": null, "has_props": null, "theoretical": null, "database_IDs": null, "fields_not_requested": ["builder_meta", "nsites", "elements", "nelements", "composition", "composition_reduced", "chemsys", "symmetry", "property_name", "deprecated", "deprecation_reasons", "last_updated", "origins", "warnings", "task_ids", "uncorrected_energy_per_atom", "equilibrium_reaction_energy_per_atom", "decomposes_to", "xas", "grain_boundaries", "cbm", "vbm", "is_gap_direct", "is_metal", "es_source_calc_id", "bandstructure", "dos", "dos_energy_up", "dos_energy_down", "is_magnetic", "ordering", "total_magnetization_normalized_vol", "total_magnetization_normalized_formula_units", "num_magnetic_sites", "num_unique_magnetic_sites", "types_of_magnetic_species", "bulk_modulus", "shear_modulus", "universal_anisotropy", "homogeneous_poisson", "e_total", "e_ionic", "e_electronic", "n", "e_ij_max", "weighted_surface_energy_EV_PER_ANG2", "weighted_surface_energy", "weighted_work_function", "surface_anisotropy", "shape_factor", "has_reconstructed", "possible_species", "has_props", "theoretical", "database_IDs"]}