{"builder_meta": null, "nsites": null, "elements": null, "nelements": null, "composition": null, "composition_reduced": null, "formula_pretty": "Ho4Ir", "formula_anonymous": "AB4", "chemsys": null, "volume": 315.46683389864404, "density": 8.968783049482337, "density_atomic": 31.546683389864405, "symmetry": null, "property_name": null, "material_id": "mp-1212267", "deprecated": null, "deprecation_reasons": null, "last_updated": null, "origins": null, "warnings": null, "structure": {"@module": "pymatgen.core.structure", "@class": "Structure", "charge": 0, "lattice": {"matrix": [[0.0, 5.403078, 5.403078], [5.403078, 0.0, 5.403078], [5.403078, 5.403078, 0.0]], "pbc": [true, true, true], "a": 7.641106186159697, "b": 7.641106186159697, "c": 7.641106186159697, "alpha": 59.99999999999999, "beta": 59.99999999999999, "gamma": 59.99999999999999, "volume": 315.46683389864404}, "properties": {}, "sites": [{"species": [{"element": "Ho", "occu": 1}], "abc": [0.888531, 0.888531, 0.888531], "properties": {"magmom": -0.002}, "label": "Ho", "xyz": [9.601604596836, 9.601604596836, 9.601604596836]}, {"species": [{"element": "Ho", "occu": 1}], "abc": [0.888531, 0.888531, 0.334408], "properties": {"magmom": -0.002}, "label": "Ho", "xyz": [6.607634806241999, 6.607634806241999, 9.601604596836]}, {"species": [{"element": "Ho", "occu": 1}], "abc": [0.888531, 0.334408, 0.888531], "properties": {"magmom": -0.002}, "label": "Ho", "xyz": [6.607634806241999, 9.601604596836, 6.607634806241999]}, {"species": [{"element": "Ho", "occu": 1}], "abc": [0.361469, 0.361469, 0.915592], "properties": {"magmom": -0.002}, "label": "Ho", "xyz": [6.900060193758, 6.900060193758, 3.906090403164]}, {"species": [{"element": "Ho", "occu": 1}], "abc": [0.361469, 0.361469, 0.361469], "properties": {"magmom": -0.002}, "label": "Ho", "xyz": [3.906090403164, 3.906090403164, 3.906090403164]}, {"species": [{"element": "Ho", "occu": 1}], "abc": [0.334408, 0.888531, 0.888531], "properties": {"magmom": -0.002}, "label": "Ho", "xyz": [9.601604596836, 6.607634806241999, 6.607634806241999]}, {"species": [{"element": "Ho", "occu": 1}], "abc": [0.361469, 0.915592, 0.361469], "properties": {"magmom": -0.002}, "label": "Ho", "xyz": [6.900060193758, 3.906090403164, 6.900060193758]}, {"species": [{"element": "Ho", "occu": 1}], "abc": [0.915592, 0.361469, 0.361469], "properties": {"magmom": -0.002}, "label": "Ho", "xyz": [3.906090403164, 6.900060193758, 6.900060193758]}, {"species": [{"element": "Ir", "occu": 1}], "abc": [0.5, 0.5, 0.5], "properties": {"magmom": 0.0}, "label": "Ir", "xyz": [5.403078, 5.403078, 5.403078]}, {"species": [{"element": "Ir", "occu": 1}], "abc": [0.75, 0.75, 0.75], "properties": {"magmom": 0.0}, "label": "Ir", "xyz": [8.104617, 8.104617, 8.104617]}]}, "task_ids": null, "uncorrected_energy_per_atom": null, "energy_per_atom": -5.331578099, "formation_energy_per_atom": 0.11425230900000401, "energy_above_hull": 0.5849515495000011, "is_stable": false, "equilibrium_reaction_energy_per_atom": null, "decomposes_to": null, "xas": null, "grain_boundaries": null, "band_gap": 0.0, "cbm": null, "vbm": null, "efermi": 2.94382126, "is_gap_direct": null, "is_metal": null, "es_source_calc_id": null, "bandstructure": null, "dos": null, "dos_energy_up": null, "dos_energy_down": null, "is_magnetic": null, "ordering": null, "total_magnetization": 0.0410684, "total_magnetization_normalized_vol": null, "total_magnetization_normalized_formula_units": null, "num_magnetic_sites": null, "num_unique_magnetic_sites": null, "types_of_magnetic_species": null, "bulk_modulus": null, "shear_modulus": null, "universal_anisotropy": null, "homogeneous_poisson": null, "e_total": null, "e_ionic": null, "e_electronic": null, "n": null, "e_ij_max": null, "weighted_surface_energy_EV_PER_ANG2": null, "weighted_surface_energy": null, "weighted_work_function": null, "surface_anisotropy": null, "shape_factor": null, "has_reconstructed": null, "possible_species": null, "has_props": null, "theoretical": null, "database_IDs": null, "fields_not_requested": ["builder_meta", "nsites", "elements", "nelements", "composition", "composition_reduced", "chemsys", "symmetry", "property_name", "deprecated", "deprecation_reasons", "last_updated", "origins", "warnings", "task_ids", "uncorrected_energy_per_atom", "equilibrium_reaction_energy_per_atom", "decomposes_to", "xas", "grain_boundaries", "cbm", "vbm", "is_gap_direct", "is_metal", "es_source_calc_id", "bandstructure", "dos", "dos_energy_up", "dos_energy_down", "is_magnetic", "ordering", "total_magnetization_normalized_vol", "total_magnetization_normalized_formula_units", "num_magnetic_sites", "num_unique_magnetic_sites", "types_of_magnetic_species", "bulk_modulus", "shear_modulus", "universal_anisotropy", "homogeneous_poisson", "e_total", "e_ionic", "e_electronic", "n", "e_ij_max", "weighted_surface_energy_EV_PER_ANG2", "weighted_surface_energy", "weighted_work_function", "surface_anisotropy", "shape_factor", "has_reconstructed", "possible_species", "has_props", "theoretical", "database_IDs"]}