{
  "builder_meta": null,
  "nsites": null,
  "elements": null,
  "nelements": null,
  "composition": null,
  "composition_reduced": null,
  "formula_pretty": "Ho4Sb3",
  "formula_anonymous": "A3B4",
  "chemsys": null,
  "volume": 379.6139490266749,
  "density": 8.967292551388327,
  "density_atomic": 27.115282073333923,
  "symmetry": null,
  "property_name": null,
  "material_id": "mp-2124",
  "deprecated": null,
  "deprecation_reasons": null,
  "last_updated": null,
  "origins": null,
  "warnings": null,
  "structure": {
    "@module": "pymatgen.core.structure",
    "@class": "Structure",
    "charge": 0,
    "lattice": {
      "matrix": [
        [7.4486647, -1.02e-6, -2.63350037],
        [-3.72433236, 6.45073399, -2.63350037],
        [0.0, -0.0, 7.90050111]
      ],
      "pbc": [true, true, true],
      "a": 7.900501883539884,
      "b": 7.900502815408309,
      "c": 7.90050111,
      "alpha": 109.47121626177464,
      "beta": 109.4712186511119,
      "gamma": 109.47122670722776,
      "volume": 379.6139490266749
    },
    "properties": {},
    "sites": [
      {
        "species": [{ "element": "Ho", "occu": 1 }],
        "abc": [0.35570606, 0.5, -0.0],
        "properties": { "magmom": 0.0 },
        "label": "Ho",
        "xyz": [0.7873689926980818, 3.225366632179819, -2.2535022256212422]
      },
      {
        "species": [{ "element": "Ho", "occu": 1 }],
        "abc": [0.6442939400000001, 0.6442939400000001, 0.6442939400000001],
        "properties": { "magmom": 0.0 },
        "label": "Ho",
        "xyz": [2.3995647572080196, 4.156168161129202, 1.6967483293787584]
      },
      {
        "species": [{ "element": "Ho", "occu": 1 }],
        "abc": [0.5, -0.0, 0.35570606],
        "properties": { "magmom": 0.0 },
        "label": "Ho",
        "xyz": [3.72433235, -5.1e-7, 1.4935059368637265]
      },
      {
        "species": [{ "element": "Ho", "occu": 1 }],
        "abc": [0.0, 0.35570506, 0.5],
        "properties": { "magmom": 0.0 },
        "label": "Ho",
        "xyz": [-1.3247638655737417, 2.2945587209569895, 3.013501147879128]
      },
      {
        "species": [{ "element": "Ho", "occu": 1 }],
        "abc": [0.5, -0.0, 0.85570606],
        "properties": { "magmom": 0.0 },
        "label": "Ho",
        "xyz": [3.72433235, -5.1e-7, 5.443756491863727]
      },
      {
        "species": [{ "element": "Ho", "occu": 1 }],
        "abc": [0.0, 0.85570606, 0.5],
        "properties": { "magmom": 0.0 },
        "label": "Ho",
        "xyz": [-3.1869337699061018, 5.51993216669098, 1.696748329378758]
      },
      {
        "species": [{ "element": "Ho", "occu": 1 }],
        "abc": [0.85570606, 0.5, -0.0],
        "properties": { "magmom": 0.0 },
        "label": "Ho",
        "xyz": [4.511701342698083, 3.225366122179819, -3.5702524106212423]
      },
      {
        "species": [{ "element": "Ho", "occu": 1 }],
        "abc": [0.14429394, 0.14429394, 0.14429394],
        "properties": { "magmom": 0.0 },
        "label": "Ho",
        "xyz": [0.5373985872080196, 0.9308016761292018, 0.3799981443787578]
      },
      {
        "species": [{ "element": "Sb", "occu": 1 }],
        "abc": [0.75, 0.875000999999999, 0.125001],
        "properties": { "magmom": -0.0 },
        "label": "Sb",
        "xyz": [2.327703985667643, 5.6443979269839835, -3.291870195499258]
      },
      {
        "species": [{ "element": "Sb", "occu": 1 }],
        "abc": [0.625, 0.375, 0.25],
        "properties": { "magmom": -0.0 },
        "label": "Sb",
        "xyz": [3.2587908025, 2.41902460875, -0.6583750925]
      },
      {
        "species": [{ "element": "Sb", "occu": 1 }],
        "abc": [0.875, 0.125, 0.75],
        "properties": { "magmom": -0.0 },
        "label": "Sb",
        "xyz": [6.0520400675, 0.80634085625, 3.2918754625]
      },
      {
        "species": [{ "element": "Sb", "occu": 1 }],
        "abc": [0.125, 0.750000999999999, 0.875],
        "properties": { "magmom": -0.0 },
        "label": "Sb",
        "xyz": [-1.8621699068323563, 4.838056815733983, 4.608623013999633]
      },
      {
        "species": [{ "element": "Sb", "occu": 1 }],
        "abc": [0.375, 0.249999, 0.625],
        "properties": { "magmom": -0.0 },
        "label": "Sb",
        "xyz": [1.8621698968323597, 1.61267666426601, 3.29187809600037]
      },
      {
        "species": [{ "element": "Sb", "occu": 1 }],
        "abc": [0.25, 0.625, 0.375],
        "properties": { "magmom": -0.0 },
        "label": "Sb",
        "xyz": [-0.46554154999999975, 4.0317084887500005, 0.6583750925]
      }
    ]
  },
  "task_ids": null,
  "uncorrected_energy_per_atom": null,
  "energy_per_atom": -30.93130916785714,
  "formation_energy_per_atom": -1.1249773321428531,
  "energy_above_hull": 0.043887066428574005,
  "is_stable": false,
  "equilibrium_reaction_energy_per_atom": null,
  "decomposes_to": null,
  "xas": null,
  "grain_boundaries": null,
  "band_gap": 0.0,
  "cbm": null,
  "vbm": null,
  "efermi": 5.7846901299999995,
  "is_gap_direct": null,
  "is_metal": null,
  "es_source_calc_id": null,
  "bandstructure": null,
  "dos": null,
  "dos_energy_up": null,
  "dos_energy_down": null,
  "is_magnetic": null,
  "ordering": null,
  "total_magnetization": 1.3100000000000002e-5,
  "total_magnetization_normalized_vol": null,
  "total_magnetization_normalized_formula_units": null,
  "num_magnetic_sites": null,
  "num_unique_magnetic_sites": null,
  "types_of_magnetic_species": null,
  "bulk_modulus": null,
  "shear_modulus": null,
  "universal_anisotropy": null,
  "homogeneous_poisson": null,
  "e_total": null,
  "e_ionic": null,
  "e_electronic": null,
  "n": null,
  "e_ij_max": null,
  "weighted_surface_energy_EV_PER_ANG2": null,
  "weighted_surface_energy": null,
  "weighted_work_function": null,
  "surface_anisotropy": null,
  "shape_factor": null,
  "has_reconstructed": null,
  "possible_species": null,
  "has_props": null,
  "theoretical": null,
  "database_IDs": null,
  "fields_not_requested": [
    "builder_meta",
    "nsites",
    "elements",
    "nelements",
    "composition",
    "composition_reduced",
    "chemsys",
    "symmetry",
    "property_name",
    "deprecated",
    "deprecation_reasons",
    "last_updated",
    "origins",
    "warnings",
    "task_ids",
    "uncorrected_energy_per_atom",
    "equilibrium_reaction_energy_per_atom",
    "decomposes_to",
    "xas",
    "grain_boundaries",
    "cbm",
    "vbm",
    "is_gap_direct",
    "is_metal",
    "es_source_calc_id",
    "bandstructure",
    "dos",
    "dos_energy_up",
    "dos_energy_down",
    "is_magnetic",
    "ordering",
    "total_magnetization_normalized_vol",
    "total_magnetization_normalized_formula_units",
    "num_magnetic_sites",
    "num_unique_magnetic_sites",
    "types_of_magnetic_species",
    "bulk_modulus",
    "shear_modulus",
    "universal_anisotropy",
    "homogeneous_poisson",
    "e_total",
    "e_ionic",
    "e_electronic",
    "n",
    "e_ij_max",
    "weighted_surface_energy_EV_PER_ANG2",
    "weighted_surface_energy",
    "weighted_work_function",
    "surface_anisotropy",
    "shape_factor",
    "has_reconstructed",
    "possible_species",
    "has_props",
    "theoretical",
    "database_IDs"
  ]
}
