{
  "builder_meta": null,
  "nsites": null,
  "elements": null,
  "nelements": null,
  "composition": null,
  "composition_reduced": null,
  "formula_pretty": "Ho5Bi3",
  "formula_anonymous": "A3B5",
  "chemsys": null,
  "volume": 924.7972700892464,
  "density": 10.425751161495818,
  "density_atomic": 28.89991469028895,
  "symmetry": null,
  "property_name": null,
  "material_id": "mp-31465",
  "deprecated": null,
  "deprecation_reasons": null,
  "last_updated": null,
  "origins": null,
  "warnings": null,
  "structure": {
    "@module": "pymatgen.core.structure",
    "@class": "Structure",
    "charge": 0,
    "lattice": {
      "matrix": [
        [8.19968874, -0.0, 0.0],
        [0.0, 9.4200977, 0.0],
        [0.0, 0.0, 11.97274589]
      ],
      "pbc": [true, true, true],
      "a": 8.19968874,
      "b": 9.4200977,
      "c": 11.97274589,
      "alpha": 90.0,
      "beta": 90.0,
      "gamma": 90.0,
      "volume": 924.7972700892464
    },
    "properties": {},
    "sites": [
      {
        "species": [{ "element": "Ho", "occu": 1 }],
        "abc": [0.354919, 0.75, 0.21512744],
        "properties": { "magmom": 0.046 },
        "label": "Ho",
        "xyz": [2.91022532791206, 7.065073275, 2.575666173086222]
      },
      {
        "species": [{ "element": "Ho", "occu": 1 }],
        "abc": [0.854919, 0.75, 0.28487256],
        "properties": { "magmom": 0.046 },
        "label": "Ho",
        "xyz": [7.010069697912059, 7.065073275, 3.4107067719137785]
      },
      {
        "species": [{ "element": "Ho", "occu": 1 }],
        "abc": [0.645081, 0.25, 0.78487256],
        "properties": { "magmom": 0.046 },
        "label": "Ho",
        "xyz": [5.289463412087939, 2.355024425, 9.39707971691378]
      },
      {
        "species": [{ "element": "Ho", "occu": 1 }],
        "abc": [0.145081, 0.25, 0.7151274400000001],
        "properties": { "magmom": 0.046 },
        "label": "Ho",
        "xyz": [1.1896190420879398, 2.355024425, 8.562039118086222]
      },
      {
        "species": [{ "element": "Ho", "occu": 1 }],
        "abc": [0.69339056, 0.56421023, 0.05899195],
        "properties": { "magmom": 0.068 },
        "label": "Ho",
        "xyz": [5.685586767254294, 5.314915489939471, 0.7062956269055856]
      },
      {
        "species": [{ "element": "Ho", "occu": 1 }],
        "abc": [0.19339056000000002, 0.93578977, 0.44100805],
        "properties": { "magmom": 0.068 },
        "label": "Ho",
        "xyz": [1.5857423972542943, 8.815231060060528, 5.280077318094414]
      },
      {
        "species": [{ "element": "Ho", "occu": 1 }],
        "abc": [0.30660944, 0.06421023000000001, 0.94100805],
        "properties": { "magmom": 0.068 },
        "label": "Ho",
        "xyz": [2.5141019727457055, 0.604866639939471, 11.266450263094415]
      },
      {
        "species": [{ "element": "Ho", "occu": 1 }],
        "abc": [0.80660944, 0.43578977, 0.55899195],
        "properties": { "magmom": 0.068 },
        "label": "Ho",
        "xyz": [6.613946342745705, 4.105182210060529, 6.692668571905586]
      },
      {
        "species": [{ "element": "Ho", "occu": 1 }],
        "abc": [0.30660944, 0.43578977, 0.94100805],
        "properties": { "magmom": 0.068 },
        "label": "Ho",
        "xyz": [2.5141019727457055, 4.105182210060529, 11.266450263094415]
      },
      {
        "species": [{ "element": "Ho", "occu": 1 }],
        "abc": [0.80660944, 0.06421023000000001, 0.55899195],
        "properties": { "magmom": 0.068 },
        "label": "Ho",
        "xyz": [6.613946342745705, 0.604866639939471, 6.692668571905586]
      },
      {
        "species": [{ "element": "Ho", "occu": 1 }],
        "abc": [0.69339056, 0.93578977, 0.05899195],
        "properties": { "magmom": 0.068 },
        "label": "Ho",
        "xyz": [5.685586767254294, 8.815231060060528, 0.7062956269055856]
      },
      {
        "species": [{ "element": "Ho", "occu": 1 }],
        "abc": [0.19339056000000002, 0.56421023, 0.44100805],
        "properties": { "magmom": 0.068 },
        "label": "Ho",
        "xyz": [1.5857423972542943, 5.314915489939471, 5.280077318094414]
      },
      {
        "species": [{ "element": "Ho", "occu": 1 }],
        "abc": [0.47589559000000003, 0.25, 0.48857863],
        "properties": { "magmom": 0.046 },
        "label": "Ho",
        "xyz": [3.9021957107386567, 2.355024425, 5.849627784274331]
      },
      {
        "species": [{ "element": "Ho", "occu": 1 }],
        "abc": [0.97589559, 0.25, 0.01142137],
        "properties": { "magmom": 0.046 },
        "label": "Ho",
        "xyz": [8.002040080738656, 2.355024425, 0.1367451607256693]
      },
      {
        "species": [{ "element": "Ho", "occu": 1 }],
        "abc": [0.52410441, 0.75, 0.51142137],
        "properties": { "magmom": 0.046 },
        "label": "Ho",
        "xyz": [4.297493029261343, 7.065073275, 6.12311810572567]
      },
      {
        "species": [{ "element": "Ho", "occu": 1 }],
        "abc": [0.02410441, 0.75, 0.98857863],
        "properties": { "magmom": 0.046 },
        "label": "Ho",
        "xyz": [0.19764865926134337, 7.065073275, 11.836000729274332]
      },
      {
        "species": [{ "element": "Ho", "occu": 1 }],
        "abc": [0.31468172, 0.25, 0.21787652000000002],
        "properties": { "magmom": 0.029 },
        "label": "Ho",
        "xyz": [2.5802921561678325, 2.355024425, 2.6085802093575032]
      },
      {
        "species": [{ "element": "Ho", "occu": 1 }],
        "abc": [0.81468172, 0.25, 0.28212348],
        "properties": { "magmom": 0.029 },
        "label": "Ho",
        "xyz": [6.680136526167833, 2.355024425, 3.377792735642497]
      },
      {
        "species": [{ "element": "Ho", "occu": 1 }],
        "abc": [0.6853182800000001, 0.75, 0.78212348],
        "properties": { "magmom": 0.029 },
        "label": "Ho",
        "xyz": [5.619396583832167, 7.065073275, 9.364165680642497]
      },
      {
        "species": [{ "element": "Ho", "occu": 1 }],
        "abc": [0.18531828, 0.75, 0.71787652],
        "properties": { "magmom": 0.029 },
        "label": "Ho",
        "xyz": [1.519552213832167, 7.065073275, 8.594953154357503]
      },
      {
        "species": [{ "element": "Bi", "occu": 1 }],
        "abc": [0.40726156, 0.75, 0.95792949],
        "properties": { "magmom": -0.013000000000000001 },
        "label": "Bi",
        "xyz": [3.3394180277668344, 7.065073275, 11.469046364307298]
      },
      {
        "species": [{ "element": "Bi", "occu": 1 }],
        "abc": [0.90726156, 0.75, 0.5420705100000001],
        "properties": { "magmom": -0.013000000000000001 },
        "label": "Bi",
        "xyz": [7.439262397766834, 7.065073275, 6.490072470692705]
      },
      {
        "species": [{ "element": "Bi", "occu": 1 }],
        "abc": [0.59273844, 0.25, 0.04206951],
        "properties": { "magmom": -0.013000000000000001 },
        "label": "Bi",
        "xyz": [4.860270712233165, 2.355024425, 0.5036875529468139]
      },
      {
        "species": [{ "element": "Bi", "occu": 1 }],
        "abc": [0.09273844, 0.25, 0.45793049],
        "properties": { "magmom": -0.013000000000000001 },
        "label": "Bi",
        "xyz": [0.7604263422331655, 2.355024425, 5.482685392053186]
      },
      {
        "species": [{ "element": "Bi", "occu": 1 }],
        "abc": [0.56610697, 0.99588985, 0.32584512],
        "properties": { "magmom": -0.008 },
        "label": "Bi",
        "xyz": [4.641900947544517, 9.381379685438343, 3.9012608212565567]
      },
      {
        "species": [{ "element": "Bi", "occu": 1 }],
        "abc": [0.06610697, 0.50411015, 0.17415488],
        "properties": { "magmom": -0.008 },
        "label": "Bi",
        "xyz": [0.5420565775445177, 4.748766864561655, 2.0851121237434436]
      },
      {
        "species": [{ "element": "Bi", "occu": 1 }],
        "abc": [0.43389303, 0.49588985, 0.67415488],
        "properties": { "magmom": -0.008 },
        "label": "Bi",
        "xyz": [3.557787792455482, 4.671330835438345, 8.071485068743444]
      },
      {
        "species": [{ "element": "Bi", "occu": 1 }],
        "abc": [0.93389303, 0.00411015, 0.82584512],
        "properties": { "magmom": -0.008 },
        "label": "Bi",
        "xyz": [7.6576321624554815, 0.038718014561654995, 9.887633766256558]
      },
      {
        "species": [{ "element": "Bi", "occu": 1 }],
        "abc": [0.43389303, 0.00411015, 0.67415488],
        "properties": { "magmom": -0.008 },
        "label": "Bi",
        "xyz": [3.557787792455482, 0.038718014561654995, 8.071485068743444]
      },
      {
        "species": [{ "element": "Bi", "occu": 1 }],
        "abc": [0.93389303, 0.49588985, 0.82584512],
        "properties": { "magmom": -0.008 },
        "label": "Bi",
        "xyz": [7.6576321624554815, 4.671330835438345, 9.887633766256558]
      },
      {
        "species": [{ "element": "Bi", "occu": 1 }],
        "abc": [0.56610697, 0.50411015, 0.32584512],
        "properties": { "magmom": -0.008 },
        "label": "Bi",
        "xyz": [4.641900947544517, 4.748766864561655, 3.9012608212565567]
      },
      {
        "species": [{ "element": "Bi", "occu": 1 }],
        "abc": [0.06610697, 0.99588985, 0.17415488],
        "properties": { "magmom": -0.008 },
        "label": "Bi",
        "xyz": [0.5420565775445177, 9.381379685438343, 2.0851121237434436]
      }
    ]
  },
  "task_ids": null,
  "uncorrected_energy_per_atom": null,
  "energy_per_atom": -43.2853310028125,
  "formation_energy_per_atom": -0.796138401562501,
  "energy_above_hull": 0.0,
  "is_stable": true,
  "equilibrium_reaction_energy_per_atom": null,
  "decomposes_to": null,
  "xas": null,
  "grain_boundaries": null,
  "band_gap": 0.0,
  "cbm": null,
  "vbm": null,
  "efermi": 4.99129183,
  "is_gap_direct": null,
  "is_metal": null,
  "es_source_calc_id": null,
  "bandstructure": null,
  "dos": null,
  "dos_energy_up": null,
  "dos_energy_down": null,
  "is_magnetic": null,
  "ordering": null,
  "total_magnetization": 1.4760073,
  "total_magnetization_normalized_vol": null,
  "total_magnetization_normalized_formula_units": null,
  "num_magnetic_sites": null,
  "num_unique_magnetic_sites": null,
  "types_of_magnetic_species": null,
  "bulk_modulus": null,
  "shear_modulus": null,
  "universal_anisotropy": null,
  "homogeneous_poisson": null,
  "e_total": null,
  "e_ionic": null,
  "e_electronic": null,
  "n": null,
  "e_ij_max": null,
  "weighted_surface_energy_EV_PER_ANG2": null,
  "weighted_surface_energy": null,
  "weighted_work_function": null,
  "surface_anisotropy": null,
  "shape_factor": null,
  "has_reconstructed": null,
  "possible_species": null,
  "has_props": null,
  "theoretical": null,
  "database_IDs": null,
  "fields_not_requested": [
    "builder_meta",
    "nsites",
    "elements",
    "nelements",
    "composition",
    "composition_reduced",
    "chemsys",
    "symmetry",
    "property_name",
    "deprecated",
    "deprecation_reasons",
    "last_updated",
    "origins",
    "warnings",
    "task_ids",
    "uncorrected_energy_per_atom",
    "equilibrium_reaction_energy_per_atom",
    "decomposes_to",
    "xas",
    "grain_boundaries",
    "cbm",
    "vbm",
    "is_gap_direct",
    "is_metal",
    "es_source_calc_id",
    "bandstructure",
    "dos",
    "dos_energy_up",
    "dos_energy_down",
    "is_magnetic",
    "ordering",
    "total_magnetization_normalized_vol",
    "total_magnetization_normalized_formula_units",
    "num_magnetic_sites",
    "num_unique_magnetic_sites",
    "types_of_magnetic_species",
    "bulk_modulus",
    "shear_modulus",
    "universal_anisotropy",
    "homogeneous_poisson",
    "e_total",
    "e_ionic",
    "e_electronic",
    "n",
    "e_ij_max",
    "weighted_surface_energy_EV_PER_ANG2",
    "weighted_surface_energy",
    "weighted_work_function",
    "surface_anisotropy",
    "shape_factor",
    "has_reconstructed",
    "possible_species",
    "has_props",
    "theoretical",
    "database_IDs"
  ]
}
