{"builder_meta": null, "nsites": null, "elements": null, "nelements": null, "composition": null, "composition_reduced": null, "formula_pretty": "Ho5Ge3", "formula_anonymous": "A3B5", "chemsys": null, "volume": 390.01439026287386, "density": 8.87777946019274, "density_atomic": 24.375899391429616, "symmetry": null, "property_name": null, "material_id": "mp-1106032", "deprecated": null, "deprecation_reasons": null, "last_updated": null, "origins": null, "warnings": null, "structure": {"@module": "pymatgen.core.structure", "@class": "Structure", "charge": 0, "lattice": {"matrix": [[-0.0, 0.0, -6.36386025], [-4.20616285, -7.28528825, 0.0], [-4.20612144, 7.28526532, 0.0]], "pbc": [true, true, true], "a": 6.36386025, "b": 8.41232612339228, "c": 8.412285560465858, "alpha": 120.00016949768028, "beta": 90.0, "gamma": 90.0, "volume": 390.01439026287386}, "properties": {}, "sites": [{"species": [{"element": "Ho", "occu": 1}], "abc": [0.49999679, 0.3333337, 0.66667193], "properties": {"magmom": -0.0}, "label": "Ho", "xyz": [-4.206158923812224, 2.4284498035074424, -3.1819096970085976]}, {"species": [{"element": "Ho", "occu": 1}], "abc": [0.49999879, 0.66666377, 0.33332907], "properties": {"magmom": -0.0}, "label": "Ho", "xyz": [-4.2061189307172056, -2.42844701646285, -3.181922424729098]}, {"species": [{"element": "Ho", "occu": 1}], "abc": [-2.1e-07, 0.6666673, 0.33332907], "properties": {"magmom": -0.0}, "label": "Ho", "xyz": [-4.206133778472066, -2.4284727335303726, 1.3364106525e-06]}, {"species": [{"element": "Ho", "occu": 1}], "abc": [1.79e-06, 0.33333623, 0.66667193], "properties": {"magmom": -0.0}, "label": "Ho", "xyz": [-4.206169565404235, 2.42843137172817, -1.13913098475e-05]}, {"species": [{"element": "Ho", "occu": 1}], "abc": [0.75000344, 0.24188378, -0.0], "properties": {"magmom": -0.0}, "label": "Ho", "xyz": [-1.017402569453573, -1.762193060299585, -4.77291707917926]}, {"species": [{"element": "Ho", "occu": 1}], "abc": [0.74999728, 0.75812009, 0.758112599999999], "properties": {"magmom": -0.0}, "label": "Ho", "xyz": [-6.377490219190797, -7.195033091811354e-05, -4.77287787780012]}, {"species": [{"element": "Ho", "occu": 1}], "abc": [0.74999828, 8.49e-06, 0.24188839999999903], "properties": {"magmom": -0.0}, "label": "Ho", "xyz": [-1.0174476956498886, 1.7621593197330385, -4.77288424166037]}, {"species": [{"element": "Ho", "occu": 1}], "abc": [0.25000244, 0.75811622, 0.0], "properties": {"magmom": -0.0}, "label": "Ho", "xyz": [-3.1887602805464272, -5.523095189700415, -1.59098059031901]}, {"species": [{"element": "Ho", "occu": 1}], "abc": [0.24999928000000002, 0.24187891, 0.2418864], "properties": {"magmom": -0.0}, "label": "Ho", "xyz": [-2.0347856585249096, 4.902035384057868e-05, -1.5909604805206201]}, {"species": [{"element": "Ho", "occu": 1}], "abc": [0.24999928000000002, 0.99999151, 0.758112599999999], "properties": {"magmom": -0.0}, "label": "Ho", "xyz": [-7.394840800471544, -1.7621749644677323, -1.5909604805206201]}, {"species": [{"element": "Ge", "occu": 1}], "abc": [0.74999657, 0.60675878, -0.0], "properties": {"magmom": 0.0}, "label": "Ge", "xyz": [-2.552126239347323, -4.420412610518335, -4.772873359459342]}, {"species": [{"element": "Ge", "occu": 1}], "abc": [0.7500009200000001, 0.39325494, 0.39325964], "properties": {"magmom": -0.0}, "label": "Ge", "xyz": [-3.308192122497661, 2.5223411229902126e-05, -4.772901042251431]}, {"species": [{"element": "Ge", "occu": 1}], "abc": [0.7500009200000001, 0.99999531, 0.6067393600000001], "properties": {"magmom": -0.0}, "label": "Ge", "xyz": [-6.758162553684112, -2.8649968643111112, -4.772901042251431]}, {"species": [{"element": "Ge", "occu": 1}], "abc": [0.24999757, 0.39324122, 0.0], "properties": {"magmom": 0.0}, "label": "Ge", "xyz": [-1.6540366106526772, -2.864875639481665, -1.5909495983195925]}, {"species": [{"element": "Ge", "occu": 1}], "abc": [0.25000192, 0.6067450600000001, 0.60674036], "properties": {"magmom": -0.0}, "label": "Ge", "xyz": [-5.1040921675023405, -4.815341122998973e-05, -1.59097728111168]}, {"species": [{"element": "Ge", "occu": 1}], "abc": [0.25000192, 4.69e-06, 0.39325964], "properties": {"magmom": -0.0}, "label": "Ge", "xyz": [-1.6541175301944484, 2.864966649045792, -1.59097728111168]}]}, "task_ids": null, "uncorrected_energy_per_atom": null, "energy_per_atom": -5.396191756250001, "formation_energy_per_atom": -0.7890066449999971, "energy_above_hull": 0.0, "is_stable": true, "equilibrium_reaction_energy_per_atom": null, "decomposes_to": null, "xas": null, "grain_boundaries": null, "band_gap": 0.0, "cbm": null, "vbm": null, "efermi": 4.12362431, "is_gap_direct": null, "is_metal": null, "es_source_calc_id": null, "bandstructure": null, "dos": null, "dos_energy_up": null, "dos_energy_down": null, "is_magnetic": null, "ordering": null, "total_magnetization": 1.1e-06, "total_magnetization_normalized_vol": null, "total_magnetization_normalized_formula_units": null, "num_magnetic_sites": null, "num_unique_magnetic_sites": null, "types_of_magnetic_species": null, "bulk_modulus": null, "shear_modulus": null, "universal_anisotropy": null, "homogeneous_poisson": null, "e_total": null, "e_ionic": null, "e_electronic": null, "n": null, "e_ij_max": null, "weighted_surface_energy_EV_PER_ANG2": null, "weighted_surface_energy": null, "weighted_work_function": null, "surface_anisotropy": null, "shape_factor": null, "has_reconstructed": null, "possible_species": null, "has_props": null, "theoretical": null, "database_IDs": null, "fields_not_requested": ["builder_meta", "nsites", "elements", "nelements", "composition", "composition_reduced", "chemsys", "symmetry", "property_name", "deprecated", "deprecation_reasons", "last_updated", "origins", "warnings", "task_ids", "uncorrected_energy_per_atom", "equilibrium_reaction_energy_per_atom", "decomposes_to", "xas", "grain_boundaries", "cbm", "vbm", "is_gap_direct", "is_metal", "es_source_calc_id", "bandstructure", "dos", "dos_energy_up", "dos_energy_down", "is_magnetic", "ordering", "total_magnetization_normalized_vol", "total_magnetization_normalized_formula_units", "num_magnetic_sites", "num_unique_magnetic_sites", "types_of_magnetic_species", "bulk_modulus", "shear_modulus", "universal_anisotropy", "homogeneous_poisson", "e_total", "e_ionic", "e_electronic", "n", "e_ij_max", "weighted_surface_energy_EV_PER_ANG2", "weighted_surface_energy", "weighted_work_function", "surface_anisotropy", "shape_factor", "has_reconstructed", "possible_species", "has_props", "theoretical", "database_IDs"]}