{
  "builder_meta": null,
  "nsites": null,
  "elements": null,
  "nelements": null,
  "composition": null,
  "composition_reduced": null,
  "formula_pretty": "Ho5Ir2",
  "formula_anonymous": "A2B5",
  "chemsys": null,
  "volume": 360.7872240930712,
  "density": 11.129739301109906,
  "density_atomic": 25.77051600664794,
  "symmetry": null,
  "property_name": null,
  "material_id": "mp-1104687",
  "deprecated": null,
  "deprecation_reasons": null,
  "last_updated": null,
  "origins": null,
  "warnings": null,
  "structure": {
    "@module": "pymatgen.core.structure",
    "@class": "Structure",
    "charge": 0,
    "lattice": {
      "matrix": [
        [0.0, 6.485312, 0.0],
        [-0.008114, 0.0, 7.170224],
        [7.759714, -3.242656, -0.91827]
      ],
      "pbc": [true, true, true],
      "a": 6.485312,
      "b": 7.170228590998477,
      "c": 8.459976305465164,
      "alpha": 96.29114780144788,
      "beta": 112.53785463362789,
      "gamma": 90.0,
      "volume": 360.7872240930712
    },
    "properties": {},
    "sites": [
      {
        "species": [{ "element": "Ho", "occu": 1 }],
        "abc": [0.969722, 0.918281, 0.181771],
        "properties": { "magmom": 0.001 },
        "label": "Ho",
        "xyz": [1.40304004146, 5.6995288994880005, 6.417365608774]
      },
      {
        "species": [{ "element": "Ho", "occu": 1 }],
        "abc": [0.787952, 0.581719, 0.818229],
        "properties": { "magmom": 0.001 },
        "label": "Ho",
        "xyz": [6.34450295854, 2.4568793847999997, 3.4197003912260002]
      },
      {
        "species": [{ "element": "Ho", "occu": 1 }],
        "abc": [0.030278, 0.081719, 0.818229],
        "properties": { "magmom": 0.001 },
        "label": "Ho",
        "xyz": [6.348559958539999, -2.4568728994880003, -0.16541160877399996]
      },
      {
        "species": [{ "element": "Ho", "occu": 1 }],
        "abc": [0.212048, 0.418280999999999, 0.181771],
        "properties": { "magmom": 0.001 },
        "label": "Ho",
        "xyz": [1.40709704146, 0.7857766152, 2.832253608773993]
      },
      {
        "species": [{ "element": "Ho", "occu": 1 }],
        "abc": [0.654005, 0.818647, 0.442434],
        "properties": { "magmom": 0.001 },
        "label": "Ho",
        "xyz": [3.426518802118, 2.8067652098559996, 5.463608497748001]
      },
      {
        "species": [{ "element": "Ho", "occu": 1 }],
        "abc": [0.211570999999999, 0.681353, 0.557566],
        "properties": { "magmom": 0.001 },
        "label": "Ho",
        "xyz": [4.321024197882, -0.43589079014400656, 4.373457502252]
      },
      {
        "species": [{ "element": "Ho", "occu": 1 }],
        "abc": [0.345995, 0.181353, 0.557566],
        "properties": { "magmom": 0.001 },
        "label": "Ho",
        "xyz": [4.325081197882, 0.4358907901439999, 0.7883455022519998]
      },
      {
        "species": [{ "element": "Ho", "occu": 1 }],
        "abc": [0.788428999999999, 0.318646999999999, 0.442434],
        "properties": { "magmom": 0.001 },
        "label": "Ho",
        "xyz": [3.430575802118, 3.6785467901439937, 1.8784964977479928]
      },
      {
        "species": [{ "element": "Ho", "occu": 1 }],
        "abc": [0.427291, 0.75, 0.0],
        "properties": { "magmom": 0.001 },
        "label": "Ho",
        "xyz": [-0.0060855, 2.771115449792, 5.377668]
      },
      {
        "species": [{ "element": "Ho", "occu": 1 }],
        "abc": [0.572709, 0.25, 0.0],
        "properties": { "magmom": 0.001 },
        "label": "Ho",
        "xyz": [-0.0020285, 3.7141965502080003, 1.792556]
      },
      {
        "species": [{ "element": "Ir", "occu": 1 }],
        "abc": [0.827203999999999, 0.573361999999999, 0.21895799999999901],
        "properties": { "magmom": -0.0 },
        "label": "Ir",
        "xyz": [1.6943991987439921, 4.654670555199997, 3.910071410427994]
      },
      {
        "species": [{ "element": "Ir", "occu": 1 }],
        "abc": [0.608247, 0.926638, 0.781042],
        "properties": { "magmom": -0.0 },
        "label": "Ir",
        "xyz": [6.053143801256, 1.4120210405120002, 5.926994589572]
      },
      {
        "species": [{ "element": "Ir", "occu": 1 }],
        "abc": [0.172796, 0.426637999999999, 0.781042],
        "properties": { "magmom": -0.0 },
        "label": "Ir",
        "xyz": [6.057200801256, -1.4120145552, 2.341882589571993]
      },
      {
        "species": [{ "element": "Ir", "occu": 1 }],
        "abc": [0.391752999999999, 0.073362, 0.21895799999999901],
        "properties": { "magmom": -0.0 },
        "label": "Ir",
        "xyz": [1.6984561987439921, 1.830634959487997, 0.3249594104280009]
      }
    ]
  },
  "task_ids": null,
  "uncorrected_energy_per_atom": null,
  "energy_per_atom": -6.478136273571429,
  "formation_energy_per_atom": -0.6688126042857101,
  "energy_above_hull": 0.0,
  "is_stable": true,
  "equilibrium_reaction_energy_per_atom": null,
  "decomposes_to": null,
  "xas": null,
  "grain_boundaries": null,
  "band_gap": 0.0,
  "cbm": null,
  "vbm": null,
  "efermi": 4.18097917,
  "is_gap_direct": null,
  "is_metal": null,
  "es_source_calc_id": null,
  "bandstructure": null,
  "dos": null,
  "dos_energy_up": null,
  "dos_energy_down": null,
  "is_magnetic": null,
  "ordering": null,
  "total_magnetization": 0.020328,
  "total_magnetization_normalized_vol": null,
  "total_magnetization_normalized_formula_units": null,
  "num_magnetic_sites": null,
  "num_unique_magnetic_sites": null,
  "types_of_magnetic_species": null,
  "bulk_modulus": null,
  "shear_modulus": null,
  "universal_anisotropy": null,
  "homogeneous_poisson": null,
  "e_total": null,
  "e_ionic": null,
  "e_electronic": null,
  "n": null,
  "e_ij_max": null,
  "weighted_surface_energy_EV_PER_ANG2": null,
  "weighted_surface_energy": null,
  "weighted_work_function": null,
  "surface_anisotropy": null,
  "shape_factor": null,
  "has_reconstructed": null,
  "possible_species": null,
  "has_props": null,
  "theoretical": null,
  "database_IDs": null,
  "fields_not_requested": [
    "builder_meta",
    "nsites",
    "elements",
    "nelements",
    "composition",
    "composition_reduced",
    "chemsys",
    "symmetry",
    "property_name",
    "deprecated",
    "deprecation_reasons",
    "last_updated",
    "origins",
    "warnings",
    "task_ids",
    "uncorrected_energy_per_atom",
    "equilibrium_reaction_energy_per_atom",
    "decomposes_to",
    "xas",
    "grain_boundaries",
    "cbm",
    "vbm",
    "is_gap_direct",
    "is_metal",
    "es_source_calc_id",
    "bandstructure",
    "dos",
    "dos_energy_up",
    "dos_energy_down",
    "is_magnetic",
    "ordering",
    "total_magnetization_normalized_vol",
    "total_magnetization_normalized_formula_units",
    "num_magnetic_sites",
    "num_unique_magnetic_sites",
    "types_of_magnetic_species",
    "bulk_modulus",
    "shear_modulus",
    "universal_anisotropy",
    "homogeneous_poisson",
    "e_total",
    "e_ionic",
    "e_electronic",
    "n",
    "e_ij_max",
    "weighted_surface_energy_EV_PER_ANG2",
    "weighted_surface_energy",
    "weighted_work_function",
    "surface_anisotropy",
    "shape_factor",
    "has_reconstructed",
    "possible_species",
    "has_props",
    "theoretical",
    "database_IDs"
  ]
}
