{
  "builder_meta": null,
  "nsites": null,
  "elements": null,
  "nelements": null,
  "composition": null,
  "composition_reduced": null,
  "formula_pretty": "Ho5Ir3",
  "formula_anonymous": "A3B5",
  "chemsys": null,
  "volume": 734.3588258310866,
  "density": 12.674554343619358,
  "density_atomic": 22.948713307221457,
  "symmetry": null,
  "property_name": null,
  "material_id": "mp-1197997",
  "deprecated": null,
  "deprecation_reasons": null,
  "last_updated": null,
  "origins": null,
  "warnings": null,
  "structure": {
    "@module": "pymatgen.core.structure",
    "@class": "Structure",
    "charge": 0,
    "lattice": {
      "matrix": [
        [-1.321e-5, 5.258e-5, 6.3324361],
        [10.76892899, 4.071e-5, -1.752e-5],
        [4.079e-5, 10.76874243, 8.531000000000001e-5]
      ],
      "pbc": [true, true, true],
      "a": 6.332436100232072,
      "b": 10.768928990091199,
      "c": 10.768742430415164,
      "alpha": 89.99956637855347,
      "beta": 89.9990703601775,
      "gamma": 90.00021273672833,
      "volume": 734.3588258310866
    },
    "properties": {},
    "sites": [
      {
        "species": [{ "element": "Ho", "occu": 1 }],
        "abc": [0.38386296000000003, 0.83826245, 0.541924499999999],
        "properties": { "magmom": 0.0 },
        "label": "Ho",
        "xyz": [9.027205833304079, 5.835899666185301, 2.4308192105778272]
      },
      {
        "species": [{ "element": "Ho", "occu": 1 }],
        "abc": [0.88386038, 0.6617441900000001, 0.54191263],
        "properties": { "magmom": 0.0 },
        "label": "Ho",
        "xyz": [7.126286620475626, 5.835790945018646, 5.597024014479975]
      },
      {
        "species": [{ "element": "Ho", "occu": 1 }],
        "abc": [0.88387103, 0.83826568, 0.9580740600000001],
        "properties": { "magmom": 0.0 },
        "label": "Ho",
        "xyz": [9.027250986578665, 10.317333380738956, 5.597123864999528]
      },
      {
        "species": [{ "element": "Ho", "occu": 1 }],
        "abc": [0.38386858, 0.66173731, 0.95808652],
        "properties": { "magmom": 0.0 },
        "label": "Ho",
        "xyz": [7.126236110868825, 10.317434082670871, 2.430893394371088]
      },
      {
        "species": [{ "element": "Ho", "occu": 1 }],
        "abc": [0.88387161, 0.5419569200000001, 0.83828662],
        "properties": { "magmom": -0.0 },
        "label": "Ho",
        "xyz": [5.836318104886373, 9.027361230330753, 5.597122510075436]
      },
      {
        "species": [{ "element": "Ho", "occu": 1 }],
        "abc": [0.38385457, 0.95804495, 0.83827257],
        "properties": { "magmom": -0.0 },
        "label": "Ho",
        "xyz": [10.31714715819736, 9.027200577547351, 2.4307892643033995]
      },
      {
        "species": [{ "element": "Ho", "occu": 1 }],
        "abc": [0.38386971000000003, 0.54196171, 0.66170619],
        "properties": { "magmom": 0.0 },
        "label": "Ho",
        "xyz": [5.8363690903655945, 7.125785771577207, 2.4308773642864407]
      },
      {
        "species": [{ "element": "Ho", "occu": 1 }],
        "abc": [0.88385379, 0.95803788, 0.6617156200000001],
        "properties": { "magmom": -0.0 },
        "label": "Ho",
        "xyz": [10.317057215121714, 7.12593054844213, 5.596987313053704]
      },
      {
        "species": [{ "element": "Ho", "occu": 1 }],
        "abc": [0.6161416, 0.16171543, 0.45803159],
        "properties": { "magmom": -0.0 },
        "label": "Ho",
        "xyz": [1.7415125261353355, 4.9324631976738464, 3.9017135519723687]
      },
      {
        "species": [{ "element": "Ho", "occu": 1 }],
        "abc": [0.11614106, 0.33828009000000003, 0.4580473],
        "properties": { "magmom": 0.0 },
        "label": "Ho",
        "xyz": [3.642931417466774, 4.932613272536337, 0.7354889903842522]
      },
      {
        "species": [{ "element": "Ho", "occu": 1 }],
        "abc": [0.11613594000000001, 0.16171247, 0.04196876],
        "properties": { "magmom": 0.0 },
        "label": "Ho",
        "xyz": [1.741470283977458, 0.4519634562888657, 0.7354241661158752]
      },
      {
        "species": [{ "element": "Ho", "occu": 1 }],
        "abc": [0.616135299999999, 0.33828737000000003, 0.04195414],
        "properties": { "magmom": 0.0 },
        "label": "Ho",
        "xyz": [3.642986237905914, 0.45183949560506687, 3.901635068517285]
      },
      {
        "species": [{ "element": "Ho", "occu": 1 }],
        "abc": [0.11612754, 0.45808309, 0.16173484],
        "properties": { "magmom": 0.0 },
        "label": "Ho",
        "xyz": [4.933069330849099, 1.7417055884659083, 0.7353759984836576]
      },
      {
        "species": [{ "element": "Ho", "occu": 1 }],
        "abc": [0.61614117, 0.04191674, 0.1617495],
        "properties": { "magmom": 0.0 },
        "label": "Ho",
        "xyz": [0.45139685508954186, 1.7418728068144889, 3.9016876520727974]
      },
      {
        "species": [{ "element": "Ho", "occu": 1 }],
        "abc": [0.61612635, 0.45807764, 0.33827078],
        "properties": { "magmom": -0.0 },
        "label": "Ho",
        "xyz": [4.933011236102816, 3.6428019456794027, 3.901601573261224]
      },
      {
        "species": [{ "element": "Ho", "occu": 1 }],
        "abc": [0.11614204, 0.04192146, 0.33826127],
        "properties": { "magmom": -0.0 },
        "label": "Ho",
        "xyz": [0.45146148933798025, 3.642656304045786, 0.7354901694286086]
      },
      {
        "species": [{ "element": "Ho", "occu": 1 }],
        "abc": [0.50000704, 0.74999169, 0.25000009],
        "properties": { "magmom": 0.0 },
        "label": "Ho",
        "xyz": [8.076610845110766, 2.6922433992186816, 3.1662708180034125]
      },
      {
        "species": [{ "element": "Ho", "occu": 1 }],
        "abc": [-5.42e-6, 0.74999247, 0.24999598],
        "properties": { "magmom": 0.0 },
        "label": "Ho",
        "xyz": [8.076625849872327, 2.692172849063901, -2.6134514682599993e-5]
      },
      {
        "species": [{ "element": "Ho", "occu": 1 }],
        "abc": [1.291e-5, 0.25000577, 0.75000385],
        "properties": { "magmom": -0.0 },
        "label": "Ho",
        "xyz": [2.692324976706773, 8.07660846057206, 0.0001413544774041]
      },
      {
        "species": [{ "element": "Ho", "occu": 1 }],
        "abc": [0.4999802, 0.25000452, 0.75000035],
        "properties": { "magmom": -0.0 },
        "label": "Ho",
        "xyz": [2.6923049108348693, 8.076597058202776, 3.1661522702158877]
      },
      {
        "species": [{ "element": "Ir", "occu": 1 }],
        "abc": [0.24999934000000001, 0.90348985, 0.09651762],
        "properties": { "magmom": -0.0 },
        "label": "Ir",
        "xyz": [9.729618672298189, 1.0394233157737074, 1.5830972503681644]
      },
      {
        "species": [{ "element": "Ir", "occu": 1 }],
        "abc": [0.75000458, 0.59652003, 0.09652022],
        "properties": { "magmom": -0.0 },
        "label": "Ir",
        "xyz": [6.423875873681942, 1.0394651080381723, 4.74935386066638]
      },
      {
        "species": [{ "element": "Ir", "occu": 1 }],
        "abc": [0.74999928, 0.9034941, 0.40349277],
        "properties": { "magmom": -0.0 },
        "label": "Ir",
        "xyz": [9.729670356763558, 4.3451859287041845, 4.749341108397585]
      },
      {
        "species": [{ "element": "Ir", "occu": 1 }],
        "abc": [0.24999643, 0.59651615, 0.40349516],
        "properties": { "magmom": -0.0 },
        "label": "Ir",
        "xyz": [6.423853216852924, 4.345172878776395, 1.5831103894122744]
      },
      {
        "species": [{ "element": "Ir", "occu": 1 }],
        "abc": [0.75000395, 0.0964838, 0.9035000000000001],
        "properties": { "magmom": -0.0 },
        "label": "Ir",
        "xyz": [1.0390541370981823, 9.729602148568189, 4.7494274753114185]
      },
      {
        "species": [{ "element": "Ir", "occu": 1 }],
        "abc": [0.25000333, 0.40350032, 0.90350145],
        "properties": { "magmom": -0.0 },
        "label": "Ir",
        "xyz": [4.345299844802432, 9.729603971854642, 1.583200120395306]
      },
      {
        "species": [{ "element": "Ir", "occu": 1 }],
        "abc": [0.24999903, 0.09648433000000001, 0.59648926],
        "properties": { "magmom": 0.0 },
        "label": "Ir",
        "xyz": [1.0390539267274557, 6.423456276027374, 1.583152078630292]
      },
      {
        "species": [{ "element": "Ir", "occu": 1 }],
        "abc": [0.74999253, 0.40350292, 0.59648495],
        "properties": { "magmom": 0.0 },
        "label": "Ir",
        "xyz": [4.345308715957439, 6.423448651132529, 4.749323588462259]
      },
      {
        "species": [{ "element": "Ir", "occu": 1 }],
        "abc": [0.13063226, 0.7499985, 0.75000023],
        "properties": { "magmom": 0.0 },
        "label": "Ir",
        "xyz": [8.07670945596374, 8.076596700393925, 0.8272712815944873]
      },
      {
        "species": [{ "element": "Ir", "occu": 1 }],
        "abc": [0.6306323500000001, 0.74999929, 0.7500009200000001],
        "properties": { "magmom": -0.0 },
        "label": "Ir",
        "xyz": [8.0767113584446, 8.076630420863095, 3.99348990155876]
      },
      {
        "species": [{ "element": "Ir", "occu": 1 }],
        "abc": [0.86936848, 0.25000474, 0.24999885],
        "properties": { "magmom": 0.0 },
        "label": "Ir",
        "xyz": [2.692282005318883, 2.692229112533849, 5.505237294272977]
      },
      {
        "species": [{ "element": "Ir", "occu": 1 }],
        "abc": [0.36937007, 0.25000414, 0.249998399999999],
        "properties": { "magmom": 0.0 },
        "label": "Ir",
        "xyz": [2.69228214892213, 2.6921979766589215, 2.3390293128184982]
      }
    ]
  },
  "task_ids": null,
  "uncorrected_energy_per_atom": null,
  "energy_per_atom": -7.015371385312498,
  "formation_energy_per_atom": -0.8274089021874941,
  "energy_above_hull": 0.0,
  "is_stable": true,
  "equilibrium_reaction_energy_per_atom": null,
  "decomposes_to": null,
  "xas": null,
  "grain_boundaries": null,
  "band_gap": 0.0,
  "cbm": null,
  "vbm": null,
  "efermi": 4.75459137,
  "is_gap_direct": null,
  "is_metal": null,
  "es_source_calc_id": null,
  "bandstructure": null,
  "dos": null,
  "dos_energy_up": null,
  "dos_energy_down": null,
  "is_magnetic": null,
  "ordering": null,
  "total_magnetization": 2e-7,
  "total_magnetization_normalized_vol": null,
  "total_magnetization_normalized_formula_units": null,
  "num_magnetic_sites": null,
  "num_unique_magnetic_sites": null,
  "types_of_magnetic_species": null,
  "bulk_modulus": null,
  "shear_modulus": null,
  "universal_anisotropy": null,
  "homogeneous_poisson": null,
  "e_total": null,
  "e_ionic": null,
  "e_electronic": null,
  "n": null,
  "e_ij_max": null,
  "weighted_surface_energy_EV_PER_ANG2": null,
  "weighted_surface_energy": null,
  "weighted_work_function": null,
  "surface_anisotropy": null,
  "shape_factor": null,
  "has_reconstructed": null,
  "possible_species": null,
  "has_props": null,
  "theoretical": null,
  "database_IDs": null,
  "fields_not_requested": [
    "builder_meta",
    "nsites",
    "elements",
    "nelements",
    "composition",
    "composition_reduced",
    "chemsys",
    "symmetry",
    "property_name",
    "deprecated",
    "deprecation_reasons",
    "last_updated",
    "origins",
    "warnings",
    "task_ids",
    "uncorrected_energy_per_atom",
    "equilibrium_reaction_energy_per_atom",
    "decomposes_to",
    "xas",
    "grain_boundaries",
    "cbm",
    "vbm",
    "is_gap_direct",
    "is_metal",
    "es_source_calc_id",
    "bandstructure",
    "dos",
    "dos_energy_up",
    "dos_energy_down",
    "is_magnetic",
    "ordering",
    "total_magnetization_normalized_vol",
    "total_magnetization_normalized_formula_units",
    "num_magnetic_sites",
    "num_unique_magnetic_sites",
    "types_of_magnetic_species",
    "bulk_modulus",
    "shear_modulus",
    "universal_anisotropy",
    "homogeneous_poisson",
    "e_total",
    "e_ionic",
    "e_electronic",
    "n",
    "e_ij_max",
    "weighted_surface_energy_EV_PER_ANG2",
    "weighted_surface_energy",
    "weighted_work_function",
    "surface_anisotropy",
    "shape_factor",
    "has_reconstructed",
    "possible_species",
    "has_props",
    "theoretical",
    "database_IDs"
  ]
}
