{
  "builder_meta": null,
  "nsites": null,
  "elements": null,
  "nelements": null,
  "composition": null,
  "composition_reduced": null,
  "formula_pretty": "Ho5In3",
  "formula_anonymous": "A3B5",
  "chemsys": null,
  "volume": 451.19048148413304,
  "density": 8.605436512734162,
  "density_atomic": 28.199405092758315,
  "symmetry": null,
  "property_name": null,
  "material_id": "mp-1189750",
  "deprecated": null,
  "deprecation_reasons": null,
  "last_updated": null,
  "origins": null,
  "warnings": null,
  "structure": {
    "@module": "pymatgen.core.structure",
    "@class": "Structure",
    "charge": 0,
    "lattice": {
      "matrix": [
        [0.0, 0.0, 6.125198],
        [-6.068829, 6.068829, 3.062599],
        [-6.068829, -6.068829, 3.062599]
      ],
      "pbc": [true, true, true],
      "a": 6.125198,
      "b": 9.112677076319725,
      "c": 9.112677076319725,
      "alpha": 83.51457059160957,
      "beta": 70.36170441512161,
      "gamma": 70.36170441512161,
      "volume": 451.19048148413304
    },
    "properties": {},
    "sites": [
      {
        "species": [{ "element": "Ho", "occu": 1 }],
        "abc": [0.71869, 0.862182999999999, 0.700437],
        "properties": { "magmom": 0.014 },
        "label": "Ho",
        "xyz": [-9.483273571979993, 0.9816088154339946, 9.187796999999998]
      },
      {
        "species": [{ "element": "Ho", "occu": 1 }],
        "abc": [0.28131, 0.137817, 0.299562999999999],
        "properties": { "magmom": 0.014 },
        "label": "Ho",
        "xyz": [-2.654384428019994, -0.981608815433994, 3.062598999999997]
      },
      {
        "species": [{ "element": "Ho", "occu": 1 }],
        "abc": [0.7813100000000001, 0.299562999999999, 0.137817],
        "properties": { "magmom": 0.014 },
        "label": "Ho",
        "xyz": [-2.654384428019994, 0.981608815433994, 6.1251979999999975]
      },
      {
        "species": [{ "element": "Ho", "occu": 1 }],
        "abc": [0.21869000000000002, 0.700437, 0.862182999999999],
        "properties": { "magmom": 0.014 },
        "label": "Ho",
        "xyz": [-9.483273571979993, -0.9816088154339946, 6.1251979999999975]
      },
      {
        "species": [{ "element": "Ho", "occu": 1 }],
        "abc": [0.580873, 0.700437, 0.137817],
        "properties": { "magmom": 0.014 },
        "label": "Ho",
        "xyz": [-5.087220184565999, 3.4144445719799994, 6.125198000000001]
      },
      {
        "species": [{ "element": "Ho", "occu": 1 }],
        "abc": [0.41912699999999903, 0.299562999999999, 0.862182999999999],
        "properties": { "magmom": 0.014 },
        "label": "Ho",
        "xyz": [-7.050437815433988, -3.41444457198, 6.125197999999989]
      },
      {
        "species": [{ "element": "Ho", "occu": 1 }],
        "abc": [0.080873, 0.137817, 0.700437],
        "properties": { "magmom": 0.014 },
        "label": "Ho",
        "xyz": [-5.087220184565999, -3.4144445719799994, 3.062599]
      },
      {
        "species": [{ "element": "Ho", "occu": 1 }],
        "abc": [0.919126999999999, 0.862182999999999, 0.299562999999999],
        "properties": { "magmom": 0.014 },
        "label": "Ho",
        "xyz": [-7.050437815433988, 3.41444457198, 9.187796999999987]
      },
      {
        "species": [{ "element": "Ho", "occu": 1 }],
        "abc": [0.75, 0.5, 0.5],
        "properties": { "magmom": 0.022 },
        "label": "Ho",
        "xyz": [-6.068829, 0.0, 7.6564975]
      },
      {
        "species": [{ "element": "Ho", "occu": 1 }],
        "abc": [0.25, 0.5, 0.5],
        "properties": { "magmom": 0.022 },
        "label": "Ho",
        "xyz": [-6.068829, 0.0, 4.5938985]
      },
      {
        "species": [{ "element": "In", "occu": 1 }],
        "abc": [0.162566, 0.5, 0.174868],
        "properties": { "magmom": -0.001 },
        "label": "In",
        "xyz": [-4.095658489572, 1.973170510428, 3.0625989999999996]
      },
      {
        "species": [{ "element": "In", "occu": 1 }],
        "abc": [0.837434, 0.5, 0.825132],
        "properties": { "magmom": -0.001 },
        "label": "In",
        "xyz": [-8.041999510427999, -1.9731705104279995, 9.187797]
      },
      {
        "species": [{ "element": "In", "occu": 1 }],
        "abc": [0.337434, 0.825132, 0.5],
        "properties": { "magmom": -0.001 },
        "label": "In",
        "xyz": [-8.041999510427999, 1.9731705104279995, 6.125198]
      },
      {
        "species": [{ "element": "In", "occu": 1 }],
        "abc": [0.662566, 0.174868, 0.5],
        "properties": { "magmom": -0.001 },
        "label": "In",
        "xyz": [-4.095658489572, -1.973170510428, 6.125198]
      },
      {
        "species": [{ "element": "In", "occu": 1 }],
        "abc": [0.25, 0.0, 0.0],
        "properties": { "magmom": -0.0 },
        "label": "In",
        "xyz": [0.0, 0.0, 1.5312995]
      },
      {
        "species": [{ "element": "In", "occu": 1 }],
        "abc": [0.75, 0.0, 0.0],
        "properties": { "magmom": -0.0 },
        "label": "In",
        "xyz": [0.0, 0.0, 4.5938985]
      }
    ]
  },
  "task_ids": null,
  "uncorrected_energy_per_atom": null,
  "energy_per_atom": -4.27474189125,
  "formation_energy_per_atom": -0.366502071874995,
  "energy_above_hull": 0.0,
  "is_stable": true,
  "equilibrium_reaction_energy_per_atom": null,
  "decomposes_to": null,
  "xas": null,
  "grain_boundaries": null,
  "band_gap": 0.0,
  "cbm": null,
  "vbm": null,
  "efermi": 4.63033386,
  "is_gap_direct": null,
  "is_metal": null,
  "es_source_calc_id": null,
  "bandstructure": null,
  "dos": null,
  "dos_energy_up": null,
  "dos_energy_down": null,
  "is_magnetic": null,
  "ordering": null,
  "total_magnetization": 0.236920699999999,
  "total_magnetization_normalized_vol": null,
  "total_magnetization_normalized_formula_units": null,
  "num_magnetic_sites": null,
  "num_unique_magnetic_sites": null,
  "types_of_magnetic_species": null,
  "bulk_modulus": null,
  "shear_modulus": null,
  "universal_anisotropy": null,
  "homogeneous_poisson": null,
  "e_total": null,
  "e_ionic": null,
  "e_electronic": null,
  "n": null,
  "e_ij_max": null,
  "weighted_surface_energy_EV_PER_ANG2": null,
  "weighted_surface_energy": null,
  "weighted_work_function": null,
  "surface_anisotropy": null,
  "shape_factor": null,
  "has_reconstructed": null,
  "possible_species": null,
  "has_props": null,
  "theoretical": null,
  "database_IDs": null,
  "fields_not_requested": [
    "builder_meta",
    "nsites",
    "elements",
    "nelements",
    "composition",
    "composition_reduced",
    "chemsys",
    "symmetry",
    "property_name",
    "deprecated",
    "deprecation_reasons",
    "last_updated",
    "origins",
    "warnings",
    "task_ids",
    "uncorrected_energy_per_atom",
    "equilibrium_reaction_energy_per_atom",
    "decomposes_to",
    "xas",
    "grain_boundaries",
    "cbm",
    "vbm",
    "is_gap_direct",
    "is_metal",
    "es_source_calc_id",
    "bandstructure",
    "dos",
    "dos_energy_up",
    "dos_energy_down",
    "is_magnetic",
    "ordering",
    "total_magnetization_normalized_vol",
    "total_magnetization_normalized_formula_units",
    "num_magnetic_sites",
    "num_unique_magnetic_sites",
    "types_of_magnetic_species",
    "bulk_modulus",
    "shear_modulus",
    "universal_anisotropy",
    "homogeneous_poisson",
    "e_total",
    "e_ionic",
    "e_electronic",
    "n",
    "e_ij_max",
    "weighted_surface_energy_EV_PER_ANG2",
    "weighted_surface_energy",
    "weighted_work_function",
    "surface_anisotropy",
    "shape_factor",
    "has_reconstructed",
    "possible_species",
    "has_props",
    "theoretical",
    "database_IDs"
  ]
}
