{
  "builder_meta": null,
  "nsites": null,
  "elements": null,
  "nelements": null,
  "composition": null,
  "composition_reduced": null,
  "formula_pretty": "Ho5Pt3",
  "formula_anonymous": "A3B5",
  "chemsys": null,
  "volume": 378.01121769532296,
  "density": 12.386934029174693,
  "density_atomic": 23.625701105957685,
  "symmetry": null,
  "property_name": null,
  "material_id": "mp-1189141",
  "deprecated": null,
  "deprecation_reasons": null,
  "last_updated": null,
  "origins": null,
  "warnings": null,
  "structure": {
    "@module": "pymatgen.core.structure",
    "@class": "Structure",
    "charge": 0,
    "lattice": {
      "matrix": [
        [0.0, 0.0, -6.151579],
        [-4.211947, -7.295307, 0.0],
        [-4.211389, 7.294984, 0.0]
      ],
      "pbc": [true, true, true],
      "a": 6.151579,
      "b": 8.423894690406451,
      "c": 8.42333597036097,
      "alpha": 120.0021939222434,
      "beta": 90.0,
      "gamma": 90.0,
      "volume": 378.011217695323
    },
    "properties": {},
    "sites": [
      {
        "species": [{ "element": "Ho", "occu": 1 }],
        "abc": [0.500002, 0.333333, 0.666727],
        "properties": { "magmom": 0.0 },
        "label": "Ho",
        "xyz": [-4.211827683154, 2.4319962291369994, -3.0758018031579994]
      },
      {
        "species": [{ "element": "Ho", "occu": 1 }],
        "abc": [0.500002, 0.666605999999999, 0.333273],
        "properties": { "magmom": 0.0 },
        "label": "Ho",
        "xyz": [-4.2112513880789955, -2.4318742154099935, -3.0758018031579994]
      },
      {
        "species": [{ "element": "Ho", "occu": 1 }],
        "abc": [2e-6, 0.666667, 0.333273],
        "properties": { "magmom": 0.0 },
        "label": "Ho",
        "xyz": [-4.211508316846, -2.4323192291370006, -1.2303158e-5]
      },
      {
        "species": [{ "element": "Ho", "occu": 1 }],
        "abc": [2e-6, 0.333393999999999, 0.666727],
        "properties": { "magmom": 0.0 },
        "label": "Ho",
        "xyz": [-4.212084611920996, 2.4315512154100065, -1.2303158e-5]
      },
      {
        "species": [{ "element": "Ho", "occu": 1 }],
        "abc": [0.750004, 0.244606, 0.0],
        "properties": { "magmom": 0.003 },
        "label": "Ho",
        "xyz": [-1.030267507882, -1.784475864042, -4.613708856316]
      },
      {
        "species": [{ "element": "Ho", "occu": 1 }],
        "abc": [0.749993999999999, 0.755367999999999, 0.75536],
        "properties": { "magmom": -0.001 },
        "label": "Ho",
        "xyz": [-6.362684776535996, -0.0003023437359921388, -4.613647340525994]
      },
      {
        "species": [{ "element": "Ho", "occu": 1 }],
        "abc": [0.749993999999999, 8e-6, 0.24464000000000002],
        "properties": { "magmom": -0.001 },
        "label": "Ho",
        "xyz": [-1.030307900536, 1.7845865233040004, -4.613647340525994]
      },
      {
        "species": [{ "element": "Ho", "occu": 1 }],
        "abc": [0.250004, 0.755394, 0.0],
        "properties": { "magmom": 0.003 },
        "label": "Ho",
        "xyz": [-3.1816794921180005, -5.510831135958, -1.537919356316]
      },
      {
        "species": [{ "element": "Ho", "occu": 1 }],
        "abc": [0.249994, 0.244632, 0.24464000000000002],
        "properties": { "magmom": -0.001 },
        "label": "Ho",
        "xyz": [-2.060651223464, -2.065626399971876e-5, -1.537857840526]
      },
      {
        "species": [{ "element": "Ho", "occu": 1 }],
        "abc": [0.249994, 0.999992, 0.75536],
        "properties": { "magmom": -0.001 },
        "label": "Ho",
        "xyz": [-7.393028099464001, -1.784909523303999, -1.537857840526]
      },
      {
        "species": [{ "element": "Pt", "occu": 1 }],
        "abc": [0.749997999999999, 0.607437, 0.0],
        "properties": { "magmom": 0.001 },
        "label": "Pt",
        "xyz": [-2.558492449839, -4.431439398159, -4.613671946841994]
      },
      {
        "species": [{ "element": "Pt", "occu": 1 }],
        "abc": [0.750003, 0.392534999999999, 0.392526],
        "properties": { "magmom": -0.0 },
        "label": "Pt",
        "xyz": [-3.306416294258996, -0.0001924436609925806, -4.613702704736999]
      },
      {
        "species": [{ "element": "Pt", "occu": 1 }],
        "abc": [0.750003, 9e-6, 0.607474],
        "properties": { "magmom": -0.0 },
        "label": "Pt",
        "xyz": [-2.5583472289089997, 4.431447452653, -4.613702704736999]
      },
      {
        "species": [{ "element": "Pt", "occu": 1 }],
        "abc": [0.249998, 0.392563, 0.0],
        "properties": { "magmom": 0.001 },
        "label": "Pt",
        "xyz": [-1.653454550161, -2.863867601841, -1.537882446842]
      },
      {
        "species": [{ "element": "Pt", "occu": 1 }],
        "abc": [0.250003, 0.607464999999999, 0.607474],
        "properties": { "magmom": -0.0 },
        "label": "Pt",
        "xyz": [
          -5.116919705740996, -0.00013055633899305974, -1.5379132047369999
        ]
      },
      {
        "species": [{ "element": "Pt", "occu": 1 }],
        "abc": [0.250003, 0.999991, 0.392526],
        "properties": { "magmom": -0.0 },
        "label": "Pt",
        "xyz": [-5.864988771090999, -4.431770452653, -1.5379132047369999]
      }
    ]
  },
  "task_ids": null,
  "uncorrected_energy_per_atom": null,
  "energy_per_atom": -40.99342702572917,
  "formation_energy_per_atom": -1.134693241354163,
  "energy_above_hull": 0.023405277395831002,
  "is_stable": false,
  "equilibrium_reaction_energy_per_atom": null,
  "decomposes_to": null,
  "xas": null,
  "grain_boundaries": null,
  "band_gap": 0.0,
  "cbm": null,
  "vbm": null,
  "efermi": 4.60699148,
  "is_gap_direct": null,
  "is_metal": null,
  "es_source_calc_id": null,
  "bandstructure": null,
  "dos": null,
  "dos_energy_up": null,
  "dos_energy_down": null,
  "is_magnetic": null,
  "ordering": null,
  "total_magnetization": 2.1400000000000002e-5,
  "total_magnetization_normalized_vol": null,
  "total_magnetization_normalized_formula_units": null,
  "num_magnetic_sites": null,
  "num_unique_magnetic_sites": null,
  "types_of_magnetic_species": null,
  "bulk_modulus": null,
  "shear_modulus": null,
  "universal_anisotropy": null,
  "homogeneous_poisson": null,
  "e_total": null,
  "e_ionic": null,
  "e_electronic": null,
  "n": null,
  "e_ij_max": null,
  "weighted_surface_energy_EV_PER_ANG2": null,
  "weighted_surface_energy": null,
  "weighted_work_function": null,
  "surface_anisotropy": null,
  "shape_factor": null,
  "has_reconstructed": null,
  "possible_species": null,
  "has_props": null,
  "theoretical": null,
  "database_IDs": null,
  "fields_not_requested": [
    "builder_meta",
    "nsites",
    "elements",
    "nelements",
    "composition",
    "composition_reduced",
    "chemsys",
    "symmetry",
    "property_name",
    "deprecated",
    "deprecation_reasons",
    "last_updated",
    "origins",
    "warnings",
    "task_ids",
    "uncorrected_energy_per_atom",
    "equilibrium_reaction_energy_per_atom",
    "decomposes_to",
    "xas",
    "grain_boundaries",
    "cbm",
    "vbm",
    "is_gap_direct",
    "is_metal",
    "es_source_calc_id",
    "bandstructure",
    "dos",
    "dos_energy_up",
    "dos_energy_down",
    "is_magnetic",
    "ordering",
    "total_magnetization_normalized_vol",
    "total_magnetization_normalized_formula_units",
    "num_magnetic_sites",
    "num_unique_magnetic_sites",
    "types_of_magnetic_species",
    "bulk_modulus",
    "shear_modulus",
    "universal_anisotropy",
    "homogeneous_poisson",
    "e_total",
    "e_ionic",
    "e_electronic",
    "n",
    "e_ij_max",
    "weighted_surface_energy_EV_PER_ANG2",
    "weighted_surface_energy",
    "weighted_work_function",
    "surface_anisotropy",
    "shape_factor",
    "has_reconstructed",
    "possible_species",
    "has_props",
    "theoretical",
    "database_IDs"
  ]
}
