{
  "builder_meta": null,
  "nsites": null,
  "elements": null,
  "nelements": null,
  "composition": null,
  "composition_reduced": null,
  "formula_pretty": "Ho5Pb3",
  "formula_anonymous": "A3B5",
  "chemsys": null,
  "volume": 457.419753887676,
  "density": 10.500452862044444,
  "density_atomic": 28.58873461797975,
  "symmetry": null,
  "property_name": null,
  "material_id": "mp-30730",
  "deprecated": null,
  "deprecation_reasons": null,
  "last_updated": null,
  "origins": null,
  "warnings": null,
  "structure": {
    "@module": "pymatgen.core.structure",
    "@class": "Structure",
    "charge": 0,
    "lattice": {
      "matrix": [
        [8.95661175, 7.179999999999996e-6, -0.0],
        [-4.47829972, 7.75664226, -0.0],
        [-0.0, 0.0, 6.58411191]
      ],
      "pbc": [true, true, true],
      "a": 8.956611750002878,
      "b": 8.956599105227943,
      "c": 6.58411191,
      "alpha": 90.0,
      "beta": 90.0,
      "gamma": 119.999955305698,
      "volume": 457.419753887676
    },
    "properties": {},
    "sites": [
      {
        "species": [{ "element": "Ho", "occu": 1 }],
        "abc": [0.333333, 0.666667, -0.0],
        "properties": { "magmom": 0.0 },
        "label": "Ho",
        "xyz": [-3.749704897693107e-7, 5.17109981887836, 0.0]
      },
      {
        "species": [{ "element": "Ho", "occu": 1 }],
        "abc": [0.666667, 0.333333, 0.5],
        "properties": { "magmom": 0.0 },
        "label": "Ho",
        "xyz": [4.478312404970491, 2.5855496211216398, 3.292055955]
      },
      {
        "species": [{ "element": "Ho", "occu": 1 }],
        "abc": [0.666667, 0.333333, -0.0],
        "properties": { "magmom": 0.0 },
        "label": "Ho",
        "xyz": [4.478312404970491, 2.5855496211216398, 0.0]
      },
      {
        "species": [{ "element": "Ho", "occu": 1 }],
        "abc": [0.333333, 0.666667, 0.5],
        "properties": { "magmom": 0.0 },
        "label": "Ho",
        "xyz": [-3.749704897693107e-7, 5.17109981887836, 3.292055955]
      },
      {
        "species": [{ "element": "Ho", "occu": 1 }],
        "abc": [0.23750667, -0.0, 0.25],
        "properties": { "magmom": 0.0 },
        "label": "Ho",
        "xyz": [2.127255031225373, 1.705297890599999e-6, 1.6460279775]
      },
      {
        "species": [{ "element": "Ho", "occu": 1 }],
        "abc": [0.23750667, 0.23750667, 0.75],
        "properties": { "magmom": 0.0 },
        "label": "Ho",
        "xyz": [1.0636289774662404, 1.8422559788517647, 4.9380839325]
      },
      {
        "species": [{ "element": "Ho", "occu": 1 }],
        "abc": [-0.0, 0.76249333, 0.75],
        "properties": { "magmom": 0.0 },
        "label": "Ho",
        "xyz": [-3.4146736662408674, 5.914387986446125, 4.9380839325]
      },
      {
        "species": [{ "element": "Ho", "occu": 1 }],
        "abc": [0.0, 0.23750667, 0.25],
        "properties": { "magmom": 0.0 },
        "label": "Ho",
        "xyz": [-1.0636260537591324, 1.842254273553874, 1.6460279775]
      },
      {
        "species": [{ "element": "Ho", "occu": 1 }],
        "abc": [0.76249333, 0.76249333, 0.25],
        "properties": { "magmom": 0.0 },
        "label": "Ho",
        "xyz": [3.4146830525337597, 5.914393461148235, 1.6460279775]
      },
      {
        "species": [{ "element": "Ho", "occu": 1 }],
        "abc": [0.76249333, 0.0, 0.75],
        "properties": { "magmom": 0.0 },
        "label": "Ho",
        "xyz": [6.829356718774627, 5.474702109399996e-6, 4.9380839325]
      },
      {
        "species": [{ "element": "Pb", "occu": 1 }],
        "abc": [0.60639464, 0.0, 0.25],
        "properties": { "magmom": -0.0 },
        "label": "Pb",
        "xyz": [5.43124135776102, 4.353913515199997e-6, 1.6460279775]
      },
      {
        "species": [{ "element": "Pb", "occu": 1 }],
        "abc": [0.60639464, 0.60639464, 0.75],
        "properties": { "magmom": -0.0 },
        "label": "Pb",
        "xyz": [2.7156244112395194, 4.703590644775001, 4.9380839325]
      },
      {
        "species": [{ "element": "Pb", "occu": 1 }],
        "abc": [0.0, 0.39360536, 0.75],
        "properties": { "magmom": -0.0 },
        "label": "Pb",
        "xyz": [-1.762682773478499, 3.0530559691385135, 4.9380839325]
      },
      {
        "species": [{ "element": "Pb", "occu": 1 }],
        "abc": [-0.0, 0.60639464, 0.25],
        "properties": { "magmom": -0.0 },
        "label": "Pb",
        "xyz": [-2.7156169465215005, 4.703586290861486, 1.6460279775]
      },
      {
        "species": [{ "element": "Pb", "occu": 1 }],
        "abc": [0.39360536, 0.39360536, 0.25],
        "properties": { "magmom": -0.0 },
        "label": "Pb",
        "xyz": [1.7626876187604814, 3.0530587952249983, 1.6460279775]
      },
      {
        "species": [{ "element": "Pb", "occu": 1 }],
        "abc": [0.39360536, -0.0, 0.75],
        "properties": { "magmom": -0.0 },
        "label": "Pb",
        "xyz": [3.5253703922389805, 2.8260864847999985e-6, 4.9380839325]
      }
    ]
  },
  "task_ids": null,
  "uncorrected_energy_per_atom": null,
  "energy_per_atom": -4.782693191874998,
  "formation_energy_per_atom": -0.516900874999993,
  "energy_above_hull": 0.0,
  "is_stable": true,
  "equilibrium_reaction_energy_per_atom": null,
  "decomposes_to": null,
  "xas": null,
  "grain_boundaries": null,
  "band_gap": 0.0,
  "cbm": null,
  "vbm": null,
  "efermi": 4.93196208,
  "is_gap_direct": null,
  "is_metal": null,
  "es_source_calc_id": null,
  "bandstructure": null,
  "dos": null,
  "dos_energy_up": null,
  "dos_energy_down": null,
  "is_magnetic": null,
  "ordering": null,
  "total_magnetization": 0.0006094,
  "total_magnetization_normalized_vol": null,
  "total_magnetization_normalized_formula_units": null,
  "num_magnetic_sites": null,
  "num_unique_magnetic_sites": null,
  "types_of_magnetic_species": null,
  "bulk_modulus": null,
  "shear_modulus": null,
  "universal_anisotropy": null,
  "homogeneous_poisson": null,
  "e_total": null,
  "e_ionic": null,
  "e_electronic": null,
  "n": null,
  "e_ij_max": null,
  "weighted_surface_energy_EV_PER_ANG2": null,
  "weighted_surface_energy": null,
  "weighted_work_function": null,
  "surface_anisotropy": null,
  "shape_factor": null,
  "has_reconstructed": null,
  "possible_species": null,
  "has_props": null,
  "theoretical": null,
  "database_IDs": null,
  "fields_not_requested": [
    "builder_meta",
    "nsites",
    "elements",
    "nelements",
    "composition",
    "composition_reduced",
    "chemsys",
    "symmetry",
    "property_name",
    "deprecated",
    "deprecation_reasons",
    "last_updated",
    "origins",
    "warnings",
    "task_ids",
    "uncorrected_energy_per_atom",
    "equilibrium_reaction_energy_per_atom",
    "decomposes_to",
    "xas",
    "grain_boundaries",
    "cbm",
    "vbm",
    "is_gap_direct",
    "is_metal",
    "es_source_calc_id",
    "bandstructure",
    "dos",
    "dos_energy_up",
    "dos_energy_down",
    "is_magnetic",
    "ordering",
    "total_magnetization_normalized_vol",
    "total_magnetization_normalized_formula_units",
    "num_magnetic_sites",
    "num_unique_magnetic_sites",
    "types_of_magnetic_species",
    "bulk_modulus",
    "shear_modulus",
    "universal_anisotropy",
    "homogeneous_poisson",
    "e_total",
    "e_ionic",
    "e_electronic",
    "n",
    "e_ij_max",
    "weighted_surface_energy_EV_PER_ANG2",
    "weighted_surface_energy",
    "weighted_work_function",
    "surface_anisotropy",
    "shape_factor",
    "has_reconstructed",
    "possible_species",
    "has_props",
    "theoretical",
    "database_IDs"
  ]
}
