{"builder_meta": null, "nsites": null, "elements": null, "nelements": null, "composition": null, "composition_reduced": null, "formula_pretty": "Ho5Ru2", "formula_anonymous": "A2B5", "chemsys": null, "volume": 355.9688284818025, "density": 9.579645343265685, "density_atomic": 25.426344891557324, "symmetry": null, "property_name": null, "material_id": "mp-1104820", "deprecated": null, "deprecation_reasons": null, "last_updated": null, "origins": null, "warnings": null, "structure": {"@module": "pymatgen.core.structure", "@class": "Structure", "charge": 0, "lattice": {"matrix": [[0.0, 6.301741, 0.0], [0.001462999999999, 0.0, 7.268312], [7.771535, -3.150871, -0.982437999999999]], "pbc": [true, true, true], "a": 6.301741, "b": 7.268312147239756, "c": 8.443336351153494, "alpha": 96.67119068814947, "beta": 111.91177332781604, "gamma": 90.0, "volume": 355.9688284818025}, "properties": {}, "sites": [{"species": [{"element": "Ho", "occu": 1}], "abc": [0.977777999999999, 0.915678, 0.186540999999999], "properties": {"magmom": -0.0}, "label": "Ho", "xyz": [1.4510495473489915, 5.573937084286997, 6.4721684285780015]}, {"species": [{"element": "Ho", "occu": 1}], "abc": [0.791237, 0.584322, 0.813458999999999], "properties": {"magmom": -0.0}, "label": "Ho", "xyz": [6.322679952650992, 2.423066270828002, 3.447861571422002]}, {"species": [{"element": "Ho", "occu": 1}], "abc": [0.022222, 0.084322, 0.813458999999999], "properties": {"magmom": -0.0}, "label": "Ho", "xyz": [6.321948452650992, -2.423067084286997, -0.18629442857799827]}, {"species": [{"element": "Ho", "occu": 1}], "abc": [0.208763, 0.415678, 0.186540999999999], "properties": {"magmom": -0.0}, "label": "Ho", "xyz": [1.450318047348992, 0.727803729172003, 2.838012428578001]}, {"species": [{"element": "Ho", "occu": 1}], "abc": [0.641015999999999, 0.814566, 0.435214], "properties": {"magmom": -0.0}, "label": "Ho", "xyz": [3.383472543547999, 2.6682136374619936, 5.492949060860001]}, {"species": [{"element": "Ho", "occu": 1}], "abc": [0.205801999999999, 0.685434, 0.564786], "properties": {"magmom": -0.0}, "label": "Ho", "xyz": [4.390256956451999, -0.4826569273240062, 4.42708093914]}, {"species": [{"element": "Ho", "occu": 1}], "abc": [0.358983999999999, 0.185434, 0.564786], "properties": {"magmom": -0.0}, "label": "Ho", "xyz": [4.389525456452, 0.4826563625379938, 0.7929249391400003]}, {"species": [{"element": "Ho", "occu": 1}], "abc": [0.794198, 0.314566, 0.435214], "properties": {"magmom": -0.0}, "label": "Ho", "xyz": [3.3827410435479996, 3.633526927323999, 1.8587930608600003]}, {"species": [{"element": "Ho", "occu": 1}], "abc": [0.418767, 0.75, 0.0], "properties": {"magmom": -0.0}, "label": "Ho", "xyz": [0.00109724999999925, 2.638961173347, 5.4512339999999995]}, {"species": [{"element": "Ho", "occu": 1}], "abc": [0.581233, 0.25, 0.0], "properties": {"magmom": -0.0}, "label": "Ho", "xyz": [0.00036574999999975, 3.662779826653, 1.817078]}, {"species": [{"element": "Ru", "occu": 1}], "abc": [0.822471, 0.576002, 0.219963], "properties": {"magmom": 0.0}, "label": "Ru", "xyz": [1.7102928441309995, 4.489924184237999, 3.97046223883]}, {"species": [{"element": "Ru", "occu": 1}], "abc": [0.602507999999999, 0.923998, 0.780037], "properties": {"magmom": 0.0}, "label": "Ru", "xyz": [6.063436655868999, 1.3390534042009943, 5.949567761170001]}, {"species": [{"element": "Ru", "occu": 1}], "abc": [0.177529, 0.423998, 0.780037], "properties": {"magmom": 0.0}, "label": "Ru", "xyz": [6.062705155869, -1.339054184238, 2.315411761170001]}, {"species": [{"element": "Ru", "occu": 1}], "abc": [0.397491999999999, 0.076002, 0.219963], "properties": {"magmom": 0.0}, "label": "Ru", "xyz": [1.7095613441309998, 1.8118165957989938, 0.3363062388300002]}]}, "task_ids": null, "uncorrected_energy_per_atom": null, "energy_per_atom": -6.297202833571428, "formation_energy_per_atom": -0.363316775714281, "energy_above_hull": 0.0, "is_stable": true, "equilibrium_reaction_energy_per_atom": null, "decomposes_to": null, "xas": null, "grain_boundaries": null, "band_gap": 0.0, "cbm": null, "vbm": null, "efermi": 3.87083755, "is_gap_direct": null, "is_metal": null, "es_source_calc_id": null, "bandstructure": null, "dos": null, "dos_energy_up": null, "dos_energy_down": null, "is_magnetic": null, "ordering": null, "total_magnetization": 0.0023114, "total_magnetization_normalized_vol": null, "total_magnetization_normalized_formula_units": null, "num_magnetic_sites": null, "num_unique_magnetic_sites": null, "types_of_magnetic_species": null, "bulk_modulus": null, "shear_modulus": null, "universal_anisotropy": null, "homogeneous_poisson": null, "e_total": null, "e_ionic": null, "e_electronic": null, "n": null, "e_ij_max": null, "weighted_surface_energy_EV_PER_ANG2": null, "weighted_surface_energy": null, "weighted_work_function": null, "surface_anisotropy": null, "shape_factor": null, "has_reconstructed": null, "possible_species": null, "has_props": null, "theoretical": null, "database_IDs": null, "fields_not_requested": ["builder_meta", "nsites", "elements", "nelements", "composition", "composition_reduced", "chemsys", "symmetry", "property_name", "deprecated", "deprecation_reasons", "last_updated", "origins", "warnings", "task_ids", "uncorrected_energy_per_atom", "equilibrium_reaction_energy_per_atom", "decomposes_to", "xas", "grain_boundaries", "cbm", "vbm", "is_gap_direct", "is_metal", "es_source_calc_id", "bandstructure", "dos", "dos_energy_up", "dos_energy_down", "is_magnetic", "ordering", "total_magnetization_normalized_vol", "total_magnetization_normalized_formula_units", "num_magnetic_sites", "num_unique_magnetic_sites", "types_of_magnetic_species", "bulk_modulus", "shear_modulus", "universal_anisotropy", "homogeneous_poisson", "e_total", "e_ionic", "e_electronic", "n", "e_ij_max", "weighted_surface_energy_EV_PER_ANG2", "weighted_surface_energy", "weighted_work_function", "surface_anisotropy", "shape_factor", "has_reconstructed", "possible_species", "has_props", "theoretical", "database_IDs"]}