{"builder_meta": null, "nsites": null, "elements": null, "nelements": null, "composition": null, "composition_reduced": null, "formula_pretty": "Ho5Rh3", "formula_anonymous": "A3B5", "chemsys": null, "volume": 361.79552830216517, "density": 10.40367754527027, "density_atomic": 22.612220518885323, "symmetry": null, "property_name": null, "material_id": "mp-30734", "deprecated": null, "deprecation_reasons": null, "last_updated": null, "origins": null, "warnings": null, "structure": {"@module": "pymatgen.core.structure", "@class": "Structure", "charge": 0, "lattice": {"matrix": [[8.17937932, 1e-08, -0.0], [-4.08968915, 7.08355099, 0.0], [0.0, 0.0, 6.2444159]], "pbc": [true, true, true], "a": 8.17937932, "b": 8.179379681342448, "c": 6.2444159, "alpha": 90.0, "beta": 90.0, "gamma": 119.99999434341005, "volume": 361.79552830216517}, "properties": {}, "sites": [{"species": [{"element": "Ho", "occu": 1}], "abc": [0.0, 0.7461752700000001, 0.75], "properties": {"magmom": -0.074}, "label": "Ho", "xyz": [-3.0516249057173206, 5.285570572522018, 4.683311925]}, {"species": [{"element": "Ho", "occu": 1}], "abc": [-0.0, 0.25382473, 0.25], "properties": {"magmom": -0.074}, "label": "Ho", "xyz": [-1.0380642442826795, 1.7979804174779828, 1.561103975]}, {"species": [{"element": "Ho", "occu": 1}], "abc": [0.7461752700000001, 0.7461752700000001, 0.25], "properties": {"magmom": -0.074}, "label": "Ho", "xyz": [3.0516256668160966, 5.285570579983771, 1.561103975]}, {"species": [{"element": "Ho", "occu": 1}], "abc": [0.7461752700000001, 0.0, 0.75], "properties": {"magmom": -0.074}, "label": "Ho", "xyz": [6.103250572533417, 7.461752700000001e-09, 4.683311925]}, {"species": [{"element": "Ho", "occu": 1}], "abc": [0.25382473, 0.25382473, 0.75], "properties": {"magmom": -0.074}, "label": "Ho", "xyz": [1.0380645031839044, 1.7979804200162302, 4.683311925]}, {"species": [{"element": "Ho", "occu": 1}], "abc": [0.25382473, -0.0, 0.25], "properties": {"magmom": -0.074}, "label": "Ho", "xyz": [2.076128747466584, 2.5382473e-09, 1.561103975]}, {"species": [{"element": "Ho", "occu": 1}], "abc": [0.333333, 0.666667, 0.5], "properties": {"magmom": -0.041}, "label": "Ho", "xyz": [-3.749689490017971e-06, 4.72236969118366, 3.12220795]}, {"species": [{"element": "Ho", "occu": 1}], "abc": [0.666667, 0.333333, -0.0], "properties": {"magmom": -0.041}, "label": "Ho", "xyz": [4.089693919689491, 2.36118130881634, 0.0]}, {"species": [{"element": "Ho", "occu": 1}], "abc": [0.666667, 0.333333, 0.5], "properties": {"magmom": -0.041}, "label": "Ho", "xyz": [4.089693919689491, 2.36118130881634, 3.12220795]}, {"species": [{"element": "Ho", "occu": 1}], "abc": [0.333333, 0.666667, -0.0], "properties": {"magmom": -0.041}, "label": "Ho", "xyz": [-3.749689490017971e-06, 4.72236969118366, 0.0]}, {"species": [{"element": "Rh", "occu": 1}], "abc": [0.39558728, 0.0, 0.75], "properties": {"magmom": -0.033}, "label": "Rh", "xyz": [3.2356584172870497, 3.9558728e-09, 4.683311925]}, {"species": [{"element": "Rh", "occu": 1}], "abc": [0.39558728, 0.39558728, 0.25], "properties": {"magmom": -0.033}, "label": "Rh", "xyz": [1.6178294103930377, 2.80216267283128, 1.561103975]}, {"species": [{"element": "Rh", "occu": 1}], "abc": [-0.0, 0.60441272, 0.25], "properties": {"magmom": -0.033}, "label": "Rh", "xyz": [-2.471860143105988, 4.281388321124593, 1.561103975]}, {"species": [{"element": "Rh", "occu": 1}], "abc": [0.0, 0.39558728, 0.75], "properties": {"magmom": -0.033}, "label": "Rh", "xyz": [-1.617829006894012, 2.802162668875407, 4.683311925]}, {"species": [{"element": "Rh", "occu": 1}], "abc": [0.60441272, 0.60441272, 0.75], "properties": {"magmom": -0.033}, "label": "Rh", "xyz": [2.4718607596069626, 4.28138832716872, 4.683311925]}, {"species": [{"element": "Rh", "occu": 1}], "abc": [0.60441272, -0.0, 0.25], "properties": {"magmom": -0.033}, "label": "Rh", "xyz": [4.9437209027129505, 6.0441272e-09, 1.561103975]}]}, "task_ids": null, "uncorrected_energy_per_atom": null, "energy_per_atom": -6.361966493124999, "formation_energy_per_atom": -0.7268013762499941, "energy_above_hull": 0.011705949285715, "is_stable": false, "equilibrium_reaction_energy_per_atom": null, "decomposes_to": null, "xas": null, "grain_boundaries": null, "band_gap": 0.0, "cbm": null, "vbm": null, "efermi": 4.2081031, "is_gap_direct": null, "is_metal": null, "es_source_calc_id": null, "bandstructure": null, "dos": null, "dos_energy_up": null, "dos_energy_down": null, "is_magnetic": null, "ordering": null, "total_magnetization": 1.1914933, "total_magnetization_normalized_vol": null, "total_magnetization_normalized_formula_units": null, "num_magnetic_sites": null, "num_unique_magnetic_sites": null, "types_of_magnetic_species": null, "bulk_modulus": null, "shear_modulus": null, "universal_anisotropy": null, "homogeneous_poisson": null, "e_total": null, "e_ionic": null, "e_electronic": null, "n": null, "e_ij_max": null, "weighted_surface_energy_EV_PER_ANG2": null, "weighted_surface_energy": null, "weighted_work_function": null, "surface_anisotropy": null, "shape_factor": null, "has_reconstructed": null, "possible_species": null, "has_props": null, "theoretical": null, "database_IDs": null, "fields_not_requested": ["builder_meta", "nsites", "elements", "nelements", "composition", "composition_reduced", "chemsys", "symmetry", "property_name", "deprecated", "deprecation_reasons", "last_updated", "origins", "warnings", "task_ids", "uncorrected_energy_per_atom", "equilibrium_reaction_energy_per_atom", "decomposes_to", "xas", "grain_boundaries", "cbm", "vbm", "is_gap_direct", "is_metal", "es_source_calc_id", "bandstructure", "dos", "dos_energy_up", "dos_energy_down", "is_magnetic", "ordering", "total_magnetization_normalized_vol", "total_magnetization_normalized_formula_units", "num_magnetic_sites", "num_unique_magnetic_sites", "types_of_magnetic_species", "bulk_modulus", "shear_modulus", "universal_anisotropy", "homogeneous_poisson", "e_total", "e_ionic", "e_electronic", "n", "e_ij_max", "weighted_surface_energy_EV_PER_ANG2", "weighted_surface_energy", "weighted_work_function", "surface_anisotropy", "shape_factor", "has_reconstructed", "possible_species", "has_props", "theoretical", "database_IDs"]}