{"builder_meta": null, "nsites": null, "elements": null, "nelements": null, "composition": null, "composition_reduced": null, "formula_pretty": "Ho5S7", "formula_anonymous": "A5B7", "chemsys": null, "volume": 268.3248503326341, "density": 6.4924381478953315, "density_atomic": 22.360404194386177, "symmetry": null, "property_name": null, "material_id": "mp-1102510", "deprecated": null, "deprecation_reasons": null, "last_updated": null, "origins": null, "warnings": null, "structure": {"@module": "pymatgen.core.structure", "@class": "Structure", "charge": 0, "lattice": {"matrix": [[1e-08, -3.77660194, 0.0], [-6.15840285, 1.88830199, 1.6193465200000001], [-0.02272631, 0.0, -11.53098952]], "pbc": [true, true, true], "a": 3.77660194, "b": 6.6418290568308205, "c": 11.531011915504903, "alpha": 104.00357395131246, "beta": 90.000000000299, "gamma": 106.51728075577633, "volume": 268.3248503326341}, "properties": {}, "sites": [{"species": [{"element": "Ho", "occu": 1}], "abc": [-0.0, -0.0, -0.0], "properties": {"magmom": 0.0}, "label": "Ho", "xyz": [0.0, 0.0, 0.0]}, {"species": [{"element": "Ho", "occu": 1}], "abc": [0.11163905, 0.223278099999999, 0.42144753], "properties": {"magmom": 0.0}, "label": "Ho", "xyz": [-1.3846144334817025, 2.277436600972571e-07, -4.498142437432675]}, {"species": [{"element": "Ho", "occu": 1}], "abc": [0.88836095, 0.7767219, 0.57855247], "properties": {"magmom": 0.0}, "label": "Ho", "xyz": [-4.79651471651829, -1.888300177743662, -5.413500562567327]}, {"species": [{"element": "Ho", "occu": 1}], "abc": [0.30027615, 0.6005543, 0.18778157], "properties": {"magmom": -0.0}, "label": "Ho", "xyz": [-3.7027228918691, 4.389167325813403e-06, -1.1928017999431106]}, {"species": [{"element": "Ho", "occu": 1}], "abc": [0.69972385, 0.399445699999999, 0.81221843], "properties": {"magmom": -0.0}, "label": "Ho", "xyz": [-2.478406258130894, -1.8883043391673282, -8.718841200056893]}, {"species": [{"element": "S", "occu": 1}], "abc": [0.5, -0.0, 0.5], "properties": {"magmom": -0.0}, "label": "S", "xyz": [-0.011363149999999999, -1.88830097, -5.76549476]}, {"species": [{"element": "S", "occu": 1}], "abc": [0.65893058, 0.31786017, 0.05114238], "properties": {"magmom": 0.0}, "label": "S", "xyz": [-1.9586732478221964, -1.8883025152005872, -0.07499648767174916]}, {"species": [{"element": "S", "occu": 1}], "abc": [0.34106942, 0.68213983, 0.9488576200000001], "properties": {"magmom": 0.0}, "label": "S", "xyz": [-4.222455902177804, 2.565200586834848e-06, -9.836646512328253]}, {"species": [{"element": "S", "occu": 1}], "abc": [0.95887839, 0.91775778, 0.21499079000000001], "properties": {"magmom": -0.0}, "label": "S", "xyz": [-5.656808065713573, -1.8882981455860943, -0.9928886791405951]}, {"species": [{"element": "S", "occu": 1}], "abc": [0.04112161, 0.08224222, 0.78500921], "properties": {"magmom": -0.0}, "label": "S", "xyz": [-0.5243210842864261, -1.8044139055983788e-06, -8.918754320859406]}, {"species": [{"element": "S", "occu": 1}], "abc": [0.25913141, 0.51826082, 0.64722989], "properties": {"magmom": -0.0}, "label": "S", "xyz": [-3.2063680554614282, -3.2479759036752043e-06, -6.623957223301406]}, {"species": [{"element": "S", "occu": 1}], "abc": [0.74086859, 0.48174018, 0.35277011], "properties": {"magmom": -0.0}, "label": "S", "xyz": [-2.9747672529414206, -1.8882948137221063, -3.287684157352074]}]}, "task_ids": null, "uncorrected_energy_per_atom": null, "energy_per_atom": -20.756147690833334, "formation_energy_per_atom": -2.36850492830729, "energy_above_hull": 0.0, "is_stable": true, "equilibrium_reaction_energy_per_atom": null, "decomposes_to": null, "xas": null, "grain_boundaries": null, "band_gap": 0.0, "cbm": null, "vbm": null, "efermi": 5.09565189, "is_gap_direct": null, "is_metal": null, "es_source_calc_id": null, "bandstructure": null, "dos": null, "dos_energy_up": null, "dos_energy_down": null, "is_magnetic": null, "ordering": null, "total_magnetization": 1e-07, "total_magnetization_normalized_vol": null, "total_magnetization_normalized_formula_units": null, "num_magnetic_sites": null, "num_unique_magnetic_sites": null, "types_of_magnetic_species": null, "bulk_modulus": null, "shear_modulus": null, "universal_anisotropy": null, "homogeneous_poisson": null, "e_total": null, "e_ionic": null, "e_electronic": null, "n": null, "e_ij_max": null, "weighted_surface_energy_EV_PER_ANG2": null, "weighted_surface_energy": null, "weighted_work_function": null, "surface_anisotropy": null, "shape_factor": null, "has_reconstructed": null, "possible_species": null, "has_props": null, "theoretical": null, "database_IDs": null, "fields_not_requested": ["builder_meta", "nsites", "elements", "nelements", "composition", "composition_reduced", "chemsys", "symmetry", "property_name", "deprecated", "deprecation_reasons", "last_updated", "origins", "warnings", "task_ids", "uncorrected_energy_per_atom", "equilibrium_reaction_energy_per_atom", "decomposes_to", "xas", "grain_boundaries", "cbm", "vbm", "is_gap_direct", "is_metal", "es_source_calc_id", "bandstructure", "dos", "dos_energy_up", "dos_energy_down", "is_magnetic", "ordering", "total_magnetization_normalized_vol", "total_magnetization_normalized_formula_units", "num_magnetic_sites", "num_unique_magnetic_sites", "types_of_magnetic_species", "bulk_modulus", "shear_modulus", "universal_anisotropy", "homogeneous_poisson", "e_total", "e_ionic", "e_electronic", "n", "e_ij_max", "weighted_surface_energy_EV_PER_ANG2", "weighted_surface_energy", "weighted_work_function", "surface_anisotropy", "shape_factor", "has_reconstructed", "possible_species", "has_props", "theoretical", "database_IDs"]}