{"builder_meta": null, "nsites": null, "elements": null, "nelements": null, "composition": null, "composition_reduced": null, "formula_pretty": "Ho5Si4", "formula_anonymous": "A4B5", "chemsys": null, "volume": 815.6484693361934, "density": 7.630318876073842, "density_atomic": 22.656901926005375, "symmetry": null, "property_name": null, "material_id": "mp-542829", "deprecated": null, "deprecation_reasons": null, "last_updated": null, "origins": null, "warnings": null, "structure": {"@module": "pymatgen.core.structure", "@class": "Structure", "charge": 0, "lattice": {"matrix": [[7.38036273, -1.029999999999998e-06, 0.0], [-1.029999999999998e-06, 7.63316641, 0.0], [0.0, 0.0, 14.47840057]], "pbc": [true, true, true], "a": 7.380362730000072, "b": 7.63316641000007, "c": 14.47840057, "alpha": 90.0, "beta": 90.0, "gamma": 90.00001572751873, "volume": 815.6484693361934}, "properties": {}, "sites": [{"species": [{"element": "Ho", "occu": 1}], "abc": [0.64763811, 0.98887344, 0.75], "properties": {"magmom": 0.201}, "label": "Ho", "xyz": [4.779803151031998, 7.548234858881898, 10.8588004275]}, {"species": [{"element": "Ho", "occu": 1}], "abc": [0.14763811000000002, 0.51112656, 0.75], "properties": {"magmom": 0.201}, "label": "Ho", "xyz": [1.0896222781112836, 3.9015139369835965, 10.8588004275]}, {"species": [{"element": "Ho", "occu": 1}], "abc": [0.8523618900000001, 0.48887344, 0.25], "properties": {"magmom": 0.201}, "label": "Ho", "xyz": [6.290739421888717, 3.731651443016404, 3.6196001425]}, {"species": [{"element": "Ho", "occu": 1}], "abc": [0.35236189, 0.01112656, 0.25], "properties": {"magmom": 0.201}, "label": "Ho", "xyz": [2.600558548968003, 0.08493052111810291, 3.6196001425]}, {"species": [{"element": "Ho", "occu": 1}], "abc": [0.97137335, 0.8166394100000001, 0.90141825], "properties": {"magmom": 0.198}, "label": "Ho", "xyz": [7.169086828116653, 6.233543512979669, 13.051094504608402]}, {"species": [{"element": "Ho", "occu": 1}], "abc": [0.47137235, 0.68335959, 0.59858175], "properties": {"magmom": 0.198}, "label": "Ho", "xyz": [3.478898220032138, 5.216196982825851, 8.666506350391598]}, {"species": [{"element": "Ho", "occu": 1}], "abc": [0.52862765, 0.31664041, 0.09858175], "properties": {"magmom": 0.198}, "label": "Ho", "xyz": [3.901463479967862, 2.4169683971741485, 1.4273060653915974]}, {"species": [{"element": "Ho", "occu": 1}], "abc": [0.02862665, 0.18336059, 0.40141825000000003], "properties": {"magmom": 0.198}, "label": "Ho", "xyz": [0.2112748718833468, 1.3996218670203324, 5.811894219608403]}, {"species": [{"element": "Ho", "occu": 1}], "abc": [0.02862665, 0.18336059, 0.09858175], "properties": {"magmom": 0.198}, "label": "Ho", "xyz": [0.2112748718833468, 1.3996218670203324, 1.4273060653915974]}, {"species": [{"element": "Ho", "occu": 1}], "abc": [0.52862765, 0.31664041, 0.40141825000000003], "properties": {"magmom": 0.198}, "label": "Ho", "xyz": [3.901463479967862, 2.4169683971741485, 5.811894219608403]}, {"species": [{"element": "Ho", "occu": 1}], "abc": [0.47137235, 0.68335959, 0.90141825], "properties": {"magmom": 0.198}, "label": "Ho", "xyz": [3.478898220032138, 5.216196982825851, 13.051094504608402]}, {"species": [{"element": "Ho", "occu": 1}], "abc": [0.97137335, 0.8166394100000001, 0.59858175], "properties": {"magmom": 0.198}, "label": "Ho", "xyz": [7.169086828116653, 6.233543512979669, 8.666506350391598]}, {"species": [{"element": "Ho", "occu": 1}], "abc": [0.6830678, 0.82080739, 0.12301054], "properties": {"magmom": 0.14400000000000002}, "label": "Ho", "xyz": [5.041287287751482, 6.265358694867936, 1.7809958724520079]}, {"species": [{"element": "Ho", "occu": 1}], "abc": [0.1830678, 0.6791916100000001, 0.37698946], "properties": {"magmom": 0.14400000000000002}, "label": "Ho", "xyz": [1.3511060686157357, 5.184382394845986, 5.4582044125479925]}, {"species": [{"element": "Ho", "occu": 1}], "abc": [0.8169322, 0.32080839, 0.87698946], "properties": {"magmom": 0.14400000000000002}, "label": "Ho", "xyz": [6.029255631384264, 2.448782985154014, 12.697404697547992]}, {"species": [{"element": "Ho", "occu": 1}], "abc": [0.3169322, 0.17919261, 0.62301054], "properties": {"magmom": 0.14400000000000002}, "label": "Ho", "xyz": [2.3390744122485176, 1.367806685132064, 9.020196157452007]}, {"species": [{"element": "Ho", "occu": 1}], "abc": [0.3169322, 0.17919261, 0.87698946], "properties": {"magmom": 0.14400000000000002}, "label": "Ho", "xyz": [2.3390744122485176, 1.367806685132064, 12.697404697547992]}, {"species": [{"element": "Ho", "occu": 1}], "abc": [0.8169322, 0.32080839, 0.62301054], "properties": {"magmom": 0.14400000000000002}, "label": "Ho", "xyz": [6.029255631384264, 2.448782985154014, 9.020196157452007]}, {"species": [{"element": "Ho", "occu": 1}], "abc": [0.1830678, 0.6791916100000001, 0.12301054], "properties": {"magmom": 0.14400000000000002}, "label": "Ho", "xyz": [1.3511060686157357, 5.184382394845986, 1.7809958724520079]}, {"species": [{"element": "Ho", "occu": 1}], "abc": [0.6830678, 0.82080739, 0.37698946], "properties": {"magmom": 0.14400000000000002}, "label": "Ho", "xyz": [5.041287287751482, 6.265358694867936, 5.4582044125479925]}, {"species": [{"element": "Si", "occu": 1}], "abc": [0.76558387, 0.62850407, 0.75], "properties": {"magmom": -0.019}, "label": "Si", "xyz": [5.650286013477974, 4.797475367120903, 10.8588004275]}, {"species": [{"element": "Si", "occu": 1}], "abc": [0.26558387, 0.87149593, 0.75], "properties": {"magmom": -0.019}, "label": "Si", "xyz": [1.960104398196357, 6.652273185776326, 10.8588004275]}, {"species": [{"element": "Si", "occu": 1}], "abc": [0.7344161300000001, 0.12850407, 0.25], "properties": {"magmom": -0.019}, "label": "Si", "xyz": [5.420257301803643, 0.9808921942236749, 3.6196001425]}, {"species": [{"element": "Si", "occu": 1}], "abc": [0.23441613, 0.37149593000000003, 0.25], "properties": {"magmom": -0.019}, "label": "Si", "xyz": [1.730075686522027, 2.835690012879098, 3.6196001425]}, {"species": [{"element": "Si", "occu": 1}], "abc": [0.01991085, 0.10416085, 0.75], "properties": {"magmom": -0.014}, "label": "Si", "xyz": [0.146949187976945, 0.7950770809488731, 10.8588004275]}, {"species": [{"element": "Si", "occu": 1}], "abc": [0.51991085, 0.39583915000000003, 0.75], "properties": {"magmom": -0.014}, "label": "Si", "xyz": [3.837130252548296, 3.0215055680347764, 10.8588004275]}, {"species": [{"element": "Si", "occu": 1}], "abc": [0.48008915, 0.60416085, 0.25], "properties": {"magmom": -0.014}, "label": "Si", "xyz": [3.543231447451704, 4.611659811965224, 3.6196001425]}, {"species": [{"element": "Si", "occu": 1}], "abc": [0.9800891500000001, 0.89583915, 0.25], "properties": {"magmom": -0.014}, "label": "Si", "xyz": [7.2334125120230555, 6.838088299051128, 3.6196001425]}, {"species": [{"element": "Si", "occu": 1}], "abc": [0.85480973, 0.5278465, 0.04005803], "properties": {"magmom": -0.013000000000000001}, "label": "Si", "xyz": [6.308805328851468, 4.029139292982044, 0.5799762043850771]}, {"species": [{"element": "Si", "occu": 1}], "abc": [0.35480973, 0.9721535, 0.45994197000000003], "properties": {"magmom": -0.013000000000000001}, "label": "Si", "xyz": [2.618623506215258, 7.420609076109914, 6.659224080614924]}, {"species": [{"element": "Si", "occu": 1}], "abc": [0.6451902700000001, 0.0278465, 0.95994197], "properties": {"magmom": -0.013000000000000001}, "label": "Si", "xyz": [4.761738193784742, 0.2125563038900869, 13.898424365614924]}, {"species": [{"element": "Si", "occu": 1}], "abc": [0.14519027, 0.4721535, 0.54005803], "properties": {"magmom": -0.013000000000000001}, "label": "Si", "xyz": [1.0715563711485323, 3.604026087017957, 7.819176489385076]}, {"species": [{"element": "Si", "occu": 1}], "abc": [0.14519027, 0.4721535, 0.95994197], "properties": {"magmom": -0.013000000000000001}, "label": "Si", "xyz": [1.0715563711485323, 3.604026087017957, 13.898424365614924]}, {"species": [{"element": "Si", "occu": 1}], "abc": [0.6451902700000001, 0.0278465, 0.54005803], "properties": {"magmom": -0.013000000000000001}, "label": "Si", "xyz": [4.761738193784742, 0.2125563038900869, 7.819176489385076]}, {"species": [{"element": "Si", "occu": 1}], "abc": [0.35480973, 0.9721535, 0.04005803], "properties": {"magmom": -0.013000000000000001}, "label": "Si", "xyz": [2.618623506215258, 7.420609076109914, 0.5799762043850771]}, {"species": [{"element": "Si", "occu": 1}], "abc": [0.85480973, 0.5278465, 0.45994197000000003], "properties": {"magmom": -0.013000000000000001}, "label": "Si", "xyz": [6.308805328851468, 4.029139292982044, 6.659224080614924]}]}, "task_ids": null, "uncorrected_energy_per_atom": null, "energy_per_atom": -22.993591716111112, "formation_energy_per_atom": -0.8267274988888851, "energy_above_hull": 0.018303478055557, "is_stable": false, "equilibrium_reaction_energy_per_atom": null, "decomposes_to": null, "xas": null, "grain_boundaries": null, "band_gap": 0.0, "cbm": null, "vbm": null, "efermi": 4.87859935, "is_gap_direct": null, "is_metal": null, "es_source_calc_id": null, "bandstructure": null, "dos": null, "dos_energy_up": null, "dos_energy_down": null, "is_magnetic": null, "ordering": null, "total_magnetization": 4.9684173, "total_magnetization_normalized_vol": null, "total_magnetization_normalized_formula_units": null, "num_magnetic_sites": null, "num_unique_magnetic_sites": null, "types_of_magnetic_species": null, "bulk_modulus": null, "shear_modulus": null, "universal_anisotropy": null, "homogeneous_poisson": null, "e_total": null, "e_ionic": null, "e_electronic": null, "n": null, "e_ij_max": null, "weighted_surface_energy_EV_PER_ANG2": null, "weighted_surface_energy": null, "weighted_work_function": null, "surface_anisotropy": null, "shape_factor": null, "has_reconstructed": null, "possible_species": null, "has_props": null, "theoretical": null, "database_IDs": null, "fields_not_requested": ["builder_meta", "nsites", "elements", "nelements", "composition", "composition_reduced", "chemsys", "symmetry", "property_name", "deprecated", "deprecation_reasons", "last_updated", "origins", "warnings", "task_ids", "uncorrected_energy_per_atom", "equilibrium_reaction_energy_per_atom", "decomposes_to", "xas", "grain_boundaries", "cbm", "vbm", "is_gap_direct", "is_metal", "es_source_calc_id", "bandstructure", "dos", "dos_energy_up", "dos_energy_down", "is_magnetic", "ordering", "total_magnetization_normalized_vol", "total_magnetization_normalized_formula_units", "num_magnetic_sites", "num_unique_magnetic_sites", "types_of_magnetic_species", "bulk_modulus", "shear_modulus", "universal_anisotropy", "homogeneous_poisson", "e_total", "e_ionic", "e_electronic", "n", "e_ij_max", "weighted_surface_energy_EV_PER_ANG2", "weighted_surface_energy", "weighted_work_function", "surface_anisotropy", "shape_factor", "has_reconstructed", "possible_species", "has_props", "theoretical", "database_IDs"]}