{"builder_meta": null, "nsites": null, "elements": null, "nelements": null, "composition": null, "composition_reduced": null, "formula_pretty": "Ho5Sn3", "formula_anonymous": "A3B5", "chemsys": null, "volume": 445.01064880230626, "density": 8.81207666018572, "density_atomic": 27.81316555014414, "symmetry": null, "property_name": null, "material_id": "mp-30735", "deprecated": null, "deprecation_reasons": null, "last_updated": null, "origins": null, "warnings": null, "structure": {"@module": "pymatgen.core.structure", "@class": "Structure", "charge": 0, "lattice": {"matrix": [[8.87757831, -7.21e-06, -1.5580000000000003e-05], [-4.43879635, 7.68820715, 7.28e-06], [-1.1370000000000001e-05, -0.0, 6.52005139]], "pbc": [true, true, true], "a": 8.877578310016599, "b": 8.877580876462767, "c": 6.520051390009914, "alpha": 89.99990305725862, "beta": 90.00020046844415, "gamma": 120.00009059029075, "volume": 445.01064880230626}, "properties": {}, "sites": [{"species": [{"element": "Ho", "occu": 1}], "abc": [0.999999, 0.76158468, 0.750000999999999], "properties": {"magmom": -0.0}, "label": "Ho", "xyz": [5.497041607110403, 5.855213572113672, 4.890035026903433]}, {"species": [{"element": "Ho", "occu": 1}], "abc": [1e-06, 0.23841732000000002, 0.249999], "properties": {"magmom": -0.0}, "label": "Ho", "xyz": [-1.058279894703102, 1.8330017443006281, 1.6300080631111196]}, {"species": [{"element": "Ho", "occu": 1}], "abc": [0.76158568, 0.76158468, 0.250002], "properties": {"magmom": -0.0}, "label": "Ho", "xyz": [3.380514373651944, 5.855215291073709, 1.630019566434356]}, {"species": [{"element": "Ho", "occu": 1}], "abc": [0.7615826800000001, 0.999999, 0.750002], "properties": {"magmom": -0.0}, "label": "Ho", "xyz": [2.3222094425132824, 7.688193970781727, 4.890046997137346]}, {"species": [{"element": "Ho", "occu": 1}], "abc": [0.23841432, 0.23841532000000001, 0.749997999999999], "properties": {"magmom": -0.0}, "label": "Ho", "xyz": [1.0582562163480576, 1.8329846489262909, 4.890023523565638]}, {"species": [{"element": "Ho", "occu": 1}], "abc": [0.23841832000000002, 0.0, 0.249999], "properties": {"magmom": -0.0}, "label": "Ho", "xyz": [2.1165744638500095, -1.7189960872e-06, 1.6300026128911844]}, {"species": [{"element": "Ho", "occu": 1}], "abc": [0.333333, 0.666667, 0.5], "properties": {"magmom": -0.0}, "label": "Ho", "xyz": [-1.4920458219514215e-05, 5.12547159273812, 3.26002535500762]}, {"species": [{"element": "Ho", "occu": 1}], "abc": [0.666667, 0.333333999999999, -0.0], "properties": {"magmom": -0.0}, "label": "Ho", "xyz": [4.438786756661875, 2.5627360354690225, -7.96000034000001e-06]}, {"species": [{"element": "Ho", "occu": 1}], "abc": [0.666667, 0.333333999999999, 0.5], "properties": {"magmom": -0.0}, "label": "Ho", "xyz": [4.438781071661875, 2.5627360354690225, 3.2600177349996597]}, {"species": [{"element": "Ho", "occu": 1}], "abc": [0.333333, 0.666666, -0.0], "properties": {"magmom": -0.0}, "label": "Ho", "xyz": [-4.796661869477248e-06, 5.12546390453097, -3.39999660000001e-07]}, {"species": [{"element": "Sn", "occu": 1}], "abc": [0.39438751, 0.0, 0.75], "properties": {"magmom": 0.0}, "label": "Sn", "xyz": [3.5011974770109084, -2.8435339471e-06, 4.890032397942594]}, {"species": [{"element": "Sn", "occu": 1}], "abc": [0.39438951, 0.39438951, 0.25], "properties": {"magmom": 0.0}, "label": "Sn", "xyz": [1.75060619970124, 3.03214540711863, 1.630009574067067]}, {"species": [{"element": "Sn", "occu": 1}], "abc": [-0.0, 0.60561149, 0.25], "properties": {"magmom": 0.0}, "label": "Sn", "xyz": [-2.688188913830061, 4.6560665875401535, 1.630017256351647]}, {"species": [{"element": "Sn", "occu": 1}], "abc": [0.0, 0.39438851, 0.75], "properties": {"magmom": 0.0}, "label": "Sn", "xyz": [-1.7506188061699384, 3.0321405624598468, 4.890041413648353]}, {"species": [{"element": "Sn", "occu": 1}], "abc": [0.60561049, 0.60561049, 0.75], "properties": {"magmom": 0.0}, "label": "Sn", "xyz": [2.688164390298761, 4.65605453288137, 4.890033515932934]}, {"species": [{"element": "Sn", "occu": 1}], "abc": [0.60561149, -0.0, 0.25], "properties": {"magmom": 0.0}, "label": "Sn", "xyz": [5.376360585410783, -4.3664588429e-06, 1.6300034120729858]}]}, "task_ids": null, "uncorrected_energy_per_atom": null, "energy_per_atom": -5.083010433125001, "formation_energy_per_atom": -0.705871321874996, "energy_above_hull": 0.0, "is_stable": true, "equilibrium_reaction_energy_per_atom": null, "decomposes_to": null, "xas": null, "grain_boundaries": null, "band_gap": 0.0, "cbm": null, "vbm": null, "efermi": 4.94573935, "is_gap_direct": null, "is_metal": null, "es_source_calc_id": null, "bandstructure": null, "dos": null, "dos_energy_up": null, "dos_energy_down": null, "is_magnetic": null, "ordering": null, "total_magnetization": 0.0005256999999990001, "total_magnetization_normalized_vol": null, "total_magnetization_normalized_formula_units": null, "num_magnetic_sites": null, "num_unique_magnetic_sites": null, "types_of_magnetic_species": null, "bulk_modulus": null, "shear_modulus": null, "universal_anisotropy": null, "homogeneous_poisson": null, "e_total": null, "e_ionic": null, "e_electronic": null, "n": null, "e_ij_max": null, "weighted_surface_energy_EV_PER_ANG2": null, "weighted_surface_energy": null, "weighted_work_function": null, "surface_anisotropy": null, "shape_factor": null, "has_reconstructed": null, "possible_species": null, "has_props": null, "theoretical": null, "database_IDs": null, "fields_not_requested": ["builder_meta", "nsites", "elements", "nelements", "composition", "composition_reduced", "chemsys", "symmetry", "property_name", "deprecated", "deprecation_reasons", "last_updated", "origins", "warnings", "task_ids", "uncorrected_energy_per_atom", "equilibrium_reaction_energy_per_atom", "decomposes_to", "xas", "grain_boundaries", "cbm", "vbm", "is_gap_direct", "is_metal", "es_source_calc_id", "bandstructure", "dos", "dos_energy_up", "dos_energy_down", "is_magnetic", "ordering", "total_magnetization_normalized_vol", "total_magnetization_normalized_formula_units", "num_magnetic_sites", "num_unique_magnetic_sites", "types_of_magnetic_species", "bulk_modulus", "shear_modulus", "universal_anisotropy", "homogeneous_poisson", "e_total", "e_ionic", "e_electronic", "n", "e_ij_max", "weighted_surface_energy_EV_PER_ANG2", "weighted_surface_energy", "weighted_work_function", "surface_anisotropy", "shape_factor", "has_reconstructed", "possible_species", "has_props", "theoretical", "database_IDs"]}