{
  "builder_meta": null,
  "nsites": null,
  "elements": null,
  "nelements": null,
  "composition": null,
  "composition_reduced": null,
  "formula_pretty": "Ho5Sb3",
  "formula_anonymous": "A3B5",
  "chemsys": null,
  "volume": 430.27158659830076,
  "density": 9.184561425509884,
  "density_atomic": 26.891974162393797,
  "symmetry": null,
  "property_name": null,
  "material_id": "mp-2681",
  "deprecated": null,
  "deprecation_reasons": null,
  "last_updated": null,
  "origins": null,
  "warnings": null,
  "structure": {
    "@module": "pymatgen.core.structure",
    "@class": "Structure",
    "charge": 0,
    "lattice": {
      "matrix": [
        [8.90295062, 1.3500000000000001e-5, 0.0],
        [-4.45146477, 7.71011316, -1.04e-6],
        [0.0, -1.029999999999998e-6, 6.2682682100000005]
      ],
      "pbc": [true, true, true],
      "a": 8.902950620010236,
      "b": 8.902886247647862,
      "c": 6.268268210000085,
      "alpha": 90.00001484653164,
      "beta": 90.00000000001428,
      "gamma": 120.0000739774937,
      "volume": 430.2715865983008
    },
    "properties": {},
    "sites": [
      {
        "species": [{ "element": "Ho", "occu": 1 }],
        "abc": [0.33333389, 0.66666711, -0.0],
        "properties": { "magmom": 0.002 },
        "label": "Ho",
        "xyz": [1.0009159796986467e-5, 5.140083358157683, -6.933337944e-7]
      },
      {
        "species": [{ "element": "Ho", "occu": 1 }],
        "abc": [0.66666711, 0.33333289, 0.5],
        "properties": { "magmom": 0.002 },
        "label": "Ho",
        "xyz": [4.4514847437908225, 2.5700427868558173, 3.1341337583337947]
      },
      {
        "species": [{ "element": "Ho", "occu": 1 }],
        "abc": [0.66666611, 0.33333289, 0.0],
        "properties": { "magmom": 0.002 },
        "label": "Ho",
        "xyz": [4.451475840840202, 2.5700433018423174, -3.466662056e-7]
      },
      {
        "species": [{ "element": "Ho", "occu": 1 }],
        "abc": [0.33333289, 0.66666711, 0.5],
        "properties": { "magmom": 0.002 },
        "label": "Ho",
        "xyz": [1.1062091767044535e-6, 5.1400828431441825, 3.134133411666206]
      },
      {
        "species": [{ "element": "Ho", "occu": 1 }],
        "abc": [0.7523764, 8.1e-7, 0.75],
        "properties": { "magmom": 0.001 },
        "label": "Ho",
        "xyz": [6.698366331166904, 1.56297730596e-5, 4.701201157499158]
      },
      {
        "species": [{ "element": "Ho", "occu": 1 }],
        "abc": [0.75237544, 0.75237444, 0.25],
        "properties": { "magmom": 0.001 },
        "label": "Ho",
        "xyz": [3.3491930765122944, 5.800901970660069, 1.5670662700305824]
      },
      {
        "species": [{ "element": "Ho", "occu": 1 }],
        "abc": [-8.1e-7, 0.2476236, 0.25],
        "properties": { "magmom": 0.001 },
        "label": "Ho",
        "xyz": [-1.1022949430105744, 1.909205719575641, 1.567066794971456]
      },
      {
        "species": [{ "element": "Ho", "occu": 1 }],
        "abc": [8.1e-7, 0.7523764, 0.75],
        "properties": { "magmom": 0.001 },
        "label": "Ho",
        "xyz": [-3.349169826989426, 5.800906410424359, 4.701200375028544]
      },
      {
        "species": [{ "element": "Ho", "occu": 1 }],
        "abc": [0.24762456, 0.24762556, 0.75],
        "properties": { "magmom": 0.001 },
        "label": "Ho",
        "xyz": [1.102292773487706, 1.9092236593399294, 4.701200899969417]
      },
      {
        "species": [{ "element": "Ho", "occu": 1 }],
        "abc": [0.2476236, -8.1e-7, 0.25],
        "properties": { "magmom": 0.001 },
        "label": "Ho",
        "xyz": [2.2045842888330958, -3.1597730595999988e-6, 1.5670670525008425]
      },
      {
        "species": [{ "element": "Sb", "occu": 1 }],
        "abc": [0.38776522, 7e-8, 0.75],
        "properties": { "magmom": -0.0 },
        "label": "Sb",
        "xyz": [3.4522542942109027, 5.002038391200003e-6, 4.701201157499927]
      },
      {
        "species": [{ "element": "Sb", "occu": 1 }],
        "abc": [0.38776317, 0.38776317, 0.25],
        "properties": { "magmom": -0.0 },
        "label": "Sb",
        "xyz": [1.7261222644061442, 2.9897028972831117, 1.5670666492263032]
      },
      {
        "species": [{ "element": "Sb", "occu": 1 }],
        "abc": [-7e-8, 0.61223478, 0.25],
        "properties": { "magmom": -0.0 },
        "label": "Sb",
        "xyz": [-2.7253421773452438, 4.720399176786759, 1.567066415775829]
      },
      {
        "species": [{ "element": "Sb", "occu": 1 }],
        "abc": [7e-8, 0.38776622, 0.75],
        "properties": { "magmom": -0.0 },
        "label": "Sb",
        "xyz": [-1.726127044119526, 2.9897206633264, 4.701200754223131]
      },
      {
        "species": [{ "element": "Sb", "occu": 1 }],
        "abc": [0.6122368300000001, 0.61223483, 0.75],
        "properties": { "magmom": -0.0 },
        "label": "Sb",
        "xyz": [2.725372488523396, 4.720407312490567, 4.701200520775776]
      },
      {
        "species": [{ "element": "Sb", "occu": 1 }],
        "abc": [0.61223478, -7e-8, 0.25],
        "properties": { "magmom": -0.0 },
        "label": "Sb",
        "xyz": [5.450696325789098, 7.467961608800002e-6, 1.567067052500073]
      }
    ]
  },
  "task_ids": null,
  "uncorrected_energy_per_atom": null,
  "energy_per_atom": -31.22934718125,
  "formation_energy_per_atom": -1.038638835624997,
  "energy_above_hull": 0.0,
  "is_stable": true,
  "equilibrium_reaction_energy_per_atom": null,
  "decomposes_to": null,
  "xas": null,
  "grain_boundaries": null,
  "band_gap": 0.0,
  "cbm": null,
  "vbm": null,
  "efermi": 5.54905872,
  "is_gap_direct": null,
  "is_metal": null,
  "es_source_calc_id": null,
  "bandstructure": null,
  "dos": null,
  "dos_energy_up": null,
  "dos_energy_down": null,
  "is_magnetic": null,
  "ordering": null,
  "total_magnetization": 0.016464299999999002,
  "total_magnetization_normalized_vol": null,
  "total_magnetization_normalized_formula_units": null,
  "num_magnetic_sites": null,
  "num_unique_magnetic_sites": null,
  "types_of_magnetic_species": null,
  "bulk_modulus": null,
  "shear_modulus": null,
  "universal_anisotropy": null,
  "homogeneous_poisson": null,
  "e_total": null,
  "e_ionic": null,
  "e_electronic": null,
  "n": null,
  "e_ij_max": null,
  "weighted_surface_energy_EV_PER_ANG2": null,
  "weighted_surface_energy": null,
  "weighted_work_function": null,
  "surface_anisotropy": null,
  "shape_factor": null,
  "has_reconstructed": null,
  "possible_species": null,
  "has_props": null,
  "theoretical": null,
  "database_IDs": null,
  "fields_not_requested": [
    "builder_meta",
    "nsites",
    "elements",
    "nelements",
    "composition",
    "composition_reduced",
    "chemsys",
    "symmetry",
    "property_name",
    "deprecated",
    "deprecation_reasons",
    "last_updated",
    "origins",
    "warnings",
    "task_ids",
    "uncorrected_energy_per_atom",
    "equilibrium_reaction_energy_per_atom",
    "decomposes_to",
    "xas",
    "grain_boundaries",
    "cbm",
    "vbm",
    "is_gap_direct",
    "is_metal",
    "es_source_calc_id",
    "bandstructure",
    "dos",
    "dos_energy_up",
    "dos_energy_down",
    "is_magnetic",
    "ordering",
    "total_magnetization_normalized_vol",
    "total_magnetization_normalized_formula_units",
    "num_magnetic_sites",
    "num_unique_magnetic_sites",
    "types_of_magnetic_species",
    "bulk_modulus",
    "shear_modulus",
    "universal_anisotropy",
    "homogeneous_poisson",
    "e_total",
    "e_ionic",
    "e_electronic",
    "n",
    "e_ij_max",
    "weighted_surface_energy_EV_PER_ANG2",
    "weighted_surface_energy",
    "weighted_work_function",
    "surface_anisotropy",
    "shape_factor",
    "has_reconstructed",
    "possible_species",
    "has_props",
    "theoretical",
    "database_IDs"
  ]
}
