{"builder_meta": null, "nsites": null, "elements": null, "nelements": null, "composition": null, "composition_reduced": null, "formula_pretty": "Ho5Si3", "formula_anonymous": "A3B5", "chemsys": null, "volume": 383.7815053933283, "density": 7.8652951577349075, "density_atomic": 23.98634408708302, "symmetry": null, "property_name": null, "material_id": "mp-13236", "deprecated": null, "deprecation_reasons": null, "last_updated": null, "origins": null, "warnings": null, "structure": {"@module": "pymatgen.core.structure", "@class": "Structure", "charge": 0, "lattice": {"matrix": [[8.3727591, 0.0, 0.0], [-4.18637955, 7.25102335, -0.0], [0.0, 0.0, 6.32144178]], "pbc": [true, true, true], "a": 8.3727591, "b": 8.372760199534167, "c": 6.32144178, "alpha": 90.0, "beta": 90.0, "gamma": 119.99999565587741, "volume": 383.7815053933283}, "properties": {}, "sites": [{"species": [{"element": "Ho", "occu": 1}], "abc": [0.0, 0.7575215200000001, 0.75], "properties": {"magmom": 0.0}, "label": "Ho", "xyz": [-3.1712726000129163, 5.492806229647492, 4.741081335]}, {"species": [{"element": "Ho", "occu": 1}], "abc": [-0.0, 0.24247848, 0.25], "properties": {"magmom": 0.0}, "label": "Ho", "xyz": [-1.015106949987084, 1.7582171203525079, 1.580360445]}, {"species": [{"element": "Ho", "occu": 1}], "abc": [0.7575215200000001, 0.7575215200000001, 0.25], "properties": {"magmom": 0.0}, "label": "Ho", "xyz": [3.1712726000129163, 5.492806229647492, 1.580360445]}, {"species": [{"element": "Ho", "occu": 1}], "abc": [0.7575215200000001, -0.0, 0.75], "properties": {"magmom": 0.0}, "label": "Ho", "xyz": [6.342545200025833, 0.0, 4.741081335]}, {"species": [{"element": "Ho", "occu": 1}], "abc": [0.24247848, 0.24247848, 0.75], "properties": {"magmom": 0.0}, "label": "Ho", "xyz": [1.015106949987084, 1.7582171203525079, 4.741081335]}, {"species": [{"element": "Ho", "occu": 1}], "abc": [0.24247848, -0.0, 0.25], "properties": {"magmom": 0.0}, "label": "Ho", "xyz": [2.030213899974168, 0.0, 1.580360445]}, {"species": [{"element": "Ho", "occu": 1}], "abc": [0.333333, 0.666667, 0.5], "properties": {"magmom": 0.0}, "label": "Ho", "xyz": [-4.186379550130681e-06, 4.83401798367445, 3.16072089]}, {"species": [{"element": "Ho", "occu": 1}], "abc": [0.666667, 0.333333, -0.0], "properties": {"magmom": 0.0}, "label": "Ho", "xyz": [4.1863837363795495, 2.41700536632555, 0.0]}, {"species": [{"element": "Ho", "occu": 1}], "abc": [0.666667, 0.333333, 0.5], "properties": {"magmom": 0.0}, "label": "Ho", "xyz": [4.1863837363795495, 2.41700536632555, 3.16072089]}, {"species": [{"element": "Ho", "occu": 1}], "abc": [0.333333, 0.666667, -0.0], "properties": {"magmom": 0.0}, "label": "Ho", "xyz": [-4.186379550130681e-06, 4.83401798367445, 0.0]}, {"species": [{"element": "Si", "occu": 1}], "abc": [0.39416861000000003, -0.0, 0.75], "properties": {"magmom": -0.0}, "label": "Si", "xyz": [3.300278816311851, 0.0, 4.741081335]}, {"species": [{"element": "Si", "occu": 1}], "abc": [0.39416861000000003, 0.39416861000000003, 0.25], "properties": {"magmom": -0.0}, "label": "Si", "xyz": [1.6501394081559255, 2.8581257949470436, 1.580360445]}, {"species": [{"element": "Si", "occu": 1}], "abc": [0.0, 0.60583139, 0.25], "properties": {"magmom": -0.0}, "label": "Si", "xyz": [-2.536240141844074, 4.392897555052956, 1.580360445]}, {"species": [{"element": "Si", "occu": 1}], "abc": [-0.0, 0.39416861000000003, 0.75], "properties": {"magmom": -0.0}, "label": "Si", "xyz": [-1.6501394081559255, 2.8581257949470436, 4.741081335]}, {"species": [{"element": "Si", "occu": 1}], "abc": [0.60583139, 0.60583139, 0.75], "properties": {"magmom": -0.0}, "label": "Si", "xyz": [2.536240141844074, 4.392897555052956, 4.741081335]}, {"species": [{"element": "Si", "occu": 1}], "abc": [0.60583139, -0.0, 0.25], "properties": {"magmom": -0.0}, "label": "Si", "xyz": [5.072480283688148, 0.0, 1.580360445]}]}, "task_ids": null, "uncorrected_energy_per_atom": null, "energy_per_atom": -24.62177563375, "formation_energy_per_atom": -0.7807739637500001, "energy_above_hull": 0.0, "is_stable": true, "equilibrium_reaction_energy_per_atom": null, "decomposes_to": null, "xas": null, "grain_boundaries": null, "band_gap": 0.0, "cbm": null, "vbm": null, "efermi": 4.30727773, "is_gap_direct": null, "is_metal": null, "es_source_calc_id": null, "bandstructure": null, "dos": null, "dos_energy_up": null, "dos_energy_down": null, "is_magnetic": null, "ordering": null, "total_magnetization": 4.299999999999999e-06, "total_magnetization_normalized_vol": null, "total_magnetization_normalized_formula_units": null, "num_magnetic_sites": null, "num_unique_magnetic_sites": null, "types_of_magnetic_species": null, "bulk_modulus": null, "shear_modulus": null, "universal_anisotropy": null, "homogeneous_poisson": null, "e_total": null, "e_ionic": null, "e_electronic": null, "n": null, "e_ij_max": null, "weighted_surface_energy_EV_PER_ANG2": null, "weighted_surface_energy": null, "weighted_work_function": null, "surface_anisotropy": null, "shape_factor": null, "has_reconstructed": null, "possible_species": null, "has_props": null, "theoretical": null, "database_IDs": null, "fields_not_requested": ["builder_meta", "nsites", "elements", "nelements", "composition", "composition_reduced", "chemsys", "symmetry", "property_name", "deprecated", "deprecation_reasons", "last_updated", "origins", "warnings", "task_ids", "uncorrected_energy_per_atom", "equilibrium_reaction_energy_per_atom", "decomposes_to", "xas", "grain_boundaries", "cbm", "vbm", "is_gap_direct", "is_metal", "es_source_calc_id", "bandstructure", "dos", "dos_energy_up", "dos_energy_down", "is_magnetic", "ordering", "total_magnetization_normalized_vol", "total_magnetization_normalized_formula_units", "num_magnetic_sites", "num_unique_magnetic_sites", "types_of_magnetic_species", "bulk_modulus", "shear_modulus", "universal_anisotropy", "homogeneous_poisson", "e_total", "e_ionic", "e_electronic", "n", "e_ij_max", "weighted_surface_energy_EV_PER_ANG2", "weighted_surface_energy", "weighted_work_function", "surface_anisotropy", "shape_factor", "has_reconstructed", "possible_species", "has_props", "theoretical", "database_IDs"]}