{
  "builder_meta": null,
  "nsites": null,
  "elements": null,
  "nelements": null,
  "composition": null,
  "composition_reduced": null,
  "formula_pretty": "Ho5Tl3",
  "formula_anonymous": "A3B5",
  "chemsys": null,
  "volume": 454.4687140175827,
  "density": 10.506886336178953,
  "density_atomic": 28.40429462609892,
  "symmetry": null,
  "property_name": null,
  "material_id": "mp-1181055",
  "deprecated": null,
  "deprecation_reasons": null,
  "last_updated": null,
  "origins": null,
  "warnings": null,
  "structure": {
    "@module": "pymatgen.core.structure",
    "@class": "Structure",
    "charge": 0,
    "lattice": {
      "matrix": [
        [8.91756965, -3.977e-5, 0.0],
        [-4.45881896, 7.72275548, 0.0],
        [0.0, 0.0, 6.5991244]
      ],
      "pbc": [true, true, true],
      "a": 8.917569650088684,
      "b": 8.91751191319224,
      "c": 6.5991244,
      "alpha": 90.0,
      "beta": 90.0,
      "gamma": 120.00072295051868,
      "volume": 454.4687140175827
    },
    "properties": {},
    "sites": [
      {
        "species": [{ "element": "Ho", "occu": 1 }],
        "abc": [0.66665844, 0.33334283000000003, 0.50000202],
        "properties": { "magmom": -0.0 },
        "label": "Ho",
        "xyz": [4.458657740876289, 2.57429865409505, 3.299575530231288]
      },
      {
        "species": [{ "element": "Ho", "occu": 1 }],
        "abc": [0.33334156, 0.66665817, 0.49999798],
        "properties": { "magmom": -0.0 },
        "label": "Ho",
        "xyz": [8.849030475044373e-5, 5.148424778660431, 3.299548869768712]
      },
      {
        "species": [{ "element": "Ho", "occu": 1 }],
        "abc": [0.33334156, 0.66665717, 2.019999999999999e-6],
        "properties": { "magmom": -0.0 },
        "label": "Ho",
        "xyz": [9.294912371071717e-5, 5.14841705590495, 1.3330231287999992e-5]
      },
      {
        "species": [{ "element": "Ho", "occu": 1 }],
        "abc": [0.66665844, 0.33334183, -2.019999999999999e-6],
        "properties": { "magmom": -0.0 },
        "label": "Ho",
        "xyz": [4.458662199695249, 2.5742909313395694, -1.3330231287999992e-5]
      },
      {
        "species": [{ "element": "Ho", "occu": 1 }],
        "abc": [0.76351398, 0.76351397, 0.249997],
        "properties": { "magmom": -0.0 },
        "label": "Ho",
        "xyz": [3.404318529737836, 5.896401330923071, 1.6497613026267999]
      },
      {
        "species": [{ "element": "Ho", "occu": 1 }],
        "abc": [0.2364643, 0.9999927, 0.250002],
        "properties": { "magmom": -0.0 },
        "label": "Ho",
        "xyz": [-2.3500995456330966, 7.722689699699784, 1.6497942982488]
      },
      {
        "species": [{ "element": "Ho", "occu": 1 }],
        "abc": [0.9999985100000001, 0.23646429, 0.250002],
        "properties": { "magmom": -0.0 },
        "label": "Ho",
        "xyz": [7.8632049032062845, 1.8261161214810666, 1.6497942982488]
      },
      {
        "species": [{ "element": "Ho", "occu": 1 }],
        "abc": [0.23648602, 0.23648603, 0.749996999999999],
        "properties": { "magmom": -0.0 },
        "label": "Ho",
        "xyz": [1.054432160262164, 1.8263143790769292, 4.949323502626793]
      },
      {
        "species": [{ "element": "Ho", "occu": 1 }],
        "abc": [0.763535699999999, 7.299999999999999e-6, 0.750002],
        "properties": { "magmom": -0.0 },
        "label": "Ho",
        "xyz": [6.8088502356330896, 2.601030021500003e-5, 4.949356498248799]
      },
      {
        "species": [{ "element": "Ho", "occu": 1 }],
        "abc": [1.49e-6, 0.76353571, 0.750002],
        "properties": { "magmom": -0.0 },
        "label": "Ho",
        "xyz": [-3.404454213206283, 5.896599588518933, 4.949356498248799]
      },
      {
        "species": [{ "element": "Tl", "occu": 1 }],
        "abc": [0.40228405, 0.40229245, 0.250001],
        "properties": { "magmom": -0.0 },
        "label": "Tl",
        "xyz": [1.7936468314342304, 3.1067902239634577, 1.6497876991243998]
      },
      {
        "species": [{ "element": "Tl", "occu": 1 }],
        "abc": [0.59771359, -2.1640000000000003e-5, 0.249998],
        "properties": { "magmom": -0.0 },
        "label": "Tl",
        "xyz": [5.330249058418839, -0.00019089149806150003, 1.6497679017512]
      },
      {
        "species": [{ "element": "Tl", "occu": 1 }],
        "abc": [-1.9180000000000003e-5, 0.59771806, 0.249999],
        "properties": { "magmom": -0.0 },
        "label": "Tl",
        "xyz": [-2.665287657648305, 4.6160304241227585, 1.6497745008756]
      },
      {
        "species": [{ "element": "Tl", "occu": 1 }],
        "abc": [0.59771595, 0.59770755, 0.750000999999999],
        "properties": { "magmom": -0.0 },
        "label": "Tl",
        "xyz": [2.66510385856577, 4.615925486036542, 4.949349899124393]
      },
      {
        "species": [{ "element": "Tl", "occu": 1 }],
        "abc": [0.40228641, 2.1640000000000003e-5, 0.749997999999999],
        "properties": { "magmom": -0.0 },
        "label": "Tl",
        "xyz": [3.5873205915811623, 0.00015112149806150002, 4.949330101751194]
      },
      {
        "species": [{ "element": "Tl", "occu": 1 }],
        "abc": [1.9180000000000003e-5, 0.40228194, 0.749999],
        "properties": { "magmom": -0.0 },
        "label": "Tl",
        "xyz": [-1.7935313023516954, 3.106725055877243, 4.9493367008756]
      }
    ]
  },
  "task_ids": null,
  "uncorrected_energy_per_atom": null,
  "energy_per_atom": -40.9289169625,
  "formation_energy_per_atom": -0.435837798124993,
  "energy_above_hull": 0.0,
  "is_stable": true,
  "equilibrium_reaction_energy_per_atom": null,
  "decomposes_to": null,
  "xas": null,
  "grain_boundaries": null,
  "band_gap": 0.0,
  "cbm": null,
  "vbm": null,
  "efermi": 4.35438512,
  "is_gap_direct": null,
  "is_metal": null,
  "es_source_calc_id": null,
  "bandstructure": null,
  "dos": null,
  "dos_energy_up": null,
  "dos_energy_down": null,
  "is_magnetic": null,
  "ordering": null,
  "total_magnetization": 4.4000000000000006e-5,
  "total_magnetization_normalized_vol": null,
  "total_magnetization_normalized_formula_units": null,
  "num_magnetic_sites": null,
  "num_unique_magnetic_sites": null,
  "types_of_magnetic_species": null,
  "bulk_modulus": null,
  "shear_modulus": null,
  "universal_anisotropy": null,
  "homogeneous_poisson": null,
  "e_total": null,
  "e_ionic": null,
  "e_electronic": null,
  "n": null,
  "e_ij_max": null,
  "weighted_surface_energy_EV_PER_ANG2": null,
  "weighted_surface_energy": null,
  "weighted_work_function": null,
  "surface_anisotropy": null,
  "shape_factor": null,
  "has_reconstructed": null,
  "possible_species": null,
  "has_props": null,
  "theoretical": null,
  "database_IDs": null,
  "fields_not_requested": [
    "builder_meta",
    "nsites",
    "elements",
    "nelements",
    "composition",
    "composition_reduced",
    "chemsys",
    "symmetry",
    "property_name",
    "deprecated",
    "deprecation_reasons",
    "last_updated",
    "origins",
    "warnings",
    "task_ids",
    "uncorrected_energy_per_atom",
    "equilibrium_reaction_energy_per_atom",
    "decomposes_to",
    "xas",
    "grain_boundaries",
    "cbm",
    "vbm",
    "is_gap_direct",
    "is_metal",
    "es_source_calc_id",
    "bandstructure",
    "dos",
    "dos_energy_up",
    "dos_energy_down",
    "is_magnetic",
    "ordering",
    "total_magnetization_normalized_vol",
    "total_magnetization_normalized_formula_units",
    "num_magnetic_sites",
    "num_unique_magnetic_sites",
    "types_of_magnetic_species",
    "bulk_modulus",
    "shear_modulus",
    "universal_anisotropy",
    "homogeneous_poisson",
    "e_total",
    "e_ionic",
    "e_electronic",
    "n",
    "e_ij_max",
    "weighted_surface_energy_EV_PER_ANG2",
    "weighted_surface_energy",
    "weighted_work_function",
    "surface_anisotropy",
    "shape_factor",
    "has_reconstructed",
    "possible_species",
    "has_props",
    "theoretical",
    "database_IDs"
  ]
}
