{"builder_meta": null, "nsites": null, "elements": null, "nelements": null, "composition": null, "composition_reduced": null, "formula_pretty": "Ho7Rh3", "formula_anonymous": "A3B7", "chemsys": null, "volume": 500.45045213525395, "density": 9.71024594253027, "density_atomic": 25.0225226067627, "symmetry": null, "property_name": null, "material_id": "mp-1106336", "deprecated": null, "deprecation_reasons": null, "last_updated": null, "origins": null, "warnings": null, "structure": {"@module": "pymatgen.core.structure", "@class": "Structure", "charge": 0, "lattice": {"matrix": [[-0.0, 1e-08, -6.13723352], [-4.85157472, -8.40380018, 1.029999999999998e-06], [-4.85157472, 8.40380018, -1.029999999999998e-06]], "pbc": [true, true, true], "a": 6.13723352, "b": 9.703691809260647, "c": 9.703691809260647, "alpha": 120.00369782222029, "beta": 89.99999383747823, "gamma": 90.00000616252177, "volume": 500.4504521352539}, "properties": {}, "sites": [{"species": [{"element": "Ho", "occu": 1}], "abc": [0.46064328, 0.33333339, 0.66666661], "properties": {"magmom": 0.0}, "label": "Ho", "xyz": [-4.85157472, 2.801265778842413, -2.8270757221119625]}, {"species": [{"element": "Ho", "occu": 1}], "abc": [0.9606422800000001, 0.66666661, 0.33333339], "properties": {"magmom": 0.0}, "label": "Ho", "xyz": [-4.85157472, -2.801265764629557, -5.89568565821201]}, {"species": [{"element": "Ho", "occu": 1}], "abc": [0.25465115, 0.12379855000000001, 0.87620145], "properties": {"magmom": -0.0}, "label": "Ho", "xyz": [-4.85157472, 6.323043628999033, -1.5628543486615347]}, {"species": [{"element": "Ho", "occu": 1}], "abc": [0.25471256000000003, 0.75241091, 0.8762263100000001], "properties": {"magmom": -0.0}, "label": "Ho", "xyz": [-7.90145516460308, 1.0405198833538973, -1.5632305887268734]}, {"species": [{"element": "Ho", "occu": 1}], "abc": [0.25471256000000003, 0.12377369, 0.24758909], "properties": {"magmom": -0.0}, "label": "Ho", "xyz": [-1.801694275396922, 1.0405198833538976, -1.5632305887268734]}, {"species": [{"element": "Ho", "occu": 1}], "abc": [0.75465115, 0.87620145, 0.12379855000000001], "properties": {"magmom": -0.0}, "label": "Ho", "xyz": [-4.85157472, -6.323043618906009, -4.631469558711561]}, {"species": [{"element": "Ho", "occu": 1}], "abc": [0.75471256, 0.24758909, 0.12377269], "properties": {"magmom": -0.0}, "label": "Ho", "xyz": [-1.8016894238222019, -1.0405282770598263, -4.631847093666119]}, {"species": [{"element": "Ho", "occu": 1}], "abc": [0.75471256, 0.87622731, 0.75241091], "properties": {"magmom": -0.0}, "label": "Ho", "xyz": [-7.901460016177799, -1.0405282770598259, -4.631847093666119]}, {"species": [{"element": "Ho", "occu": 1}], "abc": [0.44447029, 0.541366599999999, 0.458633399999999], "properties": {"magmom": 0.0}, "label": "Ho", "xyz": [-4.8515747199999915, -0.6952732766072725, -2.727817877216925]}, {"species": [{"element": "Ho", "occu": 1}], "abc": [0.44427851, 0.9172269, 0.45864169], "properties": {"magmom": 0.0}, "label": "Ho", "xyz": [-6.675129269286045, -3.8538584659005526, -2.726640491444889]}, {"species": [{"element": "Ho", "occu": 1}], "abc": [0.44427851, 0.54135831, 0.0827731], "properties": {"magmom": 0.0}, "label": "Ho", "xyz": [-3.028020170713955, -3.8538584659005526, -2.726640491444889]}, {"species": [{"element": "Ho", "occu": 1}], "abc": [0.94447029, 0.458633399999999, 0.541366599999999], "properties": {"magmom": 0.0}, "label": "Ho", "xyz": [-4.8515747199999915, 0.6952732904966785, -5.7964348076473176]}, {"species": [{"element": "Ho", "occu": 1}], "abc": [0.9442785100000001, 0.0827731, 0.54135831], "properties": {"magmom": 0.0}, "label": "Ho", "xyz": [-3.028020170713955, 3.8538584797861226, -5.795258196130422]}, {"species": [{"element": "Ho", "occu": 1}], "abc": [0.9442785100000001, 0.45864169, 0.9172269], "properties": {"magmom": 0.0}, "label": "Ho", "xyz": [-6.675129269286045, 3.8538584797861226, -5.795258196130422]}, {"species": [{"element": "Rh", "occu": 1}], "abc": [0.18103216, 0.810389199999999, 0.1896108], "properties": {"magmom": 0.0}, "label": "Rh", "xyz": [-4.851574719999996, -5.216897627849782, -1.1110360011482512]}, {"species": [{"element": "Rh", "occu": 1}], "abc": [0.18111249000000001, 0.379204999999999, 0.18967234], "properties": {"magmom": 0.0}, "label": "Rh", "xyz": [-2.7599509215248403, -1.5927946004127453, -1.111529449300025]}, {"species": [{"element": "Rh", "occu": 1}], "abc": [0.18111249000000001, 0.81032766, 0.620795], "properties": {"magmom": 0.0}, "label": "Rh", "xyz": [-6.943198518475155, -1.5927946004127538, -1.1115294493000252]}, {"species": [{"element": "Rh", "occu": 1}], "abc": [0.68103216, 0.1896108, 0.810389199999999], "properties": {"magmom": 0.0}, "label": "Rh", "xyz": [-4.851574719999996, 5.216897636470425, -4.179654039951755]}, {"species": [{"element": "Rh", "occu": 1}], "abc": [0.68111249, 0.620795, 0.81032766], "properties": {"magmom": 0.0}, "label": "Rh", "xyz": [-6.943198518475155, 1.5927946090350034, -4.180146599737304]}, {"species": [{"element": "Rh", "occu": 1}], "abc": [0.68111249, 0.18967234, 0.379204999999999], "properties": {"magmom": 0.0}, "label": "Rh", "xyz": [-2.7599509215248403, 1.5927946090349954, -4.180146599737304]}]}, "task_ids": null, "uncorrected_energy_per_atom": null, "energy_per_atom": -6.048241186500002, "formation_energy_per_atom": -0.620573199999996, "energy_above_hull": 0.0, "is_stable": true, "equilibrium_reaction_energy_per_atom": null, "decomposes_to": null, "xas": null, "grain_boundaries": null, "band_gap": 0.0, "cbm": null, "vbm": null, "efermi": 3.83635477, "is_gap_direct": null, "is_metal": null, "es_source_calc_id": null, "bandstructure": null, "dos": null, "dos_energy_up": null, "dos_energy_down": null, "is_magnetic": null, "ordering": null, "total_magnetization": 9.4e-06, "total_magnetization_normalized_vol": null, "total_magnetization_normalized_formula_units": null, "num_magnetic_sites": null, "num_unique_magnetic_sites": null, "types_of_magnetic_species": null, "bulk_modulus": null, "shear_modulus": null, "universal_anisotropy": null, "homogeneous_poisson": null, "e_total": null, "e_ionic": null, "e_electronic": null, "n": null, "e_ij_max": null, "weighted_surface_energy_EV_PER_ANG2": null, "weighted_surface_energy": null, "weighted_work_function": null, "surface_anisotropy": null, "shape_factor": null, "has_reconstructed": null, "possible_species": null, "has_props": null, "theoretical": null, "database_IDs": null, "fields_not_requested": ["builder_meta", "nsites", "elements", "nelements", "composition", "composition_reduced", "chemsys", "symmetry", "property_name", "deprecated", "deprecation_reasons", "last_updated", "origins", "warnings", "task_ids", "uncorrected_energy_per_atom", "equilibrium_reaction_energy_per_atom", "decomposes_to", "xas", "grain_boundaries", "cbm", "vbm", "is_gap_direct", "is_metal", "es_source_calc_id", "bandstructure", "dos", "dos_energy_up", "dos_energy_down", "is_magnetic", "ordering", "total_magnetization_normalized_vol", "total_magnetization_normalized_formula_units", "num_magnetic_sites", "num_unique_magnetic_sites", "types_of_magnetic_species", "bulk_modulus", "shear_modulus", "universal_anisotropy", "homogeneous_poisson", "e_total", "e_ionic", "e_electronic", "n", "e_ij_max", "weighted_surface_energy_EV_PER_ANG2", "weighted_surface_energy", "weighted_work_function", "surface_anisotropy", "shape_factor", "has_reconstructed", "possible_species", "has_props", "theoretical", "database_IDs"]}