{
  "builder_meta": null,
  "nsites": null,
  "elements": null,
  "nelements": null,
  "composition": null,
  "composition_reduced": null,
  "formula_pretty": "HoAg2",
  "formula_anonymous": "AB2",
  "chemsys": null,
  "volume": 62.48036612378993,
  "density": 10.116969523867779,
  "density_atomic": 20.826788707929975,
  "symmetry": null,
  "property_name": null,
  "material_id": "mp-2120",
  "deprecated": null,
  "deprecation_reasons": null,
  "last_updated": null,
  "origins": null,
  "warnings": null,
  "structure": {
    "@module": "pymatgen.core.structure",
    "@class": "Structure",
    "charge": 0,
    "lattice": {
      "matrix": [
        [3.46448704, 1e-8, -1.28927514],
        [-0.47979012, 3.43110355, -1.28927514],
        [-0.01218407, -0.01400539, 5.26671258]
      ],
      "pbc": [true, true, true],
      "a": 3.6966066651660383,
      "b": 3.696606621848508,
      "c": 5.266745295041433,
      "alpha": 110.54472264994762,
      "beta": 110.54473310208917,
      "gamma": 89.99998419994813,
      "volume": 62.48036612378993
    },
    "properties": {},
    "sites": [
      {
        "species": [{ "element": "Ho", "occu": 1 }],
        "abc": [-0.0, 0.0, -0.0],
        "properties": { "magmom": -0.0 },
        "label": "Ho",
        "xyz": [0.0, 0.0, 0.0]
      },
      {
        "species": [{ "element": "Ag", "occu": 1 }],
        "abc": [0.33056071, 0.33056071, 0.66112043],
        "properties": { "magmom": 0.0 },
        "label": "Ag",
        "xyz": [0.978568395412463, 1.1249287794180098, 2.6295638742485106]
      },
      {
        "species": [{ "element": "Ag", "occu": 1 }],
        "abc": [0.66943929, 0.66943929, 0.33887957],
        "properties": { "magmom": 0.0 },
        "label": "Ag",
        "xyz": [1.9939444545875367, 2.29216939058199, 0.05859842575148955]
      }
    ]
  },
  "task_ids": null,
  "uncorrected_energy_per_atom": null,
  "energy_per_atom": -3.7512690366666703,
  "formation_energy_per_atom": -0.323417429444444,
  "energy_above_hull": 0.0,
  "is_stable": true,
  "equilibrium_reaction_energy_per_atom": null,
  "decomposes_to": null,
  "xas": null,
  "grain_boundaries": null,
  "band_gap": 0.0,
  "cbm": null,
  "vbm": null,
  "efermi": 3.50789934,
  "is_gap_direct": null,
  "is_metal": null,
  "es_source_calc_id": null,
  "bandstructure": null,
  "dos": null,
  "dos_energy_up": null,
  "dos_energy_down": null,
  "is_magnetic": null,
  "ordering": null,
  "total_magnetization": 1e-7,
  "total_magnetization_normalized_vol": null,
  "total_magnetization_normalized_formula_units": null,
  "num_magnetic_sites": null,
  "num_unique_magnetic_sites": null,
  "types_of_magnetic_species": null,
  "bulk_modulus": null,
  "shear_modulus": null,
  "universal_anisotropy": null,
  "homogeneous_poisson": null,
  "e_total": null,
  "e_ionic": null,
  "e_electronic": null,
  "n": null,
  "e_ij_max": null,
  "weighted_surface_energy_EV_PER_ANG2": null,
  "weighted_surface_energy": null,
  "weighted_work_function": null,
  "surface_anisotropy": null,
  "shape_factor": null,
  "has_reconstructed": null,
  "possible_species": null,
  "has_props": null,
  "theoretical": null,
  "database_IDs": null,
  "fields_not_requested": [
    "builder_meta",
    "nsites",
    "elements",
    "nelements",
    "composition",
    "composition_reduced",
    "chemsys",
    "symmetry",
    "property_name",
    "deprecated",
    "deprecation_reasons",
    "last_updated",
    "origins",
    "warnings",
    "task_ids",
    "uncorrected_energy_per_atom",
    "equilibrium_reaction_energy_per_atom",
    "decomposes_to",
    "xas",
    "grain_boundaries",
    "cbm",
    "vbm",
    "is_gap_direct",
    "is_metal",
    "es_source_calc_id",
    "bandstructure",
    "dos",
    "dos_energy_up",
    "dos_energy_down",
    "is_magnetic",
    "ordering",
    "total_magnetization_normalized_vol",
    "total_magnetization_normalized_formula_units",
    "num_magnetic_sites",
    "num_unique_magnetic_sites",
    "types_of_magnetic_species",
    "bulk_modulus",
    "shear_modulus",
    "universal_anisotropy",
    "homogeneous_poisson",
    "e_total",
    "e_ionic",
    "e_electronic",
    "n",
    "e_ij_max",
    "weighted_surface_energy_EV_PER_ANG2",
    "weighted_surface_energy",
    "weighted_work_function",
    "surface_anisotropy",
    "shape_factor",
    "has_reconstructed",
    "possible_species",
    "has_props",
    "theoretical",
    "database_IDs"
  ]
}
