{
  "builder_meta": null,
  "nsites": null,
  "elements": null,
  "nelements": null,
  "composition": null,
  "composition_reduced": null,
  "formula_pretty": "HoAl",
  "formula_anonymous": "AB",
  "chemsys": null,
  "volume": 365.8505574184596,
  "density": 6.968465830371552,
  "density_atomic": 22.865659838653723,
  "symmetry": null,
  "property_name": null,
  "material_id": "mp-1188420",
  "deprecated": null,
  "deprecation_reasons": null,
  "last_updated": null,
  "origins": null,
  "warnings": null,
  "structure": {
    "@module": "pymatgen.core.structure",
    "@class": "Structure",
    "charge": 0,
    "lattice": {
      "matrix": [
        [0.0, 0.0, 5.57376455],
        [5.79178241, 0.00013114, 0.0],
        [0.0002555, 11.33294718, 0.0]
      ],
      "pbc": [true, true, true],
      "a": 5.57376455,
      "b": 5.791782411484664,
      "c": 11.33294718288011,
      "alpha": 89.99741095779228,
      "beta": 90.0,
      "gamma": 90.0,
      "volume": 365.8505574184596
    },
    "properties": {},
    "sites": [
      {
        "species": [{ "element": "Ho", "occu": 1 }],
        "abc": [0.75, 0.16222286, 0.48443636],
        "properties": { "magmom": -0.0 },
        "label": "Ho",
        "xyz": [0.9396832805378725, 5.490112953857325, 4.1803234125]
      },
      {
        "species": [{ "element": "Ho", "occu": 1 }],
        "abc": [0.25, 0.83777714, 0.51556364],
        "properties": { "magmom": -0.0 },
        "label": "Ho",
        "xyz": [4.852354629462127, 5.842965366142675, 1.3934411375]
      },
      {
        "species": [{ "element": "Ho", "occu": 1 }],
        "abc": [0.25, 0.16222041, 0.01556042],
        "properties": { "magmom": -0.0 },
        "label": "Ho",
        "xyz": [0.9395492928682981, 0.17636669154318302, 1.3934411375]
      },
      {
        "species": [{ "element": "Ho", "occu": 1 }],
        "abc": [0.75, 0.83777959, 0.98443958],
        "properties": { "magmom": -0.0 },
        "label": "Ho",
        "xyz": [4.852488617131701, 11.156711628456815, 4.1803234125]
      },
      {
        "species": [{ "element": "Ho", "occu": 1 }],
        "abc": [0.75, 0.400306999999999, 0.16754701],
        "properties": { "magmom": 0.0 },
        "label": "Ho",
        "xyz": [2.3185338494609193, 1.8988539107569116, 4.1803234125]
      },
      {
        "species": [{ "element": "Ho", "occu": 1 }],
        "abc": [0.25, 0.599692999999999, 0.8324529900000001],
        "properties": { "magmom": 0.0 },
        "label": "Ho",
        "xyz": [3.4735040605390695, 9.434224409243088, 1.3934411375]
      },
      {
        "species": [{ "element": "Ho", "occu": 1 }],
        "abc": [0.25, 0.40030494, 0.33245113],
        "properties": { "magmom": 0.0 },
        "label": "Ho",
        "xyz": [2.3185640513918204, 3.7677035922111446, 1.3934411375]
      },
      {
        "species": [{ "element": "Ho", "occu": 1 }],
        "abc": [0.75, 0.5996950600000001, 0.66754887],
        "properties": { "magmom": 0.0 },
        "label": "Ho",
        "xyz": [3.47347385860818, 7.565374727788854, 4.1803234125]
      },
      {
        "species": [{ "element": "Al", "occu": 1 }],
        "abc": [0.50000303, 0.93077286, 0.24999408],
        "properties": { "magmom": -0.0 },
        "label": "Al",
        "xyz": [5.390897751740832, 2.8332917655055545, 2.7868991635065865]
      },
      {
        "species": [{ "element": "Al", "occu": 1 }],
        "abc": [3.03e-6, 0.06922714, 0.75000592],
        "properties": { "magmom": -0.0 },
        "label": "Al",
        "xyz": [0.40114015825916743, 8.499786554494444, 1.6888506586499998e-5]
      },
      {
        "species": [{ "element": "Al", "occu": 1 }],
        "abc": [0.49999697, 0.06922714, 0.75000592],
        "properties": { "magmom": -0.0 },
        "label": "Al",
        "xyz": [0.40114015825916743, 8.499786554494444, 2.7868653864934134]
      },
      {
        "species": [{ "element": "Al", "occu": 1 }],
        "abc": [-3.03e-6, 0.93077286, 0.24999408],
        "properties": { "magmom": -0.0 },
        "label": "Al",
        "xyz": [5.390897751740832, 2.8332917655055545, -1.6888506586499998e-5]
      },
      {
        "species": [{ "element": "Al", "occu": 1 }],
        "abc": [0.75, 0.6616017, 0.40181833],
        "properties": { "magmom": 0.0 },
        "label": "Al",
        "xyz": [3.8319557530694115, 4.553872672292747, 4.1803234125]
      },
      {
        "species": [{ "element": "Al", "occu": 1 }],
        "abc": [0.25, 0.3383983, 0.59818167],
        "properties": { "magmom": 0.0 },
        "label": "Al",
        "xyz": [1.960082156930588, 6.779205647707252, 1.3934411375]
      },
      {
        "species": [{ "element": "Al", "occu": 1 }],
        "abc": [0.25, 0.66158234, 0.098166999999999],
        "properties": { "magmom": 0.0 },
        "label": "Al",
        "xyz": [3.8317660412471395, 1.1126081857271164, 1.3934411375]
      },
      {
        "species": [{ "element": "Al", "occu": 1 }],
        "abc": [0.75, 0.33841766, 0.901833],
        "properties": { "magmom": 0.0 },
        "label": "Al",
        "xyz": [1.9602718687528606, 10.220470134272873, 4.1803234125]
      }
    ]
  },
  "task_ids": null,
  "uncorrected_energy_per_atom": null,
  "energy_per_atom": -20.284695466875,
  "formation_energy_per_atom": -0.477974344374999,
  "energy_above_hull": 0.0,
  "is_stable": true,
  "equilibrium_reaction_energy_per_atom": null,
  "decomposes_to": null,
  "xas": null,
  "grain_boundaries": null,
  "band_gap": 0.0,
  "cbm": null,
  "vbm": null,
  "efermi": 4.59994529,
  "is_gap_direct": null,
  "is_metal": null,
  "es_source_calc_id": null,
  "bandstructure": null,
  "dos": null,
  "dos_energy_up": null,
  "dos_energy_down": null,
  "is_magnetic": null,
  "ordering": null,
  "total_magnetization": 0.0,
  "total_magnetization_normalized_vol": null,
  "total_magnetization_normalized_formula_units": null,
  "num_magnetic_sites": null,
  "num_unique_magnetic_sites": null,
  "types_of_magnetic_species": null,
  "bulk_modulus": null,
  "shear_modulus": null,
  "universal_anisotropy": null,
  "homogeneous_poisson": null,
  "e_total": null,
  "e_ionic": null,
  "e_electronic": null,
  "n": null,
  "e_ij_max": null,
  "weighted_surface_energy_EV_PER_ANG2": null,
  "weighted_surface_energy": null,
  "weighted_work_function": null,
  "surface_anisotropy": null,
  "shape_factor": null,
  "has_reconstructed": null,
  "possible_species": null,
  "has_props": null,
  "theoretical": null,
  "database_IDs": null,
  "fields_not_requested": [
    "builder_meta",
    "nsites",
    "elements",
    "nelements",
    "composition",
    "composition_reduced",
    "chemsys",
    "symmetry",
    "property_name",
    "deprecated",
    "deprecation_reasons",
    "last_updated",
    "origins",
    "warnings",
    "task_ids",
    "uncorrected_energy_per_atom",
    "equilibrium_reaction_energy_per_atom",
    "decomposes_to",
    "xas",
    "grain_boundaries",
    "cbm",
    "vbm",
    "is_gap_direct",
    "is_metal",
    "es_source_calc_id",
    "bandstructure",
    "dos",
    "dos_energy_up",
    "dos_energy_down",
    "is_magnetic",
    "ordering",
    "total_magnetization_normalized_vol",
    "total_magnetization_normalized_formula_units",
    "num_magnetic_sites",
    "num_unique_magnetic_sites",
    "types_of_magnetic_species",
    "bulk_modulus",
    "shear_modulus",
    "universal_anisotropy",
    "homogeneous_poisson",
    "e_total",
    "e_ionic",
    "e_electronic",
    "n",
    "e_ij_max",
    "weighted_surface_energy_EV_PER_ANG2",
    "weighted_surface_energy",
    "weighted_work_function",
    "surface_anisotropy",
    "shape_factor",
    "has_reconstructed",
    "possible_species",
    "has_props",
    "theoretical",
    "database_IDs"
  ]
}
