{"builder_meta": null, "nsites": null, "elements": null, "nelements": null, "composition": null, "composition_reduced": null, "formula_pretty": "HoAs3", "formula_anonymous": "AB3", "chemsys": null, "volume": 169.79255925416106, "density": 7.622288911432572, "density_atomic": 21.224069906770133, "symmetry": null, "property_name": null, "material_id": "mp-1184714", "deprecated": null, "deprecation_reasons": null, "last_updated": null, "origins": null, "warnings": null, "structure": {"@module": "pymatgen.core.structure", "@class": "Structure", "charge": 0, "lattice": {"matrix": [[2.994437999999999, -5.18652, 0.0], [2.994437999999999, 5.18652, 0.0], [0.0, 0.0, 5.466348]], "pbc": [true, true, true], "a": 5.988877077236098, "b": 5.988877077236098, "c": 5.466348, "alpha": 90.0, "beta": 90.0, "gamma": 120.00001190028846, "volume": 169.79255925416098}, "properties": {}, "sites": [{"species": [{"element": "Ho", "occu": 1}], "abc": [0.333333, 0.666667, 0.75], "properties": {"magmom": 0.0}, "label": "Ho", "xyz": [2.994437999999999, 1.72884345768, 4.099761]}, {"species": [{"element": "Ho", "occu": 1}], "abc": [0.666667, 0.333333, 0.25], "properties": {"magmom": 0.0}, "label": "Ho", "xyz": [2.994437999999999, -1.72884345768, 1.366587]}, {"species": [{"element": "As", "occu": 1}], "abc": [0.180197, 0.360394999999999, 0.25], "properties": {"magmom": 0.0}, "label": "As", "xyz": [1.6187692272959966, 0.934600530959995, 1.366587]}, {"species": [{"element": "As", "occu": 1}], "abc": [0.639605, 0.819801999999999, 0.25], "properties": {"magmom": -0.0}, "label": "As", "xyz": [4.370103778265996, 0.9345953444399946, 1.366587]}, {"species": [{"element": "As", "occu": 1}], "abc": [0.180197, 0.819801999999999, 0.25], "properties": {"magmom": 0.0}, "label": "As", "xyz": [2.994435005561996, 3.3173241245999945, 1.366587]}, {"species": [{"element": "As", "occu": 1}], "abc": [0.819801999999999, 0.639605, 0.75], "properties": {"magmom": 0.0}, "label": "As", "xyz": [4.370103778265996, -0.9345953444399946, 4.099761]}, {"species": [{"element": "As", "occu": 1}], "abc": [0.360394999999999, 0.180197, 0.75], "properties": {"magmom": -0.0}, "label": "As", "xyz": [1.6187692272959966, -0.934600530959995, 4.099761]}, {"species": [{"element": "As", "occu": 1}], "abc": [0.819801999999999, 0.180197, 0.75], "properties": {"magmom": 0.0}, "label": "As", "xyz": [2.994435005561996, -3.3173241245999945, 4.099761]}]}, "task_ids": null, "uncorrected_energy_per_atom": null, "energy_per_atom": -19.86969902125, "formation_energy_per_atom": -0.618714801874999, "energy_above_hull": 0.28059494, "is_stable": false, "equilibrium_reaction_energy_per_atom": null, "decomposes_to": null, "xas": null, "grain_boundaries": null, "band_gap": 0.0, "cbm": null, "vbm": null, "efermi": 5.45167651, "is_gap_direct": null, "is_metal": null, "es_source_calc_id": null, "bandstructure": null, "dos": null, "dos_energy_up": null, "dos_energy_down": null, "is_magnetic": null, "ordering": null, "total_magnetization": 0.0007350999999990001, "total_magnetization_normalized_vol": null, "total_magnetization_normalized_formula_units": null, "num_magnetic_sites": null, "num_unique_magnetic_sites": null, "types_of_magnetic_species": null, "bulk_modulus": null, "shear_modulus": null, "universal_anisotropy": null, "homogeneous_poisson": null, "e_total": null, "e_ionic": null, "e_electronic": null, "n": null, "e_ij_max": null, "weighted_surface_energy_EV_PER_ANG2": null, "weighted_surface_energy": null, "weighted_work_function": null, "surface_anisotropy": null, "shape_factor": null, "has_reconstructed": null, "possible_species": null, "has_props": null, "theoretical": null, "database_IDs": null, "fields_not_requested": ["builder_meta", "nsites", "elements", "nelements", "composition", "composition_reduced", "chemsys", "symmetry", "property_name", "deprecated", "deprecation_reasons", "last_updated", "origins", "warnings", "task_ids", "uncorrected_energy_per_atom", "equilibrium_reaction_energy_per_atom", "decomposes_to", "xas", "grain_boundaries", "cbm", "vbm", "is_gap_direct", "is_metal", "es_source_calc_id", "bandstructure", "dos", "dos_energy_up", "dos_energy_down", "is_magnetic", "ordering", "total_magnetization_normalized_vol", "total_magnetization_normalized_formula_units", "num_magnetic_sites", "num_unique_magnetic_sites", "types_of_magnetic_species", "bulk_modulus", "shear_modulus", "universal_anisotropy", "homogeneous_poisson", "e_total", "e_ionic", "e_electronic", "n", "e_ij_max", "weighted_surface_energy_EV_PER_ANG2", "weighted_surface_energy", "weighted_work_function", "surface_anisotropy", "shape_factor", "has_reconstructed", "possible_species", "has_props", "theoretical", "database_IDs"]}