{
  "builder_meta": null,
  "nsites": null,
  "elements": null,
  "nelements": null,
  "composition": null,
  "composition_reduced": null,
  "formula_pretty": "HoAu4",
  "formula_anonymous": "AB4",
  "chemsys": null,
  "volume": 94.73661669559216,
  "density": 16.70057497688864,
  "density_atomic": 18.947323339118434,
  "symmetry": null,
  "property_name": null,
  "material_id": "mp-30387",
  "deprecated": null,
  "deprecation_reasons": null,
  "last_updated": null,
  "origins": null,
  "warnings": null,
  "structure": {
    "@module": "pymatgen.core.structure",
    "@class": "Structure",
    "charge": 0,
    "lattice": {
      "matrix": [
        [3.815216689999999, -0.00345021, 1.69264144],
        [1.90590394, 4.765381, 0.83966122],
        [-0.02285671, -0.0069060300000000005, 5.19874365]
      ],
      "pbc": [true, true, true],
      "a": 4.173838202423384,
      "b": 5.200611201391661,
      "c": 5.1987984824243485,
      "alpha": 80.8729520816754,
      "beta": 66.3271405379059,
      "gamma": 66.4401472899338,
      "volume": 94.73661669559212
    },
    "properties": {},
    "sites": [
      {
        "species": [{ "element": "Ho", "occu": 1 }],
        "abc": [-0.0, -0.0, 0.0],
        "properties": { "magmom": -0.0 },
        "label": "Ho",
        "xyz": [0.0, 0.0, 0.0]
      },
      {
        "species": [{ "element": "Au", "occu": 1 }],
        "abc": [0.599116, 0.59911639, 0.20119986],
        "properties": { "magmom": 0.0 },
        "label": "Au",
        "xyz": [3.4230168838135553, 2.8515612934110743, 2.5631298624723247]
      },
      {
        "species": [{ "element": "Au", "occu": 1 }],
        "abc": [0.400883999999999, 0.40088361, 0.79880014],
        "properties": { "magmom": 0.0 },
        "label": "Au",
        "xyz": [2.27524703618644, 1.9034634665889256, 5.1679164475276735]
      },
      {
        "species": [{ "element": "Au", "occu": 1 }],
        "abc": [0.80163034, 0.79826874, 0.59873919],
        "properties": { "magmom": 0.0 },
        "label": "Au",
        "xyz": [4.566131781091745, 3.797153982666253, 5.1398395991801955]
      },
      {
        "species": [{ "element": "Au", "occu": 1 }],
        "abc": [0.19836966, 0.20173126, 0.40126081],
        "properties": { "magmom": 0.0 },
        "label": "Au",
        "xyz": [1.1321321389082546, 0.957870777333747, 2.591206710819804]
      }
    ]
  },
  "task_ids": null,
  "uncorrected_energy_per_atom": null,
  "energy_per_atom": -47.695070722000004,
  "formation_energy_per_atom": -0.650833819000001,
  "energy_above_hull": 0.0,
  "is_stable": true,
  "equilibrium_reaction_energy_per_atom": null,
  "decomposes_to": null,
  "xas": null,
  "grain_boundaries": null,
  "band_gap": 0.0,
  "cbm": null,
  "vbm": null,
  "efermi": 5.07879218,
  "is_gap_direct": null,
  "is_metal": null,
  "es_source_calc_id": null,
  "bandstructure": null,
  "dos": null,
  "dos_energy_up": null,
  "dos_energy_down": null,
  "is_magnetic": null,
  "ordering": null,
  "total_magnetization": 1e-7,
  "total_magnetization_normalized_vol": null,
  "total_magnetization_normalized_formula_units": null,
  "num_magnetic_sites": null,
  "num_unique_magnetic_sites": null,
  "types_of_magnetic_species": null,
  "bulk_modulus": null,
  "shear_modulus": null,
  "universal_anisotropy": null,
  "homogeneous_poisson": null,
  "e_total": null,
  "e_ionic": null,
  "e_electronic": null,
  "n": null,
  "e_ij_max": null,
  "weighted_surface_energy_EV_PER_ANG2": null,
  "weighted_surface_energy": null,
  "weighted_work_function": null,
  "surface_anisotropy": null,
  "shape_factor": null,
  "has_reconstructed": null,
  "possible_species": null,
  "has_props": null,
  "theoretical": null,
  "database_IDs": null,
  "fields_not_requested": [
    "builder_meta",
    "nsites",
    "elements",
    "nelements",
    "composition",
    "composition_reduced",
    "chemsys",
    "symmetry",
    "property_name",
    "deprecated",
    "deprecation_reasons",
    "last_updated",
    "origins",
    "warnings",
    "task_ids",
    "uncorrected_energy_per_atom",
    "equilibrium_reaction_energy_per_atom",
    "decomposes_to",
    "xas",
    "grain_boundaries",
    "cbm",
    "vbm",
    "is_gap_direct",
    "is_metal",
    "es_source_calc_id",
    "bandstructure",
    "dos",
    "dos_energy_up",
    "dos_energy_down",
    "is_magnetic",
    "ordering",
    "total_magnetization_normalized_vol",
    "total_magnetization_normalized_formula_units",
    "num_magnetic_sites",
    "num_unique_magnetic_sites",
    "types_of_magnetic_species",
    "bulk_modulus",
    "shear_modulus",
    "universal_anisotropy",
    "homogeneous_poisson",
    "e_total",
    "e_ionic",
    "e_electronic",
    "n",
    "e_ij_max",
    "weighted_surface_energy_EV_PER_ANG2",
    "weighted_surface_energy",
    "weighted_work_function",
    "surface_anisotropy",
    "shape_factor",
    "has_reconstructed",
    "possible_species",
    "has_props",
    "theoretical",
    "database_IDs"
  ]
}
