{
  "builder_meta": null,
  "nsites": null,
  "elements": null,
  "nelements": null,
  "composition": null,
  "composition_reduced": null,
  "formula_pretty": "HoAu",
  "formula_anonymous": "AB",
  "chemsys": null,
  "volume": 92.82385791262192,
  "density": 12.948048826653844,
  "density_atomic": 23.20596447815548,
  "symmetry": null,
  "property_name": null,
  "material_id": "mp-1007666",
  "deprecated": null,
  "deprecation_reasons": null,
  "last_updated": null,
  "origins": null,
  "warnings": null,
  "structure": {
    "@module": "pymatgen.core.structure",
    "@class": "Structure",
    "charge": 0,
    "lattice": {
      "matrix": [
        [-3.70828815, -0.00615586, 0.0],
        [0.0, 0.0, -4.61736159],
        [-1.86317145, -5.42425329, 0.0]
      ],
      "pbc": [true, true, true],
      "a": 3.7082932594446683,
      "b": 4.61736159,
      "c": 5.735323147493167,
      "alpha": 90.0,
      "beta": 70.94785361761961,
      "gamma": 90.0,
      "volume": 92.82385791262192
    },
    "properties": {},
    "sites": [
      {
        "species": [{ "element": "Ho", "occu": 1 }],
        "abc": [0.13833879, 0.75, 0.72259451],
        "properties": { "magmom": 0.0 },
        "label": "Ho",
        "xyz": [-1.859317556601078, -3.920387242427247, -3.4630211925]
      },
      {
        "species": [{ "element": "Ho", "occu": 1 }],
        "abc": [0.8616612100000001, 0.25, 0.27740549000000003],
        "properties": { "magmom": 0.0 },
        "label": "Ho",
        "xyz": [-3.7121420433989223, -1.510021907572753, -1.1543403975]
      },
      {
        "species": [{ "element": "Au", "occu": 1 }],
        "abc": [0.41158052, 0.75, 0.1771366],
        "properties": { "magmom": 0.0 },
        "label": "Au",
        "xyz": [-1.856295020956908, -0.9633674173892613, -3.4630211925]
      },
      {
        "species": [{ "element": "Au", "occu": 1 }],
        "abc": [0.58841948, 0.25, 0.822863399999999],
        "properties": { "magmom": 0.0 },
        "label": "Au",
        "xyz": [-3.7151645790430905, -4.467041732610734, -1.1543403975]
      }
    ]
  },
  "task_ids": null,
  "uncorrected_energy_per_atom": null,
  "energy_per_atom": -42.7287569025,
  "formation_energy_per_atom": -0.9956048700000011,
  "energy_above_hull": 0.0,
  "is_stable": true,
  "equilibrium_reaction_energy_per_atom": null,
  "decomposes_to": null,
  "xas": null,
  "grain_boundaries": null,
  "band_gap": 0.0,
  "cbm": null,
  "vbm": null,
  "efermi": 4.48926835,
  "is_gap_direct": null,
  "is_metal": null,
  "es_source_calc_id": null,
  "bandstructure": null,
  "dos": null,
  "dos_energy_up": null,
  "dos_energy_down": null,
  "is_magnetic": null,
  "ordering": null,
  "total_magnetization": 3e-7,
  "total_magnetization_normalized_vol": null,
  "total_magnetization_normalized_formula_units": null,
  "num_magnetic_sites": null,
  "num_unique_magnetic_sites": null,
  "types_of_magnetic_species": null,
  "bulk_modulus": null,
  "shear_modulus": null,
  "universal_anisotropy": null,
  "homogeneous_poisson": null,
  "e_total": null,
  "e_ionic": null,
  "e_electronic": null,
  "n": null,
  "e_ij_max": null,
  "weighted_surface_energy_EV_PER_ANG2": null,
  "weighted_surface_energy": null,
  "weighted_work_function": null,
  "surface_anisotropy": null,
  "shape_factor": null,
  "has_reconstructed": null,
  "possible_species": null,
  "has_props": null,
  "theoretical": null,
  "database_IDs": null,
  "fields_not_requested": [
    "builder_meta",
    "nsites",
    "elements",
    "nelements",
    "composition",
    "composition_reduced",
    "chemsys",
    "symmetry",
    "property_name",
    "deprecated",
    "deprecation_reasons",
    "last_updated",
    "origins",
    "warnings",
    "task_ids",
    "uncorrected_energy_per_atom",
    "equilibrium_reaction_energy_per_atom",
    "decomposes_to",
    "xas",
    "grain_boundaries",
    "cbm",
    "vbm",
    "is_gap_direct",
    "is_metal",
    "es_source_calc_id",
    "bandstructure",
    "dos",
    "dos_energy_up",
    "dos_energy_down",
    "is_magnetic",
    "ordering",
    "total_magnetization_normalized_vol",
    "total_magnetization_normalized_formula_units",
    "num_magnetic_sites",
    "num_unique_magnetic_sites",
    "types_of_magnetic_species",
    "bulk_modulus",
    "shear_modulus",
    "universal_anisotropy",
    "homogeneous_poisson",
    "e_total",
    "e_ionic",
    "e_electronic",
    "n",
    "e_ij_max",
    "weighted_surface_energy_EV_PER_ANG2",
    "weighted_surface_energy",
    "weighted_work_function",
    "surface_anisotropy",
    "shape_factor",
    "has_reconstructed",
    "possible_species",
    "has_props",
    "theoretical",
    "database_IDs"
  ]
}
