{
  "builder_meta": null,
  "nsites": null,
  "elements": null,
  "nelements": null,
  "composition": null,
  "composition_reduced": null,
  "formula_pretty": "HoAu6",
  "formula_anonymous": "AB6",
  "chemsys": null,
  "volume": 1096.1194977104153,
  "density": 16.3215586631204,
  "density_atomic": 19.57356245911456,
  "symmetry": null,
  "property_name": null,
  "material_id": "mp-1199447",
  "deprecated": null,
  "deprecation_reasons": null,
  "last_updated": null,
  "origins": null,
  "warnings": null,
  "structure": {
    "@module": "pymatgen.core.structure",
    "@class": "Structure",
    "charge": 0,
    "lattice": {
      "matrix": [
        [10.505339, 0.0, 0.0],
        [0.0, 10.505339, 0.0],
        [0.0, 0.0, 9.932024]
      ],
      "pbc": [true, true, true],
      "a": 10.505339,
      "b": 10.505339,
      "c": 9.932024,
      "alpha": 90.0,
      "beta": 90.0,
      "gamma": 90.0,
      "volume": 1096.1194977104153
    },
    "properties": {},
    "sites": [
      {
        "species": [{ "element": "Ho", "occu": 1 }],
        "abc": [0.32527, 0.8252700000000001, 0.038183],
        "properties": { "magmom": 0.0 },
        "label": "Ho",
        "xyz": [3.41707161653, 8.66974111653, 0.37923447239200003]
      },
      {
        "species": [{ "element": "Ho", "occu": 1 }],
        "abc": [0.67473, 0.8252700000000001, 0.538183],
        "properties": { "magmom": 0.0 },
        "label": "Ho",
        "xyz": [7.08826738347, 8.66974111653, 5.345246472392]
      },
      {
        "species": [{ "element": "Ho", "occu": 1 }],
        "abc": [0.32527, 0.17473000000000002, 0.538183],
        "properties": { "magmom": 0.0 },
        "label": "Ho",
        "xyz": [3.41707161653, 1.8355978834700002, 5.345246472392]
      },
      {
        "species": [{ "element": "Ho", "occu": 1 }],
        "abc": [0.67473, 0.17473000000000002, 0.038183],
        "properties": { "magmom": 0.0 },
        "label": "Ho",
        "xyz": [7.08826738347, 1.8355978834700002, 0.37923447239200003]
      },
      {
        "species": [{ "element": "Ho", "occu": 1 }],
        "abc": [0.17473000000000002, 0.67473, 0.461817],
        "properties": { "magmom": 0.0 },
        "label": "Ho",
        "xyz": [1.8355978834700002, 7.08826738347, 4.586777527608]
      },
      {
        "species": [{ "element": "Ho", "occu": 1 }],
        "abc": [0.8252700000000001, 0.67473, 0.961816999999999],
        "properties": { "magmom": 0.0 },
        "label": "Ho",
        "xyz": [8.66974111653, 7.08826738347, 9.55278952760799]
      },
      {
        "species": [{ "element": "Ho", "occu": 1 }],
        "abc": [0.17473000000000002, 0.32527, 0.961816999999999],
        "properties": { "magmom": 0.0 },
        "label": "Ho",
        "xyz": [1.8355978834700002, 3.41707161653, 9.55278952760799]
      },
      {
        "species": [{ "element": "Ho", "occu": 1 }],
        "abc": [0.8252700000000001, 0.32527, 0.461817],
        "properties": { "magmom": 0.0 },
        "label": "Ho",
        "xyz": [8.66974111653, 3.41707161653, 4.586777527608]
      },
      {
        "species": [{ "element": "Au", "occu": 1 }],
        "abc": [0.929404999999999, 0.763116999999999, 0.670899],
        "properties": { "magmom": 0.0 },
        "label": "Au",
        "xyz": [9.763714593294988, 8.016802781662989, 6.663384969576001]
      },
      {
        "species": [{ "element": "Au", "occu": 1 }],
        "abc": [0.070594999999999, 0.763116999999999, 0.170899],
        "properties": { "magmom": 0.0 },
        "label": "Au",
        "xyz": [0.7416244067049895, 8.016802781662989, 1.697372969576]
      },
      {
        "species": [{ "element": "Au", "occu": 1 }],
        "abc": [0.929404999999999, 0.236882999999999, 0.170899],
        "properties": { "magmom": 0.0 },
        "label": "Au",
        "xyz": [9.763714593294988, 2.4885362183369892, 1.697372969576]
      },
      {
        "species": [{ "element": "Au", "occu": 1 }],
        "abc": [0.070594999999999, 0.236882999999999, 0.670899],
        "properties": { "magmom": 0.0 },
        "label": "Au",
        "xyz": [0.7416244067049895, 2.4885362183369892, 6.663384969576001]
      },
      {
        "species": [{ "element": "Au", "occu": 1 }],
        "abc": [0.263117, 0.429405999999999, 0.670899],
        "properties": { "magmom": 0.0 },
        "label": "Au",
        "xyz": [2.7641332816629998, 4.511055598633989, 6.663384969576001]
      },
      {
        "species": [{ "element": "Au", "occu": 1 }],
        "abc": [0.263117, 0.570595, 0.170899],
        "properties": { "magmom": 0.0 },
        "label": "Au",
        "xyz": [2.7641332816629998, 5.994293906704999, 1.697372969576]
      },
      {
        "species": [{ "element": "Au", "occu": 1 }],
        "abc": [0.736883, 0.429405999999999, 0.170899],
        "properties": { "magmom": 0.0 },
        "label": "Au",
        "xyz": [7.741205718336999, 4.511055598633989, 1.697372969576]
      },
      {
        "species": [{ "element": "Au", "occu": 1 }],
        "abc": [0.736883, 0.570595, 0.670899],
        "properties": { "magmom": 0.0 },
        "label": "Au",
        "xyz": [7.741205718336999, 5.994293906704999, 6.663384969576001]
      },
      {
        "species": [{ "element": "Au", "occu": 1 }],
        "abc": [0.570595, 0.736883, 0.829101],
        "properties": { "magmom": 0.0 },
        "label": "Au",
        "xyz": [5.994293906704999, 7.741205718336999, 8.234651030424]
      },
      {
        "species": [{ "element": "Au", "occu": 1 }],
        "abc": [0.429405999999999, 0.736883, 0.329101],
        "properties": { "magmom": 0.0 },
        "label": "Au",
        "xyz": [4.511055598633989, 7.741205718336999, 3.2686390304239996]
      },
      {
        "species": [{ "element": "Au", "occu": 1 }],
        "abc": [0.570595, 0.263117, 0.329101],
        "properties": { "magmom": 0.0 },
        "label": "Au",
        "xyz": [5.994293906704999, 2.7641332816629998, 3.2686390304239996]
      },
      {
        "species": [{ "element": "Au", "occu": 1 }],
        "abc": [0.429405999999999, 0.263117, 0.829101],
        "properties": { "magmom": 0.0 },
        "label": "Au",
        "xyz": [4.511055598633989, 2.7641332816629998, 8.234651030424]
      },
      {
        "species": [{ "element": "Au", "occu": 1 }],
        "abc": [0.236882999999999, 0.070594999999999, 0.829101],
        "properties": { "magmom": 0.0 },
        "label": "Au",
        "xyz": [2.4885362183369892, 0.7416244067049895, 8.234651030424]
      },
      {
        "species": [{ "element": "Au", "occu": 1 }],
        "abc": [0.236882999999999, 0.929404999999999, 0.329101],
        "properties": { "magmom": 0.0 },
        "label": "Au",
        "xyz": [2.4885362183369892, 9.763714593294988, 3.2686390304239996]
      },
      {
        "species": [{ "element": "Au", "occu": 1 }],
        "abc": [0.763116999999999, 0.070594999999999, 0.329101],
        "properties": { "magmom": 0.0 },
        "label": "Au",
        "xyz": [8.016802781662989, 0.7416244067049895, 3.2686390304239996]
      },
      {
        "species": [{ "element": "Au", "occu": 1 }],
        "abc": [0.763116999999999, 0.929404999999999, 0.829101],
        "properties": { "magmom": 0.0 },
        "label": "Au",
        "xyz": [8.016802781662989, 9.763714593294988, 8.234651030424]
      },
      {
        "species": [{ "element": "Au", "occu": 1 }],
        "abc": [0.8721700000000001, 0.050296, 0.604525],
        "properties": { "magmom": -0.0 },
        "label": "Au",
        "xyz": [9.16244151563, 0.528376530344, 6.0041568086]
      },
      {
        "species": [{ "element": "Au", "occu": 1 }],
        "abc": [0.12783, 0.050296, 0.10452499999999901],
        "properties": { "magmom": -0.0 },
        "label": "Au",
        "xyz": [1.34289748437, 0.528376530344, 1.0381448085999903]
      },
      {
        "species": [{ "element": "Au", "occu": 1 }],
        "abc": [0.8721700000000001, 0.949704, 0.10452499999999901],
        "properties": { "magmom": -0.0 },
        "label": "Au",
        "xyz": [9.16244151563, 9.976962469656, 1.0381448085999903]
      },
      {
        "species": [{ "element": "Au", "occu": 1 }],
        "abc": [0.12783, 0.949704, 0.604525],
        "properties": { "magmom": -0.0 },
        "label": "Au",
        "xyz": [1.34289748437, 9.976962469656, 6.0041568086]
      },
      {
        "species": [{ "element": "Au", "occu": 1 }],
        "abc": [0.550296, 0.37217000000000006, 0.604525],
        "properties": { "magmom": -0.0 },
        "label": "Au",
        "xyz": [5.781046030344, 3.90977201563, 6.0041568086]
      },
      {
        "species": [{ "element": "Au", "occu": 1 }],
        "abc": [0.550296, 0.62783, 0.10452499999999901],
        "properties": { "magmom": -0.0 },
        "label": "Au",
        "xyz": [5.781046030344, 6.5955669843699996, 1.0381448085999903]
      },
      {
        "species": [{ "element": "Au", "occu": 1 }],
        "abc": [0.449704, 0.37217000000000006, 0.10452499999999901],
        "properties": { "magmom": -0.0 },
        "label": "Au",
        "xyz": [4.724292969655999, 3.90977201563, 1.0381448085999903]
      },
      {
        "species": [{ "element": "Au", "occu": 1 }],
        "abc": [0.449704, 0.62783, 0.604525],
        "properties": { "magmom": -0.0 },
        "label": "Au",
        "xyz": [4.724292969655999, 6.5955669843699996, 6.0041568086]
      },
      {
        "species": [{ "element": "Au", "occu": 1 }],
        "abc": [0.62783, 0.449704, 0.895474999999999],
        "properties": { "magmom": -0.0 },
        "label": "Au",
        "xyz": [6.5955669843699996, 4.724292969655999, 8.893879191399991]
      },
      {
        "species": [{ "element": "Au", "occu": 1 }],
        "abc": [0.37217000000000006, 0.449704, 0.395474999999999],
        "properties": { "magmom": -0.0 },
        "label": "Au",
        "xyz": [3.90977201563, 4.724292969655999, 3.9278671913999905]
      },
      {
        "species": [{ "element": "Au", "occu": 1 }],
        "abc": [0.62783, 0.550296, 0.395474999999999],
        "properties": { "magmom": -0.0 },
        "label": "Au",
        "xyz": [6.5955669843699996, 5.781046030344, 3.9278671913999905]
      },
      {
        "species": [{ "element": "Au", "occu": 1 }],
        "abc": [0.37217000000000006, 0.550296, 0.895474999999999],
        "properties": { "magmom": -0.0 },
        "label": "Au",
        "xyz": [3.90977201563, 5.781046030344, 8.893879191399991]
      },
      {
        "species": [{ "element": "Au", "occu": 1 }],
        "abc": [0.949704, 0.12783, 0.895474999999999],
        "properties": { "magmom": -0.0 },
        "label": "Au",
        "xyz": [9.976962469656, 1.34289748437, 8.893879191399991]
      },
      {
        "species": [{ "element": "Au", "occu": 1 }],
        "abc": [0.949704, 0.8721700000000001, 0.395474999999999],
        "properties": { "magmom": -0.0 },
        "label": "Au",
        "xyz": [9.976962469656, 9.16244151563, 3.9278671913999905]
      },
      {
        "species": [{ "element": "Au", "occu": 1 }],
        "abc": [0.050296, 0.12783, 0.395474999999999],
        "properties": { "magmom": -0.0 },
        "label": "Au",
        "xyz": [0.528376530344, 1.34289748437, 3.9278671913999905]
      },
      {
        "species": [{ "element": "Au", "occu": 1 }],
        "abc": [0.050296, 0.8721700000000001, 0.895474999999999],
        "properties": { "magmom": -0.0 },
        "label": "Au",
        "xyz": [0.528376530344, 9.16244151563, 8.893879191399991]
      },
      {
        "species": [{ "element": "Au", "occu": 1 }],
        "abc": [0.39797000000000005, 0.89797, 0.570483],
        "properties": { "magmom": 0.0 },
        "label": "Au",
        "xyz": [4.18080976183, 9.43347926183, 5.6660508475919995]
      },
      {
        "species": [{ "element": "Au", "occu": 1 }],
        "abc": [0.6020300000000001, 0.89797, 0.070482999999999],
        "properties": { "magmom": 0.0 },
        "label": "Au",
        "xyz": [6.32452923817, 9.43347926183, 0.7000388475919901]
      },
      {
        "species": [{ "element": "Au", "occu": 1 }],
        "abc": [0.39797000000000005, 0.10203000000000001, 0.070482999999999],
        "properties": { "magmom": 0.0 },
        "label": "Au",
        "xyz": [4.18080976183, 1.0718597381700001, 0.7000388475919901]
      },
      {
        "species": [{ "element": "Au", "occu": 1 }],
        "abc": [0.6020300000000001, 0.10203000000000001, 0.570483],
        "properties": { "magmom": 0.0 },
        "label": "Au",
        "xyz": [6.32452923817, 1.0718597381700001, 5.6660508475919995]
      },
      {
        "species": [{ "element": "Au", "occu": 1 }],
        "abc": [0.10203000000000001, 0.6020300000000001, 0.929516999999999],
        "properties": { "magmom": 0.0 },
        "label": "Au",
        "xyz": [1.0718597381700001, 6.32452923817, 9.23198515240799]
      },
      {
        "species": [{ "element": "Au", "occu": 1 }],
        "abc": [0.89797, 0.6020300000000001, 0.429517],
        "properties": { "magmom": 0.0 },
        "label": "Au",
        "xyz": [9.43347926183, 6.32452923817, 4.265973152408]
      },
      {
        "species": [{ "element": "Au", "occu": 1 }],
        "abc": [0.10203000000000001, 0.39797000000000005, 0.429517],
        "properties": { "magmom": 0.0 },
        "label": "Au",
        "xyz": [1.0718597381700001, 4.18080976183, 4.265973152408]
      },
      {
        "species": [{ "element": "Au", "occu": 1 }],
        "abc": [0.89797, 0.39797000000000005, 0.929516999999999],
        "properties": { "magmom": 0.0 },
        "label": "Au",
        "xyz": [9.43347926183, 4.18080976183, 9.23198515240799]
      },
      {
        "species": [{ "element": "Au", "occu": 1 }],
        "abc": [0.5, 0.0, 0.317988999999999],
        "properties": { "magmom": -0.0 },
        "label": "Au",
        "xyz": [5.2526695, 0.0, 3.1582743797359902]
      },
      {
        "species": [{ "element": "Au", "occu": 1 }],
        "abc": [0.5, 0.0, 0.817989],
        "properties": { "magmom": -0.0 },
        "label": "Au",
        "xyz": [5.2526695, 0.0, 8.124286379736]
      },
      {
        "species": [{ "element": "Au", "occu": 1 }],
        "abc": [0.0, 0.5, 0.182010999999999],
        "properties": { "magmom": -0.0 },
        "label": "Au",
        "xyz": [0.0, 5.2526695, 1.80773762026399]
      },
      {
        "species": [{ "element": "Au", "occu": 1 }],
        "abc": [0.0, 0.5, 0.682010999999999],
        "properties": { "magmom": -0.0 },
        "label": "Au",
        "xyz": [0.0, 5.2526695, 6.773749620263991]
      },
      {
        "species": [{ "element": "Au", "occu": 1 }],
        "abc": [0.25, 0.75, 0.75],
        "properties": { "magmom": 0.0 },
        "label": "Au",
        "xyz": [2.62633475, 7.8790042499999995, 7.449018000000001]
      },
      {
        "species": [{ "element": "Au", "occu": 1 }],
        "abc": [0.75, 0.75, 0.25],
        "properties": { "magmom": 0.0 },
        "label": "Au",
        "xyz": [7.8790042499999995, 7.8790042499999995, 2.483006]
      },
      {
        "species": [{ "element": "Au", "occu": 1 }],
        "abc": [0.25, 0.25, 0.25],
        "properties": { "magmom": 0.0 },
        "label": "Au",
        "xyz": [2.62633475, 2.62633475, 2.483006]
      },
      {
        "species": [{ "element": "Au", "occu": 1 }],
        "abc": [0.75, 0.25, 0.75],
        "properties": { "magmom": 0.0 },
        "label": "Au",
        "xyz": [7.8790042499999995, 2.62633475, 7.449018000000001]
      }
    ]
  },
  "task_ids": null,
  "uncorrected_energy_per_atom": null,
  "energy_per_atom": -48.513235810714285,
  "formation_energy_per_atom": -0.45736369428571505,
  "energy_above_hull": 0.007517605000003,
  "is_stable": false,
  "equilibrium_reaction_energy_per_atom": null,
  "decomposes_to": null,
  "xas": null,
  "grain_boundaries": null,
  "band_gap": 0.1695,
  "cbm": null,
  "vbm": null,
  "efermi": 4.98462675,
  "is_gap_direct": null,
  "is_metal": null,
  "es_source_calc_id": null,
  "bandstructure": null,
  "dos": null,
  "dos_energy_up": null,
  "dos_energy_down": null,
  "is_magnetic": null,
  "ordering": null,
  "total_magnetization": 0.005681599999999,
  "total_magnetization_normalized_vol": null,
  "total_magnetization_normalized_formula_units": null,
  "num_magnetic_sites": null,
  "num_unique_magnetic_sites": null,
  "types_of_magnetic_species": null,
  "bulk_modulus": null,
  "shear_modulus": null,
  "universal_anisotropy": null,
  "homogeneous_poisson": null,
  "e_total": null,
  "e_ionic": null,
  "e_electronic": null,
  "n": null,
  "e_ij_max": null,
  "weighted_surface_energy_EV_PER_ANG2": null,
  "weighted_surface_energy": null,
  "weighted_work_function": null,
  "surface_anisotropy": null,
  "shape_factor": null,
  "has_reconstructed": null,
  "possible_species": null,
  "has_props": null,
  "theoretical": null,
  "database_IDs": null,
  "fields_not_requested": [
    "builder_meta",
    "nsites",
    "elements",
    "nelements",
    "composition",
    "composition_reduced",
    "chemsys",
    "symmetry",
    "property_name",
    "deprecated",
    "deprecation_reasons",
    "last_updated",
    "origins",
    "warnings",
    "task_ids",
    "uncorrected_energy_per_atom",
    "equilibrium_reaction_energy_per_atom",
    "decomposes_to",
    "xas",
    "grain_boundaries",
    "cbm",
    "vbm",
    "is_gap_direct",
    "is_metal",
    "es_source_calc_id",
    "bandstructure",
    "dos",
    "dos_energy_up",
    "dos_energy_down",
    "is_magnetic",
    "ordering",
    "total_magnetization_normalized_vol",
    "total_magnetization_normalized_formula_units",
    "num_magnetic_sites",
    "num_unique_magnetic_sites",
    "types_of_magnetic_species",
    "bulk_modulus",
    "shear_modulus",
    "universal_anisotropy",
    "homogeneous_poisson",
    "e_total",
    "e_ionic",
    "e_electronic",
    "n",
    "e_ij_max",
    "weighted_surface_energy_EV_PER_ANG2",
    "weighted_surface_energy",
    "weighted_work_function",
    "surface_anisotropy",
    "shape_factor",
    "has_reconstructed",
    "possible_species",
    "has_props",
    "theoretical",
    "database_IDs"
  ]
}
