{"builder_meta": null, "nsites": null, "elements": null, "nelements": null, "composition": null, "composition_reduced": null, "formula_pretty": "HoAu3", "formula_anonymous": "AB3", "chemsys": null, "volume": 156.42592258015426, "density": 16.047024263509954, "density_atomic": 19.553240322519283, "symmetry": null, "property_name": null, "material_id": "mp-30386", "deprecated": null, "deprecation_reasons": null, "last_updated": null, "origins": null, "warnings": null, "structure": {"@module": "pymatgen.core.structure", "@class": "Structure", "charge": 0, "lattice": {"matrix": [[4.98308542, 0.0, 0.0], [-0.0, 5.10517851, 0.0], [0.0, 0.0, 6.14892875]], "pbc": [true, true, true], "a": 4.98308542, "b": 5.10517851, "c": 6.14892875, "alpha": 90.0, "beta": 90.0, "gamma": 90.0, "volume": 156.42592258015426}, "properties": {}, "sites": [{"species": [{"element": "Ho", "occu": 1}], "abc": [0.75, 0.34524931000000003, 0.75], "properties": {"magmom": -0.0}, "label": "Ho", "xyz": [3.737314065, 1.7625593580043282, 4.6116965625]}, {"species": [{"element": "Ho", "occu": 1}], "abc": [0.25, 0.65475069, 0.25], "properties": {"magmom": -0.0}, "label": "Ho", "xyz": [1.245771355, 3.3426191519956716, 1.5372321875]}, {"species": [{"element": "Au", "occu": 1}], "abc": [0.25, 0.1614534, 0.50630348], "properties": {"magmom": 0.0}, "label": "Au", "xyz": [1.245771355, 0.824248428046434, 3.11322402439705]}, {"species": [{"element": "Au", "occu": 1}], "abc": [0.75, 0.838546599999999, 0.49369652], "properties": {"magmom": 0.0}, "label": "Au", "xyz": [3.737314065, 4.280930081953561, 3.03570472560295]}, {"species": [{"element": "Au", "occu": 1}], "abc": [0.25, 0.1614534, 0.99369652], "properties": {"magmom": 0.0}, "label": "Au", "xyz": [1.245771355, 0.824248428046434, 6.110169100602949]}, {"species": [{"element": "Au", "occu": 1}], "abc": [0.75, 0.838546599999999, 0.00630348], "properties": {"magmom": 0.0}, "label": "Au", "xyz": [3.737314065, 4.280930081953561, 0.03875964939705]}, {"species": [{"element": "Au", "occu": 1}], "abc": [0.25, 0.66659745, 0.75], "properties": {"magmom": -0.0}, "label": "Au", "xyz": [1.245771355, 3.4030989765607997, 4.6116965625]}, {"species": [{"element": "Au", "occu": 1}], "abc": [0.75, 0.33340255, 0.25], "properties": {"magmom": -0.0}, "label": "Au", "xyz": [3.737314065, 1.7020795334392007, 1.5372321875]}]}, "task_ids": null, "uncorrected_energy_per_atom": null, "energy_per_atom": -46.94894109625, "formation_energy_per_atom": -0.789885005000002, "energy_above_hull": 0.0, "is_stable": true, "equilibrium_reaction_energy_per_atom": null, "decomposes_to": null, "xas": null, "grain_boundaries": null, "band_gap": 0.0, "cbm": null, "vbm": null, "efermi": 4.88189763, "is_gap_direct": null, "is_metal": null, "es_source_calc_id": null, "bandstructure": null, "dos": null, "dos_energy_up": null, "dos_energy_down": null, "is_magnetic": null, "ordering": null, "total_magnetization": 0.0, "total_magnetization_normalized_vol": null, "total_magnetization_normalized_formula_units": null, "num_magnetic_sites": null, "num_unique_magnetic_sites": null, "types_of_magnetic_species": null, "bulk_modulus": null, "shear_modulus": null, "universal_anisotropy": null, "homogeneous_poisson": null, "e_total": null, "e_ionic": null, "e_electronic": null, "n": null, "e_ij_max": null, "weighted_surface_energy_EV_PER_ANG2": null, "weighted_surface_energy": null, "weighted_work_function": null, "surface_anisotropy": null, "shape_factor": null, "has_reconstructed": null, "possible_species": null, "has_props": null, "theoretical": null, "database_IDs": null, "fields_not_requested": ["builder_meta", "nsites", "elements", "nelements", "composition", "composition_reduced", "chemsys", "symmetry", "property_name", "deprecated", "deprecation_reasons", "last_updated", "origins", "warnings", "task_ids", "uncorrected_energy_per_atom", "equilibrium_reaction_energy_per_atom", "decomposes_to", "xas", "grain_boundaries", "cbm", "vbm", "is_gap_direct", "is_metal", "es_source_calc_id", "bandstructure", "dos", "dos_energy_up", "dos_energy_down", "is_magnetic", "ordering", "total_magnetization_normalized_vol", "total_magnetization_normalized_formula_units", "num_magnetic_sites", "num_unique_magnetic_sites", "types_of_magnetic_species", "bulk_modulus", "shear_modulus", "universal_anisotropy", "homogeneous_poisson", "e_total", "e_ionic", "e_electronic", "n", "e_ij_max", "weighted_surface_energy_EV_PER_ANG2", "weighted_surface_energy", "weighted_work_function", "surface_anisotropy", "shape_factor", "has_reconstructed", "possible_species", "has_props", "theoretical", "database_IDs"]}