{
  "builder_meta": null,
  "nsites": null,
  "elements": null,
  "nelements": null,
  "composition": null,
  "composition_reduced": null,
  "formula_pretty": "HoB4",
  "formula_anonymous": "AB4",
  "chemsys": null,
  "volume": 200.27664695876373,
  "density": 6.904081854217667,
  "density_atomic": 10.013832347938187,
  "symmetry": null,
  "property_name": null,
  "material_id": "mp-569281",
  "deprecated": null,
  "deprecation_reasons": null,
  "last_updated": null,
  "origins": null,
  "warnings": null,
  "structure": {
    "@module": "pymatgen.core.structure",
    "@class": "Structure",
    "charge": 0,
    "lattice": {
      "matrix": [
        [4.00075408, 0.0, 0.0],
        [-0.0, 7.07528971, 0.0],
        [0.0, 0.0, 7.07528971]
      ],
      "pbc": [true, true, true],
      "a": 4.00075408,
      "b": 7.07528971,
      "c": 7.07528971,
      "alpha": 90.0,
      "beta": 90.0,
      "gamma": 90.0,
      "volume": 200.27664695876373
    },
    "properties": {},
    "sites": [
      {
        "species": [{ "element": "Ho", "occu": 1 }],
        "abc": [0.0, 0.18184249, 0.31815751000000003],
        "properties": { "magmom": 0.0 },
        "label": "Ho",
        "xyz": [0.0, 1.2865882983377779, 2.2510565566622223]
      },
      {
        "species": [{ "element": "Ho", "occu": 1 }],
        "abc": [0.0, 0.81815751, 0.68184249],
        "properties": { "magmom": 0.0 },
        "label": "Ho",
        "xyz": [0.0, 5.788701411662222, 4.824233153337778]
      },
      {
        "species": [{ "element": "Ho", "occu": 1 }],
        "abc": [0.0, 0.68184249, 0.18184249],
        "properties": { "magmom": 0.0 },
        "label": "Ho",
        "xyz": [0.0, 4.824233153337778, 1.2865882983377779]
      },
      {
        "species": [{ "element": "Ho", "occu": 1 }],
        "abc": [0.0, 0.31815751000000003, 0.81815751],
        "properties": { "magmom": 0.0 },
        "label": "Ho",
        "xyz": [0.0, 2.2510565566622223, 5.788701411662222]
      },
      {
        "species": [{ "element": "B", "occu": 1 }],
        "abc": [0.797264699999999, 0.5, 0.5],
        "properties": { "magmom": -0.0 },
        "label": "B",
        "xyz": [3.189660001364972, 3.537644855, 3.537644855]
      },
      {
        "species": [{ "element": "B", "occu": 1 }],
        "abc": [0.5, 0.41296617, 0.08703383],
        "properties": { "magmom": -0.0 },
        "label": "B",
        "xyz": [2.00037704, 2.9218552931791106, 0.6157895618208893]
      },
      {
        "species": [{ "element": "B", "occu": 1 }],
        "abc": [0.5, 0.08703383, 0.58703383],
        "properties": { "magmom": -0.0 },
        "label": "B",
        "xyz": [2.00037704, 0.6157895618208893, 4.153434416820889]
      },
      {
        "species": [{ "element": "B", "occu": 1 }],
        "abc": [0.5, 0.5383508, 0.67613255],
        "properties": { "magmom": 0.0 },
        "label": "B",
        "xyz": [2.00037704, 3.808987875610268, 4.783833673611061]
      },
      {
        "species": [{ "element": "B", "occu": 1 }],
        "abc": [0.5, 0.58703383, 0.91296617],
        "properties": { "magmom": -0.0 },
        "label": "B",
        "xyz": [2.00037704, 4.153434416820889, 6.459500148179111]
      },
      {
        "species": [{ "element": "B", "occu": 1 }],
        "abc": [0.5, 0.67613255, 0.4616492],
        "properties": { "magmom": 0.0 },
        "label": "B",
        "xyz": [2.00037704, 4.783833673611061, 3.266301834389732]
      },
      {
        "species": [{ "element": "B", "occu": 1 }],
        "abc": [0.202735299999999, 0.0, 0.0],
        "properties": { "magmom": -0.0 },
        "label": "B",
        "xyz": [0.81109407863502, 0.0, 0.0]
      },
      {
        "species": [{ "element": "B", "occu": 1 }],
        "abc": [0.202735299999999, 0.5, 0.5],
        "properties": { "magmom": -0.0 },
        "label": "B",
        "xyz": [0.81109407863502, 3.537644855, 3.537644855]
      },
      {
        "species": [{ "element": "B", "occu": 1 }],
        "abc": [0.797264699999999, 0.0, 0.0],
        "properties": { "magmom": -0.0 },
        "label": "B",
        "xyz": [3.189660001364972, 0.0, 0.0]
      },
      {
        "species": [{ "element": "B", "occu": 1 }],
        "abc": [0.5, 0.0383508, 0.8238674500000001],
        "properties": { "magmom": 0.0 },
        "label": "B",
        "xyz": [2.00037704, 0.271343020610268, 5.82910089138894]
      },
      {
        "species": [{ "element": "B", "occu": 1 }],
        "abc": [0.5, 0.91296617, 0.41296617],
        "properties": { "magmom": -0.0 },
        "label": "B",
        "xyz": [2.00037704, 6.459500148179111, 2.9218552931791106]
      },
      {
        "species": [{ "element": "B", "occu": 1 }],
        "abc": [0.5, 0.8238674500000001, 0.9616492],
        "properties": { "magmom": 0.0 },
        "label": "B",
        "xyz": [2.00037704, 5.82910089138894, 6.803946689389732]
      },
      {
        "species": [{ "element": "B", "occu": 1 }],
        "abc": [0.5, 0.4616492, 0.32386745],
        "properties": { "magmom": 0.0 },
        "label": "B",
        "xyz": [2.00037704, 3.266301834389732, 2.2914560363889396]
      },
      {
        "species": [{ "element": "B", "occu": 1 }],
        "abc": [0.5, 0.32386745, 0.5383508],
        "properties": { "magmom": 0.0 },
        "label": "B",
        "xyz": [2.00037704, 2.2914560363889396, 3.808987875610268]
      },
      {
        "species": [{ "element": "B", "occu": 1 }],
        "abc": [0.5, 0.17613255, 0.0383508],
        "properties": { "magmom": 0.0 },
        "label": "B",
        "xyz": [2.00037704, 1.2461888186110606, 0.271343020610268]
      },
      {
        "species": [{ "element": "B", "occu": 1 }],
        "abc": [0.5, 0.9616492, 0.17613255],
        "properties": { "magmom": 0.0 },
        "label": "B",
        "xyz": [2.00037704, 6.803946689389732, 1.2461888186110606]
      }
    ]
  },
  "task_ids": null,
  "uncorrected_energy_per_atom": null,
  "energy_per_atom": -13.11392042,
  "formation_energy_per_atom": -0.660568279,
  "energy_above_hull": 0.0,
  "is_stable": true,
  "equilibrium_reaction_energy_per_atom": null,
  "decomposes_to": null,
  "xas": null,
  "grain_boundaries": null,
  "band_gap": 0.0,
  "cbm": null,
  "vbm": null,
  "efermi": 5.8557998,
  "is_gap_direct": null,
  "is_metal": null,
  "es_source_calc_id": null,
  "bandstructure": null,
  "dos": null,
  "dos_energy_up": null,
  "dos_energy_down": null,
  "is_magnetic": null,
  "ordering": null,
  "total_magnetization": 0.0,
  "total_magnetization_normalized_vol": null,
  "total_magnetization_normalized_formula_units": null,
  "num_magnetic_sites": null,
  "num_unique_magnetic_sites": null,
  "types_of_magnetic_species": null,
  "bulk_modulus": null,
  "shear_modulus": null,
  "universal_anisotropy": null,
  "homogeneous_poisson": null,
  "e_total": null,
  "e_ionic": null,
  "e_electronic": null,
  "n": null,
  "e_ij_max": null,
  "weighted_surface_energy_EV_PER_ANG2": null,
  "weighted_surface_energy": null,
  "weighted_work_function": null,
  "surface_anisotropy": null,
  "shape_factor": null,
  "has_reconstructed": null,
  "possible_species": null,
  "has_props": null,
  "theoretical": null,
  "database_IDs": null,
  "fields_not_requested": [
    "builder_meta",
    "nsites",
    "elements",
    "nelements",
    "composition",
    "composition_reduced",
    "chemsys",
    "symmetry",
    "property_name",
    "deprecated",
    "deprecation_reasons",
    "last_updated",
    "origins",
    "warnings",
    "task_ids",
    "uncorrected_energy_per_atom",
    "equilibrium_reaction_energy_per_atom",
    "decomposes_to",
    "xas",
    "grain_boundaries",
    "cbm",
    "vbm",
    "is_gap_direct",
    "is_metal",
    "es_source_calc_id",
    "bandstructure",
    "dos",
    "dos_energy_up",
    "dos_energy_down",
    "is_magnetic",
    "ordering",
    "total_magnetization_normalized_vol",
    "total_magnetization_normalized_formula_units",
    "num_magnetic_sites",
    "num_unique_magnetic_sites",
    "types_of_magnetic_species",
    "bulk_modulus",
    "shear_modulus",
    "universal_anisotropy",
    "homogeneous_poisson",
    "e_total",
    "e_ionic",
    "e_electronic",
    "n",
    "e_ij_max",
    "weighted_surface_energy_EV_PER_ANG2",
    "weighted_surface_energy",
    "weighted_work_function",
    "surface_anisotropy",
    "shape_factor",
    "has_reconstructed",
    "possible_species",
    "has_props",
    "theoretical",
    "database_IDs"
  ]
}
