{
  "builder_meta": null,
  "nsites": null,
  "elements": null,
  "nelements": null,
  "composition": null,
  "composition_reduced": null,
  "formula_pretty": "HoBr3",
  "formula_anonymous": "AB3",
  "chemsys": null,
  "volume": 321.2850758539566,
  "density": 4.182730110159792,
  "density_atomic": 40.16063448174457,
  "symmetry": null,
  "property_name": null,
  "material_id": "mp-977375",
  "deprecated": null,
  "deprecation_reasons": null,
  "last_updated": null,
  "origins": null,
  "warnings": null,
  "structure": {
    "@module": "pymatgen.core.structure",
    "@class": "Structure",
    "charge": 0,
    "lattice": {
      "matrix": [
        [9.99082025, -3.214e-5, -1e-8],
        [-4.99543746, 8.65228065, 5e-8],
        [-0.0, 2e-8, 3.71671804]
      ],
      "pbc": [true, true, true],
      "a": 9.990820250051696,
      "b": 9.990813573635316,
      "c": 3.71671804,
      "alpha": 89.99999944625063,
      "beta": 90.00000005734942,
      "gamma": 120.0003874367768,
      "volume": 321.28507585395664
    },
    "properties": {},
    "sites": [
      {
        "species": [{ "element": "Ho", "occu": 1 }],
        "abc": [0.33333445, 0.66666547, 0.75000055],
        "properties": { "magmom": -0.0 },
        "label": "Ho",
        "xyz": [-1.0890438932875668e-6, 5.768166047734943, 2.787540604194851]
      },
      {
        "species": [{ "element": "Ho", "occu": 1 }],
        "abc": [0.66666567, 0.33333465, 0.24999991],
        "properties": { "magmom": 0.0 },
        "label": "Ho",
        "xyz": [4.995384478489829, 2.884083520534887, 0.9291791854954521]
      },
      {
        "species": [{ "element": "Br", "occu": 1 }],
        "abc": [0.21229974000000001, 0.42459807, 0.25000127],
        "properties": { "magmom": 0.0 },
        "label": "Br",
        "xyz": [-4.562859967194299e-6, 3.6737348467747273, 0.9291842493388168]
      },
      {
        "species": [{ "element": "Br", "occu": 1 }],
        "abc": [0.57540188, 0.78769771, 0.25000124],
        "properties": { "magmom": -0.0 },
        "label": "Br",
        "xyz": [1.8138421069018542, 6.815363165865913, 0.9291841523612363]
      },
      {
        "species": [{ "element": "Br", "occu": 1 }],
        "abc": [0.21230303, 0.78770054, 0.25000126],
        "properties": { "magmom": 0.0 },
        "label": "Br",
        "xyz": [-1.8138273735178707, 6.815399321817192, 0.9291842303267271]
      },
      {
        "species": [{ "element": "Br", "occu": 1 }],
        "abc": [0.78769677, 0.57540232, 0.749999899999999],
        "properties": { "magmom": 0.0 },
        "label": "Br",
        "xyz": [4.995350536676686, 4.9785170577269175, 2.7875381792213405]
      },
      {
        "species": [{ "element": "Br", "occu": 1 }],
        "abc": [0.42459923, 0.21230231, 0.74999994],
        "properties": { "magmom": -0.0 },
        "label": "Br",
        "xyz": [3.181551672999875, 1.836885537144048, 2.7875383133660407]
      },
      {
        "species": [{ "element": "Br", "occu": 1 }],
        "abc": [0.78770123, 0.21230392, 0.74999992],
        "properties": { "magmom": 0.0 },
        "label": "Br",
        "xyz": [6.809230444761065, 1.8368877972176143, 2.7875382354007407]
      }
    ]
  },
  "task_ids": null,
  "uncorrected_energy_per_atom": null,
  "energy_per_atom": -4.613866801250001,
  "formation_energy_per_atom": -2.23673703375,
  "energy_above_hull": 0.0,
  "is_stable": true,
  "equilibrium_reaction_energy_per_atom": null,
  "decomposes_to": null,
  "xas": null,
  "grain_boundaries": null,
  "band_gap": 2.8409,
  "cbm": null,
  "vbm": null,
  "efermi": -1.656325209999999,
  "is_gap_direct": null,
  "is_metal": null,
  "es_source_calc_id": null,
  "bandstructure": null,
  "dos": null,
  "dos_energy_up": null,
  "dos_energy_down": null,
  "is_magnetic": null,
  "ordering": null,
  "total_magnetization": 0.0,
  "total_magnetization_normalized_vol": null,
  "total_magnetization_normalized_formula_units": null,
  "num_magnetic_sites": null,
  "num_unique_magnetic_sites": null,
  "types_of_magnetic_species": null,
  "bulk_modulus": null,
  "shear_modulus": null,
  "universal_anisotropy": null,
  "homogeneous_poisson": null,
  "e_total": null,
  "e_ionic": null,
  "e_electronic": null,
  "n": null,
  "e_ij_max": null,
  "weighted_surface_energy_EV_PER_ANG2": null,
  "weighted_surface_energy": null,
  "weighted_work_function": null,
  "surface_anisotropy": null,
  "shape_factor": null,
  "has_reconstructed": null,
  "possible_species": null,
  "has_props": null,
  "theoretical": null,
  "database_IDs": null,
  "fields_not_requested": [
    "builder_meta",
    "nsites",
    "elements",
    "nelements",
    "composition",
    "composition_reduced",
    "chemsys",
    "symmetry",
    "property_name",
    "deprecated",
    "deprecation_reasons",
    "last_updated",
    "origins",
    "warnings",
    "task_ids",
    "uncorrected_energy_per_atom",
    "equilibrium_reaction_energy_per_atom",
    "decomposes_to",
    "xas",
    "grain_boundaries",
    "cbm",
    "vbm",
    "is_gap_direct",
    "is_metal",
    "es_source_calc_id",
    "bandstructure",
    "dos",
    "dos_energy_up",
    "dos_energy_down",
    "is_magnetic",
    "ordering",
    "total_magnetization_normalized_vol",
    "total_magnetization_normalized_formula_units",
    "num_magnetic_sites",
    "num_unique_magnetic_sites",
    "types_of_magnetic_species",
    "bulk_modulus",
    "shear_modulus",
    "universal_anisotropy",
    "homogeneous_poisson",
    "e_total",
    "e_ionic",
    "e_electronic",
    "n",
    "e_ij_max",
    "weighted_surface_energy_EV_PER_ANG2",
    "weighted_surface_energy",
    "weighted_work_function",
    "surface_anisotropy",
    "shape_factor",
    "has_reconstructed",
    "possible_species",
    "has_props",
    "theoretical",
    "database_IDs"
  ]
}
