{"builder_meta": null, "nsites": null, "elements": null, "nelements": null, "composition": null, "composition_reduced": null, "formula_pretty": "HoCd3", "formula_anonymous": "AB3", "chemsys": null, "volume": 184.23419650301904, "density": 9.052193637242503, "density_atomic": 23.02927456287738, "symmetry": null, "property_name": null, "material_id": "mp-11302", "deprecated": null, "deprecation_reasons": null, "last_updated": null, "origins": null, "warnings": null, "structure": {"@module": "pymatgen.core.structure", "@class": "Structure", "charge": 0, "lattice": {"matrix": [[4.82973257, -0.0, -0.0], [0.0, 5.91775505, -2.56496139], [-0.0, -0.00856504, 6.44971053]], "pbc": [true, true, true], "a": 4.82973257, "b": 6.449717184806729, "c": 6.449716217067468, "alpha": 113.50967771634032, "beta": 90.0, "gamma": 90.0, "volume": 184.23419650301904}, "properties": {}, "sites": [{"species": [{"element": "Ho", "occu": 1}], "abc": [0.75, 0.36374835, 0.6362516500000001], "properties": {"magmom": -0.0}, "label": "Ho", "xyz": [3.6222994275, 2.1471241143093516, 3.170638493308668]}, {"species": [{"element": "Ho", "occu": 1}], "abc": [0.25, 0.6362516500000001, 0.36374835], "properties": {"magmom": -0.0}, "label": "Ho", "xyz": [1.2074331425, 3.762065895690649, 0.7141106466913316]}, {"species": [{"element": "Cd", "occu": 1}], "abc": [0.75, 0.82627162, 0.17372838000000002], "properties": {"magmom": -0.0}, "label": "Cd", "xyz": [3.6222994275, 4.8881850614028455, -0.9988570411069102]}, {"species": [{"element": "Cd", "occu": 1}], "abc": [0.25, 0.17372838000000002, 0.82627162], "properties": {"magmom": -0.0}, "label": "Cd", "xyz": [1.2074331425, 1.0210049485971544, 4.88360618110691]}, {"species": [{"element": "Cd", "occu": 1}], "abc": [0.75, 0.31096622, 0.1227781], "properties": {"magmom": 0.0}, "label": "Cd", "xyz": [3.6222994275, 1.839170319446787, -0.005733143470852853]}, {"species": [{"element": "Cd", "occu": 1}], "abc": [0.25, 0.68903378, 0.8772219], "properties": {"magmom": 0.0}, "label": "Cd", "xyz": [1.2074331425, 4.070019690553213, 3.8904822834708526]}, {"species": [{"element": "Cd", "occu": 1}], "abc": [0.25, 0.1227781, 0.31096622], "properties": {"magmom": 0.0}, "label": "Cd", "xyz": [1.2074331425, 0.7239072831914563, 1.6907210175707374]}, {"species": [{"element": "Cd", "occu": 1}], "abc": [0.75, 0.8772219, 0.68903378], "properties": {"magmom": 0.0}, "label": "Cd", "xyz": [3.6222994275, 5.185282726808544, 2.1940281224292626]}]}, "task_ids": null, "uncorrected_energy_per_atom": null, "energy_per_atom": -2.104412467500001, "formation_energy_per_atom": -0.23498495874999803, "energy_above_hull": 0.0, "is_stable": true, "equilibrium_reaction_energy_per_atom": null, "decomposes_to": null, "xas": null, "grain_boundaries": null, "band_gap": 0.0, "cbm": null, "vbm": null, "efermi": 2.99990265, "is_gap_direct": null, "is_metal": null, "es_source_calc_id": null, "bandstructure": null, "dos": null, "dos_energy_up": null, "dos_energy_down": null, "is_magnetic": null, "ordering": null, "total_magnetization": 1e-07, "total_magnetization_normalized_vol": null, "total_magnetization_normalized_formula_units": null, "num_magnetic_sites": null, "num_unique_magnetic_sites": null, "types_of_magnetic_species": null, "bulk_modulus": null, "shear_modulus": null, "universal_anisotropy": null, "homogeneous_poisson": null, "e_total": null, "e_ionic": null, "e_electronic": null, "n": null, "e_ij_max": null, "weighted_surface_energy_EV_PER_ANG2": null, "weighted_surface_energy": null, "weighted_work_function": null, "surface_anisotropy": null, "shape_factor": null, "has_reconstructed": null, "possible_species": null, "has_props": null, "theoretical": null, "database_IDs": null, "fields_not_requested": ["builder_meta", "nsites", "elements", "nelements", "composition", "composition_reduced", "chemsys", "symmetry", "property_name", "deprecated", "deprecation_reasons", "last_updated", "origins", "warnings", "task_ids", "uncorrected_energy_per_atom", "equilibrium_reaction_energy_per_atom", "decomposes_to", "xas", "grain_boundaries", "cbm", "vbm", "is_gap_direct", "is_metal", "es_source_calc_id", "bandstructure", "dos", "dos_energy_up", "dos_energy_down", "is_magnetic", "ordering", "total_magnetization_normalized_vol", "total_magnetization_normalized_formula_units", "num_magnetic_sites", "num_unique_magnetic_sites", "types_of_magnetic_species", "bulk_modulus", "shear_modulus", "universal_anisotropy", "homogeneous_poisson", "e_total", "e_ionic", "e_electronic", "n", "e_ij_max", "weighted_surface_energy_EV_PER_ANG2", "weighted_surface_energy", "weighted_work_function", "surface_anisotropy", "shape_factor", "has_reconstructed", "possible_species", "has_props", "theoretical", "database_IDs"]}