{"builder_meta": null, "nsites": null, "elements": null, "nelements": null, "composition": null, "composition_reduced": null, "formula_pretty": "HoCd6", "formula_anonymous": "AB6", "chemsys": null, "volume": 1950.014137362976, "density": 8.577478624469007, "density_atomic": 23.214454016225904, "symmetry": null, "property_name": null, "material_id": "mp-1225485", "deprecated": null, "deprecation_reasons": null, "last_updated": null, "origins": null, "warnings": null, "structure": {"@module": "pymatgen.core.structure", "@class": "Structure", "charge": 0, "lattice": {"matrix": [[-7.796753, 7.844098, 7.97115], [7.796753, -7.844098, 7.97115], [7.796753, 7.844098, -7.97115]], "pbc": [true, true, true], "a": 13.632991714921307, "b": 13.632991714921307, "c": 13.632991714921307, "alpha": 110.23388834265464, "beta": 109.7480460060352, "gamma": 108.43702588652121, "volume": 1950.014137362976}, "properties": {}, "sites": [{"species": [{"element": "Ho", "occu": 1}], "abc": [0.807914999999999, 0.509703, 0.701788], "properties": {"magmom": 0.001}, "label": "Ho", "xyz": [3.1465823887280067, 7.844097999999992, 4.908873304499994]}, {"species": [{"element": "Ho", "occu": 1}], "abc": [0.192084999999999, 0.490297, 0.298212], "properties": {"magmom": 0.001}, "label": "Ho", "xyz": [4.650170611272007, -7.549516567451064e-15, 3.0622766954999925]}, {"species": [{"element": "Ho", "occu": 1}], "abc": [0.192084999999999, 0.893872999999999, 0.701788], "properties": {"magmom": 0.001}, "label": "Ho", "xyz": [10.943335388727998, -8.881784197001252e-16, 3.0622766954999845]}, {"species": [{"element": "Ho", "occu": 1}], "abc": [0.807914999999999, 0.106127, 0.298212], "properties": {"magmom": 0.001}, "label": "Ho", "xyz": [-3.1465823887279933, 7.844097999999992, 4.908873304499992]}, {"species": [{"element": "Ho", "occu": 1}], "abc": [0.108702, 0.301769, 0.806933], "properties": {"magmom": -0.0}, "label": "Ho", "xyz": [7.796753000000001, 4.815225062868, -3.1602580713]}, {"species": [{"element": "Ho", "occu": 1}], "abc": [0.891297999999999, 0.698230999999999, 0.193067], "properties": {"magmom": -0.0}, "label": "Ho", "xyz": [2.220446049250313e-16, 3.0288729371320002, 11.131408071299983]}, {"species": [{"element": "Ho", "occu": 1}], "abc": [0.494836, 0.301769, 0.193067], "properties": {"magmom": -0.0}, "label": "Ho", "xyz": [2.220446049250313e-16, 3.0288729371320002, 4.8108919287]}, {"species": [{"element": "Ho", "occu": 1}], "abc": [0.505164, 0.698230999999999, 0.806933], "properties": {"magmom": -0.0}, "label": "Ho", "xyz": [7.796752999999994, 4.8152250628680076, 3.1602580712999933]}, {"species": [{"element": "Ho", "occu": 1}], "abc": [0.301069, 0.189596, 0.490664999999999], "properties": {"magmom": 0.0}, "label": "Ho", "xyz": [2.9564663635759922, 4.723229481523992, 7.549516567451064e-15]}, {"species": [{"element": "Ho", "occu": 1}], "abc": [0.698931, 0.810404, 0.509335], "properties": {"magmom": 0.0}, "label": "Ho", "xyz": [4.8402866364240005, 3.120868518475999, 7.97115]}, {"species": [{"element": "Ho", "occu": 1}], "abc": [0.301069, 0.810404, 0.111472999999999], "properties": {"magmom": 0.0}, "label": "Ho", "xyz": [4.840286636423992, -3.1208685184760077, 7.971150000000009]}, {"species": [{"element": "Ho", "occu": 1}], "abc": [0.698931, 0.189596, 0.888527], "properties": {"magmom": 0.0}, "label": "Ho", "xyz": [2.9564663635760002, 10.964966518475999, 0.0]}, {"species": [{"element": "Cd", "occu": 1}], "abc": [0.589969, 0.589969, 0.0], "properties": {"magmom": 0.0}, "label": "Cd", "xyz": [0.0, 0.0, 9.4054627887]}, {"species": [{"element": "Cd", "occu": 1}], "abc": [0.410031, 0.410031, 0.0], "properties": {"magmom": 0.0}, "label": "Cd", "xyz": [0.0, 0.0, 6.536837211299999]}, {"species": [{"element": "Cd", "occu": 1}], "abc": [0.594770999999999, 0.0, 0.594770999999999], "properties": {"magmom": -0.0}, "label": "Cd", "xyz": [0.0, 9.330884023115985, 0.0]}, {"species": [{"element": "Cd", "occu": 1}], "abc": [0.405229, 0.0, 0.405229], "properties": {"magmom": -0.0}, "label": "Cd", "xyz": [0.0, 6.357311976884, 0.0]}, {"species": [{"element": "Cd", "occu": 1}], "abc": [0.0, 0.404458, 0.404458], "properties": {"magmom": 0.0}, "label": "Cd", "xyz": [6.306918249748, 0.0, 0.0]}, {"species": [{"element": "Cd", "occu": 1}], "abc": [0.0, 0.595542, 0.595542], "properties": {"magmom": 0.0}, "label": "Cd", "xyz": [9.286587750252, 0.0, 0.0]}, {"species": [{"element": "Cd", "occu": 1}], "abc": [0.595849, 0.249842999999999, 0.653992999999999], "properties": {"magmom": -0.0}, "label": "Cd", "xyz": [2.4012985662109854, 7.844090155902, 1.5280614838499993]}, {"species": [{"element": "Cd", "occu": 1}], "abc": [0.404151, 0.750157, 0.346007], "properties": {"magmom": -0.0}, "label": "Cd", "xyz": [5.395454433788999, 7.844098000475697e-06, 6.443088516149999]}, {"species": [{"element": "Cd", "occu": 1}], "abc": [0.404151, 0.058143999999999, 0.653992999999999], "properties": {"magmom": -0.0}, "label": "Cd", "xyz": [2.401290769457985, 7.844098, -1.5280535127000006]}, {"species": [{"element": "Cd", "occu": 1}], "abc": [0.595849, 0.941855999999999, 0.346007], "properties": {"magmom": -0.0}, "label": "Cd", "xyz": [5.395462230541992, 7.105427357601002e-15, 9.499203512699992]}, {"species": [{"element": "Cd", "occu": 1}], "abc": [0.9406500000000001, 0.345953, 0.594696], "properties": {"magmom": 0.0}, "label": "Cd", "xyz": [-7.796753000555157e-06, 9.329715252514001, 5.515294483050001]}, {"species": [{"element": "Cd", "occu": 1}], "abc": [0.05935000000000001, 0.654046999999999, 0.405304], "properties": {"magmom": 0.0}, "label": "Cd", "xyz": [7.796760796752993, -1.4856172525139928, 2.455855516949992]}, {"species": [{"element": "Cd", "occu": 1}], "abc": [0.751257, 0.345953, 0.405304], "properties": {"magmom": 0.0}, "label": "Cd", "xyz": [4.440892098500626e-16, 6.358488591583999, 5.515286511899999]}, {"species": [{"element": "Cd", "occu": 1}], "abc": [0.248743, 0.654046999999999, 0.594696], "properties": {"magmom": 0.0}, "label": "Cd", "xyz": [7.796752999999993, 1.4856094084160074, 2.4558634880999923]}, {"species": [{"element": "Cd", "occu": 1}], "abc": [0.344717, 0.404258, 0.748975], "properties": {"magmom": 0.0}, "label": "Cd", "xyz": [6.303799548548, 5.407987860532, 8.881784197001252e-16]}, {"species": [{"element": "Cd", "occu": 1}], "abc": [0.655283, 0.595742, 0.251025], "properties": {"magmom": 0.0}, "label": "Cd", "xyz": [1.4929534514520006, 2.436110139467999, 7.971149999999999]}, {"species": [{"element": "Cd", "occu": 1}], "abc": [0.344717, 0.595742, 0.940458999999999], "properties": {"magmom": 0.0}, "label": "Cd", "xyz": [9.289706451451993, 5.407987860531993, 7.993605777301127e-15]}, {"species": [{"element": "Cd", "occu": 1}], "abc": [0.655283, 0.404258, 0.059541], "properties": {"magmom": 0.0}, "label": "Cd", "xyz": [-1.4929534514519995, 2.436110139467999, 7.97115]}, {"species": [{"element": "Cd", "occu": 1}], "abc": [0.5, 0.310321, 0.810321], "properties": {"magmom": 0.0}, "label": "Cd", "xyz": [4.838992375426, 7.844097999999999, 0.0]}, {"species": [{"element": "Cd", "occu": 1}], "abc": [0.5, 0.689678999999999, 0.189679], "properties": {"magmom": 0.0}, "label": "Cd", "xyz": [2.957760624573992, 7.771561172376096e-15, 7.971149999999992]}, {"species": [{"element": "Cd", "occu": 1}], "abc": [0.690445, 0.190445, 0.5], "properties": {"magmom": 0.0}, "label": "Cd", "xyz": [4.440892098500626e-16, 7.844097999999999, 3.0361313234999994]}, {"species": [{"element": "Cd", "occu": 1}], "abc": [0.309554999999999, 0.809554999999999, 0.5], "properties": {"magmom": 0.0}, "label": "Cd", "xyz": [7.796752999999999, 4.440892098500626e-16, 4.9350186764999835]}, {"species": [{"element": "Cd", "occu": 1}], "abc": [0.187675999999999, 0.5, 0.687676], "properties": {"magmom": 0.0}, "label": "Cd", "xyz": [7.796753000000007, 2.9442978724959916, -7.105427357601002e-15]}, {"species": [{"element": "Cd", "occu": 1}], "abc": [0.812323999999999, 0.5, 0.312324], "properties": {"magmom": 0.0}, "label": "Cd", "xyz": [7.105427357601002e-15, 4.899800127503992, 7.971149999999993]}, {"species": [{"element": "Cd", "occu": 1}], "abc": [7.2e-05, 0.678918999999999, 0.001823], "properties": {"magmom": -0.0}, "label": "Cd", "xyz": [5.307015864509993, -5.310642604351992, 5.397807703199993]}, {"species": [{"element": "Cd", "occu": 1}], "abc": [0.322905, 0.321081, 0.321152999999999], "properties": {"magmom": 0.0}, "label": "Cd", "xyz": [2.4897293387369923, 2.5334632397459926, 2.573350267950007]}, {"species": [{"element": "Cd", "occu": 1}], "abc": [0.999927999999999, 0.001751, 0.678847], "properties": {"magmom": -0.0}, "label": "Cd", "xyz": [-2.4897371354899924, 13.154740604351993, 2.573342296799993]}, {"species": [{"element": "Cd", "occu": 1}], "abc": [0.677095, 0.998248999999999, 0.998177], "properties": {"magmom": -0.0}, "label": "Cd", "xyz": [10.286497932242991, 5.310634760254008, 5.397799732049992]}, {"species": [{"element": "Cd", "occu": 1}], "abc": [0.999927999999999, 0.321081, 0.998177], "properties": {"magmom": -0.0}, "label": "Cd", "xyz": [2.4897371354900066, 13.154740604351993, 2.573342296799992]}, {"species": [{"element": "Cd", "occu": 1}], "abc": [0.677095, 0.678918999999999, 0.678847], "properties": {"magmom": -0.0}, "label": "Cd", "xyz": [5.307023661262993, 5.310634760254008, 5.397799732049994]}, {"species": [{"element": "Cd", "occu": 1}], "abc": [7.2e-05, 0.998248999999999, 0.321152999999999], "properties": {"magmom": -0.0}, "label": "Cd", "xyz": [10.286490135489984, -5.310642604352, 5.3978077032]}, {"species": [{"element": "Cd", "occu": 1}], "abc": [0.322905, 0.001751, 0.001823], "properties": {"magmom": -0.0}, "label": "Cd", "xyz": [-2.489744932243, 2.533463239746, 2.5733502679499995]}, {"species": [{"element": "Cd", "occu": 1}], "abc": [0.778357, 0.455791, 0.91851], "properties": {"magmom": -0.0}, "label": "Cd", "xyz": [4.646428169832001, 9.735121769448, 2.5159978436999983]}, {"species": [{"element": "Cd", "occu": 1}], "abc": [0.46272, 0.544208999999999, 0.322565999999999], "properties": {"magmom": -0.0}, "label": "Cd", "xyz": [3.1503170334149844, 1.8910316135460001, 5.455160127450001]}, {"species": [{"element": "Cd", "occu": 1}], "abc": [0.221642999999999, 0.140154, 0.677434], "properties": {"magmom": -0.0}, "label": "Cd", "xyz": [4.646435966585008, 5.953066386453992, -2.5159898725500076]}, {"species": [{"element": "Cd", "occu": 1}], "abc": [0.5372800000000001, 0.859846, 0.08149], "properties": {"magmom": -0.0}, "label": "Cd", "xyz": [3.150324830167999, -1.8910237694479992, 10.4871319014]}, {"species": [{"element": "Cd", "occu": 1}], "abc": [0.860467, 0.083842, 0.542549], "properties": {"magmom": -0.0}, "label": "Cd", "xyz": [-1.8250327552279995, 10.347730135052, 3.2024892240000007]}, {"species": [{"element": "Cd", "occu": 1}], "abc": [0.139533, 0.682082, 0.223375], "properties": {"magmom": 0.0}, "label": "Cd", "xyz": [5.9717202447719995, -2.5036321350519994, 4.768660775999999]}, {"species": [{"element": "Cd", "occu": 1}], "abc": [0.541293, 0.317918, 0.457451], "properties": {"magmom": -0.0}, "label": "Cd", "xyz": [1.8250327552280003, 5.340465864948, 3.202489224]}, {"species": [{"element": "Cd", "occu": 1}], "abc": [0.458707, 0.916157999999999, 0.776625], "properties": {"magmom": -0.0}, "label": "Cd", "xyz": [9.621785755227993, 2.503632135052008, 4.768660775999992]}, {"species": [{"element": "Cd", "occu": 1}], "abc": [0.318689, 0.459122, 0.5404800000000001], "properties": {"magmom": -0.0}, "label": "Cd", "xyz": [5.308910475489, 3.1380078726060012, 1.8918010006499992]}, {"species": [{"element": "Cd", "occu": 1}], "abc": [0.918640999999999, 0.778208999999999, 0.45952000000000004], "properties": {"magmom": 0.0}, "label": "Cd", "xyz": [2.487850321264, 4.706082283296, 9.862943029499984]}, {"species": [{"element": "Cd", "occu": 1}], "abc": [0.081359, 0.540878, 0.859568], "properties": {"magmom": 0.0}, "label": "Cd", "xyz": [10.284595524511, 3.138023560802, -1.8918010006500001]}, {"species": [{"element": "Cd", "occu": 1}], "abc": [0.681311, 0.221791, 0.140432], "properties": {"magmom": -0.0}, "label": "Cd", "xyz": [-2.487850321264, 4.706082283296, 6.0793569705]}, {"species": [{"element": "Cd", "occu": 1}], "abc": [0.221642999999999, 0.544208999999999, 0.08149], "properties": {"magmom": -0.0}, "label": "Cd", "xyz": [3.150324830168, -1.891023769448, 5.4551521562999845]}, {"species": [{"element": "Cd", "occu": 1}], "abc": [0.5372800000000001, 0.455791, 0.677434], "properties": {"magmom": -0.0}, "label": "Cd", "xyz": [4.646435966584999, 5.953066386454001, 2.5159898725500005]}, {"species": [{"element": "Cd", "occu": 1}], "abc": [0.778357, 0.859846, 0.322565999999999], "properties": {"magmom": -0.0}, "label": "Cd", "xyz": [3.150317033414992, 1.8910316135459917, 10.487139872550006]}, {"species": [{"element": "Cd", "occu": 1}], "abc": [0.46272, 0.140154, 0.91851], "properties": {"magmom": -0.0}, "label": "Cd", "xyz": [4.646428169832, 9.735121769448, -2.5159819014]}, {"species": [{"element": "Cd", "occu": 1}], "abc": [0.139533, 0.916157999999999, 0.457451], "properties": {"magmom": -0.0}, "label": "Cd", "xyz": [9.621785755227993, -2.5036321350519923, 4.768660775999993]}, {"species": [{"element": "Cd", "occu": 1}], "abc": [0.860467, 0.317918, 0.776625], "properties": {"magmom": 0.0}, "label": "Cd", "xyz": [1.8250327552280003, 10.347730135052, 3.202489223999999]}, {"species": [{"element": "Cd", "occu": 1}], "abc": [0.458707, 0.682082, 0.542549], "properties": {"magmom": -0.0}, "label": "Cd", "xyz": [5.9717202447719995, 2.503632135052, 4.768660776000001]}, {"species": [{"element": "Cd", "occu": 1}], "abc": [0.541293, 0.083842, 0.223375], "properties": {"magmom": -0.0}, "label": "Cd", "xyz": [-1.8250327552279997, 5.340465864948, 3.2024892240000002]}, {"species": [{"element": "Cd", "occu": 1}], "abc": [0.681311, 0.540878, 0.45952000000000004], "properties": {"magmom": -0.0}, "label": "Cd", "xyz": [2.4878425245109996, 4.706090127394001, 6.07934899935]}, {"species": [{"element": "Cd", "occu": 1}], "abc": [0.081359, 0.221791, 0.5404800000000001], "properties": {"magmom": 0.0}, "label": "Cd", "xyz": [5.3089026787360005, 3.138015716704001, -1.891793029500001]}, {"species": [{"element": "Cd", "occu": 1}], "abc": [0.918640999999999, 0.459122, 0.140432], "properties": {"magmom": 0.0}, "label": "Cd", "xyz": [-2.4878425245109925, 4.706074439197993, 9.862951000649991]}, {"species": [{"element": "Cd", "occu": 1}], "abc": [0.318689, 0.778208999999999, 0.859568], "properties": {"magmom": -0.0}, "label": "Cd", "xyz": [10.284603321263992, 3.138015716704008, 1.8917930294999925]}, {"species": [{"element": "Cd", "occu": 1}], "abc": [0.915095999999999, 0.824620999999999, 0.909524999999999], "properties": {"magmom": 0.0}, "label": "Cd", "xyz": [6.385930544649992, 7.844097999999993, 6.617584960799992]}, {"species": [{"element": "Cd", "occu": 1}], "abc": [0.084904, 0.175378999999999, 0.090475], "properties": {"magmom": 0.0}, "label": "Cd", "xyz": [1.4108224553499924, 7.771561172376096e-15, 1.3535650391999923]}, {"species": [{"element": "Cd", "occu": 1}], "abc": [0.084904, 0.994429, 0.909524999999999], "properties": {"magmom": -0.0}, "label": "Cd", "xyz": [14.182683544649992, -7.105427357601002e-15, 1.3535650392000074]}, {"species": [{"element": "Cd", "occu": 1}], "abc": [0.915095999999999, 0.005570999999999, 0.090475], "properties": {"magmom": -0.0}, "label": "Cd", "xyz": [-6.38593054465, 7.844098000000001, 6.617584960799984]}, {"species": [{"element": "Cd", "occu": 1}], "abc": [0.742865, 0.648714, 0.905848999999999], "properties": {"magmom": -0.0}, "label": "Cd", "xyz": [6.328608816593993, 7.844097999999992, 3.8718266895000077]}, {"species": [{"element": "Cd", "occu": 1}], "abc": [0.257135, 0.351286, 0.094151], "properties": {"magmom": -0.0}, "label": "Cd", "xyz": [1.4681441834059996, 3.3306690738754696e-16, 4.0993233105]}, {"species": [{"element": "Cd", "occu": 1}], "abc": [0.257135, 0.162984, 0.905848999999999], "properties": {"magmom": -0.0}, "label": "Cd", "xyz": [6.328608816593992, 7.844097999999992, -3.871826689499992]}, {"species": [{"element": "Cd", "occu": 1}], "abc": [0.742865, 0.837016, 0.094151], "properties": {"magmom": -0.0}, "label": "Cd", "xyz": [1.468144183406, -1.1102230246251565e-16, 11.8429766895]}, {"species": [{"element": "Cd", "occu": 1}], "abc": [0.856246, 0.090652, 0.765594], "properties": {"magmom": -0.0}, "label": "Cd", "xyz": [8.881784197001252e-16, 12.010788728424, 1.4452013795999994]}, {"species": [{"element": "Cd", "occu": 1}], "abc": [0.143754, 0.909347999999999, 0.234406], "properties": {"magmom": -0.0}, "label": "Cd", "xyz": [7.796752999999993, -4.166690728423993, 6.525948620399992]}, {"species": [{"element": "Cd", "occu": 1}], "abc": [0.325057999999999, 0.090652, 0.234406], "properties": {"magmom": -0.0}, "label": "Cd", "xyz": [7.771561172376096e-15, 3.6774072715759925, 1.445201379599992]}, {"species": [{"element": "Cd", "occu": 1}], "abc": [0.674941999999999, 0.909347999999999, 0.765594], "properties": {"magmom": -0.0}, "label": "Cd", "xyz": [7.796753000000001, 4.166690728423999, 6.5259486203999835]}, {"species": [{"element": "Cd", "occu": 1}], "abc": [0.095070999999999, 0.24072000000000002, 0.335792], "properties": {"magmom": 0.0}, "label": "Cd", "xyz": [3.7536765610730076, 1.4915003260139916, -7.971150007612948e-06]}, {"species": [{"element": "Cd", "occu": 1}], "abc": [0.904929, 0.7592800000000001, 0.664208], "properties": {"magmom": 0.0}, "label": "Cd", "xyz": [4.043076438927001, 6.352597673986, 7.971157971149999]}, {"species": [{"element": "Cd", "occu": 1}], "abc": [0.095070999999999, 0.7592800000000001, 0.854351], "properties": {"magmom": 0.0}, "label": "Cd", "xyz": [11.839837235680008, 1.4914924819159907, -7.105427357601002e-15]}, {"species": [{"element": "Cd", "occu": 1}], "abc": [0.904929, 0.24072000000000002, 0.145649], "properties": {"magmom": 0.0}, "label": "Cd", "xyz": [-4.043084235679999, 6.352605518083999, 7.97115]}]}, "task_ids": null, "uncorrected_energy_per_atom": null, "energy_per_atom": -1.608772352380952, "formation_energy_per_atom": -0.12909512309523502, "energy_above_hull": 0.006850842619048001, "is_stable": false, "equilibrium_reaction_energy_per_atom": null, "decomposes_to": null, "xas": null, "grain_boundaries": null, "band_gap": 0.0, "cbm": null, "vbm": null, "efermi": 2.90624641, "is_gap_direct": null, "is_metal": null, "es_source_calc_id": null, "bandstructure": null, "dos": null, "dos_energy_up": null, "dos_energy_down": null, "is_magnetic": null, "ordering": null, "total_magnetization": 0.0271379, "total_magnetization_normalized_vol": null, "total_magnetization_normalized_formula_units": null, "num_magnetic_sites": null, "num_unique_magnetic_sites": null, "types_of_magnetic_species": null, "bulk_modulus": null, "shear_modulus": null, "universal_anisotropy": null, "homogeneous_poisson": null, "e_total": null, "e_ionic": null, "e_electronic": null, "n": null, "e_ij_max": null, "weighted_surface_energy_EV_PER_ANG2": null, "weighted_surface_energy": null, "weighted_work_function": null, "surface_anisotropy": null, "shape_factor": null, "has_reconstructed": null, "possible_species": null, "has_props": null, "theoretical": null, "database_IDs": null, "fields_not_requested": ["builder_meta", "nsites", "elements", "nelements", "composition", "composition_reduced", "chemsys", "symmetry", "property_name", "deprecated", "deprecation_reasons", "last_updated", "origins", "warnings", "task_ids", "uncorrected_energy_per_atom", "equilibrium_reaction_energy_per_atom", "decomposes_to", "xas", "grain_boundaries", "cbm", "vbm", "is_gap_direct", "is_metal", "es_source_calc_id", "bandstructure", "dos", "dos_energy_up", "dos_energy_down", "is_magnetic", "ordering", "total_magnetization_normalized_vol", "total_magnetization_normalized_formula_units", "num_magnetic_sites", "num_unique_magnetic_sites", "types_of_magnetic_species", "bulk_modulus", "shear_modulus", "universal_anisotropy", "homogeneous_poisson", "e_total", "e_ionic", "e_electronic", "n", "e_ij_max", "weighted_surface_energy_EV_PER_ANG2", "weighted_surface_energy", "weighted_work_function", "surface_anisotropy", "shape_factor", "has_reconstructed", "possible_species", "has_props", "theoretical", "database_IDs"]}