{"builder_meta": null, "nsites": null, "elements": null, "nelements": null, "composition": null, "composition_reduced": null, "formula_pretty": "HoCd2", "formula_anonymous": "AB2", "chemsys": null, "volume": 71.68567500447098, "density": 9.028288477685662, "density_atomic": 23.895225001490328, "symmetry": null, "property_name": null, "material_id": "mp-11301", "deprecated": null, "deprecation_reasons": null, "last_updated": null, "origins": null, "warnings": null, "structure": {"@module": "pymatgen.core.structure", "@class": "Structure", "charge": 0, "lattice": {"matrix": [[5.74620836, 0.49183971, 1.62301118], [-2.44750902, 4.23941383, 0.00102534], [1.128117389999999, 0.65211564, 3.20921725]], "pbc": [true, true, true], "a": 5.9912421172300965, "b": 4.895194692379328, "c": 3.463665545524074, "alpha": 89.97701752538386, "beta": 54.63154879136187, "gamma": 114.10317543477362, "volume": 71.68567500447098}, "properties": {}, "sites": [{"species": [{"element": "Ho", "occu": 1}], "abc": [-0.0, 0.0, 0.999999], "properties": {"magmom": 0.108}, "label": "Ho", "xyz": [1.128116261882609, 0.65211498788436, 3.20921404078275]}, {"species": [{"element": "Cd", "occu": 1}], "abc": [0.66648121, 0.33328262000000003, 0.83474221], "properties": {"magmom": 0.002}, "label": "Cd", "xyz": [3.9557148852937143, 2.2850733240826484, 3.7609172827266413]}, {"species": [{"element": "Cd", "occu": 1}], "abc": [0.33351879, 0.66671738, 0.16525879000000002], "properties": {"magmom": 0.002}, "label": "Cd", "xyz": [0.47110297282367464, 3.098296508032992, 1.072339696490609]}]}, "task_ids": null, "uncorrected_energy_per_atom": null, "energy_per_atom": -2.44503279333333, "formation_energy_per_atom": -0.27246617833332704, "energy_above_hull": 0.0, "is_stable": true, "equilibrium_reaction_energy_per_atom": null, "decomposes_to": null, "xas": null, "grain_boundaries": null, "band_gap": 0.0, "cbm": null, "vbm": null, "efermi": 2.75489226, "is_gap_direct": null, "is_metal": null, "es_source_calc_id": null, "bandstructure": null, "dos": null, "dos_energy_up": null, "dos_energy_down": null, "is_magnetic": null, "ordering": null, "total_magnetization": 0.1477224, "total_magnetization_normalized_vol": null, "total_magnetization_normalized_formula_units": null, "num_magnetic_sites": null, "num_unique_magnetic_sites": null, "types_of_magnetic_species": null, "bulk_modulus": null, "shear_modulus": null, "universal_anisotropy": null, "homogeneous_poisson": null, "e_total": null, "e_ionic": null, "e_electronic": null, "n": null, "e_ij_max": null, "weighted_surface_energy_EV_PER_ANG2": null, "weighted_surface_energy": null, "weighted_work_function": null, "surface_anisotropy": null, "shape_factor": null, "has_reconstructed": null, "possible_species": null, "has_props": null, "theoretical": null, "database_IDs": null, "fields_not_requested": ["builder_meta", "nsites", "elements", "nelements", "composition", "composition_reduced", "chemsys", "symmetry", "property_name", "deprecated", "deprecation_reasons", "last_updated", "origins", "warnings", "task_ids", "uncorrected_energy_per_atom", "equilibrium_reaction_energy_per_atom", "decomposes_to", "xas", "grain_boundaries", "cbm", "vbm", "is_gap_direct", "is_metal", "es_source_calc_id", "bandstructure", "dos", "dos_energy_up", "dos_energy_down", "is_magnetic", "ordering", "total_magnetization_normalized_vol", "total_magnetization_normalized_formula_units", "num_magnetic_sites", "num_unique_magnetic_sites", "types_of_magnetic_species", "bulk_modulus", "shear_modulus", "universal_anisotropy", "homogeneous_poisson", "e_total", "e_ionic", "e_electronic", "n", "e_ij_max", "weighted_surface_energy_EV_PER_ANG2", "weighted_surface_energy", "weighted_work_function", "surface_anisotropy", "shape_factor", "has_reconstructed", "possible_species", "has_props", "theoretical", "database_IDs"]}