{
  "builder_meta": null,
  "nsites": null,
  "elements": null,
  "nelements": null,
  "composition": null,
  "composition_reduced": null,
  "formula_pretty": "HoCl3",
  "formula_anonymous": "AB3",
  "chemsys": null,
  "volume": 293.80488001998265,
  "density": 3.066569310766448,
  "density_atomic": 36.72561000249783,
  "symmetry": null,
  "property_name": null,
  "material_id": "mp-864662",
  "deprecated": null,
  "deprecation_reasons": null,
  "last_updated": null,
  "origins": null,
  "warnings": null,
  "structure": {
    "@module": "pymatgen.core.structure",
    "@class": "Structure",
    "charge": 0,
    "lattice": {
      "matrix": [
        [9.76679796, 1.009999999999998e-6, 0.0],
        [-4.88339646, 8.4582925, -0.0],
        [0.0, 0.0, 3.55651034]
      ],
      "pbc": [true, true, true],
      "a": 9.766797960000053,
      "b": 9.766794407639427,
      "c": 3.55651034,
      "alpha": 90.0,
      "beta": 90.0,
      "gamma": 119.9999890363791,
      "volume": 293.80488001998265
    },
    "properties": {},
    "sites": [
      {
        "species": [{ "element": "Ho", "occu": 1 }],
        "abc": [0.333333, 0.666667, 0.75],
        "properties": { "magmom": -0.0 },
        "label": "Ho",
        "xyz": [-3.2033981400836353e-6, 5.638864822763831, 2.667382755]
      },
      {
        "species": [{ "element": "Ho", "occu": 1 }],
        "abc": [0.666667, 0.333333, 0.249998],
        "properties": { "magmom": -0.0 },
        "label": "Ho",
        "xyz": [4.88340470339814, 2.8194286872361705, 0.88912047197932]
      },
      {
        "species": [{ "element": "Cl", "occu": 1 }],
        "abc": [0.21795601, 0.43591302, 0.249998],
        "properties": { "magmom": 0.0 },
        "label": "Cl",
        "xyz": [-3.7848981695454142e-6, 3.6870800478539203, 0.88912047197932]
      },
      {
        "species": [{ "element": "Cl", "occu": 1 }],
        "abc": [0.56408598, 0.78204399, 0.249998],
        "properties": { "magmom": 0.0 },
        "label": "Cl",
        "xyz": [1.6902829463983244, 6.614757385013916, 0.88912047197932]
      },
      {
        "species": [{ "element": "Cl", "occu": 1 }],
        "abc": [0.21795701, 0.78204399, 0.249998],
        "properties": { "magmom": 0.0 },
        "label": "Cl",
        "xyz": [-1.690288771694576, 6.614757035423656, 0.88912047197932]
      },
      {
        "species": [{ "element": "Cl", "occu": 1 }],
        "abc": [0.78204399, 0.56408698, 0.75],
        "properties": { "magmom": 0.0 },
        "label": "Cl",
        "xyz": [4.88340528489817, 4.77121346214608, 2.667382755]
      },
      {
        "species": [{ "element": "Cl", "occu": 1 }],
        "abc": [0.43591302, 0.21795601, 0.75],
        "properties": { "magmom": 0.0 },
        "label": "Cl",
        "xyz": [3.1931087868037142, 1.8435361249850755, 2.667382755]
      },
      {
        "species": [{ "element": "Cl", "occu": 1 }],
        "abc": [0.78204499, 0.21795601, 0.75],
        "properties": { "magmom": 0.0 },
        "label": "Cl",
        "xyz": [6.573709805290496, 1.8435364745783651, 2.667382755]
      }
    ]
  },
  "task_ids": null,
  "uncorrected_energy_per_atom": null,
  "energy_per_atom": -15.27136741125,
  "formation_energy_per_atom": -2.436702259375,
  "energy_above_hull": 0.0,
  "is_stable": true,
  "equilibrium_reaction_energy_per_atom": null,
  "decomposes_to": null,
  "xas": null,
  "grain_boundaries": null,
  "band_gap": 3.7011000000000003,
  "cbm": null,
  "vbm": null,
  "efermi": -2.32078336,
  "is_gap_direct": null,
  "is_metal": null,
  "es_source_calc_id": null,
  "bandstructure": null,
  "dos": null,
  "dos_energy_up": null,
  "dos_energy_down": null,
  "is_magnetic": null,
  "ordering": null,
  "total_magnetization": 0.0,
  "total_magnetization_normalized_vol": null,
  "total_magnetization_normalized_formula_units": null,
  "num_magnetic_sites": null,
  "num_unique_magnetic_sites": null,
  "types_of_magnetic_species": null,
  "bulk_modulus": null,
  "shear_modulus": null,
  "universal_anisotropy": null,
  "homogeneous_poisson": null,
  "e_total": null,
  "e_ionic": null,
  "e_electronic": null,
  "n": null,
  "e_ij_max": null,
  "weighted_surface_energy_EV_PER_ANG2": null,
  "weighted_surface_energy": null,
  "weighted_work_function": null,
  "surface_anisotropy": null,
  "shape_factor": null,
  "has_reconstructed": null,
  "possible_species": null,
  "has_props": null,
  "theoretical": null,
  "database_IDs": null,
  "fields_not_requested": [
    "builder_meta",
    "nsites",
    "elements",
    "nelements",
    "composition",
    "composition_reduced",
    "chemsys",
    "symmetry",
    "property_name",
    "deprecated",
    "deprecation_reasons",
    "last_updated",
    "origins",
    "warnings",
    "task_ids",
    "uncorrected_energy_per_atom",
    "equilibrium_reaction_energy_per_atom",
    "decomposes_to",
    "xas",
    "grain_boundaries",
    "cbm",
    "vbm",
    "is_gap_direct",
    "is_metal",
    "es_source_calc_id",
    "bandstructure",
    "dos",
    "dos_energy_up",
    "dos_energy_down",
    "is_magnetic",
    "ordering",
    "total_magnetization_normalized_vol",
    "total_magnetization_normalized_formula_units",
    "num_magnetic_sites",
    "num_unique_magnetic_sites",
    "types_of_magnetic_species",
    "bulk_modulus",
    "shear_modulus",
    "universal_anisotropy",
    "homogeneous_poisson",
    "e_total",
    "e_ionic",
    "e_electronic",
    "n",
    "e_ij_max",
    "weighted_surface_energy_EV_PER_ANG2",
    "weighted_surface_energy",
    "weighted_work_function",
    "surface_anisotropy",
    "shape_factor",
    "has_reconstructed",
    "possible_species",
    "has_props",
    "theoretical",
    "database_IDs"
  ]
}
