{"builder_meta": null, "nsites": null, "elements": null, "nelements": null, "composition": null, "composition_reduced": null, "formula_pretty": "HoCo3", "formula_anonymous": "AB3", "chemsys": null, "volume": 172.57110921541906, "density": 9.864731009574545, "density_atomic": 14.380925767951588, "symmetry": null, "property_name": null, "material_id": "mp-30558", "deprecated": null, "deprecation_reasons": null, "last_updated": null, "origins": null, "warnings": null, "structure": {"@module": "pymatgen.core.structure", "@class": "Structure", "charge": 0, "lattice": {"matrix": [[8.1217856, -2.49652604, -0.02944526], [8.1217856, 2.49652604, -0.02944526], [7.3698256, -0.0, 4.22877976]], "pbc": [true, true, true], "a": 8.49687652164617, "b": 8.49687652164617, "c": 8.496876345634378, "alpha": 34.17321435437625, "beta": 34.17321435437625, "gamma": 34.173215856402834, "volume": 172.57110921541906}, "properties": {}, "sites": [{"species": [{"element": "Ho", "occu": 1}], "abc": [-0.0, -0.0, -0.0], "properties": {"magmom": -0.546}, "label": "Ho", "xyz": [0.0, 0.0, 0.0]}, {"species": [{"element": "Ho", "occu": 1}], "abc": [0.8580615300000001, 0.8580615300000001, 0.8580615300000001], "properties": {"magmom": -0.634}, "label": "Ho", "xyz": [20.261747386705107, 0.0, 3.5780215412049374]}, {"species": [{"element": "Ho", "occu": 1}], "abc": [0.14193847, 0.14193847, 0.14193847], "properties": {"magmom": -0.634}, "label": "Ho", "xyz": [3.351649413294896, 0.0, 0.591867698795063]}, {"species": [{"element": "Co", "occu": 1}], "abc": [0.5, 0.5, 0.5], "properties": {"magmom": 1.424}, "label": "Co", "xyz": [11.806698400000002, 0.0, 2.08494462]}, {"species": [{"element": "Co", "occu": 1}], "abc": [0.67160622, 0.67160622, 0.67160622], "properties": {"magmom": 1.752}, "label": "Co", "xyz": [15.858904166208097, 0.0, 2.800523550295073]}, {"species": [{"element": "Co", "occu": 1}], "abc": [0.32839378, 0.32839378, 0.32839378], "properties": {"magmom": 1.752}, "label": "Co", "xyz": [7.754492633791905, 0.0, 1.3693656897049273]}, {"species": [{"element": "Co", "occu": 1}], "abc": [0.42517791, 0.90756062, 0.42517791], "properties": {"magmom": 1.565}, "label": "Co", "xyz": [13.957703647191664, 1.2042809967607684, 1.758740907679234]}, {"species": [{"element": "Co", "occu": 1}], "abc": [0.42517791, 0.42517791, 0.90756062], "properties": {"magmom": 1.565}, "label": "Co", "xyz": [13.594971144580065, 0.0, 3.812835032616638]}, {"species": [{"element": "Co", "occu": 1}], "abc": [0.90756062, 0.42517791, 0.42517791], "properties": {"magmom": 1.565}, "label": "Co", "xyz": [13.957703647191664, -1.2042809967607684, 1.758740907679234]}, {"species": [{"element": "Co", "occu": 1}], "abc": [0.5748220900000001, 0.09243938, 0.5748220900000001], "properties": {"magmom": 1.565}, "label": "Co", "xyz": [9.655693152808338, -1.2042809967607684, 2.4111483323207668]}, {"species": [{"element": "Co", "occu": 1}], "abc": [0.5748220900000001, 0.5748220900000001, 0.09243938], "properties": {"magmom": 1.565}, "label": "Co", "xyz": [10.018425655419938, 0.0, 0.357054207383362]}, {"species": [{"element": "Co", "occu": 1}], "abc": [0.09243938, 0.5748220900000001, 0.5748220900000001], "properties": {"magmom": 1.565}, "label": "Co", "xyz": [9.655693152808338, 1.2042809967607684, 2.4111483323207668]}]}, "task_ids": null, "uncorrected_energy_per_atom": null, "energy_per_atom": -6.668288924999999, "formation_energy_per_atom": -0.16880651874999802, "energy_above_hull": 0.0, "is_stable": true, "equilibrium_reaction_energy_per_atom": null, "decomposes_to": null, "xas": null, "grain_boundaries": null, "band_gap": 0.0, "cbm": null, "vbm": null, "efermi": 4.44827069, "is_gap_direct": null, "is_metal": null, "es_source_calc_id": null, "bandstructure": null, "dos": null, "dos_energy_up": null, "dos_energy_down": null, "is_magnetic": null, "ordering": null, "total_magnetization": 11.8217855, "total_magnetization_normalized_vol": null, "total_magnetization_normalized_formula_units": null, "num_magnetic_sites": null, "num_unique_magnetic_sites": null, "types_of_magnetic_species": null, "bulk_modulus": null, "shear_modulus": null, "universal_anisotropy": null, "homogeneous_poisson": null, "e_total": null, "e_ionic": null, "e_electronic": null, "n": null, "e_ij_max": null, "weighted_surface_energy_EV_PER_ANG2": null, "weighted_surface_energy": null, "weighted_work_function": null, "surface_anisotropy": null, "shape_factor": null, "has_reconstructed": null, "possible_species": null, "has_props": null, "theoretical": null, "database_IDs": null, "fields_not_requested": ["builder_meta", "nsites", "elements", "nelements", "composition", "composition_reduced", "chemsys", "symmetry", "property_name", "deprecated", "deprecation_reasons", "last_updated", "origins", "warnings", "task_ids", "uncorrected_energy_per_atom", "equilibrium_reaction_energy_per_atom", "decomposes_to", "xas", "grain_boundaries", "cbm", "vbm", "is_gap_direct", "is_metal", "es_source_calc_id", "bandstructure", "dos", "dos_energy_up", "dos_energy_down", "is_magnetic", "ordering", "total_magnetization_normalized_vol", "total_magnetization_normalized_formula_units", "num_magnetic_sites", "num_unique_magnetic_sites", "types_of_magnetic_species", "bulk_modulus", "shear_modulus", "universal_anisotropy", "homogeneous_poisson", "e_total", "e_ionic", "e_electronic", "n", "e_ij_max", "weighted_surface_energy_EV_PER_ANG2", "weighted_surface_energy", "weighted_work_function", "surface_anisotropy", "shape_factor", "has_reconstructed", "possible_species", "has_props", "theoretical", "database_IDs"]}