{"builder_meta": null, "nsites": null, "elements": null, "nelements": null, "composition": null, "composition_reduced": null, "formula_pretty": "HoCo2", "formula_anonymous": "AB2", "chemsys": null, "volume": 90.21978971843596, "density": 10.41002171090167, "density_atomic": 15.036631619739326, "symmetry": null, "property_name": null, "material_id": "mp-2396", "deprecated": null, "deprecation_reasons": null, "last_updated": null, "origins": null, "warnings": null, "structure": {"@module": "pymatgen.core.structure", "@class": "Structure", "charge": 0, "lattice": {"matrix": [[4.3596048, 0.00045551, 2.517101669999999], [1.45363162, 4.11094607, 2.5171023100000003], [7.98e-06, 6.75e-06, 5.03418985]], "pbc": [true, true, true], "a": 5.034079363378092, "b": 5.034751882279762, "c": 5.03418985001085, "alpha": 60.003492894557915, "beta": 59.99909449559949, "gamma": 59.99408975005453, "volume": 90.21978971843596}, "properties": {}, "sites": [{"species": [{"element": "Ho", "occu": 1}], "abc": [0.12499617, 0.12500982, 0.12499662], "properties": {"magmom": -0.61}, "label": "Ho", "xyz": [0.726653127349152, 0.5139664089729891, 1.258547290633595]}, {"species": [{"element": "Ho", "occu": 1}], "abc": [0.87500407, 0.87499052, 0.87500308], "properties": {"magmom": -0.61}, "label": "Ho", "xyz": [5.086592813188356, 3.5974433188559716, 8.809846489028635]}, {"species": [{"element": "Co", "occu": 1}], "abc": [0.49999986, 0.49999985, 0.50000018], "properties": {"magmom": 1.381}, "label": "Co", "xyz": [2.906621371612021, 2.055703548295533, 5.034197091194592]}, {"species": [{"element": "Co", "occu": 1}], "abc": [0.49999986, 0.49999985, 1e-07], "properties": {"magmom": 1.381}, "label": "Co", "xyz": [2.9066173816113827, 2.055700173294993, 2.5171017634594044]}, {"species": [{"element": "Co", "occu": 1}], "abc": [1e-07, 0.49999986, 0.50000003], "properties": {"magmom": 1.3820000000000001}, "label": "Co", "xyz": [0.7268200324522927, 2.0554758345133037, 3.7756461303415394]}, {"species": [{"element": "Co", "occu": 1}], "abc": [0.49999994000000003, 1.1e-07, 0.49999998], "properties": {"magmom": 1.38}, "label": "Co", "xyz": [2.1798062883230305, 0.00023158217660210003, 3.7756457851713563]}]}, "task_ids": null, "uncorrected_energy_per_atom": null, "energy_per_atom": -6.489755944999999, "formation_energy_per_atom": -0.20158497666666303, "energy_above_hull": 0.0, "is_stable": true, "equilibrium_reaction_energy_per_atom": null, "decomposes_to": null, "xas": null, "grain_boundaries": null, "band_gap": 0.0, "cbm": null, "vbm": null, "efermi": 4.63762742, "is_gap_direct": null, "is_metal": null, "es_source_calc_id": null, "bandstructure": null, "dos": null, "dos_energy_up": null, "dos_energy_down": null, "is_magnetic": null, "ordering": null, "total_magnetization": 4.0427667, "total_magnetization_normalized_vol": null, "total_magnetization_normalized_formula_units": null, "num_magnetic_sites": null, "num_unique_magnetic_sites": null, "types_of_magnetic_species": null, "bulk_modulus": null, "shear_modulus": null, "universal_anisotropy": null, "homogeneous_poisson": null, "e_total": null, "e_ionic": null, "e_electronic": null, "n": null, "e_ij_max": null, "weighted_surface_energy_EV_PER_ANG2": null, "weighted_surface_energy": null, "weighted_work_function": null, "surface_anisotropy": null, "shape_factor": null, "has_reconstructed": null, "possible_species": null, "has_props": null, "theoretical": null, "database_IDs": null, "fields_not_requested": ["builder_meta", "nsites", "elements", "nelements", "composition", "composition_reduced", "chemsys", "symmetry", "property_name", "deprecated", "deprecation_reasons", "last_updated", "origins", "warnings", "task_ids", "uncorrected_energy_per_atom", "equilibrium_reaction_energy_per_atom", "decomposes_to", "xas", "grain_boundaries", "cbm", "vbm", "is_gap_direct", "is_metal", "es_source_calc_id", "bandstructure", "dos", "dos_energy_up", "dos_energy_down", "is_magnetic", "ordering", "total_magnetization_normalized_vol", "total_magnetization_normalized_formula_units", "num_magnetic_sites", "num_unique_magnetic_sites", "types_of_magnetic_species", "bulk_modulus", "shear_modulus", "universal_anisotropy", "homogeneous_poisson", "e_total", "e_ionic", "e_electronic", "n", "e_ij_max", "weighted_surface_energy_EV_PER_ANG2", "weighted_surface_energy", "weighted_work_function", "surface_anisotropy", "shape_factor", "has_reconstructed", "possible_species", "has_props", "theoretical", "database_IDs"]}