{"builder_meta": null, "nsites": null, "elements": null, "nelements": null, "composition": null, "composition_reduced": null, "formula_pretty": "HoCu2", "formula_anonymous": "AB2", "chemsys": null, "volume": 103.15578026640522, "density": 9.401595711395899, "density_atomic": 17.192630044400868, "symmetry": null, "property_name": null, "material_id": "mp-30584", "deprecated": null, "deprecation_reasons": null, "last_updated": null, "origins": null, "warnings": null, "structure": {"@module": "pymatgen.core.structure", "@class": "Structure", "charge": 0, "lattice": {"matrix": [[3.90823941, 0.0, 1.684982639999999], [1.81091709, 4.91668608, 1.17464333], [0.00230513, 0.00377444, 5.36963515]], "pbc": [true, true, true], "a": 4.255995980141255, "b": 5.369637759554486, "c": 5.3696369713545025, "alpha": 77.31769793341522, "beta": 66.65279705322962, "gamma": 66.65280027984055, "volume": 103.15578026640522}, "properties": {}, "sites": [{"species": [{"element": "Ho", "occu": 1}], "abc": [0.45583956000000003, 0.29416044, 0.79416044], "properties": {"magmom": 0.0}, "label": "Ho", "xyz": [2.3160609440820368, 1.4492920515658287, 5.377967157384569]}, {"species": [{"element": "Ho", "occu": 1}], "abc": [0.54416044, 0.70583956, 0.20583956], "properties": {"magmom": 0.0}, "label": "Ho", "xyz": [3.4054006859179635, 3.4711684684341715, 2.85129396261543]}, {"species": [{"element": "Cu", "occu": 1}], "abc": [0.83577206, 0.11295747, 0.21549741], "properties": {"magmom": 0.0}, "label": "Cu", "xyz": [3.471450665079761, 0.5561898024252181, 2.6980886182761745]}, {"species": [{"element": "Cu", "occu": 1}], "abc": [0.16422794000000002, 0.88704253, 0.78450259], "properties": {"magmom": 0.0}, "label": "Cu", "xyz": [2.25001096492024, 4.364270717574781, 5.531172501723824]}, {"species": [{"element": "Cu", "occu": 1}], "abc": [0.16422794000000002, 0.28450259, 0.38704253], "properties": {"magmom": 0.0}, "label": "Cu", "xyz": [1.1579448930585574, 1.4002707927838804, 2.6891874712471155]}, {"species": [{"element": "Cu", "occu": 1}], "abc": [0.83577206, 0.71549741, 0.61295747], "properties": {"magmom": 0.0}, "label": "Cu", "xyz": [4.563516736941443, 3.520189727216119, 5.540073648752884]}]}, "task_ids": null, "uncorrected_energy_per_atom": null, "energy_per_atom": -18.470753963333333, "formation_energy_per_atom": -0.27910865833333504, "energy_above_hull": 0.0, "is_stable": true, "equilibrium_reaction_energy_per_atom": null, "decomposes_to": null, "xas": null, "grain_boundaries": null, "band_gap": 0.0, "cbm": null, "vbm": null, "efermi": 4.94846442, "is_gap_direct": null, "is_metal": null, "es_source_calc_id": null, "bandstructure": null, "dos": null, "dos_energy_up": null, "dos_energy_down": null, "is_magnetic": null, "ordering": null, "total_magnetization": 0.0, "total_magnetization_normalized_vol": null, "total_magnetization_normalized_formula_units": null, "num_magnetic_sites": null, "num_unique_magnetic_sites": null, "types_of_magnetic_species": null, "bulk_modulus": null, "shear_modulus": null, "universal_anisotropy": null, "homogeneous_poisson": null, "e_total": null, "e_ionic": null, "e_electronic": null, "n": null, "e_ij_max": null, "weighted_surface_energy_EV_PER_ANG2": null, "weighted_surface_energy": null, "weighted_work_function": null, "surface_anisotropy": null, "shape_factor": null, "has_reconstructed": null, "possible_species": null, "has_props": null, "theoretical": null, "database_IDs": null, "fields_not_requested": ["builder_meta", "nsites", "elements", "nelements", "composition", "composition_reduced", "chemsys", "symmetry", "property_name", "deprecated", "deprecation_reasons", "last_updated", "origins", "warnings", "task_ids", "uncorrected_energy_per_atom", "equilibrium_reaction_energy_per_atom", "decomposes_to", "xas", "grain_boundaries", "cbm", "vbm", "is_gap_direct", "is_metal", "es_source_calc_id", "bandstructure", "dos", "dos_energy_up", "dos_energy_down", "is_magnetic", "ordering", "total_magnetization_normalized_vol", "total_magnetization_normalized_formula_units", "num_magnetic_sites", "num_unique_magnetic_sites", "types_of_magnetic_species", "bulk_modulus", "shear_modulus", "universal_anisotropy", "homogeneous_poisson", "e_total", "e_ionic", "e_electronic", "n", "e_ij_max", "weighted_surface_energy_EV_PER_ANG2", "weighted_surface_energy", "weighted_work_function", "surface_anisotropy", "shape_factor", "has_reconstructed", "possible_species", "has_props", "theoretical", "database_IDs"]}