{
  "builder_meta": null,
  "nsites": null,
  "elements": null,
  "nelements": null,
  "composition": null,
  "composition_reduced": null,
  "formula_pretty": "HoEr3",
  "formula_anonymous": "AB3",
  "chemsys": null,
  "volume": 246.97490479263251,
  "density": 8.965231117531848,
  "density_atomic": 30.871863099079064,
  "symmetry": null,
  "property_name": null,
  "material_id": "mp-1184779",
  "deprecated": null,
  "deprecation_reasons": null,
  "last_updated": null,
  "origins": null,
  "warnings": null,
  "structure": {
    "@module": "pymatgen.core.structure",
    "@class": "Structure",
    "charge": 0,
    "lattice": {
      "matrix": [
        [7.1841651, -0.00012413, 1.42e-6],
        [-3.5921920800000002, 6.2221233, 1.5910000000000002e-5],
        [5.269999999999999e-6, 1.275e-5, 5.5251266999999995]
      ],
      "pbc": [true, true, true],
      "a": 7.184165101072518,
      "b": 7.184612884510254,
      "c": 5.525126700017224,
      "alpha": 89.99978593991304,
      "beta": 89.9999340272711,
      "gamma": 119.99993687376525,
      "volume": 246.97490479263246
    },
    "properties": {},
    "sites": [
      {
        "species": [{ "element": "Ho", "occu": 1 }],
        "abc": [0.33330248, 0.66664833, 0.74997325],
        "properties": { "magmom": 0.0 },
        "label": "Ho",
        "xyz": [-0.00022485425275065398, 4.147936296321184, 4.143708307525227]
      },
      {
        "species": [{ "element": "Ho", "occu": 1 }],
        "abc": [0.66668762, 0.33335584, 0.25002755],
        "properties": { "magmom": 0.0 },
        "label": "Ho",
        "xyz": [3.5921170415815036, 2.074101571172064, 1.3814401426284197]
      },
      {
        "species": [{ "element": "Er", "occu": 1 }],
        "abc": [0.16652369, 0.33298557, 0.24997531],
        "properties": { "magmom": 0.0 },
        "label": "Er",
        "xyz": [0.0001868720828171667, 2.0718597902603437, 1.3811507938858354]
      },
      {
        "species": [{ "element": "Er", "occu": 1 }],
        "abc": [0.6670615, 0.83355384, 0.25000153],
        "properties": { "magmom": 0.0 },
        "label": "Er",
        "xyz": [1.797995763060126, 5.186395154843985, 1.3813043375127754]
      },
      {
        "species": [{ "element": "Er", "occu": 1 }],
        "abc": [0.16651804, 0.83356513, 0.24999554000000002],
        "properties": { "magmom": 0.0 },
        "label": "Er",
        "xyz": [-1.7980316491852706, 5.1865275349993585, 1.381270531411753]
      },
      {
        "species": [{ "element": "Er", "occu": 1 }],
        "abc": [0.83349554, 0.66703099, 0.75002773],
        "properties": { "magmom": 0.0 },
        "label": "Er",
        "xyz": [3.5918700827272323, 4.1502551657532445, 4.144010032790109]
      },
      {
        "species": [{ "element": "Er", "occu": 1 }],
        "abc": [0.33292446000000003, 0.16643115, 0.7500035700000001],
        "properties": { "magmom": 0.0 },
        "label": "Er",
        "xyz": [1.793935580091868, 1.0355233728930926, 4.143867870374648]
      },
      {
        "species": [{ "element": "Er", "occu": 1 }],
        "abc": [0.8334876800000001, 0.16643415, 0.75000352],
        "properties": { "magmom": 0.0 },
        "label": "Er",
        "xyz": [5.3900536189829875, 1.0354799043498566, 4.143868304965816]
      }
    ]
  },
  "task_ids": null,
  "uncorrected_energy_per_atom": null,
  "energy_per_atom": -33.65257562375,
  "formation_energy_per_atom": 0.011836729999998002,
  "energy_above_hull": 0.017596299583331,
  "is_stable": false,
  "equilibrium_reaction_energy_per_atom": null,
  "decomposes_to": null,
  "xas": null,
  "grain_boundaries": null,
  "band_gap": 0.0,
  "cbm": null,
  "vbm": null,
  "efermi": 3.02405761,
  "is_gap_direct": null,
  "is_metal": null,
  "es_source_calc_id": null,
  "bandstructure": null,
  "dos": null,
  "dos_energy_up": null,
  "dos_energy_down": null,
  "is_magnetic": null,
  "ordering": null,
  "total_magnetization": 0.0019348,
  "total_magnetization_normalized_vol": null,
  "total_magnetization_normalized_formula_units": null,
  "num_magnetic_sites": null,
  "num_unique_magnetic_sites": null,
  "types_of_magnetic_species": null,
  "bulk_modulus": null,
  "shear_modulus": null,
  "universal_anisotropy": null,
  "homogeneous_poisson": null,
  "e_total": null,
  "e_ionic": null,
  "e_electronic": null,
  "n": null,
  "e_ij_max": null,
  "weighted_surface_energy_EV_PER_ANG2": null,
  "weighted_surface_energy": null,
  "weighted_work_function": null,
  "surface_anisotropy": null,
  "shape_factor": null,
  "has_reconstructed": null,
  "possible_species": null,
  "has_props": null,
  "theoretical": null,
  "database_IDs": null,
  "fields_not_requested": [
    "builder_meta",
    "nsites",
    "elements",
    "nelements",
    "composition",
    "composition_reduced",
    "chemsys",
    "symmetry",
    "property_name",
    "deprecated",
    "deprecation_reasons",
    "last_updated",
    "origins",
    "warnings",
    "task_ids",
    "uncorrected_energy_per_atom",
    "equilibrium_reaction_energy_per_atom",
    "decomposes_to",
    "xas",
    "grain_boundaries",
    "cbm",
    "vbm",
    "is_gap_direct",
    "is_metal",
    "es_source_calc_id",
    "bandstructure",
    "dos",
    "dos_energy_up",
    "dos_energy_down",
    "is_magnetic",
    "ordering",
    "total_magnetization_normalized_vol",
    "total_magnetization_normalized_formula_units",
    "num_magnetic_sites",
    "num_unique_magnetic_sites",
    "types_of_magnetic_species",
    "bulk_modulus",
    "shear_modulus",
    "universal_anisotropy",
    "homogeneous_poisson",
    "e_total",
    "e_ionic",
    "e_electronic",
    "n",
    "e_ij_max",
    "weighted_surface_energy_EV_PER_ANG2",
    "weighted_surface_energy",
    "weighted_work_function",
    "surface_anisotropy",
    "shape_factor",
    "has_reconstructed",
    "possible_species",
    "has_props",
    "theoretical",
    "database_IDs"
  ]
}
