{"builder_meta": null, "nsites": null, "elements": null, "nelements": null, "composition": null, "composition_reduced": null, "formula_pretty": "HoF3", "formula_anonymous": "AB3", "chemsys": null, "volume": 186.76649895523659, "density": 7.892550619905746, "density_atomic": 11.672906184702287, "symmetry": null, "property_name": null, "material_id": "mp-561877", "deprecated": null, "deprecation_reasons": null, "last_updated": null, "origins": null, "warnings": null, "structure": {"@module": "pymatgen.core.structure", "@class": "Structure", "charge": 0, "lattice": {"matrix": [[4.34839388, 0.0, 0.0], [-0.0, 6.31833275, 0.0], [0.0, 0.0, 6.7977878700000005]], "pbc": [true, true, true], "a": 4.34839388, "b": 6.31833275, "c": 6.7977878700000005, "alpha": 90.0, "beta": 90.0, "gamma": 90.0, "volume": 186.76649895523659}, "properties": {}, "sites": [{"species": [{"element": "Ho", "occu": 1}], "abc": [0.56268488, 0.13042151, 0.75], "properties": {"magmom": -0.0}, "label": "Ho", "xyz": [2.4467754885605344, 0.8240464979374524, 5.0983409025]}, {"species": [{"element": "Ho", "occu": 1}], "abc": [0.9373151200000001, 0.63042151, 0.75], "properties": {"magmom": -0.0}, "label": "Ho", "xyz": [4.075815331439466, 3.9832128729374525, 5.0983409025]}, {"species": [{"element": "Ho", "occu": 1}], "abc": [0.06268488, 0.36957849, 0.25], "properties": {"magmom": -0.0}, "label": "Ho", "xyz": [0.2725785485605344, 2.335119877062547, 1.6994469675000001]}, {"species": [{"element": "Ho", "occu": 1}], "abc": [0.43731512, 0.86957849, 0.25], "properties": {"magmom": -0.0}, "label": "Ho", "xyz": [1.9016183914394655, 5.4942862520625475, 1.6994469675000001]}, {"species": [{"element": "F", "occu": 1}], "abc": [0.87853786, 0.33446922, 0.93732909], "properties": {"magmom": -0.0}, "label": "F", "xyz": [3.8202286537722965, 2.113287826592955, 6.371764318200139]}, {"species": [{"element": "F", "occu": 1}], "abc": [0.08873853, 0.97707194, 0.75], "properties": {"magmom": 0.0}, "label": "F", "xyz": [0.38587008077219637, 6.173465637608034, 5.0983409025]}, {"species": [{"element": "F", "occu": 1}], "abc": [0.62146214, 0.83446922, 0.56267091], "properties": {"magmom": -0.0}, "label": "F", "xyz": [2.702362166227703, 5.2724542015929545, 3.8249174867998623]}, {"species": [{"element": "F", "occu": 1}], "abc": [0.91126147, 0.02292806, 0.25], "properties": {"magmom": 0.0}, "label": "F", "xyz": [3.9625237992278035, 0.14486711239196498, 1.6994469675000001]}, {"species": [{"element": "F", "occu": 1}], "abc": [0.41126147, 0.47707194, 0.75], "properties": {"magmom": 0.0}, "label": "F", "xyz": [1.7883268592278037, 3.014299262608035, 5.0983409025]}, {"species": [{"element": "F", "occu": 1}], "abc": [0.37853786, 0.16553078000000002, 0.43732909000000003], "properties": {"magmom": -0.0}, "label": "F", "xyz": [1.6460317137722966, 1.045878548407045, 2.9728703832001386]}, {"species": [{"element": "F", "occu": 1}], "abc": [0.12146214, 0.66553078, 0.43732909000000003], "properties": {"magmom": -0.0}, "label": "F", "xyz": [0.5281652262277031, 4.205044923407045, 2.9728703832001386]}, {"species": [{"element": "F", "occu": 1}], "abc": [0.62146214, 0.83446922, 0.93732909], "properties": {"magmom": -0.0}, "label": "F", "xyz": [2.702362166227703, 5.2724542015929545, 6.371764318200139]}, {"species": [{"element": "F", "occu": 1}], "abc": [0.37853786, 0.16553078000000002, 0.06267091], "properties": {"magmom": -0.0}, "label": "F", "xyz": [1.6460317137722966, 1.045878548407045, 0.42602355179986173]}, {"species": [{"element": "F", "occu": 1}], "abc": [0.58873853, 0.52292806, 0.25], "properties": {"magmom": 0.0}, "label": "F", "xyz": [2.560067020772196, 3.304033487391965, 1.6994469675000001]}, {"species": [{"element": "F", "occu": 1}], "abc": [0.12146214, 0.66553078, 0.06267091], "properties": {"magmom": -0.0}, "label": "F", "xyz": [0.5281652262277031, 4.205044923407045, 0.42602355179986173]}, {"species": [{"element": "F", "occu": 1}], "abc": [0.87853786, 0.33446922, 0.56267091], "properties": {"magmom": -0.0}, "label": "F", "xyz": [3.8202286537722965, 2.113287826592955, 3.8249174867998623]}]}, "task_ids": null, "uncorrected_energy_per_atom": null, "energy_per_atom": -15.0588906025, "formation_energy_per_atom": -4.4940336612500005, "energy_above_hull": 0.0, "is_stable": true, "equilibrium_reaction_energy_per_atom": null, "decomposes_to": null, "xas": null, "grain_boundaries": null, "band_gap": 7.7482, "cbm": null, "vbm": null, "efermi": -0.59322159, "is_gap_direct": null, "is_metal": null, "es_source_calc_id": null, "bandstructure": null, "dos": null, "dos_energy_up": null, "dos_energy_down": null, "is_magnetic": null, "ordering": null, "total_magnetization": 0.0, "total_magnetization_normalized_vol": null, "total_magnetization_normalized_formula_units": null, "num_magnetic_sites": null, "num_unique_magnetic_sites": null, "types_of_magnetic_species": null, "bulk_modulus": null, "shear_modulus": null, "universal_anisotropy": null, "homogeneous_poisson": null, "e_total": null, "e_ionic": null, "e_electronic": null, "n": null, "e_ij_max": null, "weighted_surface_energy_EV_PER_ANG2": null, "weighted_surface_energy": null, "weighted_work_function": null, "surface_anisotropy": null, "shape_factor": null, "has_reconstructed": null, "possible_species": null, "has_props": null, "theoretical": null, "database_IDs": null, "fields_not_requested": ["builder_meta", "nsites", "elements", "nelements", "composition", "composition_reduced", "chemsys", "symmetry", "property_name", "deprecated", "deprecation_reasons", "last_updated", "origins", "warnings", "task_ids", "uncorrected_energy_per_atom", "equilibrium_reaction_energy_per_atom", "decomposes_to", "xas", "grain_boundaries", "cbm", "vbm", "is_gap_direct", "is_metal", "es_source_calc_id", "bandstructure", "dos", "dos_energy_up", "dos_energy_down", "is_magnetic", "ordering", "total_magnetization_normalized_vol", "total_magnetization_normalized_formula_units", "num_magnetic_sites", "num_unique_magnetic_sites", "types_of_magnetic_species", "bulk_modulus", "shear_modulus", "universal_anisotropy", "homogeneous_poisson", "e_total", "e_ionic", "e_electronic", "n", "e_ij_max", "weighted_surface_energy_EV_PER_ANG2", "weighted_surface_energy", "weighted_work_function", "surface_anisotropy", "shape_factor", "has_reconstructed", "possible_species", "has_props", "theoretical", "database_IDs"]}