{
  "builder_meta": null,
  "nsites": null,
  "elements": null,
  "nelements": null,
  "composition": null,
  "composition_reduced": null,
  "formula_pretty": "HoFe3",
  "formula_anonymous": "AB3",
  "chemsys": null,
  "volume": 185.7703421569162,
  "density": 8.91538949231219,
  "density_atomic": 15.480861846409683,
  "symmetry": null,
  "property_name": null,
  "material_id": "mp-30634",
  "deprecated": null,
  "deprecation_reasons": null,
  "last_updated": null,
  "origins": null,
  "warnings": null,
  "structure": {
    "@module": "pymatgen.core.structure",
    "@class": "Structure",
    "charge": 0,
    "lattice": {
      "matrix": [
        [8.21771825, -2.57592187, -0.0223305],
        [8.21771702, 2.57591744, -0.022330720000000002],
        [7.42220659, -1.8900000000000001e-6, 4.36779309]
      ],
      "pbc": [true, true, true],
      "a": 8.612012852287068,
      "b": 8.612010354124614,
      "c": 8.61201295526747,
      "alpha": 34.80800068661863,
      "beta": 34.807997759953324,
      "gamma": 34.808044188058616,
      "volume": 185.7703421569162
    },
    "properties": {},
    "sites": [
      {
        "species": [{ "element": "Ho", "occu": 1 }],
        "abc": [-0.0, -0.0, 0.0],
        "properties": { "magmom": -0.772 },
        "label": "Ho",
        "xyz": [0.0, 0.0, 0.0]
      },
      {
        "species": [{ "element": "Ho", "occu": 1 }],
        "abc": [0.14219794, 0.14219705, 0.14219723],
        "properties": { "magmom": -0.98 },
        "label": "Ho",
        "xyz": [3.3924949422149417, -3.191256160541325e-6, 0.6147373650035948]
      },
      {
        "species": [{ "element": "Ho", "occu": 1 }],
        "abc": [0.85780206, 0.8578029500000001, 0.85780277],
        "properties": { "magmom": -0.98 },
        "label": "Ho",
        "xyz": [20.465146917785063, -3.1287438392918538e-6, 3.7083945049964058]
      },
      {
        "species": [{ "element": "Fe", "occu": 1 }],
        "abc": [0.5, 0.5, 0.5],
        "properties": { "magmom": 2.491 },
        "label": "Fe",
        "xyz": [11.92882093, -3.160000000083123e-6, 2.161565935]
      },
      {
        "species": [{ "element": "Fe", "occu": 1 }],
        "abc": [0.33283558, 0.33283492000000003, 0.33283385],
        "properties": { "magmom": 2.667 },
        "label": "Fe",
        "xyz": [7.9406538017947454, -3.803623106337769e-6, 1.4388845618241641]
      },
      {
        "species": [{ "element": "Fe", "occu": 1 }],
        "abc": [0.66716442, 0.66716508, 0.66716615],
        "properties": { "magmom": 2.667 },
        "label": "Fe",
        "xyz": [15.916988058205256, -2.5163768940505217e-6, 2.8842473081758357]
      },
      {
        "species": [{ "element": "Fe", "occu": 1 }],
        "abc": [0.08221581, 0.57982722, 0.57982756],
        "properties": { "magmom": 2.635 },
        "label": "Fe",
        "xyz": [9.744082313624439, 1.2818044492718637, 2.517782930516157]
      },
      {
        "species": [{ "element": "Fe", "occu": 1 }],
        "abc": [0.57982761, 0.57982742, 0.08221513],
        "properties": { "magmom": 2.635 },
        "label": "Fe",
        "xyz": [10.139935270231279, -3.2134472219819997e-6, 0.3332028724980043]
      },
      {
        "species": [{ "element": "Fe", "occu": 1 }],
        "abc": [0.5798269500000001, 0.08221546, 0.57982703],
        "properties": { "magmom": 2.635 },
        "label": "Fe",
        "xyz": [9.744073896932095, -1.281809779941861, 2.5177807389053166]
      },
      {
        "species": [{ "element": "Fe", "occu": 1 }],
        "abc": [0.42017305, 0.91778454, 0.42017297000000003],
        "properties": { "magmom": 2.635 },
        "label": "Fe",
        "xyz": [14.113567963067906, 1.2818034599418606, 1.805351131094684]
      },
      {
        "species": [{ "element": "Fe", "occu": 1 }],
        "abc": [0.91778419, 0.42017278, 0.42017244000000004],
        "properties": { "magmom": 2.635 },
        "label": "Fe",
        "xyz": [14.113559546375564, -1.2818107692718639, 1.8053489394838431]
      },
      {
        "species": [{ "element": "Fe", "occu": 1 }],
        "abc": [0.42017239, 0.42017258, 0.91778487],
        "properties": { "magmom": 2.635 },
        "label": "Fe",
        "xyz": [13.717706589768722, -3.10655277840629e-6, 3.989928997501995]
      }
    ]
  },
  "task_ids": null,
  "uncorrected_energy_per_atom": null,
  "energy_per_atom": -7.582393878333335,
  "formation_energy_per_atom": -0.08045810458333301,
  "energy_above_hull": 0.0,
  "is_stable": true,
  "equilibrium_reaction_energy_per_atom": null,
  "decomposes_to": null,
  "xas": null,
  "grain_boundaries": null,
  "band_gap": 0.0,
  "cbm": null,
  "vbm": null,
  "efermi": 4.45974506,
  "is_gap_direct": null,
  "is_metal": null,
  "es_source_calc_id": null,
  "bandstructure": null,
  "dos": null,
  "dos_energy_up": null,
  "dos_energy_down": null,
  "is_magnetic": null,
  "ordering": null,
  "total_magnetization": 19.7631299,
  "total_magnetization_normalized_vol": null,
  "total_magnetization_normalized_formula_units": null,
  "num_magnetic_sites": null,
  "num_unique_magnetic_sites": null,
  "types_of_magnetic_species": null,
  "bulk_modulus": null,
  "shear_modulus": null,
  "universal_anisotropy": null,
  "homogeneous_poisson": null,
  "e_total": null,
  "e_ionic": null,
  "e_electronic": null,
  "n": null,
  "e_ij_max": null,
  "weighted_surface_energy_EV_PER_ANG2": null,
  "weighted_surface_energy": null,
  "weighted_work_function": null,
  "surface_anisotropy": null,
  "shape_factor": null,
  "has_reconstructed": null,
  "possible_species": null,
  "has_props": null,
  "theoretical": null,
  "database_IDs": null,
  "fields_not_requested": [
    "builder_meta",
    "nsites",
    "elements",
    "nelements",
    "composition",
    "composition_reduced",
    "chemsys",
    "symmetry",
    "property_name",
    "deprecated",
    "deprecation_reasons",
    "last_updated",
    "origins",
    "warnings",
    "task_ids",
    "uncorrected_energy_per_atom",
    "equilibrium_reaction_energy_per_atom",
    "decomposes_to",
    "xas",
    "grain_boundaries",
    "cbm",
    "vbm",
    "is_gap_direct",
    "is_metal",
    "es_source_calc_id",
    "bandstructure",
    "dos",
    "dos_energy_up",
    "dos_energy_down",
    "is_magnetic",
    "ordering",
    "total_magnetization_normalized_vol",
    "total_magnetization_normalized_formula_units",
    "num_magnetic_sites",
    "num_unique_magnetic_sites",
    "types_of_magnetic_species",
    "bulk_modulus",
    "shear_modulus",
    "universal_anisotropy",
    "homogeneous_poisson",
    "e_total",
    "e_ionic",
    "e_electronic",
    "n",
    "e_ij_max",
    "weighted_surface_energy_EV_PER_ANG2",
    "weighted_surface_energy",
    "weighted_work_function",
    "surface_anisotropy",
    "shape_factor",
    "has_reconstructed",
    "possible_species",
    "has_props",
    "theoretical",
    "database_IDs"
  ]
}
