{
  "builder_meta": null,
  "nsites": null,
  "elements": null,
  "nelements": null,
  "composition": null,
  "composition_reduced": null,
  "formula_pretty": "HoGa3",
  "formula_anonymous": "AB3",
  "chemsys": null,
  "volume": 150.36486830941902,
  "density": 8.262655268252997,
  "density_atomic": 18.795608538677378,
  "symmetry": null,
  "property_name": null,
  "material_id": "mp-982557",
  "deprecated": null,
  "deprecation_reasons": null,
  "last_updated": null,
  "origins": null,
  "warnings": null,
  "structure": {
    "@module": "pymatgen.core.structure",
    "@class": "Structure",
    "charge": 0,
    "lattice": {
      "matrix": [
        [6.22579264, 1e-8, -0.0],
        [-3.1128953, 5.3916953, -0.0],
        [-0.0, 0.0, 4.47946745]
      ],
      "pbc": [true, true, true],
      "a": 6.22579264,
      "b": 6.225792749265284,
      "c": 4.47946745,
      "alpha": 90.0,
      "beta": 90.0,
      "gamma": 119.99998848820063,
      "volume": 150.36486830941902
    },
    "properties": {},
    "sites": [
      {
        "species": [{ "element": "Ho", "occu": 1 }],
        "abc": [0.333333, 0.666666, 0.750000999999999],
        "properties": { "magmom": -0.0 },
        "label": "Ho",
        "xyz": [6.799993204076316e-7, 3.5944599422031303, 3.3596050669674455]
      },
      {
        "species": [{ "element": "Ho", "occu": 1 }],
        "abc": [0.666667999999999, 0.333333999999999, 0.249999],
        "properties": { "magmom": -0.0 },
        "label": "Ho",
        "xyz": [3.112902885793317, 1.7972353677968749, 1.1198623830325498]
      },
      {
        "species": [{ "element": "Ga", "occu": 1 }],
        "abc": [0.14602411, 0.29204823, 0.249999],
        "properties": { "magmom": 0.0 },
        "label": "Ga",
        "xyz": [2.667602314598838e-7, 1.5746350705245602, 1.1198623830325498]
      },
      {
        "species": [{ "element": "Ga", "occu": 1 }],
        "abc": [0.70795377, 0.85397689, 0.249999],
        "properties": { "magmom": 0.0 },
        "label": "Ga",
        "xyz": [1.7492327235366356, 4.604383191201155, 1.1198623830325498]
      },
      {
        "species": [{ "element": "Ga", "occu": 1 }],
        "abc": [0.14602411, 0.85397689, 0.249999],
        "properties": { "magmom": 0.0 },
        "label": "Ga",
        "xyz": [-1.7492248178890666, 4.604383185581858, 1.1198623830325498]
      },
      {
        "species": [{ "element": "Ga", "occu": 1 }],
        "abc": [0.85397689, 0.70795177, 0.750000999999999],
        "properties": { "magmom": 0.0 },
        "label": "Ga",
        "xyz": [3.112903299032409, 3.81706023947545, 3.3596050669674455]
      },
      {
        "species": [{ "element": "Ga", "occu": 1 }],
        "abc": [0.29204823, 0.14602311, 0.750000999999999],
        "properties": { "magmom": 0.0 },
        "label": "Ga",
        "xyz": [1.3636770680486443, 0.7873121187988654, 3.3596050669674455]
      },
      {
        "species": [{ "element": "Ga", "occu": 1 }],
        "abc": [0.85397489, 0.14602311, 0.750000999999999],
        "properties": { "magmom": 0.0 },
        "label": "Ga",
        "xyz": [4.862115932096426, 0.787312124418132, 3.3596050669674455]
      }
    ]
  },
  "task_ids": null,
  "uncorrected_energy_per_atom": null,
  "energy_per_atom": -3.97992153625,
  "formation_energy_per_atom": -0.559429653124998,
  "energy_above_hull": 0.0,
  "is_stable": true,
  "equilibrium_reaction_energy_per_atom": null,
  "decomposes_to": null,
  "xas": null,
  "grain_boundaries": null,
  "band_gap": 0.0,
  "cbm": null,
  "vbm": null,
  "efermi": 3.97964582,
  "is_gap_direct": null,
  "is_metal": null,
  "es_source_calc_id": null,
  "bandstructure": null,
  "dos": null,
  "dos_energy_up": null,
  "dos_energy_down": null,
  "is_magnetic": null,
  "ordering": null,
  "total_magnetization": 0.0,
  "total_magnetization_normalized_vol": null,
  "total_magnetization_normalized_formula_units": null,
  "num_magnetic_sites": null,
  "num_unique_magnetic_sites": null,
  "types_of_magnetic_species": null,
  "bulk_modulus": null,
  "shear_modulus": null,
  "universal_anisotropy": null,
  "homogeneous_poisson": null,
  "e_total": null,
  "e_ionic": null,
  "e_electronic": null,
  "n": null,
  "e_ij_max": null,
  "weighted_surface_energy_EV_PER_ANG2": null,
  "weighted_surface_energy": null,
  "weighted_work_function": null,
  "surface_anisotropy": null,
  "shape_factor": null,
  "has_reconstructed": null,
  "possible_species": null,
  "has_props": null,
  "theoretical": null,
  "database_IDs": null,
  "fields_not_requested": [
    "builder_meta",
    "nsites",
    "elements",
    "nelements",
    "composition",
    "composition_reduced",
    "chemsys",
    "symmetry",
    "property_name",
    "deprecated",
    "deprecation_reasons",
    "last_updated",
    "origins",
    "warnings",
    "task_ids",
    "uncorrected_energy_per_atom",
    "equilibrium_reaction_energy_per_atom",
    "decomposes_to",
    "xas",
    "grain_boundaries",
    "cbm",
    "vbm",
    "is_gap_direct",
    "is_metal",
    "es_source_calc_id",
    "bandstructure",
    "dos",
    "dos_energy_up",
    "dos_energy_down",
    "is_magnetic",
    "ordering",
    "total_magnetization_normalized_vol",
    "total_magnetization_normalized_formula_units",
    "num_magnetic_sites",
    "num_unique_magnetic_sites",
    "types_of_magnetic_species",
    "bulk_modulus",
    "shear_modulus",
    "universal_anisotropy",
    "homogeneous_poisson",
    "e_total",
    "e_ionic",
    "e_electronic",
    "n",
    "e_ij_max",
    "weighted_surface_energy_EV_PER_ANG2",
    "weighted_surface_energy",
    "weighted_work_function",
    "surface_anisotropy",
    "shape_factor",
    "has_reconstructed",
    "possible_species",
    "has_props",
    "theoretical",
    "database_IDs"
  ]
}
