{"builder_meta": null, "nsites": null, "elements": null, "nelements": null, "composition": null, "composition_reduced": null, "formula_pretty": "HoGa", "formula_anonymous": "AB", "chemsys": null, "volume": 92.99500398126168, "density": 8.380041685807232, "density_atomic": 23.24875099531542, "symmetry": null, "property_name": null, "material_id": "mp-1018073", "deprecated": null, "deprecation_reasons": null, "last_updated": null, "origins": null, "warnings": null, "structure": {"@module": "pymatgen.core.structure", "@class": "Structure", "charge": 0, "lattice": {"matrix": [[-0.0, 0.0, 4.02480726], [4.30103656, -0.0, 0.0], [-2.15051929, 5.3720666900000005, -0.0]], "pbc": [true, true, true], "a": 4.02480726, "b": 4.30103656, "c": 5.786521730579578, "alpha": 111.81697036025476, "beta": 90.0, "gamma": 90.0, "volume": 92.9950039812617}, "properties": {}, "sites": [{"species": [{"element": "Ho", "occu": 1}], "abc": [0.25, 0.13885026, 0.27769953], "properties": {"magmom": 0.146}, "label": "Ho", "xyz": [1.8485365718134972e-06, 1.491820394941656, 1.006201815]}, {"species": [{"element": "Ho", "occu": 1}], "abc": [0.75, 0.86114974, 0.72230047], "properties": {"magmom": 0.146}, "label": "Ho", "xyz": [2.150515421463428, 3.8802462950583445, 3.0186054450000004]}, {"species": [{"element": "Ga", "occu": 1}], "abc": [0.25, 0.42453776, 0.84907452], "properties": {"magmom": -0.015}, "label": "Ga", "xyz": [1.2929530146532642e-06, 4.56128494621974, 1.006201815]}, {"species": [{"element": "Ga", "occu": 1}], "abc": [0.75, 0.57546224, 0.15092548], "properties": {"magmom": -0.015}, "label": "Ga", "xyz": [2.150515977046985, 0.8107817437802612, 3.0186054450000004]}]}, "task_ids": null, "uncorrected_energy_per_atom": null, "energy_per_atom": -4.433604997500002, "formation_energy_per_atom": -0.6207172537499981, "energy_above_hull": 0.0, "is_stable": true, "equilibrium_reaction_energy_per_atom": null, "decomposes_to": null, "xas": null, "grain_boundaries": null, "band_gap": 0.0, "cbm": null, "vbm": null, "efermi": 3.11527346, "is_gap_direct": null, "is_metal": null, "es_source_calc_id": null, "bandstructure": null, "dos": null, "dos_energy_up": null, "dos_energy_down": null, "is_magnetic": null, "ordering": null, "total_magnetization": 0.4429043, "total_magnetization_normalized_vol": null, "total_magnetization_normalized_formula_units": null, "num_magnetic_sites": null, "num_unique_magnetic_sites": null, "types_of_magnetic_species": null, "bulk_modulus": null, "shear_modulus": null, "universal_anisotropy": null, "homogeneous_poisson": null, "e_total": null, "e_ionic": null, "e_electronic": null, "n": null, "e_ij_max": null, "weighted_surface_energy_EV_PER_ANG2": null, "weighted_surface_energy": null, "weighted_work_function": null, "surface_anisotropy": null, "shape_factor": null, "has_reconstructed": null, "possible_species": null, "has_props": null, "theoretical": null, "database_IDs": null, "fields_not_requested": ["builder_meta", "nsites", "elements", "nelements", "composition", "composition_reduced", "chemsys", "symmetry", "property_name", "deprecated", "deprecation_reasons", "last_updated", "origins", "warnings", "task_ids", "uncorrected_energy_per_atom", "equilibrium_reaction_energy_per_atom", "decomposes_to", "xas", "grain_boundaries", "cbm", "vbm", "is_gap_direct", "is_metal", "es_source_calc_id", "bandstructure", "dos", "dos_energy_up", "dos_energy_down", "is_magnetic", "ordering", "total_magnetization_normalized_vol", "total_magnetization_normalized_formula_units", "num_magnetic_sites", "num_unique_magnetic_sites", "types_of_magnetic_species", "bulk_modulus", "shear_modulus", "universal_anisotropy", "homogeneous_poisson", "e_total", "e_ionic", "e_electronic", "n", "e_ij_max", "weighted_surface_energy_EV_PER_ANG2", "weighted_surface_energy", "weighted_work_function", "surface_anisotropy", "shape_factor", "has_reconstructed", "possible_species", "has_props", "theoretical", "database_IDs"]}