{"builder_meta": null, "nsites": null, "elements": null, "nelements": null, "composition": null, "composition_reduced": null, "formula_pretty": "HoGa6", "formula_anonymous": "AB6", "chemsys": null, "volume": 261.2316172896438, "density": 7.41518076348522, "density_atomic": 18.659401234974556, "symmetry": null, "property_name": null, "material_id": "mp-1103872", "deprecated": null, "deprecation_reasons": null, "last_updated": null, "origins": null, "warnings": null, "structure": {"@module": "pymatgen.core.structure", "@class": "Structure", "charge": 0, "lattice": {"matrix": [[5.90347074, -0.0, 0.0], [0.0, 5.90347074, 0.0], [0.0, -0.0, 7.49567778]], "pbc": [true, true, true], "a": 5.90347074, "b": 5.90347074, "c": 7.49567778, "alpha": 90.0, "beta": 90.0, "gamma": 90.0, "volume": 261.2316172896438}, "properties": {}, "sites": [{"species": [{"element": "Ho", "occu": 1}], "abc": [0.5, 0.0, -0.0], "properties": {"magmom": 0.0}, "label": "Ho", "xyz": [2.95173537, 0.0, 0.0]}, {"species": [{"element": "Ho", "occu": 1}], "abc": [0.0, 0.5, -0.0], "properties": {"magmom": 0.0}, "label": "Ho", "xyz": [0.0, 2.95173537, 0.0]}, {"species": [{"element": "Ga", "occu": 1}], "abc": [0.5, 0.5, 0.16076219], "properties": {"magmom": 0.0}, "label": "Ga", "xyz": [2.95173537, 2.95173537, 1.2050215754471383]}, {"species": [{"element": "Ga", "occu": 1}], "abc": [0.0, -0.0, 0.16076219], "properties": {"magmom": 0.0}, "label": "Ga", "xyz": [0.0, 0.0, 1.2050215754471383]}, {"species": [{"element": "Ga", "occu": 1}], "abc": [0.0, 0.0, 0.83923781], "properties": {"magmom": 0.0}, "label": "Ga", "xyz": [0.0, 0.0, 6.290656204552862]}, {"species": [{"element": "Ga", "occu": 1}], "abc": [0.5, 0.5, 0.83923781], "properties": {"magmom": 0.0}, "label": "Ga", "xyz": [2.95173537, 2.95173537, 6.290656204552862]}, {"species": [{"element": "Ga", "occu": 1}], "abc": [0.81564872, 0.68435128, 0.34961787], "properties": {"magmom": -0.0}, "label": "Ga", "xyz": [4.815158352638453, 4.040047757361547, 2.620622899649929]}, {"species": [{"element": "Ga", "occu": 1}], "abc": [0.31564872, 0.81564872, 0.34961787], "properties": {"magmom": -0.0}, "label": "Ga", "xyz": [1.863422982638453, 4.815158352638453, 2.620622899649929]}, {"species": [{"element": "Ga", "occu": 1}], "abc": [0.68435128, 0.18435128, 0.34961787], "properties": {"magmom": -0.0}, "label": "Ga", "xyz": [4.040047757361547, 1.0883123873615472, 2.620622899649929]}, {"species": [{"element": "Ga", "occu": 1}], "abc": [0.18435128, 0.31564872, 0.34961787], "properties": {"magmom": -0.0}, "label": "Ga", "xyz": [1.0883123873615472, 1.863422982638453, 2.620622899649929]}, {"species": [{"element": "Ga", "occu": 1}], "abc": [0.68435128, 0.81564872, 0.65038213], "properties": {"magmom": -0.0}, "label": "Ga", "xyz": [4.040047757361547, 4.815158352638453, 4.8750548803500715]}, {"species": [{"element": "Ga", "occu": 1}], "abc": [0.18435128, 0.68435128, 0.65038213], "properties": {"magmom": -0.0}, "label": "Ga", "xyz": [1.0883123873615472, 4.040047757361547, 4.8750548803500715]}, {"species": [{"element": "Ga", "occu": 1}], "abc": [0.81564872, 0.31564872, 0.65038213], "properties": {"magmom": -0.0}, "label": "Ga", "xyz": [4.815158352638453, 1.863422982638453, 4.8750548803500715]}, {"species": [{"element": "Ga", "occu": 1}], "abc": [0.31564872, 0.18435128, 0.65038213], "properties": {"magmom": -0.0}, "label": "Ga", "xyz": [1.863422982638453, 1.0883123873615472, 4.8750548803500715]}]}, "task_ids": null, "uncorrected_energy_per_atom": null, "energy_per_atom": -3.543749233571428, "formation_energy_per_atom": -0.291427004999999, "energy_above_hull": 0.028247082500000003, "is_stable": false, "equilibrium_reaction_energy_per_atom": null, "decomposes_to": null, "xas": null, "grain_boundaries": null, "band_gap": 0.0, "cbm": null, "vbm": null, "efermi": 3.7145730500000003, "is_gap_direct": null, "is_metal": null, "es_source_calc_id": null, "bandstructure": null, "dos": null, "dos_energy_up": null, "dos_energy_down": null, "is_magnetic": null, "ordering": null, "total_magnetization": 1e-07, "total_magnetization_normalized_vol": null, "total_magnetization_normalized_formula_units": null, "num_magnetic_sites": null, "num_unique_magnetic_sites": null, "types_of_magnetic_species": null, "bulk_modulus": null, "shear_modulus": null, "universal_anisotropy": null, "homogeneous_poisson": null, "e_total": null, "e_ionic": null, "e_electronic": null, "n": null, "e_ij_max": null, "weighted_surface_energy_EV_PER_ANG2": null, "weighted_surface_energy": null, "weighted_work_function": null, "surface_anisotropy": null, "shape_factor": null, "has_reconstructed": null, "possible_species": null, "has_props": null, "theoretical": null, "database_IDs": null, "fields_not_requested": ["builder_meta", "nsites", "elements", "nelements", "composition", "composition_reduced", "chemsys", "symmetry", "property_name", "deprecated", "deprecation_reasons", "last_updated", "origins", "warnings", "task_ids", "uncorrected_energy_per_atom", "equilibrium_reaction_energy_per_atom", "decomposes_to", "xas", "grain_boundaries", "cbm", "vbm", "is_gap_direct", "is_metal", "es_source_calc_id", "bandstructure", "dos", "dos_energy_up", "dos_energy_down", "is_magnetic", "ordering", "total_magnetization_normalized_vol", "total_magnetization_normalized_formula_units", "num_magnetic_sites", "num_unique_magnetic_sites", "types_of_magnetic_species", "bulk_modulus", "shear_modulus", "universal_anisotropy", "homogeneous_poisson", "e_total", "e_ionic", "e_electronic", "n", "e_ij_max", "weighted_surface_energy_EV_PER_ANG2", "weighted_surface_energy", "weighted_work_function", "surface_anisotropy", "shape_factor", "has_reconstructed", "possible_species", "has_props", "theoretical", "database_IDs"]}