{
  "builder_meta": null,
  "nsites": null,
  "elements": null,
  "nelements": null,
  "composition": null,
  "composition_reduced": null,
  "formula_pretty": "HoGe3",
  "formula_anonymous": "AB3",
  "chemsys": null,
  "volume": 162.05152775327335,
  "density": 7.846120574540153,
  "density_atomic": 20.25644096915917,
  "symmetry": null,
  "property_name": null,
  "material_id": "mp-1025422",
  "deprecated": null,
  "deprecation_reasons": null,
  "last_updated": null,
  "origins": null,
  "warnings": null,
  "structure": {
    "@module": "pymatgen.core.structure",
    "@class": "Structure",
    "charge": 0,
    "lattice": {
      "matrix": [
        [-0.0, 0.0, 3.8807538900000003],
        [4.00090712, -0.0, 0.0],
        [-2.00045407, 10.4370691, -0.0]
      ],
      "pbc": [true, true, true],
      "a": 3.8807538900000003,
      "b": 4.00090712,
      "c": 10.627051702346911,
      "alpha": 100.8501884294684,
      "beta": 90.0,
      "gamma": 90.0,
      "volume": 162.05152775327338
    },
    "properties": {},
    "sites": [
      {
        "species": [{ "element": "Ho", "occu": 1 }],
        "abc": [0.25, 0.91652881, 0.83305762],
        "properties": { "magmom": 0.0 },
        "label": "Ho",
        "xyz": [2.0004531351406136, 8.694679944221543, 0.9701884725000001]
      },
      {
        "species": [{ "element": "Ho", "occu": 1 }],
        "abc": [0.75, 0.08347119, 0.16694238],
        "properties": { "magmom": 0.0 },
        "label": "Ho",
        "xyz": [-8.51406138369093e-8, 1.742389155778458, 2.9105654175]
      },
      {
        "species": [{ "element": "Ge", "occu": 1 }],
        "abc": [0.25, 0.19179747, 0.38359393],
        "properties": { "magmom": -0.0 },
        "label": "Ge",
        "xyz": [1.8248251912877933e-6, 4.003596353750564, 0.9701884725000001]
      },
      {
        "species": [{ "element": "Ge", "occu": 1 }],
        "abc": [0.75, 0.80820253, 0.61640607],
        "properties": { "magmom": -0.0 },
        "label": "Ge",
        "xyz": [2.0004512251748086, 6.433472746249437, 2.9105654175]
      },
      {
        "species": [{ "element": "Ge", "occu": 1 }],
        "abc": [0.25, 0.31021069, 0.62042138],
        "properties": { "magmom": 0.0 },
        "label": "Ge",
        "xyz": [-3.164149038337172e-7, 6.475380814177359, 0.9701884725000001]
      },
      {
        "species": [{ "element": "Ge", "occu": 1 }],
        "abc": [0.75, 0.68978931, 0.37957862000000003],
        "properties": { "magmom": 0.0 },
        "label": "Ge",
        "xyz": [2.0004533664149036, 3.9616882858226425, 2.9105654175]
      },
      {
        "species": [{ "element": "Ge", "occu": 1 }],
        "abc": [0.25, 0.53850118, 0.07700337],
        "properties": { "magmom": -0.0 },
        "label": "Ge",
        "xyz": [2.0004515002701857, 0.803689493622867, 0.9701884725000001]
      },
      {
        "species": [{ "element": "Ge", "occu": 1 }],
        "abc": [0.75, 0.46149882000000003, 0.92299663],
        "properties": { "magmom": -0.0 },
        "label": "Ge",
        "xyz": [1.5497298144762084e-6, 9.633379606377133, 2.9105654175]
      }
    ]
  },
  "task_ids": null,
  "uncorrected_energy_per_atom": null,
  "energy_per_atom": -5.0607158975,
  "formation_energy_per_atom": -0.44402513999999804,
  "energy_above_hull": 0.015238967916667002,
  "is_stable": false,
  "equilibrium_reaction_energy_per_atom": null,
  "decomposes_to": null,
  "xas": null,
  "grain_boundaries": null,
  "band_gap": 0.0,
  "cbm": null,
  "vbm": null,
  "efermi": 5.55393301,
  "is_gap_direct": null,
  "is_metal": null,
  "es_source_calc_id": null,
  "bandstructure": null,
  "dos": null,
  "dos_energy_up": null,
  "dos_energy_down": null,
  "is_magnetic": null,
  "ordering": null,
  "total_magnetization": 0.0,
  "total_magnetization_normalized_vol": null,
  "total_magnetization_normalized_formula_units": null,
  "num_magnetic_sites": null,
  "num_unique_magnetic_sites": null,
  "types_of_magnetic_species": null,
  "bulk_modulus": null,
  "shear_modulus": null,
  "universal_anisotropy": null,
  "homogeneous_poisson": null,
  "e_total": null,
  "e_ionic": null,
  "e_electronic": null,
  "n": null,
  "e_ij_max": null,
  "weighted_surface_energy_EV_PER_ANG2": null,
  "weighted_surface_energy": null,
  "weighted_work_function": null,
  "surface_anisotropy": null,
  "shape_factor": null,
  "has_reconstructed": null,
  "possible_species": null,
  "has_props": null,
  "theoretical": null,
  "database_IDs": null,
  "fields_not_requested": [
    "builder_meta",
    "nsites",
    "elements",
    "nelements",
    "composition",
    "composition_reduced",
    "chemsys",
    "symmetry",
    "property_name",
    "deprecated",
    "deprecation_reasons",
    "last_updated",
    "origins",
    "warnings",
    "task_ids",
    "uncorrected_energy_per_atom",
    "equilibrium_reaction_energy_per_atom",
    "decomposes_to",
    "xas",
    "grain_boundaries",
    "cbm",
    "vbm",
    "is_gap_direct",
    "is_metal",
    "es_source_calc_id",
    "bandstructure",
    "dos",
    "dos_energy_up",
    "dos_energy_down",
    "is_magnetic",
    "ordering",
    "total_magnetization_normalized_vol",
    "total_magnetization_normalized_formula_units",
    "num_magnetic_sites",
    "num_unique_magnetic_sites",
    "types_of_magnetic_species",
    "bulk_modulus",
    "shear_modulus",
    "universal_anisotropy",
    "homogeneous_poisson",
    "e_total",
    "e_ionic",
    "e_electronic",
    "n",
    "e_ij_max",
    "weighted_surface_energy_EV_PER_ANG2",
    "weighted_surface_energy",
    "weighted_work_function",
    "surface_anisotropy",
    "shape_factor",
    "has_reconstructed",
    "possible_species",
    "has_props",
    "theoretical",
    "database_IDs"
  ]
}
