{"builder_meta": null, "nsites": null, "elements": null, "nelements": null, "composition": null, "composition_reduced": null, "formula_pretty": "HoGe", "formula_anonymous": "AB", "chemsys": null, "volume": 88.47277436798447, "density": 8.917880110413233, "density_atomic": 22.118193591996118, "symmetry": null, "property_name": null, "material_id": "mp-16342", "deprecated": null, "deprecation_reasons": null, "last_updated": null, "origins": null, "warnings": null, "structure": {"@module": "pymatgen.core.structure", "@class": "Structure", "charge": 0, "lattice": {"matrix": [[3.92761038, 0.0, -0.0], [-0.0, 3.9359499, -1.57200784], [0.0, 0.0033559700000000002, 5.7217642600000005]], "pbc": [true, true, true], "a": 3.92761038, "b": 4.238267365838483, "c": 5.721765244183651, "alpha": 111.73802963319497, "beta": 90.0, "gamma": 90.0, "volume": 88.47277436798448}, "properties": {}, "sites": [{"species": [{"element": "Ho", "occu": 1}], "abc": [0.25, 0.86174688, 0.72349277], "properties": {"magmom": -0.0}, "label": "Ho", "xyz": [0.981902595, 3.3942205661926486, 2.7849822222988614]}, {"species": [{"element": "Ho", "occu": 1}], "abc": [0.75, 0.13825312, 0.27650723], "properties": {"magmom": -0.0}, "label": "Ho", "xyz": [2.9457077849999997, 0.5450853038073511, 1.364774197701139]}, {"species": [{"element": "Ge", "occu": 1}], "abc": [0.25, 0.5855062400000001, 0.17101248], "properties": {"magmom": 0.0}, "label": "Ge", "xyz": [0.981902595, 2.305097139529882, 0.058072696429043225]}, {"species": [{"element": "Ge", "occu": 1}], "abc": [0.75, 0.41449376, 0.82898752], "properties": {"magmom": 0.0}, "label": "Ge", "xyz": [2.9457077849999997, 1.6342087304701183, 4.091683723570957]}]}, "task_ids": null, "uncorrected_energy_per_atom": null, "energy_per_atom": -5.4647261275, "formation_energy_per_atom": -0.8543724674999971, "energy_above_hull": 0.0, "is_stable": true, "equilibrium_reaction_energy_per_atom": null, "decomposes_to": null, "xas": null, "grain_boundaries": null, "band_gap": 0.0, "cbm": null, "vbm": null, "efermi": 4.95827605, "is_gap_direct": null, "is_metal": null, "es_source_calc_id": null, "bandstructure": null, "dos": null, "dos_energy_up": null, "dos_energy_down": null, "is_magnetic": null, "ordering": null, "total_magnetization": 0.0, "total_magnetization_normalized_vol": null, "total_magnetization_normalized_formula_units": null, "num_magnetic_sites": null, "num_unique_magnetic_sites": null, "types_of_magnetic_species": null, "bulk_modulus": null, "shear_modulus": null, "universal_anisotropy": null, "homogeneous_poisson": null, "e_total": null, "e_ionic": null, "e_electronic": null, "n": null, "e_ij_max": null, "weighted_surface_energy_EV_PER_ANG2": null, "weighted_surface_energy": null, "weighted_work_function": null, "surface_anisotropy": null, "shape_factor": null, "has_reconstructed": null, "possible_species": null, "has_props": null, "theoretical": null, "database_IDs": null, "fields_not_requested": ["builder_meta", "nsites", "elements", "nelements", "composition", "composition_reduced", "chemsys", "symmetry", "property_name", "deprecated", "deprecation_reasons", "last_updated", "origins", "warnings", "task_ids", "uncorrected_energy_per_atom", "equilibrium_reaction_energy_per_atom", "decomposes_to", "xas", "grain_boundaries", "cbm", "vbm", "is_gap_direct", "is_metal", "es_source_calc_id", "bandstructure", "dos", "dos_energy_up", "dos_energy_down", "is_magnetic", "ordering", "total_magnetization_normalized_vol", "total_magnetization_normalized_formula_units", "num_magnetic_sites", "num_unique_magnetic_sites", "types_of_magnetic_species", "bulk_modulus", "shear_modulus", "universal_anisotropy", "homogeneous_poisson", "e_total", "e_ionic", "e_electronic", "n", "e_ij_max", "weighted_surface_energy_EV_PER_ANG2", "weighted_surface_energy", "weighted_work_function", "surface_anisotropy", "shape_factor", "has_reconstructed", "possible_species", "has_props", "theoretical", "database_IDs"]}