{"builder_meta": null, "nsites": null, "elements": null, "nelements": null, "composition": null, "composition_reduced": null, "formula_pretty": "HoH2", "formula_anonymous": "AB2", "chemsys": null, "volume": 33.934238743997085, "density": 8.16935040776351, "density_atomic": 11.311412914665695, "symmetry": null, "property_name": null, "material_id": "mp-24152", "deprecated": null, "deprecation_reasons": null, "last_updated": null, "origins": null, "warnings": null, "structure": {"@module": "pymatgen.core.structure", "@class": "Structure", "charge": 0, "lattice": {"matrix": [[3.14713233, 0.0, 1.81699714], [1.04904444, 2.96714483, 1.81699714], [-0.0, -0.0, 3.6339953]], "pbc": [true, true, true], "a": 3.633995116851343, "b": 3.633995223725373, "c": 3.6339953, "alpha": 60.00000859059541, "beta": 60.000007617736856, "gamma": 60.000000848368394, "volume": 33.934238743997085}, "properties": {}, "sites": [{"species": [{"element": "Ho", "occu": 1}], "abc": [-0.0, -0.0, 0.0], "properties": {"magmom": -0.0}, "label": "Ho", "xyz": [0.0, 0.0, 0.0]}, {"species": [{"element": "H", "occu": 1}], "abc": [0.75, 0.75, 0.75], "properties": {"magmom": -0.0}, "label": "H", "xyz": [3.1471325775, 2.2253586225, 5.4509921850000005]}, {"species": [{"element": "H", "occu": 1}], "abc": [0.25, 0.25, 0.25], "properties": {"magmom": -0.0}, "label": "H", "xyz": [1.0490441925, 0.7417862075, 1.816997395]}]}, "task_ids": null, "uncorrected_energy_per_atom": null, "energy_per_atom": -14.0635556, "formation_energy_per_atom": -0.799699360833334, "energy_above_hull": 0.0, "is_stable": true, "equilibrium_reaction_energy_per_atom": null, "decomposes_to": null, "xas": null, "grain_boundaries": null, "band_gap": 0.0, "cbm": null, "vbm": null, "efermi": 3.11770833, "is_gap_direct": null, "is_metal": null, "es_source_calc_id": null, "bandstructure": null, "dos": null, "dos_energy_up": null, "dos_energy_down": null, "is_magnetic": null, "ordering": null, "total_magnetization": 1.48e-05, "total_magnetization_normalized_vol": null, "total_magnetization_normalized_formula_units": null, "num_magnetic_sites": null, "num_unique_magnetic_sites": null, "types_of_magnetic_species": null, "bulk_modulus": null, "shear_modulus": null, "universal_anisotropy": null, "homogeneous_poisson": null, "e_total": null, "e_ionic": null, "e_electronic": null, "n": null, "e_ij_max": null, "weighted_surface_energy_EV_PER_ANG2": null, "weighted_surface_energy": null, "weighted_work_function": null, "surface_anisotropy": null, "shape_factor": null, "has_reconstructed": null, "possible_species": null, "has_props": null, "theoretical": null, "database_IDs": null, "fields_not_requested": ["builder_meta", "nsites", "elements", "nelements", "composition", "composition_reduced", "chemsys", "symmetry", "property_name", "deprecated", "deprecation_reasons", "last_updated", "origins", "warnings", "task_ids", "uncorrected_energy_per_atom", "equilibrium_reaction_energy_per_atom", "decomposes_to", "xas", "grain_boundaries", "cbm", "vbm", "is_gap_direct", "is_metal", "es_source_calc_id", "bandstructure", "dos", "dos_energy_up", "dos_energy_down", "is_magnetic", "ordering", "total_magnetization_normalized_vol", "total_magnetization_normalized_formula_units", "num_magnetic_sites", "num_unique_magnetic_sites", "types_of_magnetic_species", "bulk_modulus", "shear_modulus", "universal_anisotropy", "homogeneous_poisson", "e_total", "e_ionic", "e_electronic", "n", "e_ij_max", "weighted_surface_energy_EV_PER_ANG2", "weighted_surface_energy", "weighted_work_function", "surface_anisotropy", "shape_factor", "has_reconstructed", "possible_species", "has_props", "theoretical", "database_IDs"]}