{
  "builder_meta": null,
  "nsites": null,
  "elements": null,
  "nelements": null,
  "composition": null,
  "composition_reduced": null,
  "formula_pretty": "HoH3",
  "formula_anonymous": "AB3",
  "chemsys": null,
  "volume": 222.21284415870122,
  "density": 7.53046688880027,
  "density_atomic": 9.25886850661255,
  "symmetry": null,
  "property_name": null,
  "material_id": "mp-632656",
  "deprecated": null,
  "deprecation_reasons": null,
  "last_updated": null,
  "origins": null,
  "warnings": null,
  "structure": {
    "@module": "pymatgen.core.structure",
    "@class": "Structure",
    "charge": 0,
    "lattice": {
      "matrix": [
        [6.26436356, -2.71e-6, -6.239999999999999e-6],
        [-3.13218489, 5.42510369, 8.449999999999999e-6],
        [-7.389999999999999e-6, 5.48e-6, 6.53859245]
      ],
      "pbc": [true, true, true],
      "a": 6.2643635600036935,
      "b": 6.2643700587104,
      "c": 6.5385924500064725,
      "alpha": 89.99984874936597,
      "beta": 90.00012182937941,
      "gamma": 120.0000233147963,
      "volume": 222.21284415870122
    },
    "properties": {},
    "sites": [
      {
        "species": [{ "element": "Ho", "occu": 1 }],
        "abc": [0.6627069, -7e-7, 0.25000018],
        "properties": { "magmom": -0.0 },
        "label": "Ho",
        "xyz": [4.151437300348656, -4.2235072956e-6, 1.63464515414967]
      },
      {
        "species": [{ "element": "Ho", "occu": 1 }],
        "abc": [0.33729354, 0.33729428, 0.24999969],
        "properties": { "magmom": -0.0 },
        "label": "Ho",
        "xyz": [1.056459466202264, 1.8298568989767012, 1.634646830961317]
      },
      {
        "species": [{ "element": "Ho", "occu": 1 }],
        "abc": [-1.47e-6, 0.66270717, 0.25000006],
        "properties": { "magmom": 0.0 },
        "label": "Ho",
        "xyz": [-2.075732440483538, 3.5952564833607696, 1.6346541047003065]
      },
      {
        "species": [{ "element": "Ho", "occu": 1 }],
        "abc": [0.66270646, 0.66270572, 0.75000031],
        "properties": { "magmom": -0.0 },
        "label": "Ho",
        "xyz": [2.0757118137977355, 3.5952495610232997, 4.9039478290386835]
      },
      {
        "species": [{ "element": "Ho", "occu": 1 }],
        "abc": [1.47e-6, 0.33729283, 0.74999994],
        "properties": { "magmom": 0.0 },
        "label": "Ho",
        "xyz": [-1.0564598395164622, 1.8298526866392302, 4.903946795299694]
      },
      {
        "species": [{ "element": "Ho", "occu": 1 }],
        "abc": [0.3372931, 7e-7, 0.74999982],
        "properties": { "magmom": -0.0 },
        "label": "Ho",
        "xyz": [2.1129188696513435, 6.9935072956e-6, 4.90394105585033]
      },
      {
        "species": [{ "element": "H", "occu": 1 }],
        "abc": [0.32021592, 0.9680475, 0.40968611],
        "properties": { "magmom": -0.0 },
        "label": "H",
        "xyz": [-1.0261578393027528, 5.251759441640014, 2.6787766875699037]
      },
      {
        "species": [{ "element": "H", "occu": 1 }],
        "abc": [0.64783104, 0.67978415, 0.40968587],
        "properties": { "magmom": -0.0 },
        "label": "H",
        "xyz": [1.9290364893428293, 3.687899990024963, 2.6787706381640595]
      },
      {
        "species": [{ "element": "H", "occu": 1 }],
        "abc": [0.03195303, 0.35216912, 0.40968616],
        "properties": { "magmom": -0.0 },
        "label": "H",
        "xyz": [-0.9028964272057323, 1.9105561509034985, 2.678773609087649]
      },
      {
        "species": [{ "element": "H", "occu": 1 }],
        "abc": [0.32021567, 0.35216829, 0.90968622],
        "properties": { "magmom": -0.0 },
        "label": "H",
        "xyz": [0.9028844552326812, 1.91055360687601, 5.948068427637309]
      },
      {
        "species": [{ "element": "H", "occu": 1 }],
        "abc": [0.03195307, 0.67978446, 0.90968592],
        "properties": { "magmom": -0.0 },
        "label": "H",
        "xyz": [-1.9290516893096292, 3.68790608083668, 5.948071033174834]
      },
      {
        "species": [{ "element": "H", "occu": 1 }],
        "abc": [0.64783131, 0.96804758, 0.90968591],
        "properties": { "magmom": 0.0 },
        "label": "H",
        "xyz": [1.0261401259351226, 5.251761727809508, 5.948069560532057]
      },
      {
        "species": [{ "element": "H", "occu": 1 }],
        "abc": [0.67978408, 0.0319525, 0.59031389],
        "properties": { "magmom": -0.0 },
        "label": "H",
        "xyz": [4.158329119302753, 0.17334701835998542, 3.8598179724300965]
      },
      {
        "species": [{ "element": "H", "occu": 1 }],
        "abc": [0.35216896000000003, 0.32021585, 0.59031413],
        "properties": { "magmom": -0.0 },
        "label": "H",
        "xyz": [1.2031347906571703, 1.7372064699750376, 3.8598240218359408]
      },
      {
        "species": [{ "element": "H", "occu": 1 }],
        "abc": [0.9680469700000001, 0.64783088, 0.59031384],
        "properties": { "magmom": -0.0 },
        "label": "H",
        "xyz": [4.035067707205732, 3.5145503090965016, 3.8598210509123514]
      },
      {
        "species": [{ "element": "H", "occu": 1 }],
        "abc": [0.67978433, 0.6478317100000001, 0.09031378],
        "properties": { "magmom": -0.0 },
        "label": "H",
        "xyz": [2.2292868247673185, 3.5145528531239902, 0.5905262323626913]
      },
      {
        "species": [{ "element": "H", "occu": 1 }],
        "abc": [0.96804693, 0.32021554, 0.09031408],
        "properties": { "magmom": -0.0 },
        "label": "H",
        "xyz": [5.061222969309629, 1.7372003791633208, 0.5905236268251658]
      },
      {
        "species": [{ "element": "H", "occu": 1 }],
        "abc": [0.35216869, 0.03195242, 0.09031409],
        "properties": { "magmom": 0.0 },
        "label": "H",
        "xyz": [2.1060311540648775, 0.17334473219049312, 0.5905250994679438]
      },
      {
        "species": [{ "element": "H", "occu": 1 }],
        "abc": [0.66666661, 0.33333375, 0.31247301],
        "properties": { "magmom": -0.0 },
        "label": "H",
        "xyz": [3.1321767741001505, 1.8083700628121193, 2.0431323206853156]
      },
      {
        "species": [{ "element": "H", "occu": 1 }],
        "abc": [0.66666656, 0.33333316, 0.81247332],
        "properties": { "magmom": -0.0 },
        "label": "H",
        "xyz": [3.132174613868766, 1.8083696020027766, 5.312430572644302]
      },
      {
        "species": [{ "element": "H", "occu": 1 }],
        "abc": [0.33333339, 0.66666625, 0.6875269900000001],
        "properties": { "magmom": -0.0 },
        "label": "H",
        "xyz": [-5.494100150211092e-6, 3.616736397187881, 4.4954623393146855]
      },
      {
        "species": [{ "element": "H", "occu": 1 }],
        "abc": [0.33333344, 0.66666684, 0.18752668],
        "properties": { "magmom": -0.0 },
        "label": "H",
        "xyz": [-3.3338687665632735e-6, 3.6167368579972234, 1.2261640873556985]
      },
      {
        "species": [{ "element": "H", "occu": 1 }],
        "abc": [-1.02e-6, -3.799999999999998e-7, 0.25000009],
        "properties": { "magmom": -0.0 },
        "label": "H",
        "xyz": [-7.0469212381e-6, -6.915361447999988e-7, 1.6346487009764743]
      },
      {
        "species": [{ "element": "H", "occu": 1 }],
        "abc": [1.02e-6, 3.799999999999998e-7, 0.74999991],
        "properties": { "magmom": -0.0 },
        "label": "H",
        "xyz": [-3.430787618999984e-7, 6.171536144799999e-6, 4.903943749023526]
      }
    ]
  },
  "task_ids": null,
  "uncorrected_energy_per_atom": null,
  "energy_per_atom": -11.533926088333333,
  "formation_energy_per_atom": -0.722255808645833,
  "energy_above_hull": 0.0,
  "is_stable": true,
  "equilibrium_reaction_energy_per_atom": null,
  "decomposes_to": null,
  "xas": null,
  "grain_boundaries": null,
  "band_gap": 0.0,
  "cbm": null,
  "vbm": null,
  "efermi": 2.55198372,
  "is_gap_direct": null,
  "is_metal": null,
  "es_source_calc_id": null,
  "bandstructure": null,
  "dos": null,
  "dos_energy_up": null,
  "dos_energy_down": null,
  "is_magnetic": null,
  "ordering": null,
  "total_magnetization": 0.0,
  "total_magnetization_normalized_vol": null,
  "total_magnetization_normalized_formula_units": null,
  "num_magnetic_sites": null,
  "num_unique_magnetic_sites": null,
  "types_of_magnetic_species": null,
  "bulk_modulus": null,
  "shear_modulus": null,
  "universal_anisotropy": null,
  "homogeneous_poisson": null,
  "e_total": null,
  "e_ionic": null,
  "e_electronic": null,
  "n": null,
  "e_ij_max": null,
  "weighted_surface_energy_EV_PER_ANG2": null,
  "weighted_surface_energy": null,
  "weighted_work_function": null,
  "surface_anisotropy": null,
  "shape_factor": null,
  "has_reconstructed": null,
  "possible_species": null,
  "has_props": null,
  "theoretical": null,
  "database_IDs": null,
  "fields_not_requested": [
    "builder_meta",
    "nsites",
    "elements",
    "nelements",
    "composition",
    "composition_reduced",
    "chemsys",
    "symmetry",
    "property_name",
    "deprecated",
    "deprecation_reasons",
    "last_updated",
    "origins",
    "warnings",
    "task_ids",
    "uncorrected_energy_per_atom",
    "equilibrium_reaction_energy_per_atom",
    "decomposes_to",
    "xas",
    "grain_boundaries",
    "cbm",
    "vbm",
    "is_gap_direct",
    "is_metal",
    "es_source_calc_id",
    "bandstructure",
    "dos",
    "dos_energy_up",
    "dos_energy_down",
    "is_magnetic",
    "ordering",
    "total_magnetization_normalized_vol",
    "total_magnetization_normalized_formula_units",
    "num_magnetic_sites",
    "num_unique_magnetic_sites",
    "types_of_magnetic_species",
    "bulk_modulus",
    "shear_modulus",
    "universal_anisotropy",
    "homogeneous_poisson",
    "e_total",
    "e_ionic",
    "e_electronic",
    "n",
    "e_ij_max",
    "weighted_surface_energy_EV_PER_ANG2",
    "weighted_surface_energy",
    "weighted_work_function",
    "surface_anisotropy",
    "shape_factor",
    "has_reconstructed",
    "possible_species",
    "has_props",
    "theoretical",
    "database_IDs"
  ]
}
