{"builder_meta": null, "nsites": null, "elements": null, "nelements": null, "composition": null, "composition_reduced": null, "formula_pretty": "HoHg2", "formula_anonymous": "AB2", "chemsys": null, "volume": 70.7325981909369, "density": 13.290170676720276, "density_atomic": 23.5775327303123, "symmetry": null, "property_name": null, "material_id": "mp-11461", "deprecated": null, "deprecation_reasons": null, "last_updated": null, "origins": null, "warnings": null, "structure": {"@module": "pymatgen.core.structure", "@class": "Structure", "charge": 0, "lattice": {"matrix": [[4.87373975, 0.0, -0.0], [-2.436869869999999, 4.2207822, 0.0], [0.0, 0.0, 3.43846283]], "pbc": [true, true, true], "a": 4.87373975, "b": 4.873739544041173, "c": 3.43846283, "alpha": 90.0, "beta": 90.0, "gamma": 120.00000133003944, "volume": 70.7325981909369}, "properties": {}, "sites": [{"species": [{"element": "Ho", "occu": 1}], "abc": [-0.0, 0.0, 0.0], "properties": {"magmom": 0.016}, "label": "Ho", "xyz": [0.0, 0.0, 0.0]}, {"species": [{"element": "Hg", "occu": 1}], "abc": [0.666667, 0.333333, 0.5], "properties": {"magmom": 0.0}, "label": "Hg", "xyz": [2.436872313536541, 1.4069259930726001, 1.719231415]}, {"species": [{"element": "Hg", "occu": 1}], "abc": [0.333333, 0.666667, 0.5], "properties": {"magmom": 0.0}, "label": "Hg", "xyz": [-2.433536539392378e-06, 2.8138562069274005, 1.719231415]}]}, "task_ids": null, "uncorrected_energy_per_atom": null, "energy_per_atom": -44.323062996666664, "formation_energy_per_atom": -0.450744010000003, "energy_above_hull": 0.0011745750000000002, "is_stable": false, "equilibrium_reaction_energy_per_atom": null, "decomposes_to": null, "xas": null, "grain_boundaries": null, "band_gap": 0.0, "cbm": null, "vbm": null, "efermi": 3.52306372, "is_gap_direct": null, "is_metal": null, "es_source_calc_id": null, "bandstructure": null, "dos": null, "dos_energy_up": null, "dos_energy_down": null, "is_magnetic": null, "ordering": null, "total_magnetization": 0.019115399999999002, "total_magnetization_normalized_vol": null, "total_magnetization_normalized_formula_units": null, "num_magnetic_sites": null, "num_unique_magnetic_sites": null, "types_of_magnetic_species": null, "bulk_modulus": null, "shear_modulus": null, "universal_anisotropy": null, "homogeneous_poisson": null, "e_total": null, "e_ionic": null, "e_electronic": null, "n": null, "e_ij_max": null, "weighted_surface_energy_EV_PER_ANG2": null, "weighted_surface_energy": null, "weighted_work_function": null, "surface_anisotropy": null, "shape_factor": null, "has_reconstructed": null, "possible_species": null, "has_props": null, "theoretical": null, "database_IDs": null, "fields_not_requested": ["builder_meta", "nsites", "elements", "nelements", "composition", "composition_reduced", "chemsys", "symmetry", "property_name", "deprecated", "deprecation_reasons", "last_updated", "origins", "warnings", "task_ids", "uncorrected_energy_per_atom", "equilibrium_reaction_energy_per_atom", "decomposes_to", "xas", "grain_boundaries", "cbm", "vbm", "is_gap_direct", "is_metal", "es_source_calc_id", "bandstructure", "dos", "dos_energy_up", "dos_energy_down", "is_magnetic", "ordering", "total_magnetization_normalized_vol", "total_magnetization_normalized_formula_units", "num_magnetic_sites", "num_unique_magnetic_sites", "types_of_magnetic_species", "bulk_modulus", "shear_modulus", "universal_anisotropy", "homogeneous_poisson", "e_total", "e_ionic", "e_electronic", "n", "e_ij_max", "weighted_surface_energy_EV_PER_ANG2", "weighted_surface_energy", "weighted_work_function", "surface_anisotropy", "shape_factor", "has_reconstructed", "possible_species", "has_props", "theoretical", "database_IDs"]}