{
  "builder_meta": null,
  "nsites": null,
  "elements": null,
  "nelements": null,
  "composition": null,
  "composition_reduced": null,
  "formula_pretty": "HoHg3",
  "formula_anonymous": "AB3",
  "chemsys": null,
  "volume": 185.41827140690833,
  "density": 13.7325822754627,
  "density_atomic": 23.17728392586354,
  "symmetry": null,
  "property_name": null,
  "material_id": "mp-865259",
  "deprecated": null,
  "deprecation_reasons": null,
  "last_updated": null,
  "origins": null,
  "warnings": null,
  "structure": {
    "@module": "pymatgen.core.structure",
    "@class": "Structure",
    "charge": 0,
    "lattice": {
      "matrix": [
        [6.58478156, -1.04e-6, 0.0],
        [-3.29239182, 5.70258888, 0.0],
        [0.0, 0.0, 4.93786409]
      ],
      "pbc": [true, true, true],
      "a": 6.584781560000081,
      "b": 6.58478274741867,
      "c": 4.93786409,
      "alpha": 90.0,
      "beta": 90.0,
      "gamma": 120.00001353332044,
      "volume": 185.41827140690833
    },
    "properties": {},
    "sites": [
      {
        "species": [{ "element": "Ho", "occu": 1 }],
        "abc": [0.333333999999999, 0.666667, 0.75],
        "properties": { "magmom": 0.0 },
        "label": "Ho",
        "xyz": [2.5990570935441326e-6, 3.8017274741956, 3.7033980675]
      },
      {
        "species": [{ "element": "Ho", "occu": 1 }],
        "abc": [0.666667, 0.333333, 0.25],
        "properties": { "magmom": 0.0 },
        "label": "Ho",
        "xyz": [3.2923937257244598, 1.90086036580336, 1.2344660225]
      },
      {
        "species": [{ "element": "Hg", "occu": 1 }],
        "abc": [0.16644427, 0.33288854, 0.25],
        "properties": { "magmom": -0.0 },
        "label": "Hg",
        "xyz": [-3.4620408184693474e-7, 1.8983263133813948, 1.2344660225]
      },
      {
        "species": [{ "element": "Hg", "occu": 1 }],
        "abc": [0.66711246, 0.83355673, 0.25],
        "properties": { "magmom": -0.0 },
        "label": "Hg",
        "xyz": [1.6483944656962892, 4.753430645550204, 1.2344660225]
      },
      {
        "species": [{ "element": "Hg", "occu": 1 }],
        "abc": [0.16644427, 0.83355673, 0.25],
        "properties": { "magmom": -0.0 },
        "label": "Hg",
        "xyz": [-1.6483961994942875, 4.753431166245122, 1.2344660225]
      },
      {
        "species": [{ "element": "Hg", "occu": 1 }],
        "abc": [0.83355473, 0.66711246, 0.75],
        "properties": { "magmom": -0.0 },
        "label": "Hg",
        "xyz": [3.2923802090307013, 3.8042672292085262, 3.7033980675]
      },
      {
        "species": [{ "element": "Hg", "occu": 1 }],
        "abc": [0.33288754, 0.16644427, 0.75],
        "properties": { "magmom": -0.0 },
        "label": "Hg",
        "xyz": [1.6439919819118907, 0.9491628970386762, 3.7033980675]
      },
      {
        "species": [{ "element": "Hg", "occu": 1 }],
        "abc": [0.83355573, 0.16644427, 0.75],
        "properties": { "magmom": -0.0 },
        "label": "Hg",
        "xyz": [4.940782647102467, 0.9491623763437586, 3.7033980675]
      }
    ]
  },
  "task_ids": null,
  "uncorrected_energy_per_atom": null,
  "energy_per_atom": -45.6375158825,
  "formation_energy_per_atom": -0.391325011874997,
  "energy_above_hull": 0.0,
  "is_stable": true,
  "equilibrium_reaction_energy_per_atom": null,
  "decomposes_to": null,
  "xas": null,
  "grain_boundaries": null,
  "band_gap": 0.0,
  "cbm": null,
  "vbm": null,
  "efermi": 3.50689046,
  "is_gap_direct": null,
  "is_metal": null,
  "es_source_calc_id": null,
  "bandstructure": null,
  "dos": null,
  "dos_energy_up": null,
  "dos_energy_down": null,
  "is_magnetic": null,
  "ordering": null,
  "total_magnetization": 3e-7,
  "total_magnetization_normalized_vol": null,
  "total_magnetization_normalized_formula_units": null,
  "num_magnetic_sites": null,
  "num_unique_magnetic_sites": null,
  "types_of_magnetic_species": null,
  "bulk_modulus": null,
  "shear_modulus": null,
  "universal_anisotropy": null,
  "homogeneous_poisson": null,
  "e_total": null,
  "e_ionic": null,
  "e_electronic": null,
  "n": null,
  "e_ij_max": null,
  "weighted_surface_energy_EV_PER_ANG2": null,
  "weighted_surface_energy": null,
  "weighted_work_function": null,
  "surface_anisotropy": null,
  "shape_factor": null,
  "has_reconstructed": null,
  "possible_species": null,
  "has_props": null,
  "theoretical": null,
  "database_IDs": null,
  "fields_not_requested": [
    "builder_meta",
    "nsites",
    "elements",
    "nelements",
    "composition",
    "composition_reduced",
    "chemsys",
    "symmetry",
    "property_name",
    "deprecated",
    "deprecation_reasons",
    "last_updated",
    "origins",
    "warnings",
    "task_ids",
    "uncorrected_energy_per_atom",
    "equilibrium_reaction_energy_per_atom",
    "decomposes_to",
    "xas",
    "grain_boundaries",
    "cbm",
    "vbm",
    "is_gap_direct",
    "is_metal",
    "es_source_calc_id",
    "bandstructure",
    "dos",
    "dos_energy_up",
    "dos_energy_down",
    "is_magnetic",
    "ordering",
    "total_magnetization_normalized_vol",
    "total_magnetization_normalized_formula_units",
    "num_magnetic_sites",
    "num_unique_magnetic_sites",
    "types_of_magnetic_species",
    "bulk_modulus",
    "shear_modulus",
    "universal_anisotropy",
    "homogeneous_poisson",
    "e_total",
    "e_ionic",
    "e_electronic",
    "n",
    "e_ij_max",
    "weighted_surface_energy_EV_PER_ANG2",
    "weighted_surface_energy",
    "weighted_work_function",
    "surface_anisotropy",
    "shape_factor",
    "has_reconstructed",
    "possible_species",
    "has_props",
    "theoretical",
    "database_IDs"
  ]
}
