{"builder_meta": null, "nsites": null, "elements": null, "nelements": null, "composition": null, "composition_reduced": null, "formula_pretty": "HoI3", "formula_anonymous": "AB3", "chemsys": null, "volume": 412.74130921683786, "density": 4.39046303278712, "density_atomic": 51.59266365210473, "symmetry": null, "property_name": null, "material_id": "mp-864657", "deprecated": null, "deprecation_reasons": null, "last_updated": null, "origins": null, "warnings": null, "structure": {"@module": "pymatgen.core.structure", "@class": "Structure", "charge": 0, "lattice": {"matrix": [[10.94568156, 1.39e-06, 1.771e-05], [-5.47283927, 9.47967704, -2.04e-06], [7.509999999999997e-06, 3e-06, 3.9777872800000003]], "pbc": [true, true, true], "a": 10.945681560014416, "b": 10.94606077353682, "c": 3.977787280008221, "alpha": 90.00002734005152, "beta": 89.9997991224804, "gamma": 119.99883759514553, "volume": 412.7413092168379}, "properties": {}, "sites": [{"species": [{"element": "Ho", "occu": 1}], "abc": [0.33333165, 0.6666539, 0.74999708], "properties": {"magmom": -0.0}, "label": "Ho", "xyz": [5.8083828791761186e-05, 6.31966638277869, 2.983333388190708]}, {"species": [{"element": "Ho", "occu": 1}], "abc": [0.66667339, 0.33334488, 0.250010299999999], "properties": {"magmom": 0.0}, "label": "Ho", "xyz": [5.472853559325604, 3.1600034820444676, 0.9944989179711619]}, {"species": [{"element": "I", "occu": 1}], "abc": [0.21196798, 0.42410898, 0.25000167], "properties": {"magmom": -0.0}, "label": "I", "xyz": [-0.0009443929946539456, 4.020417204804322, 0.9944563516753643]}, {"species": [{"element": "I", "occu": 1}], "abc": [0.57588045, 0.78784012, 0.24999714], "properties": {"magmom": -0.0}, "label": "I", "xyz": [1.9916835525905114, 7.468471447220091, 0.9944440351773041]}, {"species": [{"element": "I", "occu": 1}], "abc": [0.2121467, 0.78803383, 0.25000016], "properties": {"magmom": -0.0}, "label": "I", "xyz": [-1.9906903912064502, 7.470307249878657, 0.9944496059750088]}, {"species": [{"element": "I", "occu": 1}], "abc": [0.7878580900000001, 0.57588941, 0.7500034], "properties": {"magmom": -0.0}, "label": "I", "xyz": [5.471899221910226, 5.4592489626890925, 2.98336676262913]}, {"species": [{"element": "I", "occu": 1}], "abc": [0.42410772, 0.21196911000000002, 0.74999901], "properties": {"magmom": 0.0}, "label": "I", "xyz": [3.4820808135152594, 2.0094015447629956, 2.9833436005213296]}, {"species": [{"element": "I", "occu": 1}], "abc": [0.78803403, 0.21216178, 0.75000224], "properties": {"magmom": -0.0}, "label": "I", "xyz": [7.464447862163211, 2.011228500005553, 2.9833628935161474]}]}, "task_ids": null, "uncorrected_energy_per_atom": null, "energy_per_atom": -3.9337361275000013, "formation_energy_per_atom": -1.641306799999999, "energy_above_hull": 0.0, "is_stable": true, "equilibrium_reaction_energy_per_atom": null, "decomposes_to": null, "xas": null, "grain_boundaries": null, "band_gap": 2.2181, "cbm": null, "vbm": null, "efermi": -0.75076398, "is_gap_direct": null, "is_metal": null, "es_source_calc_id": null, "bandstructure": null, "dos": null, "dos_energy_up": null, "dos_energy_down": null, "is_magnetic": null, "ordering": null, "total_magnetization": 0.0, "total_magnetization_normalized_vol": null, "total_magnetization_normalized_formula_units": null, "num_magnetic_sites": null, "num_unique_magnetic_sites": null, "types_of_magnetic_species": null, "bulk_modulus": null, "shear_modulus": null, "universal_anisotropy": null, "homogeneous_poisson": null, "e_total": null, "e_ionic": null, "e_electronic": null, "n": null, "e_ij_max": null, "weighted_surface_energy_EV_PER_ANG2": null, "weighted_surface_energy": null, "weighted_work_function": null, "surface_anisotropy": null, "shape_factor": null, "has_reconstructed": null, "possible_species": null, "has_props": null, "theoretical": null, "database_IDs": null, "fields_not_requested": ["builder_meta", "nsites", "elements", "nelements", "composition", "composition_reduced", "chemsys", "symmetry", "property_name", "deprecated", "deprecation_reasons", "last_updated", "origins", "warnings", "task_ids", "uncorrected_energy_per_atom", "equilibrium_reaction_energy_per_atom", "decomposes_to", "xas", "grain_boundaries", "cbm", "vbm", "is_gap_direct", "is_metal", "es_source_calc_id", "bandstructure", "dos", "dos_energy_up", "dos_energy_down", "is_magnetic", "ordering", "total_magnetization_normalized_vol", "total_magnetization_normalized_formula_units", "num_magnetic_sites", "num_unique_magnetic_sites", "types_of_magnetic_species", "bulk_modulus", "shear_modulus", "universal_anisotropy", "homogeneous_poisson", "e_total", "e_ionic", "e_electronic", "n", "e_ij_max", "weighted_surface_energy_EV_PER_ANG2", "weighted_surface_energy", "weighted_work_function", "surface_anisotropy", "shape_factor", "has_reconstructed", "possible_species", "has_props", "theoretical", "database_IDs"]}