{
  "builder_meta": null,
  "nsites": null,
  "elements": null,
  "nelements": null,
  "composition": null,
  "composition_reduced": null,
  "formula_pretty": "HoLu3",
  "formula_anonymous": "AB3",
  "chemsys": null,
  "volume": 237.84322885141984,
  "density": 9.632326820956777,
  "density_atomic": 29.73040360642748,
  "symmetry": null,
  "property_name": null,
  "material_id": "mp-1184930",
  "deprecated": null,
  "deprecation_reasons": null,
  "last_updated": null,
  "origins": null,
  "warnings": null,
  "structure": {
    "@module": "pymatgen.core.structure",
    "@class": "Structure",
    "charge": 0,
    "lattice": {
      "matrix": [
        [7.08695997, 2.2360000000000003e-5, 9.893000000000003e-5],
        [-3.543459829999999, 6.13748683, -7.666000000000001e-5],
        [7.693e-5, -2.5830000000000005e-5, 5.46813777]
      ],
      "pbc": [true, true, true],
      "a": 7.086959970725776,
      "b": 7.0869494256078776,
      "c": 5.468137770602163,
      "alpha": 90.00125720111943,
      "beta": 89.99839410236603,
      "gamma": 119.99968029665186,
      "volume": 237.84322885141984
    },
    "properties": {},
    "sites": [
      {
        "species": [{ "element": "Ho", "occu": 1 }],
        "abc": [0.33332517, 0.6666520300000001, 0.7499747800000001],
        "properties": { "magmom": -0.0 },
        "label": "Ho",
        "xyz": [6.514345031596394e-5, 4.091556135619999, 4.100947291379889]
      },
      {
        "species": [{ "element": "Ho", "occu": 1 }],
        "abc": [0.66667584, 0.33334867, 0.25002486],
        "properties": { "magmom": -0.0 },
        "label": "Ho",
        "xyz": [3.543516603929678, 2.0459315206526645, 1.3672107801367714]
      },
      {
        "species": [{ "element": "Lu", "occu": 1 }],
        "abc": [0.16619326, 0.33240191, 0.24999943],
        "properties": { "magmom": -0.0 },
        "label": "Lu",
        "xyz": [-2.860214032282892e-5, 2.0401096034878625, 1.3670222852302625]
      },
      {
        "species": [{ "element": "Lu", "occu": 1 }],
        "abc": [0.66757995, 0.833786799999999, 0.24998112],
        "properties": { "magmom": -0.0 },
        "label": "Lu",
        "xyz": [1.7766415808879237, 5.117363974103191, 1.366933329647268]
      },
      {
        "species": [{ "element": "Lu", "occu": 1 }],
        "abc": [0.16622129, 0.8338114, 0.24999114],
        "properties": { "magmom": -0.0 },
        "label": "Lu",
        "xyz": [-1.7765543414858997, 5.11750374564076, 1.3669385190896537]
      },
      {
        "species": [{ "element": "Lu", "occu": 1 }],
        "abc": [0.8338098700000001, 0.66760164, 0.749999099999999],
        "properties": { "magmom": -0.0 },
        "label": "Lu",
        "xyz": [3.543615274929546, 4.097395544698341, 4.101129716644718]
      },
      {
        "species": [{ "element": "Lu", "occu": 1 }],
        "abc": [0.33241462, 0.16620913, 0.750014899999999],
        "properties": { "magmom": -0.0 },
        "label": "Lu",
        "xyz": [1.766911428494771, 1.0200944063067943, 4.101204946939219]
      },
      {
        "species": [{ "element": "Lu", "occu": 1 }],
        "abc": [0.83378401, 0.16618842, 0.75000967],
        "properties": { "magmom": -0.0 },
        "label": "Lu",
        "xyz": [5.320169610258824, 1.0199785097091962, 4.101225950640068]
      }
    ]
  },
  "task_ids": null,
  "uncorrected_energy_per_atom": null,
  "energy_per_atom": -36.7788726925,
  "formation_energy_per_atom": 0.0013734237500030002,
  "energy_above_hull": 0.0013734237500030002,
  "is_stable": false,
  "equilibrium_reaction_energy_per_atom": null,
  "decomposes_to": null,
  "xas": null,
  "grain_boundaries": null,
  "band_gap": 0.0,
  "cbm": null,
  "vbm": null,
  "efermi": 2.929854299999999,
  "is_gap_direct": null,
  "is_metal": null,
  "es_source_calc_id": null,
  "bandstructure": null,
  "dos": null,
  "dos_energy_up": null,
  "dos_energy_down": null,
  "is_magnetic": null,
  "ordering": null,
  "total_magnetization": 0.0001107,
  "total_magnetization_normalized_vol": null,
  "total_magnetization_normalized_formula_units": null,
  "num_magnetic_sites": null,
  "num_unique_magnetic_sites": null,
  "types_of_magnetic_species": null,
  "bulk_modulus": null,
  "shear_modulus": null,
  "universal_anisotropy": null,
  "homogeneous_poisson": null,
  "e_total": null,
  "e_ionic": null,
  "e_electronic": null,
  "n": null,
  "e_ij_max": null,
  "weighted_surface_energy_EV_PER_ANG2": null,
  "weighted_surface_energy": null,
  "weighted_work_function": null,
  "surface_anisotropy": null,
  "shape_factor": null,
  "has_reconstructed": null,
  "possible_species": null,
  "has_props": null,
  "theoretical": null,
  "database_IDs": null,
  "fields_not_requested": [
    "builder_meta",
    "nsites",
    "elements",
    "nelements",
    "composition",
    "composition_reduced",
    "chemsys",
    "symmetry",
    "property_name",
    "deprecated",
    "deprecation_reasons",
    "last_updated",
    "origins",
    "warnings",
    "task_ids",
    "uncorrected_energy_per_atom",
    "equilibrium_reaction_energy_per_atom",
    "decomposes_to",
    "xas",
    "grain_boundaries",
    "cbm",
    "vbm",
    "is_gap_direct",
    "is_metal",
    "es_source_calc_id",
    "bandstructure",
    "dos",
    "dos_energy_up",
    "dos_energy_down",
    "is_magnetic",
    "ordering",
    "total_magnetization_normalized_vol",
    "total_magnetization_normalized_formula_units",
    "num_magnetic_sites",
    "num_unique_magnetic_sites",
    "types_of_magnetic_species",
    "bulk_modulus",
    "shear_modulus",
    "universal_anisotropy",
    "homogeneous_poisson",
    "e_total",
    "e_ionic",
    "e_electronic",
    "n",
    "e_ij_max",
    "weighted_surface_energy_EV_PER_ANG2",
    "weighted_surface_energy",
    "weighted_work_function",
    "surface_anisotropy",
    "shape_factor",
    "has_reconstructed",
    "possible_species",
    "has_props",
    "theoretical",
    "database_IDs"
  ]
}
