{"builder_meta": null, "nsites": null, "elements": null, "nelements": null, "composition": null, "composition_reduced": null, "formula_pretty": "HoMg5", "formula_anonymous": "AB5", "chemsys": null, "volume": 144.91342910462848, "density": 3.282444233322001, "density_atomic": 24.152238184104746, "symmetry": null, "property_name": null, "material_id": "mp-1184866", "deprecated": null, "deprecation_reasons": null, "last_updated": null, "origins": null, "warnings": null, "structure": {"@module": "pymatgen.core.structure", "@class": "Structure", "charge": 0, "lattice": {"matrix": [[1.833529819999999, 5.89004161, 0.030286550000000002], [-1.833529819999999, 5.89004161, 0.030286550000000002], [0.0, 2.13748794, 6.72021503]], "pbc": [true, true, true], "a": 6.168900959123231, "b": 6.168900959123231, "c": 7.051960347526307, "alpha": 72.89747228477923, "beta": 72.89747228477923, "gamma": 34.58158888372273, "volume": 144.91342910462836}, "properties": {}, "sites": [{"species": [{"element": "Ho", "occu": 1}], "abc": [0.5, 0.5, 0.5], "properties": {"magmom": -0.0}, "label": "Ho", "xyz": [0.0, 6.95878558, 3.390394065]}, {"species": [{"element": "Mg", "occu": 1}], "abc": [0.17514054, 0.17514054, 0.67152272], "properties": {"magmom": -0.0}, "label": "Mg", "xyz": [0.0, 3.498541851831736, 4.523385881373956]}, {"species": [{"element": "Mg", "occu": 1}], "abc": [0.82768785, 0.82768785, 0.84565997], "properties": {"magmom": 0.0}, "label": "Mg", "xyz": [0.0, 11.557819740398639, 5.733152459570185]}, {"species": [{"element": "Mg", "occu": 1}], "abc": [0.5, 0.5, -0.0], "properties": {"magmom": 0.0}, "label": "Mg", "xyz": [0.0, 5.89004161, 0.030286550000000002]}, {"species": [{"element": "Mg", "occu": 1}], "abc": [0.17231215, 0.17231215, 0.15434003000000002], "properties": {"magmom": 0.0}, "label": "Mg", "xyz": [0.0, 2.3597514196013614, 1.047635670429816]}, {"species": [{"element": "Mg", "occu": 1}], "abc": [0.82485946, 0.82485946, 0.32847728], "properties": {"magmom": -0.0}, "label": "Mg", "xyz": [0.0, 10.419029308168264, 2.2574022486260445]}]}, "task_ids": null, "uncorrected_energy_per_atom": null, "energy_per_atom": -2.100603498333333, "formation_energy_per_atom": 0.024401425000001004, "energy_above_hull": 0.050190813333333, "is_stable": false, "equilibrium_reaction_energy_per_atom": null, "decomposes_to": null, "xas": null, "grain_boundaries": null, "band_gap": 0.0, "cbm": null, "vbm": null, "efermi": 3.27005034, "is_gap_direct": null, "is_metal": null, "es_source_calc_id": null, "bandstructure": null, "dos": null, "dos_energy_up": null, "dos_energy_down": null, "is_magnetic": null, "ordering": null, "total_magnetization": 1e-07, "total_magnetization_normalized_vol": null, "total_magnetization_normalized_formula_units": null, "num_magnetic_sites": null, "num_unique_magnetic_sites": null, "types_of_magnetic_species": null, "bulk_modulus": null, "shear_modulus": null, "universal_anisotropy": null, "homogeneous_poisson": null, "e_total": null, "e_ionic": null, "e_electronic": null, "n": null, "e_ij_max": null, "weighted_surface_energy_EV_PER_ANG2": null, "weighted_surface_energy": null, "weighted_work_function": null, "surface_anisotropy": null, "shape_factor": null, "has_reconstructed": null, "possible_species": null, "has_props": null, "theoretical": null, "database_IDs": null, "fields_not_requested": ["builder_meta", "nsites", "elements", "nelements", "composition", "composition_reduced", "chemsys", "symmetry", "property_name", "deprecated", "deprecation_reasons", "last_updated", "origins", "warnings", "task_ids", "uncorrected_energy_per_atom", "equilibrium_reaction_energy_per_atom", "decomposes_to", "xas", "grain_boundaries", "cbm", "vbm", "is_gap_direct", "is_metal", "es_source_calc_id", "bandstructure", "dos", "dos_energy_up", "dos_energy_down", "is_magnetic", "ordering", "total_magnetization_normalized_vol", "total_magnetization_normalized_formula_units", "num_magnetic_sites", "num_unique_magnetic_sites", "types_of_magnetic_species", "bulk_modulus", "shear_modulus", "universal_anisotropy", "homogeneous_poisson", "e_total", "e_ionic", "e_electronic", "n", "e_ij_max", "weighted_surface_energy_EV_PER_ANG2", "weighted_surface_energy", "weighted_work_function", "surface_anisotropy", "shape_factor", "has_reconstructed", "possible_species", "has_props", "theoretical", "database_IDs"]}