{
  "builder_meta": null,
  "nsites": null,
  "elements": null,
  "nelements": null,
  "composition": null,
  "composition_reduced": null,
  "formula_pretty": "HoMg2",
  "formula_anonymous": "AB2",
  "chemsys": null,
  "volume": 152.72431065975914,
  "density": 4.643557297753718,
  "density_atomic": 25.454051776626525,
  "symmetry": null,
  "property_name": null,
  "material_id": "mp-1184860",
  "deprecated": null,
  "deprecation_reasons": null,
  "last_updated": null,
  "origins": null,
  "warnings": null,
  "structure": {
    "@module": "pymatgen.core.structure",
    "@class": "Structure",
    "charge": 0,
    "lattice": {
      "matrix": [
        [-0.0, 4.24254265, 4.24254265],
        [4.24253957, 3.079999999999999e-6, 4.24253957],
        [4.24254265, 4.24254265, 0.0]
      ],
      "pbc": [true, true, true],
      "a": 5.99986135457629,
      "b": 5.999856998799309,
      "c": 5.99986135457629,
      "alpha": 59.99997598476761,
      "beta": 59.99999999999999,
      "gamma": 59.99997598476761,
      "volume": 152.72431065975917
    },
    "properties": {},
    "sites": [
      {
        "species": [{ "element": "Ho", "occu": 1 }],
        "abc": [0.75, 0.75, 0.75],
        "properties": { "magmom": -0.0 },
        "label": "Ho",
        "xyz": [6.363811665, 6.3638162849999995, 6.363811665]
      },
      {
        "species": [{ "element": "Ho", "occu": 1 }],
        "abc": [0.5, 0.5, 0.5],
        "properties": { "magmom": -0.0 },
        "label": "Ho",
        "xyz": [4.2425411099999994, 4.24254419, 4.2425411099999994]
      },
      {
        "species": [{ "element": "Mg", "occu": 1 }],
        "abc": [0.125, 0.625, 0.125],
        "properties": { "magmom": -0.0 },
        "label": "Mg",
        "xyz": [3.1819050625, 1.0606375875, 3.1819050625]
      },
      {
        "species": [{ "element": "Mg", "occu": 1 }],
        "abc": [0.125, 0.125, 0.125],
        "properties": { "magmom": -0.0 },
        "label": "Mg",
        "xyz": [1.0606352774999999, 1.0606360475, 1.0606352774999999]
      },
      {
        "species": [{ "element": "Mg", "occu": 1 }],
        "abc": [0.625, 0.125, 0.125],
        "properties": { "magmom": -0.0 },
        "label": "Mg",
        "xyz": [1.0606352774999999, 3.1819073725, 3.1819066025]
      },
      {
        "species": [{ "element": "Mg", "occu": 1 }],
        "abc": [0.125, 0.125, 0.625],
        "properties": { "magmom": -0.0 },
        "label": "Mg",
        "xyz": [3.1819066025, 3.1819073725, 1.0606352774999999]
      }
    ]
  },
  "task_ids": null,
  "uncorrected_energy_per_atom": null,
  "energy_per_atom": -2.653148259999999,
  "formation_energy_per_atom": -0.033608428333330005,
  "energy_above_hull": 0.009147035000000001,
  "is_stable": false,
  "equilibrium_reaction_energy_per_atom": null,
  "decomposes_to": null,
  "xas": null,
  "grain_boundaries": null,
  "band_gap": 0.0,
  "cbm": null,
  "vbm": null,
  "efermi": 3.18549684,
  "is_gap_direct": null,
  "is_metal": null,
  "es_source_calc_id": null,
  "bandstructure": null,
  "dos": null,
  "dos_energy_up": null,
  "dos_energy_down": null,
  "is_magnetic": null,
  "ordering": null,
  "total_magnetization": 1.3100000000000002e-5,
  "total_magnetization_normalized_vol": null,
  "total_magnetization_normalized_formula_units": null,
  "num_magnetic_sites": null,
  "num_unique_magnetic_sites": null,
  "types_of_magnetic_species": null,
  "bulk_modulus": null,
  "shear_modulus": null,
  "universal_anisotropy": null,
  "homogeneous_poisson": null,
  "e_total": null,
  "e_ionic": null,
  "e_electronic": null,
  "n": null,
  "e_ij_max": null,
  "weighted_surface_energy_EV_PER_ANG2": null,
  "weighted_surface_energy": null,
  "weighted_work_function": null,
  "surface_anisotropy": null,
  "shape_factor": null,
  "has_reconstructed": null,
  "possible_species": null,
  "has_props": null,
  "theoretical": null,
  "database_IDs": null,
  "fields_not_requested": [
    "builder_meta",
    "nsites",
    "elements",
    "nelements",
    "composition",
    "composition_reduced",
    "chemsys",
    "symmetry",
    "property_name",
    "deprecated",
    "deprecation_reasons",
    "last_updated",
    "origins",
    "warnings",
    "task_ids",
    "uncorrected_energy_per_atom",
    "equilibrium_reaction_energy_per_atom",
    "decomposes_to",
    "xas",
    "grain_boundaries",
    "cbm",
    "vbm",
    "is_gap_direct",
    "is_metal",
    "es_source_calc_id",
    "bandstructure",
    "dos",
    "dos_energy_up",
    "dos_energy_down",
    "is_magnetic",
    "ordering",
    "total_magnetization_normalized_vol",
    "total_magnetization_normalized_formula_units",
    "num_magnetic_sites",
    "num_unique_magnetic_sites",
    "types_of_magnetic_species",
    "bulk_modulus",
    "shear_modulus",
    "universal_anisotropy",
    "homogeneous_poisson",
    "e_total",
    "e_ionic",
    "e_electronic",
    "n",
    "e_ij_max",
    "weighted_surface_energy_EV_PER_ANG2",
    "weighted_surface_energy",
    "weighted_work_function",
    "surface_anisotropy",
    "shape_factor",
    "has_reconstructed",
    "possible_species",
    "has_props",
    "theoretical",
    "database_IDs"
  ]
}
