{
  "builder_meta": null,
  "nsites": null,
  "elements": null,
  "nelements": null,
  "composition": null,
  "composition_reduced": null,
  "formula_pretty": "HoMn2",
  "formula_anonymous": "AB2",
  "chemsys": null,
  "volume": 187.92183042032718,
  "density": 9.713119088642866,
  "density_atomic": 15.660152535027265,
  "symmetry": null,
  "property_name": null,
  "material_id": "mp-1102759",
  "deprecated": null,
  "deprecation_reasons": null,
  "last_updated": null,
  "origins": null,
  "warnings": null,
  "structure": {
    "@module": "pymatgen.core.structure",
    "@class": "Structure",
    "charge": 0,
    "lattice": {
      "matrix": [
        [-2.532312, -4.409799, 0.0],
        [-2.532312, 4.409799, 0.0],
        [0.0, 0.0, -8.414169]
      ],
      "pbc": [true, true, true],
      "a": 5.085167773608359,
      "b": 5.085167773608359,
      "c": 8.414169,
      "alpha": 90.0,
      "beta": 90.0,
      "gamma": 120.2671008083096,
      "volume": 187.92183042032718
    },
    "properties": {},
    "sites": [
      {
        "species": [{ "element": "Ho", "occu": 1 }],
        "abc": [0.666601, 0.333399, 0.562972],
        "properties": { "magmom": -0.043000000000000003 },
        "label": "Ho",
        "xyz": [-2.532312, -1.4693538463979998, -4.736941550268]
      },
      {
        "species": [{ "element": "Ho", "occu": 1 }],
        "abc": [0.333399, 0.666601, 0.43702799999999903],
        "properties": { "magmom": -0.043000000000000003 },
        "label": "Ho",
        "xyz": [-2.532312, 1.4693538463979998, -3.6772274497319914]
      },
      {
        "species": [{ "element": "Ho", "occu": 1 }],
        "abc": [0.333399, 0.666601, 0.062972],
        "properties": { "magmom": -0.043000000000000003 },
        "label": "Ho",
        "xyz": [-2.532312, 1.4693538463979998, -0.529857050268]
      },
      {
        "species": [{ "element": "Ho", "occu": 1 }],
        "abc": [0.666601, 0.333399, 0.937028],
        "properties": { "magmom": -0.043000000000000003 },
        "label": "Ho",
        "xyz": [-2.532312, -1.4693538463979998, -7.884311949731999]
      },
      {
        "species": [{ "element": "Mn", "occu": 1 }],
        "abc": [0.0, 0.0, 0.5],
        "properties": { "magmom": 0.027 },
        "label": "Mn",
        "xyz": [0.0, 0.0, -4.2070845]
      },
      {
        "species": [{ "element": "Mn", "occu": 1 }],
        "abc": [0.0, 0.0, 0.0],
        "properties": { "magmom": 0.027 },
        "label": "Mn",
        "xyz": [0.0, 0.0, 0.0]
      },
      {
        "species": [{ "element": "Mn", "occu": 1 }],
        "abc": [0.168657, 0.336997, 0.75],
        "properties": { "magmom": 0.20500000000000002 },
        "label": "Mn",
        "xyz": [-1.280473692048, 0.7423455636599998, -6.310626749999999]
      },
      {
        "species": [{ "element": "Mn", "occu": 1 }],
        "abc": [0.168386999999999, 0.831612999999999, 0.75],
        "properties": { "magmom": 0.134 },
        "label": "Mn",
        "xyz": [-2.532311999999995, 2.924693351574, -6.310626749999999]
      },
      {
        "species": [{ "element": "Mn", "occu": 1 }],
        "abc": [0.663003, 0.831342999999999, 0.75],
        "properties": { "magmom": 0.20500000000000002 },
        "label": "Mn",
        "xyz": [-3.7841503079519976, 0.7423455636599958, -6.310626749999999]
      },
      {
        "species": [{ "element": "Mn", "occu": 1 }],
        "abc": [0.831342999999999, 0.663003, 0.25],
        "properties": { "magmom": 0.20500000000000002 },
        "label": "Mn",
        "xyz": [-3.7841503079519976, -0.7423455636599958, -2.10354225]
      },
      {
        "species": [{ "element": "Mn", "occu": 1 }],
        "abc": [0.831612999999999, 0.168386999999999, 0.25],
        "properties": { "magmom": 0.134 },
        "label": "Mn",
        "xyz": [-2.532311999999995, -2.924693351574, -2.10354225]
      },
      {
        "species": [{ "element": "Mn", "occu": 1 }],
        "abc": [0.336997, 0.168657, 0.25],
        "properties": { "magmom": 0.20500000000000002 },
        "label": "Mn",
        "xyz": [-1.280473692048, -0.7423455636599998, -2.10354225]
      }
    ]
  },
  "task_ids": null,
  "uncorrected_energy_per_atom": null,
  "energy_per_atom": -20.681708531388896,
  "formation_energy_per_atom": 0.067629223955935,
  "energy_above_hull": 0.113066953888885,
  "is_stable": false,
  "equilibrium_reaction_energy_per_atom": null,
  "decomposes_to": null,
  "xas": null,
  "grain_boundaries": null,
  "band_gap": 0.0,
  "cbm": null,
  "vbm": null,
  "efermi": 4.76260368,
  "is_gap_direct": null,
  "is_metal": null,
  "es_source_calc_id": null,
  "bandstructure": null,
  "dos": null,
  "dos_energy_up": null,
  "dos_energy_down": null,
  "is_magnetic": null,
  "ordering": null,
  "total_magnetization": 0.9811401,
  "total_magnetization_normalized_vol": null,
  "total_magnetization_normalized_formula_units": null,
  "num_magnetic_sites": null,
  "num_unique_magnetic_sites": null,
  "types_of_magnetic_species": null,
  "bulk_modulus": null,
  "shear_modulus": null,
  "universal_anisotropy": null,
  "homogeneous_poisson": null,
  "e_total": null,
  "e_ionic": null,
  "e_electronic": null,
  "n": null,
  "e_ij_max": null,
  "weighted_surface_energy_EV_PER_ANG2": null,
  "weighted_surface_energy": null,
  "weighted_work_function": null,
  "surface_anisotropy": null,
  "shape_factor": null,
  "has_reconstructed": null,
  "possible_species": null,
  "has_props": null,
  "theoretical": null,
  "database_IDs": null,
  "fields_not_requested": [
    "builder_meta",
    "nsites",
    "elements",
    "nelements",
    "composition",
    "composition_reduced",
    "chemsys",
    "symmetry",
    "property_name",
    "deprecated",
    "deprecation_reasons",
    "last_updated",
    "origins",
    "warnings",
    "task_ids",
    "uncorrected_energy_per_atom",
    "equilibrium_reaction_energy_per_atom",
    "decomposes_to",
    "xas",
    "grain_boundaries",
    "cbm",
    "vbm",
    "is_gap_direct",
    "is_metal",
    "es_source_calc_id",
    "bandstructure",
    "dos",
    "dos_energy_up",
    "dos_energy_down",
    "is_magnetic",
    "ordering",
    "total_magnetization_normalized_vol",
    "total_magnetization_normalized_formula_units",
    "num_magnetic_sites",
    "num_unique_magnetic_sites",
    "types_of_magnetic_species",
    "bulk_modulus",
    "shear_modulus",
    "universal_anisotropy",
    "homogeneous_poisson",
    "e_total",
    "e_ionic",
    "e_electronic",
    "n",
    "e_ij_max",
    "weighted_surface_energy_EV_PER_ANG2",
    "weighted_surface_energy",
    "weighted_work_function",
    "surface_anisotropy",
    "shape_factor",
    "has_reconstructed",
    "possible_species",
    "has_props",
    "theoretical",
    "database_IDs"
  ]
}
