{
  "builder_meta": null,
  "nsites": null,
  "elements": null,
  "nelements": null,
  "composition": null,
  "composition_reduced": null,
  "formula_pretty": "HoNi3",
  "formula_anonymous": "AB3",
  "chemsys": null,
  "volume": 166.47021970903992,
  "density": 10.204731361044102,
  "density_atomic": 13.87251830908666,
  "symmetry": null,
  "property_name": null,
  "material_id": "mp-2042",
  "deprecated": null,
  "deprecation_reasons": null,
  "last_updated": null,
  "origins": null,
  "warnings": null,
  "structure": {
    "@module": "pymatgen.core.structure",
    "@class": "Structure",
    "charge": 0,
    "lattice": {
      "matrix": [
        [8.12030803, -2.4515289, -0.00438978],
        [8.120306, 2.45152178, -0.00438875],
        [7.38244995, -2.029999999999998e-6, 4.17717856]
      ],
      "pbc": [true, true, true],
      "a": 8.482300143226844,
      "b": 8.48229614152777,
      "c": 8.482298508445856,
      "alpha": 33.598189300679,
      "beta": 33.598200289273365,
      "gamma": 33.59818615477851,
      "volume": 166.47021970903992
    },
    "properties": {},
    "sites": [
      {
        "species": [{ "element": "Ho", "occu": 1 }],
        "abc": [0.86119635, 0.86119635, 0.86119635],
        "properties": { "magmom": -0.113 },
        "label": "Ho",
        "xyz": [20.344096475392472, -7.879946602503515e-6, 3.5898108911758904]
      },
      {
        "species": [{ "element": "Ho", "occu": 1 }],
        "abc": [0.13880365, 0.13880365, 0.13880365],
        "properties": { "magmom": -0.113 },
        "label": "Ho",
        "xyz": [3.278967504607527, -1.2700533974680757e-6, 0.5785891388241095]
      },
      {
        "species": [{ "element": "Ho", "occu": 1 }],
        "abc": [0.0, 0.0, 0.0],
        "properties": { "magmom": -0.109 },
        "label": "Ho",
        "xyz": [0.0, 0.0, 0.0]
      },
      {
        "species": [{ "element": "Ni", "occu": 1 }],
        "abc": [0.41750741, 0.41750741, 0.91986405],
        "properties": { "magmom": 0.309 },
        "label": "Ni",
        "xyz": [13.57142701040426, -4.8399767805590005e-6, 3.8387712864508607]
      },
      {
        "species": [{ "element": "Ni", "occu": 1 }],
        "abc": [0.91986405, 0.41750641, 0.41750741],
        "properties": { "magmom": 0.309 },
        "label": "Ni",
        "xyz": [13.942086795963911, -1.2315480927814775, 1.738132669626833]
      },
      {
        "species": [{ "element": "Ni", "occu": 1 }],
        "abc": [0.41750741, 0.91986405, 0.41750741],
        "properties": { "magmom": 0.309 },
        "label": "Ni",
        "xyz": [13.942093896485932, 1.2315344240948178, 1.7381331826654223]
      },
      {
        "species": [{ "element": "Ni", "occu": 1 }],
        "abc": [0.5, 0.5, 0.5],
        "properties": { "magmom": 0.14300000000000002 },
        "label": "Ni",
        "xyz": [11.811531989999999, -4.574999999902529e-6, 2.084200015]
      },
      {
        "species": [{ "element": "Ni", "occu": 1 }],
        "abc": [0.33328179, 0.33328179, 0.33328279],
        "properties": { "magmom": 0.401 },
        "label": "Ni",
        "xyz": [7.873144430988875, -3.0495304084547004e-6, 1.3892560006130137]
      },
      {
        "species": [{ "element": "Ni", "occu": 1 }],
        "abc": [0.66671821, 0.66671821, 0.6667172100000001],
        "properties": { "magmom": 0.401 },
        "label": "Ni",
        "xyz": [15.749919549011127, -6.100469591350357e-6, 2.7791440293869862]
      },
      {
        "species": [{ "element": "Ni", "occu": 1 }],
        "abc": [0.08013595, 0.58249359, 0.58249259],
        "properties": { "magmom": 0.309 },
        "label": "Ni",
        "xyz": [9.680977184036088, 1.2315389427814776, 2.430267360373167]
      },
      {
        "species": [{ "element": "Ni", "occu": 1 }],
        "abc": [0.58249259, 0.58249259, 0.08013595],
        "properties": { "magmom": 0.309 },
        "label": "Ni",
        "xyz": [10.051636969595739, -4.310023219246058e-6, 0.32962874354913924]
      },
      {
        "species": [{ "element": "Ni", "occu": 1 }],
        "abc": [0.58249259, 0.08013595, 0.58249259],
        "properties": { "magmom": 0.309 },
        "label": "Ni",
        "xyz": [9.680970083514069, -1.2315435740948177, 2.4302668473345777]
      }
    ]
  },
  "task_ids": null,
  "uncorrected_energy_per_atom": null,
  "energy_per_atom": -5.9062065883333315,
  "formation_energy_per_atom": -0.421684212083328,
  "energy_above_hull": 0.0,
  "is_stable": true,
  "equilibrium_reaction_energy_per_atom": null,
  "decomposes_to": null,
  "xas": null,
  "grain_boundaries": null,
  "band_gap": 0.0,
  "cbm": null,
  "vbm": null,
  "efermi": 6.26444842,
  "is_gap_direct": null,
  "is_metal": null,
  "es_source_calc_id": null,
  "bandstructure": null,
  "dos": null,
  "dos_energy_up": null,
  "dos_energy_down": null,
  "is_magnetic": null,
  "ordering": null,
  "total_magnetization": 2.2046725,
  "total_magnetization_normalized_vol": null,
  "total_magnetization_normalized_formula_units": null,
  "num_magnetic_sites": null,
  "num_unique_magnetic_sites": null,
  "types_of_magnetic_species": null,
  "bulk_modulus": null,
  "shear_modulus": null,
  "universal_anisotropy": null,
  "homogeneous_poisson": null,
  "e_total": null,
  "e_ionic": null,
  "e_electronic": null,
  "n": null,
  "e_ij_max": null,
  "weighted_surface_energy_EV_PER_ANG2": null,
  "weighted_surface_energy": null,
  "weighted_work_function": null,
  "surface_anisotropy": null,
  "shape_factor": null,
  "has_reconstructed": null,
  "possible_species": null,
  "has_props": null,
  "theoretical": null,
  "database_IDs": null,
  "fields_not_requested": [
    "builder_meta",
    "nsites",
    "elements",
    "nelements",
    "composition",
    "composition_reduced",
    "chemsys",
    "symmetry",
    "property_name",
    "deprecated",
    "deprecation_reasons",
    "last_updated",
    "origins",
    "warnings",
    "task_ids",
    "uncorrected_energy_per_atom",
    "equilibrium_reaction_energy_per_atom",
    "decomposes_to",
    "xas",
    "grain_boundaries",
    "cbm",
    "vbm",
    "is_gap_direct",
    "is_metal",
    "es_source_calc_id",
    "bandstructure",
    "dos",
    "dos_energy_up",
    "dos_energy_down",
    "is_magnetic",
    "ordering",
    "total_magnetization_normalized_vol",
    "total_magnetization_normalized_formula_units",
    "num_magnetic_sites",
    "num_unique_magnetic_sites",
    "types_of_magnetic_species",
    "bulk_modulus",
    "shear_modulus",
    "universal_anisotropy",
    "homogeneous_poisson",
    "e_total",
    "e_ionic",
    "e_electronic",
    "n",
    "e_ij_max",
    "weighted_surface_energy_EV_PER_ANG2",
    "weighted_surface_energy",
    "weighted_work_function",
    "surface_anisotropy",
    "shape_factor",
    "has_reconstructed",
    "possible_species",
    "has_props",
    "theoretical",
    "database_IDs"
  ]
}
