{"builder_meta": null, "nsites": null, "elements": null, "nelements": null, "composition": null, "composition_reduced": null, "formula_pretty": "HoNi2", "formula_anonymous": "AB2", "chemsys": null, "volume": 88.18805716042701, "density": 10.631793510932818, "density_atomic": 14.698009526737835, "symmetry": null, "property_name": null, "material_id": "mp-673", "deprecated": null, "deprecation_reasons": null, "last_updated": null, "origins": null, "warnings": null, "structure": {"@module": "pymatgen.core.structure", "@class": "Structure", "charge": 0, "lattice": {"matrix": [[4.32685029, 3.06e-06, 2.498113479999999], [1.44228615, 4.07939923, 2.498113479999999], [1.02e-06, 1.02e-06, 4.9962239]], "pbc": [true, true, true], "a": 4.996219009515111, "b": 4.996224412009945, "c": 4.996223900000208, "alpha": 59.999968202634214, "beta": 59.99993566301477, "gamma": 59.999936399364806, "volume": 88.18805716042702}, "properties": {}, "sites": [{"species": [{"element": "Ho", "occu": 1}], "abc": [0.124999, 0.125, 0.125], "properties": {"magmom": -0.0}, "label": "Ho", "xyz": [0.72113785564971, 0.50992541374694, 1.2490538593865197]}, {"species": [{"element": "Ho", "occu": 1}], "abc": [0.875000999999999, 0.875, 0.875], "properties": {"magmom": -0.0}, "label": "Ho", "xyz": [5.047999604350286, 3.5694778962530602, 8.743397000613475]}, {"species": [{"element": "Ni", "occu": 1}], "abc": [0.5, 0.0, 0.5], "properties": {"magmom": 0.0}, "label": "Ni", "xyz": [2.163425655, 2.04e-06, 3.7471686899999996]}, {"species": [{"element": "Ni", "occu": 1}], "abc": [-0.0, 0.5, 0.5], "properties": {"magmom": 0.0}, "label": "Ni", "xyz": [0.721143585, 2.039700125, 3.7471686899999996]}, {"species": [{"element": "Ni", "occu": 1}], "abc": [0.5, 0.5, 0.5], "properties": {"magmom": 0.0}, "label": "Ni", "xyz": [2.8845687300000002, 2.039701655, 4.996225429999999]}, {"species": [{"element": "Ni", "occu": 1}], "abc": [0.5, 0.5, -0.0], "properties": {"magmom": 0.0}, "label": "Ni", "xyz": [2.8845682200000002, 2.039701145, 2.498113479999999]}]}, "task_ids": null, "uncorrected_energy_per_atom": null, "energy_per_atom": -5.8453141233333366, "formation_energy_per_atom": -0.459329848333332, "energy_above_hull": 0.0, "is_stable": true, "equilibrium_reaction_energy_per_atom": null, "decomposes_to": null, "xas": null, "grain_boundaries": null, "band_gap": 0.0, "cbm": null, "vbm": null, "efermi": 6.08797387, "is_gap_direct": null, "is_metal": null, "es_source_calc_id": null, "bandstructure": null, "dos": null, "dos_energy_up": null, "dos_energy_down": null, "is_magnetic": null, "ordering": null, "total_magnetization": 1.5e-06, "total_magnetization_normalized_vol": null, "total_magnetization_normalized_formula_units": null, "num_magnetic_sites": null, "num_unique_magnetic_sites": null, "types_of_magnetic_species": null, "bulk_modulus": null, "shear_modulus": null, "universal_anisotropy": null, "homogeneous_poisson": null, "e_total": null, "e_ionic": null, "e_electronic": null, "n": null, "e_ij_max": null, "weighted_surface_energy_EV_PER_ANG2": null, "weighted_surface_energy": null, "weighted_work_function": null, "surface_anisotropy": null, "shape_factor": null, "has_reconstructed": null, "possible_species": null, "has_props": null, "theoretical": null, "database_IDs": null, "fields_not_requested": ["builder_meta", "nsites", "elements", "nelements", "composition", "composition_reduced", "chemsys", "symmetry", "property_name", "deprecated", "deprecation_reasons", "last_updated", "origins", "warnings", "task_ids", "uncorrected_energy_per_atom", "equilibrium_reaction_energy_per_atom", "decomposes_to", "xas", "grain_boundaries", "cbm", "vbm", "is_gap_direct", "is_metal", "es_source_calc_id", "bandstructure", "dos", "dos_energy_up", "dos_energy_down", "is_magnetic", "ordering", "total_magnetization_normalized_vol", "total_magnetization_normalized_formula_units", "num_magnetic_sites", "num_unique_magnetic_sites", "types_of_magnetic_species", "bulk_modulus", "shear_modulus", "universal_anisotropy", "homogeneous_poisson", "e_total", "e_ionic", "e_electronic", "n", "e_ij_max", "weighted_surface_energy_EV_PER_ANG2", "weighted_surface_energy", "weighted_work_function", "surface_anisotropy", "shape_factor", "has_reconstructed", "possible_species", "has_props", "theoretical", "database_IDs"]}