{"builder_meta": null, "nsites": null, "elements": null, "nelements": null, "composition": null, "composition_reduced": null, "formula_pretty": "HoNp", "formula_anonymous": "AB", "chemsys": null, "volume": 54.67399469555934, "density": 12.20728432461233, "density_atomic": 27.33699734777967, "symmetry": null, "property_name": null, "material_id": "mp-1184927", "deprecated": null, "deprecation_reasons": null, "last_updated": null, "origins": null, "warnings": null, "structure": {"@module": "pymatgen.core.structure", "@class": "Structure", "charge": 0, "lattice": {"matrix": [[3.297112, 0.001782, 4.999999999999999e-06], [-1.647, 2.851024, -4e-06], [8e-06, -4e-06, 5.814477]], "pbc": [true, true, true], "a": 3.297112481565195, "b": 3.292559315880581, "c": 5.814477000006879, "alpha": 90.00014316980014, "beta": 89.99983430160603, "gamma": 119.98350852392439, "volume": 54.67399469555934}, "properties": {}, "sites": [{"species": [{"element": "Ho", "occu": 1}], "abc": [0.666909, 0.333192, 0.75], "properties": {"magmom": -0.006}, "label": "Ho", "xyz": [1.6501124428079996, 0.9511238204459999, 4.360859751777]}, {"species": [{"element": "Np", "occu": 1}], "abc": [0.33309000000000005, 0.666808, 0.249999], "properties": {"magmom": 0.018000000000000002}, "label": "Np", "xyz": [4.260072000260345e-06, 1.901678177776, 1.453612433741]}]}, "task_ids": null, "uncorrected_energy_per_atom": null, "energy_per_atom": -57.0653846375, "formation_energy_per_atom": 0.8873930856249991, "energy_above_hull": 0.8873930856249991, "is_stable": false, "equilibrium_reaction_energy_per_atom": null, "decomposes_to": null, "xas": null, "grain_boundaries": null, "band_gap": 0.0, "cbm": null, "vbm": null, "efermi": 7.69563, "is_gap_direct": null, "is_metal": null, "es_source_calc_id": null, "bandstructure": null, "dos": null, "dos_energy_up": null, "dos_energy_down": null, "is_magnetic": null, "ordering": null, "total_magnetization": 0.0056717, "total_magnetization_normalized_vol": null, "total_magnetization_normalized_formula_units": null, "num_magnetic_sites": null, "num_unique_magnetic_sites": null, "types_of_magnetic_species": null, "bulk_modulus": null, "shear_modulus": null, "universal_anisotropy": null, "homogeneous_poisson": null, "e_total": null, "e_ionic": null, "e_electronic": null, "n": null, "e_ij_max": null, "weighted_surface_energy_EV_PER_ANG2": null, "weighted_surface_energy": null, "weighted_work_function": null, "surface_anisotropy": null, "shape_factor": null, "has_reconstructed": null, "possible_species": null, "has_props": null, "theoretical": null, "database_IDs": null, "fields_not_requested": ["builder_meta", "nsites", "elements", "nelements", "composition", "composition_reduced", "chemsys", "symmetry", "property_name", "deprecated", "deprecation_reasons", "last_updated", "origins", "warnings", "task_ids", "uncorrected_energy_per_atom", "equilibrium_reaction_energy_per_atom", "decomposes_to", "xas", "grain_boundaries", "cbm", "vbm", "is_gap_direct", "is_metal", "es_source_calc_id", "bandstructure", "dos", "dos_energy_up", "dos_energy_down", "is_magnetic", "ordering", "total_magnetization_normalized_vol", "total_magnetization_normalized_formula_units", "num_magnetic_sites", "num_unique_magnetic_sites", "types_of_magnetic_species", "bulk_modulus", "shear_modulus", "universal_anisotropy", "homogeneous_poisson", "e_total", "e_ionic", "e_electronic", "n", "e_ij_max", "weighted_surface_energy_EV_PER_ANG2", "weighted_surface_energy", "weighted_work_function", "surface_anisotropy", "shape_factor", "has_reconstructed", "possible_species", "has_props", "theoretical", "database_IDs"]}