{"builder_meta": null, "nsites": null, "elements": null, "nelements": null, "composition": null, "composition_reduced": null, "formula_pretty": "HoO", "formula_anonymous": "AB", "chemsys": null, "volume": 65.81567811599636, "density": 9.129765945417732, "density_atomic": 16.45391952899909, "symmetry": null, "property_name": null, "material_id": "mp-974336", "deprecated": null, "deprecation_reasons": null, "last_updated": null, "origins": null, "warnings": null, "structure": {"@module": "pymatgen.core.structure", "@class": "Structure", "charge": 0, "lattice": {"matrix": [[1.985196, -3.43846, 0.0], [1.985196, 3.43846, 0.0], [0.0, 0.0, 4.820943]], "pbc": [true, true, true], "a": 3.9703917098966444, "b": 3.9703917098966444, "c": 4.820943, "alpha": 90.0, "beta": 90.0, "gamma": 119.99999516594707, "volume": 65.81567811599636}, "properties": {}, "sites": [{"species": [{"element": "Ho", "occu": 1}], "abc": [0.666667, 0.333333, 0.25], "properties": {"magmom": -0.002}, "label": "Ho", "xyz": [1.9851960000000002, -1.1461556256400003, 1.20523575]}, {"species": [{"element": "Ho", "occu": 1}], "abc": [0.333333, 0.666667, 0.75], "properties": {"magmom": -0.001}, "label": "Ho", "xyz": [1.9851960000000002, 1.1461556256400003, 3.61570725]}, {"species": [{"element": "O", "occu": 1}], "abc": [0.666667, 0.333333, 0.75], "properties": {"magmom": -0.002}, "label": "O", "xyz": [1.9851960000000002, -1.1461556256400003, 3.61570725]}, {"species": [{"element": "O", "occu": 1}], "abc": [0.333333, 0.666667, 0.25], "properties": {"magmom": -0.002}, "label": "O", "xyz": [1.9851960000000002, 1.1461556256400003, 1.20523575]}]}, "task_ids": null, "uncorrected_energy_per_atom": null, "energy_per_atom": -7.8895938375, "formation_energy_per_atom": -3.116773602499997, "energy_above_hull": 0.239525934791668, "is_stable": false, "equilibrium_reaction_energy_per_atom": null, "decomposes_to": null, "xas": null, "grain_boundaries": null, "band_gap": 0.0, "cbm": null, "vbm": null, "efermi": 5.01474705, "is_gap_direct": null, "is_metal": null, "es_source_calc_id": null, "bandstructure": null, "dos": null, "dos_energy_up": null, "dos_energy_down": null, "is_magnetic": null, "ordering": null, "total_magnetization": 0.0150385, "total_magnetization_normalized_vol": null, "total_magnetization_normalized_formula_units": null, "num_magnetic_sites": null, "num_unique_magnetic_sites": null, "types_of_magnetic_species": null, "bulk_modulus": null, "shear_modulus": null, "universal_anisotropy": null, "homogeneous_poisson": null, "e_total": null, "e_ionic": null, "e_electronic": null, "n": null, "e_ij_max": null, "weighted_surface_energy_EV_PER_ANG2": null, "weighted_surface_energy": null, "weighted_work_function": null, "surface_anisotropy": null, "shape_factor": null, "has_reconstructed": null, "possible_species": null, "has_props": null, "theoretical": null, "database_IDs": null, "fields_not_requested": ["builder_meta", "nsites", "elements", "nelements", "composition", "composition_reduced", "chemsys", "symmetry", "property_name", "deprecated", "deprecation_reasons", "last_updated", "origins", "warnings", "task_ids", "uncorrected_energy_per_atom", "equilibrium_reaction_energy_per_atom", "decomposes_to", "xas", "grain_boundaries", "cbm", "vbm", "is_gap_direct", "is_metal", "es_source_calc_id", "bandstructure", "dos", "dos_energy_up", "dos_energy_down", "is_magnetic", "ordering", "total_magnetization_normalized_vol", "total_magnetization_normalized_formula_units", "num_magnetic_sites", "num_unique_magnetic_sites", "types_of_magnetic_species", "bulk_modulus", "shear_modulus", "universal_anisotropy", "homogeneous_poisson", "e_total", "e_ionic", "e_electronic", "n", "e_ij_max", "weighted_surface_energy_EV_PER_ANG2", "weighted_surface_energy", "weighted_work_function", "surface_anisotropy", "shape_factor", "has_reconstructed", "possible_species", "has_props", "theoretical", "database_IDs"]}