{
  "builder_meta": null,
  "nsites": null,
  "elements": null,
  "nelements": null,
  "composition": null,
  "composition_reduced": null,
  "formula_pretty": "HoO3",
  "formula_anonymous": "AB3",
  "chemsys": null,
  "volume": 124.03161963961664,
  "density": 5.701386902479575,
  "density_atomic": 15.50395245495208,
  "symmetry": null,
  "property_name": null,
  "material_id": "mp-1025565",
  "deprecated": null,
  "deprecation_reasons": null,
  "last_updated": null,
  "origins": null,
  "warnings": null,
  "structure": {
    "@module": "pymatgen.core.structure",
    "@class": "Structure",
    "charge": 0,
    "lattice": {
      "matrix": [
        [3.243966, -5.618714, 0.0],
        [3.243966, 5.618714, 0.0],
        [0.0, 0.0, 3.40243]
      ],
      "pbc": [true, true, true],
      "a": 6.487932060599278,
      "b": 6.487932060599278,
      "c": 3.40243,
      "alpha": 90.0,
      "beta": 90.0,
      "gamma": 120.00000061794977,
      "volume": 124.03161963961664
    },
    "properties": {},
    "sites": [
      {
        "species": [{ "element": "Ho", "occu": 1 }],
        "abc": [0.333333, 0.666667, 0.75],
        "properties": { "magmom": -0.029 },
        "label": "Ho",
        "xyz": [3.2439660000000003, 1.8729084124759998, 2.5518225]
      },
      {
        "species": [{ "element": "Ho", "occu": 1 }],
        "abc": [0.666667, 0.333333, 0.25],
        "properties": { "magmom": -0.029 },
        "label": "Ho",
        "xyz": [3.2439660000000003, -1.8729084124759998, 0.8506075]
      },
      {
        "species": [{ "element": "O", "occu": 1 }],
        "abc": [0.942051, 0.575477999999999, 0.75],
        "properties": { "magmom": 0.839 },
        "label": "O",
        "xyz": [4.922812480013997, -2.0596688471220053, 2.5518225]
      },
      {
        "species": [{ "element": "O", "occu": 1 }],
        "abc": [0.057949, 0.424521999999999, 0.25],
        "properties": { "magmom": 0.838 },
        "label": "O",
        "xyz": [1.5651195199859966, 2.0596688471219946, 0.8506075]
      },
      {
        "species": [{ "element": "O", "occu": 1 }],
        "abc": [0.633427, 0.057949, 0.75],
        "properties": { "magmom": 0.839 },
        "label": "O",
        "xyz": [2.242800237216, -3.233446295292, 2.5518225]
      },
      {
        "species": [{ "element": "O", "occu": 1 }],
        "abc": [0.366573, 0.942051, 0.25],
        "properties": { "magmom": 0.838 },
        "label": "O",
        "xyz": [4.245131762784, 3.233446295292, 0.8506075]
      },
      {
        "species": [{ "element": "O", "occu": 1 }],
        "abc": [0.424521999999999, 0.366573, 0.75],
        "properties": { "magmom": 0.839 },
        "label": "O",
        "xyz": [2.5662852827699965, -0.3255988575859945, 2.5518225]
      },
      {
        "species": [{ "element": "O", "occu": 1 }],
        "abc": [0.575477999999999, 0.633427, 0.25],
        "properties": { "magmom": 0.838 },
        "label": "O",
        "xyz": [3.921646717229997, 0.32559885758600515, 0.8506075]
      }
    ]
  },
  "task_ids": null,
  "uncorrected_energy_per_atom": null,
  "energy_per_atom": -6.9231288187499995,
  "formation_energy_per_atom": -2.062738198749999,
  "energy_above_hull": 0.45448645421874906,
  "is_stable": false,
  "equilibrium_reaction_energy_per_atom": null,
  "decomposes_to": null,
  "xas": null,
  "grain_boundaries": null,
  "band_gap": 0.1889,
  "cbm": null,
  "vbm": null,
  "efermi": -0.44644172,
  "is_gap_direct": null,
  "is_metal": null,
  "es_source_calc_id": null,
  "bandstructure": null,
  "dos": null,
  "dos_energy_up": null,
  "dos_energy_down": null,
  "is_magnetic": null,
  "ordering": null,
  "total_magnetization": 6.000821,
  "total_magnetization_normalized_vol": null,
  "total_magnetization_normalized_formula_units": null,
  "num_magnetic_sites": null,
  "num_unique_magnetic_sites": null,
  "types_of_magnetic_species": null,
  "bulk_modulus": null,
  "shear_modulus": null,
  "universal_anisotropy": null,
  "homogeneous_poisson": null,
  "e_total": null,
  "e_ionic": null,
  "e_electronic": null,
  "n": null,
  "e_ij_max": null,
  "weighted_surface_energy_EV_PER_ANG2": null,
  "weighted_surface_energy": null,
  "weighted_work_function": null,
  "surface_anisotropy": null,
  "shape_factor": null,
  "has_reconstructed": null,
  "possible_species": null,
  "has_props": null,
  "theoretical": null,
  "database_IDs": null,
  "fields_not_requested": [
    "builder_meta",
    "nsites",
    "elements",
    "nelements",
    "composition",
    "composition_reduced",
    "chemsys",
    "symmetry",
    "property_name",
    "deprecated",
    "deprecation_reasons",
    "last_updated",
    "origins",
    "warnings",
    "task_ids",
    "uncorrected_energy_per_atom",
    "equilibrium_reaction_energy_per_atom",
    "decomposes_to",
    "xas",
    "grain_boundaries",
    "cbm",
    "vbm",
    "is_gap_direct",
    "is_metal",
    "es_source_calc_id",
    "bandstructure",
    "dos",
    "dos_energy_up",
    "dos_energy_down",
    "is_magnetic",
    "ordering",
    "total_magnetization_normalized_vol",
    "total_magnetization_normalized_formula_units",
    "num_magnetic_sites",
    "num_unique_magnetic_sites",
    "types_of_magnetic_species",
    "bulk_modulus",
    "shear_modulus",
    "universal_anisotropy",
    "homogeneous_poisson",
    "e_total",
    "e_ionic",
    "e_electronic",
    "n",
    "e_ij_max",
    "weighted_surface_energy_EV_PER_ANG2",
    "weighted_surface_energy",
    "weighted_work_function",
    "surface_anisotropy",
    "shape_factor",
    "has_reconstructed",
    "possible_species",
    "has_props",
    "theoretical",
    "database_IDs"
  ]
}
