{
  "builder_meta": null,
  "nsites": null,
  "elements": null,
  "nelements": null,
  "composition": null,
  "composition_reduced": null,
  "formula_pretty": "HoOs3",
  "formula_anonymous": "AB3",
  "chemsys": null,
  "volume": 135.66097040525935,
  "density": 18.008514547636416,
  "density_atomic": 16.95762130065742,
  "symmetry": null,
  "property_name": null,
  "material_id": "mp-1184920",
  "deprecated": null,
  "deprecation_reasons": null,
  "last_updated": null,
  "origins": null,
  "warnings": null,
  "structure": {
    "@module": "pymatgen.core.structure",
    "@class": "Structure",
    "charge": 0,
    "lattice": {
      "matrix": [
        [2.9098990000000002, -5.040092, 0.0],
        [2.9098990000000002, 5.040092, 0.0],
        [0.0, 0.0, 4.624966]
      ],
      "pbc": [true, true, true],
      "a": 5.819797209410737,
      "b": 5.819797209410737,
      "c": 4.624966,
      "alpha": 90.0,
      "beta": 90.0,
      "gamma": 119.9999910125793,
      "volume": 135.66097040525938
    },
    "properties": {},
    "sites": [
      {
        "species": [{ "element": "Ho", "occu": 1 }],
        "abc": [0.333333, 0.666667, 0.75],
        "properties": { "magmom": -0.0 },
        "label": "Ho",
        "xyz": [2.9098990000000002, 1.680034026728, 3.4687244999999995]
      },
      {
        "species": [{ "element": "Ho", "occu": 1 }],
        "abc": [0.666667, 0.333333, 0.25],
        "properties": { "magmom": -0.0 },
        "label": "Ho",
        "xyz": [2.9098990000000002, -1.680034026728, 1.1562415]
      },
      {
        "species": [{ "element": "Os", "occu": 1 }],
        "abc": [0.158629, 0.317258, 0.25],
        "properties": { "magmom": -0.001 },
        "label": "Os",
        "xyz": [1.384783105413, 0.7995047538679999, 1.1562415]
      },
      {
        "species": [{ "element": "Os", "occu": 1 }],
        "abc": [0.682742, 0.841371, 0.25],
        "properties": { "magmom": -0.001 },
        "label": "Os",
        "xyz": [4.435014894587, 0.7995047538680002, 1.1562415]
      },
      {
        "species": [{ "element": "Os", "occu": 1 }],
        "abc": [0.158629, 0.841371, 0.25],
        "properties": { "magmom": -0.002 },
        "label": "Os",
        "xyz": [2.9098990000000002, 3.441082492264, 1.1562415]
      },
      {
        "species": [{ "element": "Os", "occu": 1 }],
        "abc": [0.841371, 0.682742, 0.75],
        "properties": { "magmom": -0.001 },
        "label": "Os",
        "xyz": [4.435014894587, -0.7995047538680002, 3.4687244999999995]
      },
      {
        "species": [{ "element": "Os", "occu": 1 }],
        "abc": [0.317258, 0.158629, 0.75],
        "properties": { "magmom": -0.001 },
        "label": "Os",
        "xyz": [1.384783105413, -0.7995047538679999, 3.4687244999999995]
      },
      {
        "species": [{ "element": "Os", "occu": 1 }],
        "abc": [0.841371, 0.158629, 0.75],
        "properties": { "magmom": -0.002 },
        "label": "Os",
        "xyz": [2.9098990000000002, -3.441082492264, 3.4687244999999995]
      }
    ]
  },
  "task_ids": null,
  "uncorrected_energy_per_atom": null,
  "energy_per_atom": -47.64240165875,
  "formation_energy_per_atom": 0.316855957499996,
  "energy_above_hull": 0.624711536874997,
  "is_stable": false,
  "equilibrium_reaction_energy_per_atom": null,
  "decomposes_to": null,
  "xas": null,
  "grain_boundaries": null,
  "band_gap": 0.0,
  "cbm": null,
  "vbm": null,
  "efermi": 6.20228634,
  "is_gap_direct": null,
  "is_metal": null,
  "es_source_calc_id": null,
  "bandstructure": null,
  "dos": null,
  "dos_energy_up": null,
  "dos_energy_down": null,
  "is_magnetic": null,
  "ordering": null,
  "total_magnetization": 0.0128928,
  "total_magnetization_normalized_vol": null,
  "total_magnetization_normalized_formula_units": null,
  "num_magnetic_sites": null,
  "num_unique_magnetic_sites": null,
  "types_of_magnetic_species": null,
  "bulk_modulus": null,
  "shear_modulus": null,
  "universal_anisotropy": null,
  "homogeneous_poisson": null,
  "e_total": null,
  "e_ionic": null,
  "e_electronic": null,
  "n": null,
  "e_ij_max": null,
  "weighted_surface_energy_EV_PER_ANG2": null,
  "weighted_surface_energy": null,
  "weighted_work_function": null,
  "surface_anisotropy": null,
  "shape_factor": null,
  "has_reconstructed": null,
  "possible_species": null,
  "has_props": null,
  "theoretical": null,
  "database_IDs": null,
  "fields_not_requested": [
    "builder_meta",
    "nsites",
    "elements",
    "nelements",
    "composition",
    "composition_reduced",
    "chemsys",
    "symmetry",
    "property_name",
    "deprecated",
    "deprecation_reasons",
    "last_updated",
    "origins",
    "warnings",
    "task_ids",
    "uncorrected_energy_per_atom",
    "equilibrium_reaction_energy_per_atom",
    "decomposes_to",
    "xas",
    "grain_boundaries",
    "cbm",
    "vbm",
    "is_gap_direct",
    "is_metal",
    "es_source_calc_id",
    "bandstructure",
    "dos",
    "dos_energy_up",
    "dos_energy_down",
    "is_magnetic",
    "ordering",
    "total_magnetization_normalized_vol",
    "total_magnetization_normalized_formula_units",
    "num_magnetic_sites",
    "num_unique_magnetic_sites",
    "types_of_magnetic_species",
    "bulk_modulus",
    "shear_modulus",
    "universal_anisotropy",
    "homogeneous_poisson",
    "e_total",
    "e_ionic",
    "e_electronic",
    "n",
    "e_ij_max",
    "weighted_surface_energy_EV_PER_ANG2",
    "weighted_surface_energy",
    "weighted_work_function",
    "surface_anisotropy",
    "shape_factor",
    "has_reconstructed",
    "possible_species",
    "has_props",
    "theoretical",
    "database_IDs"
  ]
}
