{"builder_meta": null, "nsites": null, "elements": null, "nelements": null, "composition": null, "composition_reduced": null, "formula_pretty": "HoOs2", "formula_anonymous": "AB2", "chemsys": null, "volume": 213.0297019843091, "density": 17.004988965758045, "density_atomic": 17.75247516535909, "symmetry": null, "property_name": null, "material_id": "mp-1101953", "deprecated": null, "deprecation_reasons": null, "last_updated": null, "origins": null, "warnings": null, "structure": {"@module": "pymatgen.core.structure", "@class": "Structure", "charge": 0, "lattice": {"matrix": [[-2.62986322, -4.5550489800000005, -1.02e-06], [-2.62986322, 4.5550489800000005, 0.0], [-1.02e-06, -1.02e-06, -8.8916826]], "pbc": [true, true, true], "a": 5.259719742163917, "b": 5.259719742163817, "c": 8.891682600000117, "alpha": 90.0000024057411, "beta": 89.99997991044512, "gamma": 119.9999157511438, "volume": 213.02970198430913}, "properties": {}, "sites": [{"species": [{"element": "Ho", "occu": 1}], "abc": [0.66666639, 0.33333361, 0.56573963], "properties": {"magmom": 0.0}, "label": "Ho", "xyz": [-2.6298637970544223, -1.5183477165939876, -5.030377904201156]}, {"species": [{"element": "Ho", "occu": 1}], "abc": [0.33333225, 0.66666675, 0.43426992000000003], "properties": {"magmom": 0.0}, "label": "Ho", "xyz": [-2.629861033092098, 1.5183545312684916, -3.861390631366287]}, {"species": [{"element": "Ho", "occu": 1}], "abc": [0.33333225, 0.66666675, 0.06573108], "properties": {"magmom": 0.0}, "label": "Ho", "xyz": [-2.629860657182481, 1.5183549071781084, -0.5844602403141029]}, {"species": [{"element": "Ho", "occu": 1}], "abc": [0.66666639, 0.33333361, 0.9342603700000001], "properties": {"magmom": 0.0}, "label": "Ho", "xyz": [-2.6298641729455774, -1.5183480924851422, -8.307147355798278]}, {"species": [{"element": "Os", "occu": 1}], "abc": [4.2e-07, -4.2e-07, 0.50003805], "properties": {"magmom": -0.0}, "label": "Os", "xyz": [-5.10038811e-07, -4.3362799542e-06, -4.446179628523358]}, {"species": [{"element": "Os", "occu": 1}], "abc": [4.2e-07, -4.2e-07, -3.805e-05], "properties": {"magmom": -0.0}, "label": "Os", "xyz": [3.8811e-11, -3.8262023322e-06, 0.00033832852250160003]}, {"species": [{"element": "Os", "occu": 1}], "abc": [0.1713304, 0.34266807, 0.749999], "properties": {"magmom": -0.0}, "label": "Os", "xyz": [-1.3517464363882532, 0.7804507139700966, -6.6687532330744075]}, {"species": [{"element": "Os", "occu": 1}], "abc": [0.17131592, 0.82868408, 0.75], "properties": {"magmom": -0.0}, "label": "Os", "xyz": [-2.629863985, 2.9943434016924777, -6.668762124742238]}, {"species": [{"element": "Os", "occu": 1}], "abc": [0.65733193, 0.8286696, 0.75], "properties": {"magmom": -0.0}, "label": "Os", "xyz": [-3.907981533610726, 0.7804507139690766, -6.668762620478568]}, {"species": [{"element": "Os", "occu": 1}], "abc": [0.82867519, 0.65734136, 0.25], "properties": {"magmom": -0.0}, "label": "Os", "xyz": [-3.9080205241562904, -0.7804342425809934, -2.2229214952486935]}, {"species": [{"element": "Os", "occu": 1}], "abc": [0.8286888, 0.1713112, 0.25], "properties": {"magmom": -0.0}, "label": "Os", "xyz": [-2.6298634749999996, -2.9943874213548485, -2.2229214952625758]}, {"species": [{"element": "Os", "occu": 1}], "abc": [0.34265864, 0.17132481, 0.25], "properties": {"magmom": -0.0}, "label": "Os", "xyz": [-1.351706425843709, -0.7804342425809936, -2.2229209995118127]}]}, "task_ids": null, "uncorrected_energy_per_atom": null, "energy_per_atom": -46.6944079775, "formation_energy_per_atom": -0.41047410583333505, "energy_above_hull": 0.0, "is_stable": true, "equilibrium_reaction_energy_per_atom": null, "decomposes_to": null, "xas": null, "grain_boundaries": null, "band_gap": 0.0, "cbm": null, "vbm": null, "efermi": 6.14815022, "is_gap_direct": null, "is_metal": null, "es_source_calc_id": null, "bandstructure": null, "dos": null, "dos_energy_up": null, "dos_energy_down": null, "is_magnetic": null, "ordering": null, "total_magnetization": 1.8e-06, "total_magnetization_normalized_vol": null, "total_magnetization_normalized_formula_units": null, "num_magnetic_sites": null, "num_unique_magnetic_sites": null, "types_of_magnetic_species": null, "bulk_modulus": null, "shear_modulus": null, "universal_anisotropy": null, "homogeneous_poisson": null, "e_total": null, "e_ionic": null, "e_electronic": null, "n": null, "e_ij_max": null, "weighted_surface_energy_EV_PER_ANG2": null, "weighted_surface_energy": null, "weighted_work_function": null, "surface_anisotropy": null, "shape_factor": null, "has_reconstructed": null, "possible_species": null, "has_props": null, "theoretical": null, "database_IDs": null, "fields_not_requested": ["builder_meta", "nsites", "elements", "nelements", "composition", "composition_reduced", "chemsys", "symmetry", "property_name", "deprecated", "deprecation_reasons", "last_updated", "origins", "warnings", "task_ids", "uncorrected_energy_per_atom", "equilibrium_reaction_energy_per_atom", "decomposes_to", "xas", "grain_boundaries", "cbm", "vbm", "is_gap_direct", "is_metal", "es_source_calc_id", "bandstructure", "dos", "dos_energy_up", "dos_energy_down", "is_magnetic", "ordering", "total_magnetization_normalized_vol", "total_magnetization_normalized_formula_units", "num_magnetic_sites", "num_unique_magnetic_sites", "types_of_magnetic_species", "bulk_modulus", "shear_modulus", "universal_anisotropy", "homogeneous_poisson", "e_total", "e_ionic", "e_electronic", "n", "e_ij_max", "weighted_surface_energy_EV_PER_ANG2", "weighted_surface_energy", "weighted_work_function", "surface_anisotropy", "shape_factor", "has_reconstructed", "possible_species", "has_props", "theoretical", "database_IDs"]}