{"builder_meta": null, "nsites": null, "elements": null, "nelements": null, "composition": null, "composition_reduced": null, "formula_pretty": "HoP5", "formula_anonymous": "AB5", "chemsys": null, "volume": 241.56909478816272, "density": 4.396580194129317, "density_atomic": 20.13075789901356, "symmetry": null, "property_name": null, "material_id": "mp-9851", "deprecated": null, "deprecation_reasons": null, "last_updated": null, "origins": null, "warnings": null, "structure": {"@module": "pymatgen.core.structure", "@class": "Structure", "charge": 0, "lattice": {"matrix": [[4.94681341, 0.01520326, 0.0], [-1.15287438, 5.2095761, 0.0], [0.0, 0.0, 9.36738091]], "pbc": [true, true, true], "a": 4.94683677236984, "b": 5.3356164102895915, "c": 9.36738091, "alpha": 90.0, "beta": 90.0, "gamma": 102.30230547254203, "volume": 241.56909478816272}, "properties": {}, "sites": [{"species": [{"element": "Ho", "occu": 1}], "abc": [0.00176275, 0.34741168, 0.25], "properties": {"magmom": 0.0}, "label": "Ho", "xyz": [-0.39180202984628093, 1.809894384535413, 2.3418452275]}, {"species": [{"element": "Ho", "occu": 1}], "abc": [0.9982372500000001, 0.65258832, 0.75], "properties": {"magmom": 0.0}, "label": "Ho", "xyz": [4.185741059846281, 3.4148849754645867, 7.025535682499999]}, {"species": [{"element": "P", "occu": 1}], "abc": [0.27906412, 0.8930828900000001, 0.25], "properties": {"magmom": -0.0}, "label": "P", "xyz": [0.3508657479684911, 4.65682596343596, 2.3418452275]}, {"species": [{"element": "P", "occu": 1}], "abc": [0.72093588, 0.10691711, 0.75], "properties": {"magmom": -0.0}, "label": "P", "xyz": [3.443073282031509, 0.5679533965640398, 7.025535682499999]}, {"species": [{"element": "P", "occu": 1}], "abc": [0.61500979, 0.95484384, 0.40768387], "properties": {"magmom": -0.0}, "label": "P", "xyz": [1.9415236764164643, 4.983681801836139, 3.8189301011529215]}, {"species": [{"element": "P", "occu": 1}], "abc": [0.38499021, 0.04515616, 0.9076838700000001], "properties": {"magmom": -0.0}, "label": "P", "xyz": [1.8524153535835353, 0.24109755816386058, 8.502620556152921]}, {"species": [{"element": "P", "occu": 1}], "abc": [0.38499021, 0.04515616, 0.59231613], "properties": {"magmom": -0.0}, "label": "P", "xyz": [1.8524153535835353, 0.24109755816386058, 5.548450808847079]}, {"species": [{"element": "P", "occu": 1}], "abc": [0.61500979, 0.95484384, 0.09231613], "properties": {"magmom": -0.0}, "label": "P", "xyz": [1.9415236764164643, 4.983681801836139, 0.8647603538470783]}, {"species": [{"element": "P", "occu": 1}], "abc": [0.71257466, 0.59654873, 0.47135747], "properties": {"magmom": 0.0}, "label": "P", "xyz": [2.8372281364756535, 3.1185994641187444, 4.415384966263898]}, {"species": [{"element": "P", "occu": 1}], "abc": [0.28742534000000003, 0.40345127000000003, 0.9713574700000001], "properties": {"magmom": 0.0}, "label": "P", "xyz": [0.9567108935243468, 2.1061798958812554, 9.099075421263898]}, {"species": [{"element": "P", "occu": 1}], "abc": [0.28742534000000003, 0.40345127000000003, 0.52864253], "properties": {"magmom": 0.0}, "label": "P", "xyz": [0.9567108935243468, 2.1061798958812554, 4.951995943736103]}, {"species": [{"element": "P", "occu": 1}], "abc": [0.71257466, 0.59654873, 0.02864253], "properties": {"magmom": 0.0}, "label": "P", "xyz": [2.8372281364756535, 3.1185994641187444, 0.26830548873610227]}]}, "task_ids": null, "uncorrected_energy_per_atom": null, "energy_per_atom": -13.611999475, "formation_energy_per_atom": -0.630045229146825, "energy_above_hull": 0.0, "is_stable": true, "equilibrium_reaction_energy_per_atom": null, "decomposes_to": null, "xas": null, "grain_boundaries": null, "band_gap": 0.1063, "cbm": null, "vbm": null, "efermi": 5.5555663, "is_gap_direct": null, "is_metal": null, "es_source_calc_id": null, "bandstructure": null, "dos": null, "dos_energy_up": null, "dos_energy_down": null, "is_magnetic": null, "ordering": null, "total_magnetization": 0.0, "total_magnetization_normalized_vol": null, "total_magnetization_normalized_formula_units": null, "num_magnetic_sites": null, "num_unique_magnetic_sites": null, "types_of_magnetic_species": null, "bulk_modulus": null, "shear_modulus": null, "universal_anisotropy": null, "homogeneous_poisson": null, "e_total": null, "e_ionic": null, "e_electronic": null, "n": null, "e_ij_max": null, "weighted_surface_energy_EV_PER_ANG2": null, "weighted_surface_energy": null, "weighted_work_function": null, "surface_anisotropy": null, "shape_factor": null, "has_reconstructed": null, "possible_species": null, "has_props": null, "theoretical": null, "database_IDs": null, "fields_not_requested": ["builder_meta", "nsites", "elements", "nelements", "composition", "composition_reduced", "chemsys", "symmetry", "property_name", "deprecated", "deprecation_reasons", "last_updated", "origins", "warnings", "task_ids", "uncorrected_energy_per_atom", "equilibrium_reaction_energy_per_atom", "decomposes_to", "xas", "grain_boundaries", "cbm", "vbm", "is_gap_direct", "is_metal", "es_source_calc_id", "bandstructure", "dos", "dos_energy_up", "dos_energy_down", "is_magnetic", "ordering", "total_magnetization_normalized_vol", "total_magnetization_normalized_formula_units", "num_magnetic_sites", "num_unique_magnetic_sites", "types_of_magnetic_species", "bulk_modulus", "shear_modulus", "universal_anisotropy", "homogeneous_poisson", "e_total", "e_ionic", "e_electronic", "n", "e_ij_max", "weighted_surface_energy_EV_PER_ANG2", "weighted_surface_energy", "weighted_work_function", "surface_anisotropy", "shape_factor", "has_reconstructed", "possible_species", "has_props", "theoretical", "database_IDs"]}