{"builder_meta": null, "nsites": null, "elements": null, "nelements": null, "composition": null, "composition_reduced": null, "formula_pretty": "HoPd", "formula_anonymous": "AB", "chemsys": null, "volume": 173.21915935643293, "density": 10.405033918153062, "density_atomic": 21.652394919554116, "symmetry": null, "property_name": null, "material_id": "mp-1087502", "deprecated": null, "deprecation_reasons": null, "last_updated": null, "origins": null, "warnings": null, "structure": {"@module": "pymatgen.core.structure", "@class": "Structure", "charge": 0, "lattice": {"matrix": [[0.0, 4.59567776, -0.0], [0.0, 0.0, 5.48168595], [6.87594203, 0.0, 0.0]], "pbc": [true, true, true], "a": 4.59567776, "b": 5.48168595, "c": 6.87594203, "alpha": 90.0, "beta": 90.0, "gamma": 90.0, "volume": 173.21915935643293}, "properties": {}, "sites": [{"species": [{"element": "Ho", "occu": 1}], "abc": [0.25, 0.35667766, 0.68350771], "properties": {"magmom": 0.0}, "label": "Ho", "xyz": [4.699759391018051, 1.14891944, 1.9551949175008771]}, {"species": [{"element": "Ho", "occu": 1}], "abc": [0.25, 0.14332234, 0.18350771], "properties": {"magmom": 0.0}, "label": "Ho", "xyz": [1.2617883760180513, 1.14891944, 0.785648057499123]}, {"species": [{"element": "Ho", "occu": 1}], "abc": [0.75, 0.64332234, 0.31649229], "properties": {"magmom": 0.0}, "label": "Ho", "xyz": [2.176182638981949, 3.44675832, 3.526491032499123]}, {"species": [{"element": "Ho", "occu": 1}], "abc": [0.75, 0.85667766, 0.81649229], "properties": {"magmom": 0.0}, "label": "Ho", "xyz": [5.6141536539819485, 3.44675832, 4.696037892500877]}, {"species": [{"element": "Pd", "occu": 1}], "abc": [0.25, 0.84606222, 0.54080435], "properties": {"magmom": -0.0}, "label": "Pd", "xyz": [3.718539360171831, 1.14891944, 4.637847384199809]}, {"species": [{"element": "Pd", "occu": 1}], "abc": [0.25, 0.65393778, 0.04080435], "properties": {"magmom": -0.0}, "label": "Pd", "xyz": [0.28056834517183055, 1.14891944, 3.584681540800191]}, {"species": [{"element": "Pd", "occu": 1}], "abc": [0.75, 0.15393778, 0.45919565], "properties": {"magmom": -0.0}, "label": "Pd", "xyz": [3.1574026698281696, 3.44675832, 0.843838565800191]}, {"species": [{"element": "Pd", "occu": 1}], "abc": [0.75, 0.34606222000000003, 0.9591956500000001], "properties": {"magmom": -0.0}, "label": "Pd", "xyz": [6.59537368482817, 3.44675832, 1.8970044091998093]}]}, "task_ids": null, "uncorrected_energy_per_atom": null, "energy_per_atom": -28.89448457625, "formation_energy_per_atom": -0.9735858137499981, "energy_above_hull": 0.0, "is_stable": true, "equilibrium_reaction_energy_per_atom": null, "decomposes_to": null, "xas": null, "grain_boundaries": null, "band_gap": 0.0, "cbm": null, "vbm": null, "efermi": 4.30666754, "is_gap_direct": null, "is_metal": null, "es_source_calc_id": null, "bandstructure": null, "dos": null, "dos_energy_up": null, "dos_energy_down": null, "is_magnetic": null, "ordering": null, "total_magnetization": 0.0, "total_magnetization_normalized_vol": null, "total_magnetization_normalized_formula_units": null, "num_magnetic_sites": null, "num_unique_magnetic_sites": null, "types_of_magnetic_species": null, "bulk_modulus": null, "shear_modulus": null, "universal_anisotropy": null, "homogeneous_poisson": null, "e_total": null, "e_ionic": null, "e_electronic": null, "n": null, "e_ij_max": null, "weighted_surface_energy_EV_PER_ANG2": null, "weighted_surface_energy": null, "weighted_work_function": null, "surface_anisotropy": null, "shape_factor": null, "has_reconstructed": null, "possible_species": null, "has_props": null, "theoretical": null, "database_IDs": null, "fields_not_requested": ["builder_meta", "nsites", "elements", "nelements", "composition", "composition_reduced", "chemsys", "symmetry", "property_name", "deprecated", "deprecation_reasons", "last_updated", "origins", "warnings", "task_ids", "uncorrected_energy_per_atom", "equilibrium_reaction_energy_per_atom", "decomposes_to", "xas", "grain_boundaries", "cbm", "vbm", "is_gap_direct", "is_metal", "es_source_calc_id", "bandstructure", "dos", "dos_energy_up", "dos_energy_down", "is_magnetic", "ordering", "total_magnetization_normalized_vol", "total_magnetization_normalized_formula_units", "num_magnetic_sites", "num_unique_magnetic_sites", "types_of_magnetic_species", "bulk_modulus", "shear_modulus", "universal_anisotropy", "homogeneous_poisson", "e_total", "e_ionic", "e_electronic", "n", "e_ij_max", "weighted_surface_energy_EV_PER_ANG2", "weighted_surface_energy", "weighted_work_function", "surface_anisotropy", "shape_factor", "has_reconstructed", "possible_species", "has_props", "theoretical", "database_IDs"]}