{
  "builder_meta": null,
  "nsites": null,
  "elements": null,
  "nelements": null,
  "composition": null,
  "composition_reduced": null,
  "formula_pretty": "HoPt",
  "formula_anonymous": "AB",
  "chemsys": null,
  "volume": 172.3220067711358,
  "density": 13.876761397966009,
  "density_atomic": 21.540250846391974,
  "symmetry": null,
  "property_name": null,
  "material_id": "mp-1079180",
  "deprecated": null,
  "deprecation_reasons": null,
  "last_updated": null,
  "origins": null,
  "warnings": null,
  "structure": {
    "@module": "pymatgen.core.structure",
    "@class": "Structure",
    "charge": 0,
    "lattice": {
      "matrix": [
        [0.0, 4.49807952, -0.0],
        [0.0, 0.0, 5.5079926],
        [6.95537046, 0.0, 0.0]
      ],
      "pbc": [true, true, true],
      "a": 4.49807952,
      "b": 5.5079926,
      "c": 6.95537046,
      "alpha": 90.0,
      "beta": 90.0,
      "gamma": 90.0,
      "volume": 172.3220067711358
    },
    "properties": {},
    "sites": [
      {
        "species": [{ "element": "Ho", "occu": 1 }],
        "abc": [0.25, 0.35962242, 0.68203734],
        "properties": { "magmom": -0.0 },
        "label": "Ho",
        "xyz": [4.743822367252977, 1.12451988, 1.9807976281540918]
      },
      {
        "species": [{ "element": "Ho", "occu": 1 }],
        "abc": [0.25, 0.14037758, 0.18203734],
        "properties": { "magmom": -0.0 },
        "label": "Ho",
        "xyz": [1.2661371372529764, 1.12451988, 0.773198671845908]
      },
      {
        "species": [{ "element": "Ho", "occu": 1 }],
        "abc": [0.75, 0.64037758, 0.31796266],
        "properties": { "magmom": -0.0 },
        "label": "Ho",
        "xyz": [2.211548092747024, 3.37355964, 3.527194971845908]
      },
      {
        "species": [{ "element": "Ho", "occu": 1 }],
        "abc": [0.75, 0.85962242, 0.8179626600000001],
        "properties": { "magmom": -0.0 },
        "label": "Ho",
        "xyz": [5.689233322747024, 3.37355964, 4.734793928154092]
      },
      {
        "species": [{ "element": "Pt", "occu": 1 }],
        "abc": [0.25, 0.8448024900000001, 0.5433935400000001],
        "properties": { "magmom": 0.0 },
        "label": "Pt",
        "xyz": [3.7795033762708288, 1.12451988, 4.653165863381574]
      },
      {
        "species": [{ "element": "Pt", "occu": 1 }],
        "abc": [0.25, 0.65519751, 0.04339454],
        "properties": { "magmom": 0.0 },
        "label": "Pt",
        "xyz": [0.3018251016412884, 1.12451988, 3.608823036618426]
      },
      {
        "species": [{ "element": "Pt", "occu": 1 }],
        "abc": [0.75, 0.15519751, 0.45660546],
        "properties": { "magmom": 0.0 },
        "label": "Pt",
        "xyz": [3.175860128358712, 3.37355964, 0.854826736618426]
      },
      {
        "species": [{ "element": "Pt", "occu": 1 }],
        "abc": [0.75, 0.34480249, 0.95660646],
        "properties": { "magmom": 0.0 },
        "label": "Pt",
        "xyz": [6.653552313729172, 3.37355964, 1.899169563381574]
      }
    ]
  },
  "task_ids": null,
  "uncorrected_energy_per_atom": null,
  "energy_per_atom": -43.6067986625,
  "formation_energy_per_atom": -1.422268254999991,
  "energy_above_hull": 0.0,
  "is_stable": true,
  "equilibrium_reaction_energy_per_atom": null,
  "decomposes_to": null,
  "xas": null,
  "grain_boundaries": null,
  "band_gap": 0.0,
  "cbm": null,
  "vbm": null,
  "efermi": 4.97111738,
  "is_gap_direct": null,
  "is_metal": null,
  "es_source_calc_id": null,
  "bandstructure": null,
  "dos": null,
  "dos_energy_up": null,
  "dos_energy_down": null,
  "is_magnetic": null,
  "ordering": null,
  "total_magnetization": 0.0,
  "total_magnetization_normalized_vol": null,
  "total_magnetization_normalized_formula_units": null,
  "num_magnetic_sites": null,
  "num_unique_magnetic_sites": null,
  "types_of_magnetic_species": null,
  "bulk_modulus": null,
  "shear_modulus": null,
  "universal_anisotropy": null,
  "homogeneous_poisson": null,
  "e_total": null,
  "e_ionic": null,
  "e_electronic": null,
  "n": null,
  "e_ij_max": null,
  "weighted_surface_energy_EV_PER_ANG2": null,
  "weighted_surface_energy": null,
  "weighted_work_function": null,
  "surface_anisotropy": null,
  "shape_factor": null,
  "has_reconstructed": null,
  "possible_species": null,
  "has_props": null,
  "theoretical": null,
  "database_IDs": null,
  "fields_not_requested": [
    "builder_meta",
    "nsites",
    "elements",
    "nelements",
    "composition",
    "composition_reduced",
    "chemsys",
    "symmetry",
    "property_name",
    "deprecated",
    "deprecation_reasons",
    "last_updated",
    "origins",
    "warnings",
    "task_ids",
    "uncorrected_energy_per_atom",
    "equilibrium_reaction_energy_per_atom",
    "decomposes_to",
    "xas",
    "grain_boundaries",
    "cbm",
    "vbm",
    "is_gap_direct",
    "is_metal",
    "es_source_calc_id",
    "bandstructure",
    "dos",
    "dos_energy_up",
    "dos_energy_down",
    "is_magnetic",
    "ordering",
    "total_magnetization_normalized_vol",
    "total_magnetization_normalized_formula_units",
    "num_magnetic_sites",
    "num_unique_magnetic_sites",
    "types_of_magnetic_species",
    "bulk_modulus",
    "shear_modulus",
    "universal_anisotropy",
    "homogeneous_poisson",
    "e_total",
    "e_ionic",
    "e_electronic",
    "n",
    "e_ij_max",
    "weighted_surface_energy_EV_PER_ANG2",
    "weighted_surface_energy",
    "weighted_work_function",
    "surface_anisotropy",
    "shape_factor",
    "has_reconstructed",
    "possible_species",
    "has_props",
    "theoretical",
    "database_IDs"
  ]
}
