{
  "builder_meta": null,
  "nsites": null,
  "elements": null,
  "nelements": null,
  "composition": null,
  "composition_reduced": null,
  "formula_pretty": "HoRe2",
  "formula_anonymous": "AB2",
  "chemsys": null,
  "volume": 221.25984500169028,
  "density": 16.130920376786758,
  "density_atomic": 18.438320416807525,
  "symmetry": null,
  "property_name": null,
  "material_id": "mp-1102328",
  "deprecated": null,
  "deprecation_reasons": null,
  "last_updated": null,
  "origins": null,
  "warnings": null,
  "structure": {
    "@module": "pymatgen.core.structure",
    "@class": "Structure",
    "charge": 0,
    "lattice": {
      "matrix": [
        [-2.69779193, -4.67299446, -9.9e-7],
        [-2.69779193, 4.67299446, 9.9e-7],
        [0.0, -9.699999999999996e-7, -8.77543979]
      ],
      "pbc": [true, true, true],
      "a": 5.395827880943275,
      "b": 5.395827880943275,
      "c": 8.775439790000053,
      "alpha": 90.0000159971717,
      "beta": 89.99998400282828,
      "gamma": 120.00299197348932,
      "volume": 221.25984500169028
    },
    "properties": {},
    "sites": [
      {
        "species": [{ "element": "Ho", "occu": 1 }],
        "abc": [0.66665719, 0.33334281, 0.56251993],
        "properties": { "magmom": -0.0 },
        "label": "Ho",
        "xyz": [-2.69779193, -1.5575767968226673, -4.936360106371251]
      },
      {
        "species": [{ "element": "Ho", "occu": 1 }],
        "abc": [0.33334282, 0.66665718, 0.43747711],
        "properties": { "magmom": -0.0 },
        "label": "Ho",
        "xyz": [-2.69779193, 1.557575733365649, -3.83905370832699]
      },
      {
        "species": [{ "element": "Ho", "occu": 1 }],
        "abc": [0.3333428, 0.6666572, 0.06252264],
        "properties": { "magmom": -0.0 },
        "label": "Ho",
        "xyz": [-2.69779193, 1.5575762839912632, -0.5486633328505897]
      },
      {
        "species": [{ "element": "Ho", "occu": 1 }],
        "abc": [0.66665722, 0.33334278, 0.9374812100000001],
        "properties": { "magmom": -0.0 },
        "label": "Ho",
        "xyz": [-2.69779193, -1.5575774409147762, -8.226810242592641]
      },
      {
        "species": [{ "element": "Re", "occu": 1 }],
        "abc": [4e-8, -4e-8, 0.49999185],
        "properties": { "magmom": 0.0 },
        "label": "Re",
        "xyz": [0.0, -8.588316512999998e-7, -4.38764837516579]
      },
      {
        "species": [{ "element": "Re", "occu": 1 }],
        "abc": [4e-8, -4e-8, 8.17e-6],
        "properties": { "magmom": 0.0 },
        "label": "Re",
        "xyz": [0.0, -3.738474817e-7, -7.16953431635e-5]
      },
      {
        "species": [{ "element": "Re", "occu": 1 }],
        "abc": [0.1709184, 0.34184776, 0.75000091],
        "properties": { "magmom": 0.0 },
        "label": "Re",
        "xyz": [-1.383336408425089, 0.7987512248304629, -6.581587658930142]
      },
      {
        "species": [{ "element": "Re", "occu": 1 }],
        "abc": [0.17093639, 0.8290636100000001, 0.75000096],
        "properties": { "magmom": 0.0 },
        "label": "Re",
        "xyz": [-2.6977919300000006, 3.0754241255342705, -6.581587615376251]
      },
      {
        "species": [{ "element": "Re", "occu": 1 }],
        "abc": [0.65815224, 0.8290816, 0.75000091],
        "properties": { "magmom": 0.0 },
        "label": "Re",
        "xyz": [-4.012247451574911, 0.7987512248304629, -6.581587658930142]
      },
      {
        "species": [{ "element": "Re", "occu": 1 }],
        "abc": [0.829079399999999, 0.65814675, 0.24999912000000002],
        "properties": { "magmom": 0.0 },
        "label": "Re",
        "xyz": [-4.012226705554967, -0.798767568982261, -2.193852394336308]
      },
      {
        "species": [{ "element": "Re", "occu": 1 }],
        "abc": [0.82906221, 0.17093779, 0.24999908],
        "properties": { "magmom": 0.0 },
        "label": "Re",
        "xyz": [-2.69779193, -3.075412011149821, -2.1938525256385693]
      },
      {
        "species": [{ "element": "Re", "occu": 1 }],
        "abc": [0.34185325, 0.1709206, 0.24999912000000002],
        "properties": { "magmom": 0.0 },
        "label": "Re",
        "xyz": [-1.3833571544450305, -0.7987675689822653, -2.193852394336308]
      }
    ]
  },
  "task_ids": null,
  "uncorrected_energy_per_atom": null,
  "energy_per_atom": -46.2058505125,
  "formation_energy_per_atom": -0.30499273583332803,
  "energy_above_hull": 0.0,
  "is_stable": true,
  "equilibrium_reaction_energy_per_atom": null,
  "decomposes_to": null,
  "xas": null,
  "grain_boundaries": null,
  "band_gap": 0.0,
  "cbm": null,
  "vbm": null,
  "efermi": 5.5522254,
  "is_gap_direct": null,
  "is_metal": null,
  "es_source_calc_id": null,
  "bandstructure": null,
  "dos": null,
  "dos_energy_up": null,
  "dos_energy_down": null,
  "is_magnetic": null,
  "ordering": null,
  "total_magnetization": 3e-7,
  "total_magnetization_normalized_vol": null,
  "total_magnetization_normalized_formula_units": null,
  "num_magnetic_sites": null,
  "num_unique_magnetic_sites": null,
  "types_of_magnetic_species": null,
  "bulk_modulus": null,
  "shear_modulus": null,
  "universal_anisotropy": null,
  "homogeneous_poisson": null,
  "e_total": null,
  "e_ionic": null,
  "e_electronic": null,
  "n": null,
  "e_ij_max": null,
  "weighted_surface_energy_EV_PER_ANG2": null,
  "weighted_surface_energy": null,
  "weighted_work_function": null,
  "surface_anisotropy": null,
  "shape_factor": null,
  "has_reconstructed": null,
  "possible_species": null,
  "has_props": null,
  "theoretical": null,
  "database_IDs": null,
  "fields_not_requested": [
    "builder_meta",
    "nsites",
    "elements",
    "nelements",
    "composition",
    "composition_reduced",
    "chemsys",
    "symmetry",
    "property_name",
    "deprecated",
    "deprecation_reasons",
    "last_updated",
    "origins",
    "warnings",
    "task_ids",
    "uncorrected_energy_per_atom",
    "equilibrium_reaction_energy_per_atom",
    "decomposes_to",
    "xas",
    "grain_boundaries",
    "cbm",
    "vbm",
    "is_gap_direct",
    "is_metal",
    "es_source_calc_id",
    "bandstructure",
    "dos",
    "dos_energy_up",
    "dos_energy_down",
    "is_magnetic",
    "ordering",
    "total_magnetization_normalized_vol",
    "total_magnetization_normalized_formula_units",
    "num_magnetic_sites",
    "num_unique_magnetic_sites",
    "types_of_magnetic_species",
    "bulk_modulus",
    "shear_modulus",
    "universal_anisotropy",
    "homogeneous_poisson",
    "e_total",
    "e_ionic",
    "e_electronic",
    "n",
    "e_ij_max",
    "weighted_surface_energy_EV_PER_ANG2",
    "weighted_surface_energy",
    "weighted_work_function",
    "surface_anisotropy",
    "shape_factor",
    "has_reconstructed",
    "possible_species",
    "has_props",
    "theoretical",
    "database_IDs"
  ]
}
