{
  "builder_meta": null,
  "nsites": null,
  "elements": null,
  "nelements": null,
  "composition": null,
  "composition_reduced": null,
  "formula_pretty": "HoRu2",
  "formula_anonymous": "AB2",
  "chemsys": null,
  "volume": 213.87387342099856,
  "density": 11.399889043006743,
  "density_atomic": 17.822822785083215,
  "symmetry": null,
  "property_name": null,
  "material_id": "mp-1102089",
  "deprecated": null,
  "deprecation_reasons": null,
  "last_updated": null,
  "origins": null,
  "warnings": null,
  "structure": {
    "@module": "pymatgen.core.structure",
    "@class": "Structure",
    "charge": 0,
    "lattice": {
      "matrix": [
        [-2.633976, -4.558213, 0.0],
        [-2.633976, 4.558213, 0.0],
        [0.0, 0.0, -8.906792]
      ],
      "pbc": [true, true, true],
      "a": 5.26451662756848,
      "b": 5.26451662756848,
      "c": 8.906792,
      "alpha": 90.0,
      "beta": 90.0,
      "gamma": 119.95682278994532,
      "volume": 213.87387342099856
    },
    "properties": {},
    "sites": [
      {
        "species": [{ "element": "Ho", "occu": 1 }],
        "abc": [0.666716, 0.333283999999999, 0.566500999999999],
        "properties": { "magmom": -0.0 },
        "label": "Ho",
        "xyz": [-2.6339759999999974, -1.5198540770160047, -5.045706574791991]
      },
      {
        "species": [{ "element": "Ho", "occu": 1 }],
        "abc": [0.333283999999999, 0.666716, 0.433498999999999],
        "properties": { "magmom": -0.0 },
        "label": "Ho",
        "xyz": [-2.6339759999999974, 1.5198540770160047, -3.861085425207991]
      },
      {
        "species": [{ "element": "Ho", "occu": 1 }],
        "abc": [0.333283999999999, 0.666716, 0.066500999999999],
        "properties": { "magmom": -0.0 },
        "label": "Ho",
        "xyz": [-2.6339759999999974, 1.5198540770160047, -0.5923105747919911]
      },
      {
        "species": [{ "element": "Ho", "occu": 1 }],
        "abc": [0.666716, 0.333283999999999, 0.933499],
        "properties": { "magmom": -0.0 },
        "label": "Ho",
        "xyz": [-2.6339759999999974, -1.5198540770160047, -8.314481425208]
      },
      {
        "species": [{ "element": "Ru", "occu": 1 }],
        "abc": [0.0, 0.0, 0.5],
        "properties": { "magmom": 0.0 },
        "label": "Ru",
        "xyz": [0.0, 0.0, -4.453396]
      },
      {
        "species": [{ "element": "Ru", "occu": 1 }],
        "abc": [0.0, 0.0, 0.0],
        "properties": { "magmom": 0.0 },
        "label": "Ru",
        "xyz": [0.0, 0.0, 0.0]
      },
      {
        "species": [{ "element": "Ru", "occu": 1 }],
        "abc": [0.171368, 0.342520999999999, 0.75],
        "properties": { "magmom": 0.001 },
        "label": "Ru",
        "xyz": [-1.3535712926639976, 0.7801518295889956, -6.6800939999999995]
      },
      {
        "species": [{ "element": "Ru", "occu": 1 }],
        "abc": [0.171202, 0.828797999999999, 0.75],
        "properties": { "magmom": 0.001 },
        "label": "Ru",
        "xyz": [-2.6339759999999974, 2.997462635947996, -6.6800939999999995]
      },
      {
        "species": [{ "element": "Ru", "occu": 1 }],
        "abc": [0.657478999999999, 0.828631999999999, 0.75],
        "properties": { "magmom": 0.0 },
        "label": "Ru",
        "xyz": [-3.9143807073359946, 0.7801518295890002, -6.6800939999999995]
      },
      {
        "species": [{ "element": "Ru", "occu": 1 }],
        "abc": [0.828631999999999, 0.657478999999999, 0.25],
        "properties": { "magmom": 0.001 },
        "label": "Ru",
        "xyz": [-3.9143807073359946, -0.7801518295890002, -2.226698]
      },
      {
        "species": [{ "element": "Ru", "occu": 1 }],
        "abc": [0.828797999999999, 0.171202, 0.25],
        "properties": { "magmom": 0.001 },
        "label": "Ru",
        "xyz": [-2.6339759999999974, -2.997462635947996, -2.226698]
      },
      {
        "species": [{ "element": "Ru", "occu": 1 }],
        "abc": [0.342520999999999, 0.171368, 0.25],
        "properties": { "magmom": 0.0 },
        "label": "Ru",
        "xyz": [-1.3535712926639976, -0.7801518295889956, -2.226698]
      }
    ]
  },
  "task_ids": null,
  "uncorrected_energy_per_atom": null,
  "energy_per_atom": -8.055034074166667,
  "formation_energy_per_atom": -0.33953922583333,
  "energy_above_hull": 0.0,
  "is_stable": true,
  "equilibrium_reaction_energy_per_atom": null,
  "decomposes_to": null,
  "xas": null,
  "grain_boundaries": null,
  "band_gap": 0.0,
  "cbm": null,
  "vbm": null,
  "efermi": 5.85743976,
  "is_gap_direct": null,
  "is_metal": null,
  "es_source_calc_id": null,
  "bandstructure": null,
  "dos": null,
  "dos_energy_up": null,
  "dos_energy_down": null,
  "is_magnetic": null,
  "ordering": null,
  "total_magnetization": 0.0039783,
  "total_magnetization_normalized_vol": null,
  "total_magnetization_normalized_formula_units": null,
  "num_magnetic_sites": null,
  "num_unique_magnetic_sites": null,
  "types_of_magnetic_species": null,
  "bulk_modulus": null,
  "shear_modulus": null,
  "universal_anisotropy": null,
  "homogeneous_poisson": null,
  "e_total": null,
  "e_ionic": null,
  "e_electronic": null,
  "n": null,
  "e_ij_max": null,
  "weighted_surface_energy_EV_PER_ANG2": null,
  "weighted_surface_energy": null,
  "weighted_work_function": null,
  "surface_anisotropy": null,
  "shape_factor": null,
  "has_reconstructed": null,
  "possible_species": null,
  "has_props": null,
  "theoretical": null,
  "database_IDs": null,
  "fields_not_requested": [
    "builder_meta",
    "nsites",
    "elements",
    "nelements",
    "composition",
    "composition_reduced",
    "chemsys",
    "symmetry",
    "property_name",
    "deprecated",
    "deprecation_reasons",
    "last_updated",
    "origins",
    "warnings",
    "task_ids",
    "uncorrected_energy_per_atom",
    "equilibrium_reaction_energy_per_atom",
    "decomposes_to",
    "xas",
    "grain_boundaries",
    "cbm",
    "vbm",
    "is_gap_direct",
    "is_metal",
    "es_source_calc_id",
    "bandstructure",
    "dos",
    "dos_energy_up",
    "dos_energy_down",
    "is_magnetic",
    "ordering",
    "total_magnetization_normalized_vol",
    "total_magnetization_normalized_formula_units",
    "num_magnetic_sites",
    "num_unique_magnetic_sites",
    "types_of_magnetic_species",
    "bulk_modulus",
    "shear_modulus",
    "universal_anisotropy",
    "homogeneous_poisson",
    "e_total",
    "e_ionic",
    "e_electronic",
    "n",
    "e_ij_max",
    "weighted_surface_energy_EV_PER_ANG2",
    "weighted_surface_energy",
    "weighted_work_function",
    "surface_anisotropy",
    "shape_factor",
    "has_reconstructed",
    "possible_species",
    "has_props",
    "theoretical",
    "database_IDs"
  ]
}
