{
  "builder_meta": null,
  "nsites": null,
  "elements": null,
  "nelements": null,
  "composition": null,
  "composition_reduced": null,
  "formula_pretty": "HoSb3",
  "formula_anonymous": "AB3",
  "chemsys": null,
  "volume": 217.67331039935857,
  "density": 8.089507604392841,
  "density_atomic": 27.20916379991982,
  "symmetry": null,
  "property_name": null,
  "material_id": "mp-976679",
  "deprecated": null,
  "deprecation_reasons": null,
  "last_updated": null,
  "origins": null,
  "warnings": null,
  "structure": {
    "@module": "pymatgen.core.structure",
    "@class": "Structure",
    "charge": 0,
    "lattice": {
      "matrix": [
        [3.271759, -5.6668520000000004, 0.0],
        [3.271759, 5.6668520000000004, 0.0],
        [0.0, 0.0, 5.870188]
      ],
      "pbc": [true, true, true],
      "a": 6.543517291486667,
      "b": 6.543517291486667,
      "c": 5.870188,
      "alpha": 90.0,
      "beta": 90.0,
      "gamma": 119.999992836442,
      "volume": 217.6733103993586
    },
    "properties": {},
    "sites": [
      {
        "species": [{ "element": "Ho", "occu": 1 }],
        "abc": [0.333333, 0.666667, 0.75],
        "properties": { "magmom": 0.0 },
        "label": "Ho",
        "xyz": [3.2717590000000003, 1.8889544445680002, 4.402641]
      },
      {
        "species": [{ "element": "Ho", "occu": 1 }],
        "abc": [0.666667, 0.333333, 0.25],
        "properties": { "magmom": 0.0 },
        "label": "Ho",
        "xyz": [3.2717590000000003, -1.8889544445680002, 1.467547]
      },
      {
        "species": [{ "element": "Sb", "occu": 1 }],
        "abc": [0.175185999999999, 0.350371999999999, 0.25],
        "properties": { "magmom": 0.0 },
        "label": "Sb",
        "xyz": [1.7194991165219933, 0.9927531344720002, 1.467547]
      },
      {
        "species": [{ "element": "Sb", "occu": 1 }],
        "abc": [0.649628, 0.824813999999999, 0.25],
        "properties": { "magmom": 0.0 },
        "label": "Sb",
        "xyz": [4.824018883477997, 0.9927531344719949, 1.467547]
      },
      {
        "species": [{ "element": "Sb", "occu": 1 }],
        "abc": [0.175185999999999, 0.824813999999999, 0.25],
        "properties": { "magmom": 0.0 },
        "label": "Sb",
        "xyz": [3.271758999999993, 3.6813457310560005, 1.467547]
      },
      {
        "species": [{ "element": "Sb", "occu": 1 }],
        "abc": [0.824813999999999, 0.649628, 0.75],
        "properties": { "magmom": 0.0 },
        "label": "Sb",
        "xyz": [4.824018883477997, -0.9927531344719949, 4.402641]
      },
      {
        "species": [{ "element": "Sb", "occu": 1 }],
        "abc": [0.350371999999999, 0.175185999999999, 0.75],
        "properties": { "magmom": 0.0 },
        "label": "Sb",
        "xyz": [1.7194991165219933, -0.9927531344720002, 4.402641]
      },
      {
        "species": [{ "element": "Sb", "occu": 1 }],
        "abc": [0.824813999999999, 0.175185999999999, 0.75],
        "properties": { "magmom": 0.0 },
        "label": "Sb",
        "xyz": [3.271758999999993, -3.6813457310560005, 4.402641]
      }
    ]
  },
  "task_ids": null,
  "uncorrected_energy_per_atom": null,
  "energy_per_atom": -28.027457543124996,
  "formation_energy_per_atom": -0.527384766874995,
  "energy_above_hull": 0.14386447437500302,
  "is_stable": false,
  "equilibrium_reaction_energy_per_atom": null,
  "decomposes_to": null,
  "xas": null,
  "grain_boundaries": null,
  "band_gap": 0.0,
  "cbm": null,
  "vbm": null,
  "efermi": 7.39180833,
  "is_gap_direct": null,
  "is_metal": null,
  "es_source_calc_id": null,
  "bandstructure": null,
  "dos": null,
  "dos_energy_up": null,
  "dos_energy_down": null,
  "is_magnetic": null,
  "ordering": null,
  "total_magnetization": 0.00014539999999900002,
  "total_magnetization_normalized_vol": null,
  "total_magnetization_normalized_formula_units": null,
  "num_magnetic_sites": null,
  "num_unique_magnetic_sites": null,
  "types_of_magnetic_species": null,
  "bulk_modulus": null,
  "shear_modulus": null,
  "universal_anisotropy": null,
  "homogeneous_poisson": null,
  "e_total": null,
  "e_ionic": null,
  "e_electronic": null,
  "n": null,
  "e_ij_max": null,
  "weighted_surface_energy_EV_PER_ANG2": null,
  "weighted_surface_energy": null,
  "weighted_work_function": null,
  "surface_anisotropy": null,
  "shape_factor": null,
  "has_reconstructed": null,
  "possible_species": null,
  "has_props": null,
  "theoretical": null,
  "database_IDs": null,
  "fields_not_requested": [
    "builder_meta",
    "nsites",
    "elements",
    "nelements",
    "composition",
    "composition_reduced",
    "chemsys",
    "symmetry",
    "property_name",
    "deprecated",
    "deprecation_reasons",
    "last_updated",
    "origins",
    "warnings",
    "task_ids",
    "uncorrected_energy_per_atom",
    "equilibrium_reaction_energy_per_atom",
    "decomposes_to",
    "xas",
    "grain_boundaries",
    "cbm",
    "vbm",
    "is_gap_direct",
    "is_metal",
    "es_source_calc_id",
    "bandstructure",
    "dos",
    "dos_energy_up",
    "dos_energy_down",
    "is_magnetic",
    "ordering",
    "total_magnetization_normalized_vol",
    "total_magnetization_normalized_formula_units",
    "num_magnetic_sites",
    "num_unique_magnetic_sites",
    "types_of_magnetic_species",
    "bulk_modulus",
    "shear_modulus",
    "universal_anisotropy",
    "homogeneous_poisson",
    "e_total",
    "e_ionic",
    "e_electronic",
    "n",
    "e_ij_max",
    "weighted_surface_energy_EV_PER_ANG2",
    "weighted_surface_energy",
    "weighted_work_function",
    "surface_anisotropy",
    "shape_factor",
    "has_reconstructed",
    "possible_species",
    "has_props",
    "theoretical",
    "database_IDs"
  ]
}
