{"builder_meta": null, "nsites": null, "elements": null, "nelements": null, "composition": null, "composition_reduced": null, "formula_pretty": "HoSi", "formula_anonymous": "AB", "chemsys": null, "volume": 169.02727173722357, "density": 7.584818858819693, "density_atomic": 21.128408967152946, "symmetry": null, "property_name": null, "material_id": "mp-12900", "deprecated": null, "deprecation_reasons": null, "last_updated": null, "origins": null, "warnings": null, "structure": {"@module": "pymatgen.core.structure", "@class": "Structure", "charge": 0, "lattice": {"matrix": [[3.80606948, 0.0, 0.0], [0.0, 5.65754465, 0.0], [0.0, 0.0, 7.8496822900000005]], "pbc": [true, true, true], "a": 3.80606948, "b": 5.65754465, "c": 7.8496822900000005, "alpha": 90.0, "beta": 90.0, "gamma": 90.0, "volume": 169.0272717372236}, "properties": {}, "sites": [{"species": [{"element": "Ho", "occu": 1}], "abc": [0.25, 0.11500798, 0.82079945], "properties": {"magmom": 0.0}, "label": "Ho", "xyz": [0.95151737, 0.650662781956307, 6.443014906306741]}, {"species": [{"element": "Ho", "occu": 1}], "abc": [0.75, 0.88499202, 0.17920055000000001], "properties": {"magmom": 0.0}, "label": "Ho", "xyz": [2.85455211, 5.006881868043693, 1.4066673836932597]}, {"species": [{"element": "Ho", "occu": 1}], "abc": [0.75, 0.61500798, 0.67920055], "properties": {"magmom": 0.0}, "label": "Ho", "xyz": [2.85455211, 3.479435106956307, 5.33150852869326]}, {"species": [{"element": "Ho", "occu": 1}], "abc": [0.25, 0.38499202, 0.32079945], "properties": {"magmom": 0.0}, "label": "Ho", "xyz": [0.95151737, 2.178109543043693, 2.5181737613067408]}, {"species": [{"element": "Si", "occu": 1}], "abc": [0.25, 0.62897691, 0.9619217800000001], "properties": {"magmom": -0.0}, "label": "Si", "xyz": [0.95151737, 3.5584649521440315, 7.550780360831277]}, {"species": [{"element": "Si", "occu": 1}], "abc": [0.75, 0.37102309, 0.03807822], "properties": {"magmom": -0.0}, "label": "Si", "xyz": [2.85455211, 2.0990796978559687, 0.2989019291687238]}, {"species": [{"element": "Si", "occu": 1}], "abc": [0.75, 0.12897691, 0.53807822], "properties": {"magmom": -0.0}, "label": "Si", "xyz": [2.85455211, 0.7296926271440315, 4.223743074168724]}, {"species": [{"element": "Si", "occu": 1}], "abc": [0.25, 0.87102309, 0.46192178], "properties": {"magmom": -0.0}, "label": "Si", "xyz": [0.95151737, 4.927852022855968, 3.6259392158312767]}]}, "task_ids": null, "uncorrected_energy_per_atom": null, "energy_per_atom": -21.7239908425, "formation_energy_per_atom": -0.8964365874999981, "energy_above_hull": 0.0, "is_stable": true, "equilibrium_reaction_energy_per_atom": null, "decomposes_to": null, "xas": null, "grain_boundaries": null, "band_gap": 0.0, "cbm": null, "vbm": null, "efermi": 5.36470297, "is_gap_direct": null, "is_metal": null, "es_source_calc_id": null, "bandstructure": null, "dos": null, "dos_energy_up": null, "dos_energy_down": null, "is_magnetic": null, "ordering": null, "total_magnetization": 1e-07, "total_magnetization_normalized_vol": null, "total_magnetization_normalized_formula_units": null, "num_magnetic_sites": null, "num_unique_magnetic_sites": null, "types_of_magnetic_species": null, "bulk_modulus": null, "shear_modulus": null, "universal_anisotropy": null, "homogeneous_poisson": null, "e_total": null, "e_ionic": null, "e_electronic": null, "n": null, "e_ij_max": null, "weighted_surface_energy_EV_PER_ANG2": null, "weighted_surface_energy": null, "weighted_work_function": null, "surface_anisotropy": null, "shape_factor": null, "has_reconstructed": null, "possible_species": null, "has_props": null, "theoretical": null, "database_IDs": null, "fields_not_requested": ["builder_meta", "nsites", "elements", "nelements", "composition", "composition_reduced", "chemsys", "symmetry", "property_name", "deprecated", "deprecation_reasons", "last_updated", "origins", "warnings", "task_ids", "uncorrected_energy_per_atom", "equilibrium_reaction_energy_per_atom", "decomposes_to", "xas", "grain_boundaries", "cbm", "vbm", "is_gap_direct", "is_metal", "es_source_calc_id", "bandstructure", "dos", "dos_energy_up", "dos_energy_down", "is_magnetic", "ordering", "total_magnetization_normalized_vol", "total_magnetization_normalized_formula_units", "num_magnetic_sites", "num_unique_magnetic_sites", "types_of_magnetic_species", "bulk_modulus", "shear_modulus", "universal_anisotropy", "homogeneous_poisson", "e_total", "e_ionic", "e_electronic", "n", "e_ij_max", "weighted_surface_energy_EV_PER_ANG2", "weighted_surface_energy", "weighted_work_function", "surface_anisotropy", "shape_factor", "has_reconstructed", "possible_species", "has_props", "theoretical", "database_IDs"]}