{
  "builder_meta": null,
  "nsites": null,
  "elements": null,
  "nelements": null,
  "composition": null,
  "composition_reduced": null,
  "formula_pretty": "HoSi3",
  "formula_anonymous": "AB3",
  "chemsys": null,
  "volume": 279.25688558107703,
  "density": 5.926936392358892,
  "density_atomic": 17.453555348817314,
  "symmetry": null,
  "property_name": null,
  "material_id": "mp-1188513",
  "deprecated": null,
  "deprecation_reasons": null,
  "last_updated": null,
  "origins": null,
  "warnings": null,
  "structure": {
    "@module": "pymatgen.core.structure",
    "@class": "Structure",
    "charge": 0,
    "lattice": {
      "matrix": [
        [-3.601168, 3.601168, 5.383406],
        [3.601168, -3.601168, 5.383406],
        [3.601168, 3.601168, -5.383406]
      ],
      "pbc": [true, true, true],
      "a": 7.410660030610228,
      "b": 7.410660030610228,
      "c": 7.410660030610228,
      "alpha": 121.85128219035212,
      "beta": 121.85128219035212,
      "gamma": 86.82232005259308,
      "volume": 279.25688558107703
    },
    "properties": {},
    "sites": [
      {
        "species": [{ "element": "Ho", "occu": 1 }],
        "abc": [0.829571, 0.829571, 0.0],
        "properties": { "magmom": 0.0 },
        "label": "Ho",
        "xyz": [0.0, 0.0, 8.931834997651999]
      },
      {
        "species": [{ "element": "Ho", "occu": 1 }],
        "abc": [0.170429, 0.170429, 0.0],
        "properties": { "magmom": -0.0 },
        "label": "Ho",
        "xyz": [0.0, 0.0, 1.8349770023479999]
      },
      {
        "species": [{ "element": "Ho", "occu": 1 }],
        "abc": [0.25, 0.75, 0.5],
        "properties": { "magmom": -0.0 },
        "label": "Ho",
        "xyz": [3.6011680000000004, -2.220446049250313e-16, 2.691703]
      },
      {
        "species": [{ "element": "Ho", "occu": 1 }],
        "abc": [0.75, 0.25, 0.5],
        "properties": { "magmom": -0.0 },
        "label": "Ho",
        "xyz": [-2.220446049250313e-16, 3.6011680000000004, 2.691703]
      },
      {
        "species": [{ "element": "Si", "occu": 1 }],
        "abc": [0.327974, 0.0, 0.327974],
        "properties": { "magmom": 0.0 },
        "label": "Si",
        "xyz": [0.0, 2.362178947264, 0.0]
      },
      {
        "species": [{ "element": "Si", "occu": 1 }],
        "abc": [0.672026, 0.0, 0.672026],
        "properties": { "magmom": 0.0 },
        "label": "Si",
        "xyz": [0.0, 4.840157052736, 0.0]
      },
      {
        "species": [{ "element": "Si", "occu": 1 }],
        "abc": [0.0, 0.672026, 0.672026],
        "properties": { "magmom": 0.0 },
        "label": "Si",
        "xyz": [4.840157052736, 0.0, 0.0]
      },
      {
        "species": [{ "element": "Si", "occu": 1 }],
        "abc": [0.0, 0.327974, 0.327974],
        "properties": { "magmom": 0.0 },
        "label": "Si",
        "xyz": [2.362178947264, 0.0, 0.0]
      },
      {
        "species": [{ "element": "Si", "occu": 1 }],
        "abc": [0.199861999999999, 0.199861999999999, 0.627433],
        "properties": { "magmom": 0.0 },
        "label": "Si",
        "xyz": [2.259491641744, 2.259491641744, -1.2258499968540106]
      },
      {
        "species": [{ "element": "Si", "occu": 1 }],
        "abc": [0.572429, 0.572429, 0.372567],
        "properties": { "magmom": 0.0 },
        "label": "Si",
        "xyz": [1.3416763582559998, 1.3416763582559998, 4.157556003146]
      },
      {
        "species": [{ "element": "Si", "occu": 1 }],
        "abc": [0.199861999999999, 0.572429, 0.0],
        "properties": { "magmom": 0.0 },
        "label": "Si",
        "xyz": [1.3416763582560034, -1.3416763582560034, 4.157556003145995]
      },
      {
        "species": [{ "element": "Si", "occu": 1 }],
        "abc": [0.572429, 0.199861999999999, 0.0],
        "properties": { "magmom": 0.0 },
        "label": "Si",
        "xyz": [-1.3416763582560034, 1.3416763582560034, 4.157556003145995]
      },
      {
        "species": [{ "element": "Si", "occu": 1 }],
        "abc": [0.800138, 0.800138, 0.372567],
        "properties": { "magmom": 0.0 },
        "label": "Si",
        "xyz": [1.3416763582559998, 1.3416763582559998, 6.6092559968539994]
      },
      {
        "species": [{ "element": "Si", "occu": 1 }],
        "abc": [0.427571, 0.427571, 0.627433],
        "properties": { "magmom": 0.0 },
        "label": "Si",
        "xyz": [2.259491641744, 2.259491641744, 1.225849996854]
      },
      {
        "species": [{ "element": "Si", "occu": 1 }],
        "abc": [0.800138, 0.427571, 0.0],
        "properties": { "magmom": 0.0 },
        "label": "Si",
        "xyz": [-1.3416763582560003, 1.3416763582560003, 6.6092559968539994]
      },
      {
        "species": [{ "element": "Si", "occu": 1 }],
        "abc": [0.427571, 0.800138, 0.0],
        "properties": { "magmom": 0.0 },
        "label": "Si",
        "xyz": [1.3416763582560003, -1.3416763582560003, 6.6092559968539994]
      }
    ]
  },
  "task_ids": null,
  "uncorrected_energy_per_atom": null,
  "energy_per_atom": -15.155532628624997,
  "formation_energy_per_atom": -0.354873203624997,
  "energy_above_hull": 0.12055201000000001,
  "is_stable": false,
  "equilibrium_reaction_energy_per_atom": null,
  "decomposes_to": null,
  "xas": null,
  "grain_boundaries": null,
  "band_gap": 0.0,
  "cbm": null,
  "vbm": null,
  "efermi": 7.7863615,
  "is_gap_direct": null,
  "is_metal": null,
  "es_source_calc_id": null,
  "bandstructure": null,
  "dos": null,
  "dos_energy_up": null,
  "dos_energy_down": null,
  "is_magnetic": null,
  "ordering": null,
  "total_magnetization": 0.0003103,
  "total_magnetization_normalized_vol": null,
  "total_magnetization_normalized_formula_units": null,
  "num_magnetic_sites": null,
  "num_unique_magnetic_sites": null,
  "types_of_magnetic_species": null,
  "bulk_modulus": null,
  "shear_modulus": null,
  "universal_anisotropy": null,
  "homogeneous_poisson": null,
  "e_total": null,
  "e_ionic": null,
  "e_electronic": null,
  "n": null,
  "e_ij_max": null,
  "weighted_surface_energy_EV_PER_ANG2": null,
  "weighted_surface_energy": null,
  "weighted_work_function": null,
  "surface_anisotropy": null,
  "shape_factor": null,
  "has_reconstructed": null,
  "possible_species": null,
  "has_props": null,
  "theoretical": null,
  "database_IDs": null,
  "fields_not_requested": [
    "builder_meta",
    "nsites",
    "elements",
    "nelements",
    "composition",
    "composition_reduced",
    "chemsys",
    "symmetry",
    "property_name",
    "deprecated",
    "deprecation_reasons",
    "last_updated",
    "origins",
    "warnings",
    "task_ids",
    "uncorrected_energy_per_atom",
    "equilibrium_reaction_energy_per_atom",
    "decomposes_to",
    "xas",
    "grain_boundaries",
    "cbm",
    "vbm",
    "is_gap_direct",
    "is_metal",
    "es_source_calc_id",
    "bandstructure",
    "dos",
    "dos_energy_up",
    "dos_energy_down",
    "is_magnetic",
    "ordering",
    "total_magnetization_normalized_vol",
    "total_magnetization_normalized_formula_units",
    "num_magnetic_sites",
    "num_unique_magnetic_sites",
    "types_of_magnetic_species",
    "bulk_modulus",
    "shear_modulus",
    "universal_anisotropy",
    "homogeneous_poisson",
    "e_total",
    "e_ionic",
    "e_electronic",
    "n",
    "e_ij_max",
    "weighted_surface_energy_EV_PER_ANG2",
    "weighted_surface_energy",
    "weighted_work_function",
    "surface_anisotropy",
    "shape_factor",
    "has_reconstructed",
    "possible_species",
    "has_props",
    "theoretical",
    "database_IDs"
  ]
}
