{
  "builder_meta": null,
  "nsites": null,
  "elements": null,
  "nelements": null,
  "composition": null,
  "composition_reduced": null,
  "formula_pretty": "HoSn2",
  "formula_anonymous": "AB2",
  "chemsys": null,
  "volume": 155.26172284239627,
  "density": 8.606350780961098,
  "density_atomic": 25.876953807066045,
  "symmetry": null,
  "property_name": null,
  "material_id": "mp-1072865",
  "deprecated": null,
  "deprecation_reasons": null,
  "last_updated": null,
  "origins": null,
  "warnings": null,
  "structure": {
    "@module": "pymatgen.core.structure",
    "@class": "Structure",
    "charge": 0,
    "lattice": {
      "matrix": [
        [-1.2190000000000002e-5, 2.2290000000000002e-5, -4.30331147],
        [-4.37543452, 0.00215395, -1.2170000000000002e-5],
        [2.18386442, 8.24486987, -3.5380000000000003e-5]
      ],
      "pbc": [true, true, true],
      "a": 4.303311470074993,
      "b": 4.375435050192877,
      "c": 8.529193571459585,
      "alpha": 104.8073584227577,
      "beta": 89.99951700412502,
      "gamma": 89.99967818739808,
      "volume": 155.26172284239627
    },
    "properties": {},
    "sites": [
      {
        "species": [{ "element": "Ho", "occu": 1 }],
        "abc": [0.75, 0.10108991, 0.2008413],
        "properties": { "magmom": -0.0 },
        "label": "Ho",
        "xyz": [-0.0037112552011472344, 1.6561448431332755, -3.2274919385293983]
      },
      {
        "species": [{ "element": "Ho", "occu": 1 }],
        "abc": [0.25, 0.89890909, 0.7991587],
        "properties": { "magmom": -0.0 },
        "label": "Ho",
        "xyz": [-2.1878666593643326, 6.590901264712775, -1.075867081458431]
      },
      {
        "species": [{ "element": "Sn", "occu": 1 }],
        "abc": [0.749999, 0.43775315000000004, 0.87754772],
        "properties": { "magmom": -0.0 },
        "label": "Sn",
        "xyz": [0.0010758563235744312, 7.23622637199035, -3.227515674282699]
      },
      {
        "species": [{ "element": "Sn", "occu": 1 }],
        "abc": [0.250001, 0.56224585, 0.12245328],
        "properties": { "magmom": -0.0 },
        "label": "Sn",
        "xyz": [-2.1926515870246344, 1.0108279807255711, -1.0758433457405108]
      },
      {
        "species": [{ "element": "Sn", "occu": 1 }],
        "abc": [0.75, 0.74736644, 0.49650504],
        "properties": { "magmom": 0.0 },
        "label": "Sn",
        "xyz": [-2.185762371958832, 4.095245952042584, -3.2275102642978895]
      },
      {
        "species": [{ "element": "Sn", "occu": 1 }],
        "abc": [0.25, 0.25263556, 0.50349496],
        "properties": { "magmom": 0.0 },
        "label": "Sn",
        "xyz": [-0.005828668910207835, 4.151800162265318, -1.07584875572645]
      }
    ]
  },
  "task_ids": null,
  "uncorrected_energy_per_atom": null,
  "energy_per_atom": -4.776741205000003,
  "formation_energy_per_atom": -0.5711334800000001,
  "energy_above_hull": 0.0,
  "is_stable": true,
  "equilibrium_reaction_energy_per_atom": null,
  "decomposes_to": null,
  "xas": null,
  "grain_boundaries": null,
  "band_gap": 0.0,
  "cbm": null,
  "vbm": null,
  "efermi": 6.65405622,
  "is_gap_direct": null,
  "is_metal": null,
  "es_source_calc_id": null,
  "bandstructure": null,
  "dos": null,
  "dos_energy_up": null,
  "dos_energy_down": null,
  "is_magnetic": null,
  "ordering": null,
  "total_magnetization": 0.0,
  "total_magnetization_normalized_vol": null,
  "total_magnetization_normalized_formula_units": null,
  "num_magnetic_sites": null,
  "num_unique_magnetic_sites": null,
  "types_of_magnetic_species": null,
  "bulk_modulus": null,
  "shear_modulus": null,
  "universal_anisotropy": null,
  "homogeneous_poisson": null,
  "e_total": null,
  "e_ionic": null,
  "e_electronic": null,
  "n": null,
  "e_ij_max": null,
  "weighted_surface_energy_EV_PER_ANG2": null,
  "weighted_surface_energy": null,
  "weighted_work_function": null,
  "surface_anisotropy": null,
  "shape_factor": null,
  "has_reconstructed": null,
  "possible_species": null,
  "has_props": null,
  "theoretical": null,
  "database_IDs": null,
  "fields_not_requested": [
    "builder_meta",
    "nsites",
    "elements",
    "nelements",
    "composition",
    "composition_reduced",
    "chemsys",
    "symmetry",
    "property_name",
    "deprecated",
    "deprecation_reasons",
    "last_updated",
    "origins",
    "warnings",
    "task_ids",
    "uncorrected_energy_per_atom",
    "equilibrium_reaction_energy_per_atom",
    "decomposes_to",
    "xas",
    "grain_boundaries",
    "cbm",
    "vbm",
    "is_gap_direct",
    "is_metal",
    "es_source_calc_id",
    "bandstructure",
    "dos",
    "dos_energy_up",
    "dos_energy_down",
    "is_magnetic",
    "ordering",
    "total_magnetization_normalized_vol",
    "total_magnetization_normalized_formula_units",
    "num_magnetic_sites",
    "num_unique_magnetic_sites",
    "types_of_magnetic_species",
    "bulk_modulus",
    "shear_modulus",
    "universal_anisotropy",
    "homogeneous_poisson",
    "e_total",
    "e_ionic",
    "e_electronic",
    "n",
    "e_ij_max",
    "weighted_surface_energy_EV_PER_ANG2",
    "weighted_surface_energy",
    "weighted_work_function",
    "surface_anisotropy",
    "shape_factor",
    "has_reconstructed",
    "possible_species",
    "has_props",
    "theoretical",
    "database_IDs"
  ]
}
