{
  "builder_meta": null,
  "nsites": null,
  "elements": null,
  "nelements": null,
  "composition": null,
  "composition_reduced": null,
  "formula_pretty": "HoTc2",
  "formula_anonymous": "AB2",
  "chemsys": null,
  "volume": 217.07558087834454,
  "density": 11.043875027404876,
  "density_atomic": 18.089631739862046,
  "symmetry": null,
  "property_name": null,
  "material_id": "mp-1101968",
  "deprecated": null,
  "deprecation_reasons": null,
  "last_updated": null,
  "origins": null,
  "warnings": null,
  "structure": {
    "@module": "pymatgen.core.structure",
    "@class": "Structure",
    "charge": 0,
    "lattice": {
      "matrix": [
        [-2.6648178700000003, -4.6167599500000005, 0.0],
        [-2.6648178700000003, 4.6167599500000005, -0.0],
        [0.0, 0.0, -8.82218479]
      ],
      "pbc": [true, true, true],
      "a": 5.330640366428347,
      "b": 5.330640366428347,
      "c": 8.82218479,
      "alpha": 90.0,
      "beta": 90.0,
      "gamma": 120.01246819471355,
      "volume": 217.07558087834465
    },
    "properties": {},
    "sites": [
      {
        "species": [{ "element": "Ho", "occu": 1 }],
        "abc": [0.66666138, 0.33333862000000003, 0.56288033],
        "properties": { "magmom": 0.0 },
        "label": "Ho",
        "xyz": [-2.6648178700000003, -1.538871168791462, -4.965834285916181]
      },
      {
        "species": [{ "element": "Ho", "occu": 1 }],
        "abc": [0.33333862000000003, 0.66666138, 0.43711967],
        "properties": { "magmom": 0.0 },
        "label": "Ho",
        "xyz": [-2.6648178700000003, 1.538871168791462, -3.856350504083819]
      },
      {
        "species": [{ "element": "Ho", "occu": 1 }],
        "abc": [0.33333862000000003, 0.66666138, 0.06288033],
        "properties": { "magmom": 0.0 },
        "label": "Ho",
        "xyz": [-2.6648178700000003, 1.538871168791462, -0.5547418909161806]
      },
      {
        "species": [{ "element": "Ho", "occu": 1 }],
        "abc": [0.66666138, 0.33333862000000003, 0.9371196700000001],
        "properties": { "magmom": 0.0 },
        "label": "Ho",
        "xyz": [-2.6648178700000003, -1.538871168791462, -8.26744289908382]
      },
      {
        "species": [{ "element": "Tc", "occu": 1 }],
        "abc": [0.0, 0.0, 0.5],
        "properties": { "magmom": 0.0 },
        "label": "Tc",
        "xyz": [0.0, 0.0, -4.411092395]
      },
      {
        "species": [{ "element": "Tc", "occu": 1 }],
        "abc": [0.0, 0.0, -0.0],
        "properties": { "magmom": 0.0 },
        "label": "Tc",
        "xyz": [0.0, 0.0, 0.0]
      },
      {
        "species": [{ "element": "Tc", "occu": 1 }],
        "abc": [0.17156435, 0.34310235, 0.75],
        "properties": { "magmom": 0.0 },
        "label": "Tc",
        "xyz": [-1.3714930192539292, 0.7919497683031002, -6.616638592499999]
      },
      {
        "species": [{ "element": "Tc", "occu": 1 }],
        "abc": [0.17149673000000001, 0.82850327, 0.75],
        "properties": { "magmom": 0.0 },
        "label": "Tc",
        "xyz": [-2.6648178700000003, 3.0332414807600734, -6.616638592499999]
      },
      {
        "species": [{ "element": "Tc", "occu": 1 }],
        "abc": [0.65689765, 0.82843565, 0.75],
        "properties": { "magmom": 0.0 },
        "label": "Tc",
        "xyz": [-3.9581427207460713, 0.7919497683031, -6.616638592499999]
      },
      {
        "species": [{ "element": "Tc", "occu": 1 }],
        "abc": [0.82843565, 0.65689765, 0.25],
        "properties": { "magmom": 0.0 },
        "label": "Tc",
        "xyz": [-3.9581427207460713, -0.7919497683031, -2.2055461975]
      },
      {
        "species": [{ "element": "Tc", "occu": 1 }],
        "abc": [0.82850327, 0.17149673000000001, 0.25],
        "properties": { "magmom": 0.0 },
        "label": "Tc",
        "xyz": [-2.6648178700000003, -3.0332414807600734, -2.2055461975]
      },
      {
        "species": [{ "element": "Tc", "occu": 1 }],
        "abc": [0.34310235, 0.17156435, 0.25],
        "properties": { "magmom": 0.0 },
        "label": "Tc",
        "xyz": [-1.3714930192539292, -0.7919497683031002, -2.2055461975]
      }
    ]
  },
  "task_ids": null,
  "uncorrected_energy_per_atom": null,
  "energy_per_atom": -28.49773368833333,
  "formation_energy_per_atom": -0.227511016666663,
  "energy_above_hull": 0.0,
  "is_stable": true,
  "equilibrium_reaction_energy_per_atom": null,
  "decomposes_to": null,
  "xas": null,
  "grain_boundaries": null,
  "band_gap": 0.0,
  "cbm": null,
  "vbm": null,
  "efermi": 6.0739614,
  "is_gap_direct": null,
  "is_metal": null,
  "es_source_calc_id": null,
  "bandstructure": null,
  "dos": null,
  "dos_energy_up": null,
  "dos_energy_down": null,
  "is_magnetic": null,
  "ordering": null,
  "total_magnetization": 4.7100000000000006e-5,
  "total_magnetization_normalized_vol": null,
  "total_magnetization_normalized_formula_units": null,
  "num_magnetic_sites": null,
  "num_unique_magnetic_sites": null,
  "types_of_magnetic_species": null,
  "bulk_modulus": null,
  "shear_modulus": null,
  "universal_anisotropy": null,
  "homogeneous_poisson": null,
  "e_total": null,
  "e_ionic": null,
  "e_electronic": null,
  "n": null,
  "e_ij_max": null,
  "weighted_surface_energy_EV_PER_ANG2": null,
  "weighted_surface_energy": null,
  "weighted_work_function": null,
  "surface_anisotropy": null,
  "shape_factor": null,
  "has_reconstructed": null,
  "possible_species": null,
  "has_props": null,
  "theoretical": null,
  "database_IDs": null,
  "fields_not_requested": [
    "builder_meta",
    "nsites",
    "elements",
    "nelements",
    "composition",
    "composition_reduced",
    "chemsys",
    "symmetry",
    "property_name",
    "deprecated",
    "deprecation_reasons",
    "last_updated",
    "origins",
    "warnings",
    "task_ids",
    "uncorrected_energy_per_atom",
    "equilibrium_reaction_energy_per_atom",
    "decomposes_to",
    "xas",
    "grain_boundaries",
    "cbm",
    "vbm",
    "is_gap_direct",
    "is_metal",
    "es_source_calc_id",
    "bandstructure",
    "dos",
    "dos_energy_up",
    "dos_energy_down",
    "is_magnetic",
    "ordering",
    "total_magnetization_normalized_vol",
    "total_magnetization_normalized_formula_units",
    "num_magnetic_sites",
    "num_unique_magnetic_sites",
    "types_of_magnetic_species",
    "bulk_modulus",
    "shear_modulus",
    "universal_anisotropy",
    "homogeneous_poisson",
    "e_total",
    "e_ionic",
    "e_electronic",
    "n",
    "e_ij_max",
    "weighted_surface_energy_EV_PER_ANG2",
    "weighted_surface_energy",
    "weighted_work_function",
    "surface_anisotropy",
    "shape_factor",
    "has_reconstructed",
    "possible_species",
    "has_props",
    "theoretical",
    "database_IDs"
  ]
}
