{
  "builder_meta": null,
  "nsites": null,
  "elements": null,
  "nelements": null,
  "composition": null,
  "composition_reduced": null,
  "formula_pretty": "HoTe3",
  "formula_anonymous": "AB3",
  "chemsys": null,
  "volume": 245.84867189913646,
  "density": 7.399084870342256,
  "density_atomic": 30.731083987392058,
  "symmetry": null,
  "property_name": null,
  "material_id": "mp-1078508",
  "deprecated": null,
  "deprecation_reasons": null,
  "last_updated": null,
  "origins": null,
  "warnings": null,
  "structure": {
    "@module": "pymatgen.core.structure",
    "@class": "Structure",
    "charge": 0,
    "lattice": {
      "matrix": [
        [-4.3238377, -1e-8, -0.0],
        [-0.0, -0.0, -4.32841134],
        [2.16191782, -13.13620618, 0.0]
      ],
      "pbc": [true, true, true],
      "a": 4.3238377,
      "b": 4.32841134,
      "c": 13.312918593002204,
      "alpha": 90.0,
      "beta": 99.34579135242826,
      "gamma": 90.0,
      "volume": 245.84867189913643
    },
    "properties": {},
    "sites": [
      {
        "species": [{ "element": "Ho", "occu": 1 }],
        "abc": [0.17221603, 0.75, 0.34443006],
        "properties": { "magmom": -0.0 },
        "label": "Ho",
        "xyz": [-4.678600661889298e-6, -4.524504284471931, -3.246308505]
      },
      {
        "species": [{ "element": "Ho", "occu": 1 }],
        "abc": [0.82778397, 0.25, 0.65556994],
        "properties": { "magmom": -0.0 },
        "label": "Ho",
        "xyz": [-2.1619152013993386, -8.611701905528069, -1.082102835]
      },
      {
        "species": [{ "element": "Te", "occu": 1 }],
        "abc": [0.9233123, 0.75, 0.8466256],
        "properties": { "magmom": 0.0 },
        "label": "Te",
        "xyz": [-2.161917560105518, -11.121448448099331, -3.246308505]
      },
      {
        "species": [{ "element": "Te", "occu": 1 }],
        "abc": [0.0766877, 0.25, 0.1533744],
        "properties": { "magmom": 0.0 },
        "label": "Te",
        "xyz": [-2.31989448201686e-6, -2.014757741900669, -1.082102835]
      },
      {
        "species": [{ "element": "Te", "occu": 1 }],
        "abc": [0.5766546300000001, 0.75, 0.15331127],
        "properties": { "magmom": 0.0 },
        "label": "Te",
        "xyz": [-2.1619146624537198, -2.013928458204195, -3.246308505]
      },
      {
        "species": [{ "element": "Te", "occu": 1 }],
        "abc": [0.42334537, 0.25, 0.84668873],
        "properties": { "magmom": 0.0 },
        "label": "Te",
        "xyz": [-5.217546280356089e-6, -11.122277731795807, -1.082102835]
      },
      {
        "species": [{ "element": "Te", "occu": 1 }],
        "abc": [0.29303471000000003, 0.75, 0.58606843],
        "properties": { "magmom": 0.0 },
        "label": "Te",
        "xyz": [-2.7439501446568926e-6, -7.6987157349992446, -3.246308505]
      },
      {
        "species": [{ "element": "Te", "occu": 1 }],
        "abc": [0.70696529, 0.25, 0.41393157],
        "properties": { "magmom": 0.0 },
        "label": "Te",
        "xyz": [-2.1619171360498552, -5.437490455000757, -1.082102835]
      }
    ]
  },
  "task_ids": null,
  "uncorrected_energy_per_atom": null,
  "energy_per_atom": -28.3099191175,
  "formation_energy_per_atom": -1.026664906250001,
  "energy_above_hull": 0.014365900937498,
  "is_stable": false,
  "equilibrium_reaction_energy_per_atom": null,
  "decomposes_to": null,
  "xas": null,
  "grain_boundaries": null,
  "band_gap": 0.0,
  "cbm": null,
  "vbm": null,
  "efermi": 5.49488998,
  "is_gap_direct": null,
  "is_metal": null,
  "es_source_calc_id": null,
  "bandstructure": null,
  "dos": null,
  "dos_energy_up": null,
  "dos_energy_down": null,
  "is_magnetic": null,
  "ordering": null,
  "total_magnetization": 0.0,
  "total_magnetization_normalized_vol": null,
  "total_magnetization_normalized_formula_units": null,
  "num_magnetic_sites": null,
  "num_unique_magnetic_sites": null,
  "types_of_magnetic_species": null,
  "bulk_modulus": null,
  "shear_modulus": null,
  "universal_anisotropy": null,
  "homogeneous_poisson": null,
  "e_total": null,
  "e_ionic": null,
  "e_electronic": null,
  "n": null,
  "e_ij_max": null,
  "weighted_surface_energy_EV_PER_ANG2": null,
  "weighted_surface_energy": null,
  "weighted_work_function": null,
  "surface_anisotropy": null,
  "shape_factor": null,
  "has_reconstructed": null,
  "possible_species": null,
  "has_props": null,
  "theoretical": null,
  "database_IDs": null,
  "fields_not_requested": [
    "builder_meta",
    "nsites",
    "elements",
    "nelements",
    "composition",
    "composition_reduced",
    "chemsys",
    "symmetry",
    "property_name",
    "deprecated",
    "deprecation_reasons",
    "last_updated",
    "origins",
    "warnings",
    "task_ids",
    "uncorrected_energy_per_atom",
    "equilibrium_reaction_energy_per_atom",
    "decomposes_to",
    "xas",
    "grain_boundaries",
    "cbm",
    "vbm",
    "is_gap_direct",
    "is_metal",
    "es_source_calc_id",
    "bandstructure",
    "dos",
    "dos_energy_up",
    "dos_energy_down",
    "is_magnetic",
    "ordering",
    "total_magnetization_normalized_vol",
    "total_magnetization_normalized_formula_units",
    "num_magnetic_sites",
    "num_unique_magnetic_sites",
    "types_of_magnetic_species",
    "bulk_modulus",
    "shear_modulus",
    "universal_anisotropy",
    "homogeneous_poisson",
    "e_total",
    "e_ionic",
    "e_electronic",
    "n",
    "e_ij_max",
    "weighted_surface_energy_EV_PER_ANG2",
    "weighted_surface_energy",
    "weighted_work_function",
    "surface_anisotropy",
    "shape_factor",
    "has_reconstructed",
    "possible_species",
    "has_props",
    "theoretical",
    "database_IDs"
  ]
}
