{"builder_meta": null, "nsites": null, "elements": null, "nelements": null, "composition": null, "composition_reduced": null, "formula_pretty": "HoTm3", "formula_anonymous": "AB3", "chemsys": null, "volume": 246.84087561304315, "density": 9.037715516339905, "density_atomic": 30.855109451630394, "symmetry": null, "property_name": null, "material_id": "mp-1184899", "deprecated": null, "deprecation_reasons": null, "last_updated": null, "origins": null, "warnings": null, "structure": {"@module": "pymatgen.core.structure", "@class": "Structure", "charge": 0, "lattice": {"matrix": [[7.07832405, 1.794e-05, -0.0], [-3.5391483900000003, 6.12998162, -0.0], [0.0, -0.0, 5.68888074]], "pbc": [true, true, true], "a": 7.078324050022734, "b": 7.0782940026518695, "c": 5.68888074, "alpha": 90.0, "beta": 90.0, "gamma": 119.99986776361958, "volume": 246.84087561304315}, "properties": {}, "sites": [{"species": [{"element": "Ho", "occu": 1}], "abc": [0.33333666, 0.66666883, 0.750000999999999], "properties": {"magmom": 0.498}, "label": "Ho", "xyz": [2.4980866989210426e-05, 4.086673654586584, 4.266666243880734]}, {"species": [{"element": "Ho", "occu": 1}], "abc": [0.66666234, 0.33333217, 0.25], "properties": {"magmom": 0.498}, "label": "Ho", "xyz": [3.5391400616605706, 2.043332035377095, 1.422220185]}, {"species": [{"element": "Tm", "occu": 1}], "abc": [0.16613253, 0.33226869000000003, 0.25], "properties": {"magmom": 0.51}, "label": "Tm", "xyz": [-8.316674562802717e-06, 2.0368039430190663, 1.422220185]}, {"species": [{"element": "Tm", "occu": 1}], "abc": [0.667735299999999, 0.83386865, 0.25], "properties": {"magmom": 0.51}, "label": "Tm", "xyz": [1.7752619429049847, 5.111611477165495, 1.422220185]}, {"species": [{"element": "Tm", "occu": 1}], "abc": [0.16613253, 0.83386784, 0.25], "properties": {"magmom": 0.51}, "label": "Tm", "xyz": [-1.7752421408224313, 5.111597513126689, 1.422220185]}, {"species": [{"element": "Tm", "occu": 1}], "abc": [0.83386747, 0.66773331, 0.750000999999999], "properties": {"magmom": 0.51}, "label": "Tm", "xyz": [3.539176898377783, 4.093207876944174, 4.266666243880734]}, {"species": [{"element": "Tm", "occu": 1}], "abc": [0.3322657, 0.16613235, 0.750000999999999], "properties": {"magmom": 0.51}, "label": "Tm", "xyz": [1.7639172562706684, 1.018394212834065, 4.266666243880734]}, {"species": [{"element": "Tm", "occu": 1}], "abc": [0.83386947, 0.16613516, 0.750000999999999], "properties": {"magmom": 0.51}, "label": "Tm", "xyz": [5.314421340025361, 1.018420436854051, 4.266666243880734]}]}, "task_ids": null, "uncorrected_energy_per_atom": null, "energy_per_atom": -34.580688915, "formation_energy_per_atom": -0.019566718750006002, "energy_above_hull": 0.0, "is_stable": true, "equilibrium_reaction_energy_per_atom": null, "decomposes_to": null, "xas": null, "grain_boundaries": null, "band_gap": 0.0, "cbm": null, "vbm": null, "efermi": 2.99534226, "is_gap_direct": null, "is_metal": null, "es_source_calc_id": null, "bandstructure": null, "dos": null, "dos_energy_up": null, "dos_energy_down": null, "is_magnetic": null, "ordering": null, "total_magnetization": 5.0658644, "total_magnetization_normalized_vol": null, "total_magnetization_normalized_formula_units": null, "num_magnetic_sites": null, "num_unique_magnetic_sites": null, "types_of_magnetic_species": null, "bulk_modulus": null, "shear_modulus": null, "universal_anisotropy": null, "homogeneous_poisson": null, "e_total": null, "e_ionic": null, "e_electronic": null, "n": null, "e_ij_max": null, "weighted_surface_energy_EV_PER_ANG2": null, "weighted_surface_energy": null, "weighted_work_function": null, "surface_anisotropy": null, "shape_factor": null, "has_reconstructed": null, "possible_species": null, "has_props": null, "theoretical": null, "database_IDs": null, "fields_not_requested": ["builder_meta", "nsites", "elements", "nelements", "composition", "composition_reduced", "chemsys", "symmetry", "property_name", "deprecated", "deprecation_reasons", "last_updated", "origins", "warnings", "task_ids", "uncorrected_energy_per_atom", "equilibrium_reaction_energy_per_atom", "decomposes_to", "xas", "grain_boundaries", "cbm", "vbm", "is_gap_direct", "is_metal", "es_source_calc_id", "bandstructure", "dos", "dos_energy_up", "dos_energy_down", "is_magnetic", "ordering", "total_magnetization_normalized_vol", "total_magnetization_normalized_formula_units", "num_magnetic_sites", "num_unique_magnetic_sites", "types_of_magnetic_species", "bulk_modulus", "shear_modulus", "universal_anisotropy", "homogeneous_poisson", "e_total", "e_ionic", "e_electronic", "n", "e_ij_max", "weighted_surface_energy_EV_PER_ANG2", "weighted_surface_energy", "weighted_work_function", "surface_anisotropy", "shape_factor", "has_reconstructed", "possible_species", "has_props", "theoretical", "database_IDs"]}