{"builder_meta": null, "nsites": null, "elements": null, "nelements": null, "composition": null, "composition_reduced": null, "formula_pretty": "HoZn2", "formula_anonymous": "AB2", "chemsys": null, "volume": 115.89797366593558, "density": 8.474723478028526, "density_atomic": 19.316328944322596, "symmetry": null, "property_name": null, "material_id": "mp-2041", "deprecated": null, "deprecation_reasons": null, "last_updated": null, "origins": null, "warnings": null, "structure": {"@module": "pymatgen.core.structure", "@class": "Structure", "charge": 0, "lattice": {"matrix": [[4.07195901, -1e-08, 1.74651655], [1.88310994, 5.10598228, 1.2296655], [0.01752208, -0.03156477, 5.57924282]], "pbc": [true, true, true], "a": 4.430707645347871, "b": 5.57935796769584, "c": 5.579359622977734, "alpha": 77.50975119710156, "beta": 66.60532813489102, "gamma": 66.60534990011203, "volume": 115.89797366593557}, "properties": {}, "sites": [{"species": [{"element": "Ho", "occu": 1}], "abc": [0.52863853, 0.7213614700000001, 0.22136147], "properties": {"magmom": -0.0}, "label": "Ho", "xyz": [3.5148760931429246, 3.676271654120955, 3.045338646423102]}, {"species": [{"element": "Ho", "occu": 1}], "abc": [0.47136147, 0.27863853, 0.77863853], "properties": {"magmom": -0.0}, "label": "Ho", "xyz": [2.457714936857075, 1.3981458458790457, 5.510086223576899]}, {"species": [{"element": "Zn", "occu": 1}], "abc": [0.83395244, 0.70924863, 0.62284549], "properties": {"magmom": -0.0}, "label": "Zn", "xyz": [4.742326845557286, 3.6017509539173655, 5.8036565376580285]}, {"species": [{"element": "Zn", "occu": 1}], "abc": [0.16604756, 0.29075137, 0.37715451], "properties": {"magmom": -0.0}, "label": "Zn", "xyz": [1.230264184442714, 1.4726665460826354, 2.751768332341971]}, {"species": [{"element": "Zn", "occu": 1}], "abc": [0.83395244, 0.12284549, 0.20924863], "properties": {"magmom": -0.0}, "label": "Zn", "xyz": [3.630818186507405, 0.6206420018996277, 2.775019515778814]}, {"species": [{"element": "Zn", "occu": 1}], "abc": [0.16604756, 0.87715451, 0.7907513700000001], "properties": {"magmom": -0.0}, "label": "Zn", "xyz": [2.3417728434925946, 4.453775498100373, 5.780405354221187]}]}, "task_ids": null, "uncorrected_energy_per_atom": null, "energy_per_atom": -2.760490441666666, "formation_energy_per_atom": -0.388101546666664, "energy_above_hull": 0.0, "is_stable": true, "equilibrium_reaction_energy_per_atom": null, "decomposes_to": null, "xas": null, "grain_boundaries": null, "band_gap": 0.0, "cbm": null, "vbm": null, "efermi": 3.01919893, "is_gap_direct": null, "is_metal": null, "es_source_calc_id": null, "bandstructure": null, "dos": null, "dos_energy_up": null, "dos_energy_down": null, "is_magnetic": null, "ordering": null, "total_magnetization": 0.0, "total_magnetization_normalized_vol": null, "total_magnetization_normalized_formula_units": null, "num_magnetic_sites": null, "num_unique_magnetic_sites": null, "types_of_magnetic_species": null, "bulk_modulus": null, "shear_modulus": null, "universal_anisotropy": null, "homogeneous_poisson": null, "e_total": null, "e_ionic": null, "e_electronic": null, "n": null, "e_ij_max": null, "weighted_surface_energy_EV_PER_ANG2": null, "weighted_surface_energy": null, "weighted_work_function": null, "surface_anisotropy": null, "shape_factor": null, "has_reconstructed": null, "possible_species": null, "has_props": null, "theoretical": null, "database_IDs": null, "fields_not_requested": ["builder_meta", "nsites", "elements", "nelements", "composition", "composition_reduced", "chemsys", "symmetry", "property_name", "deprecated", "deprecation_reasons", "last_updated", "origins", "warnings", "task_ids", "uncorrected_energy_per_atom", "equilibrium_reaction_energy_per_atom", "decomposes_to", "xas", "grain_boundaries", "cbm", "vbm", "is_gap_direct", "is_metal", "es_source_calc_id", "bandstructure", "dos", "dos_energy_up", "dos_energy_down", "is_magnetic", "ordering", "total_magnetization_normalized_vol", "total_magnetization_normalized_formula_units", "num_magnetic_sites", "num_unique_magnetic_sites", "types_of_magnetic_species", "bulk_modulus", "shear_modulus", "universal_anisotropy", "homogeneous_poisson", "e_total", "e_ionic", "e_electronic", "n", "e_ij_max", "weighted_surface_energy_EV_PER_ANG2", "weighted_surface_energy", "weighted_work_function", "surface_anisotropy", "shape_factor", "has_reconstructed", "possible_species", "has_props", "theoretical", "database_IDs"]}