{
  "builder_meta": null,
  "nsites": null,
  "elements": null,
  "nelements": null,
  "composition": null,
  "composition_reduced": null,
  "formula_pretty": "HoZn3",
  "formula_anonymous": "AB3",
  "chemsys": null,
  "volume": 283.84726412242713,
  "density": 8.451247059262013,
  "density_atomic": 17.740454007651696,
  "symmetry": null,
  "property_name": null,
  "material_id": "mp-30736",
  "deprecated": null,
  "deprecation_reasons": null,
  "last_updated": null,
  "origins": null,
  "warnings": null,
  "structure": {
    "@module": "pymatgen.core.structure",
    "@class": "Structure",
    "charge": 0,
    "lattice": {
      "matrix": [
        [4.31014171, -0.0, 0.0],
        [-0.0, 6.60292788, 0.0],
        [0.0, 0.0, 9.97370709]
      ],
      "pbc": [true, true, true],
      "a": 4.31014171,
      "b": 6.60292788,
      "c": 9.97370709,
      "alpha": 90.0,
      "beta": 90.0,
      "gamma": 90.0,
      "volume": 283.84726412242713
    },
    "properties": {},
    "sites": [
      {
        "species": [{ "element": "Ho", "occu": 1 }],
        "abc": [0.25, 0.77826518, 0.16113519],
        "properties": { "magmom": -0.0 },
        "label": "Ho",
        "xyz": [1.0775354275, 5.138828855055219, 1.6071151869514972]
      },
      {
        "species": [{ "element": "Ho", "occu": 1 }],
        "abc": [0.75, 0.22173482, 0.83886481],
        "properties": { "magmom": -0.0 },
        "label": "Ho",
        "xyz": [3.2326062825, 1.4640990249447816, 8.366591903048503]
      },
      {
        "species": [{ "element": "Ho", "occu": 1 }],
        "abc": [0.25, 0.27826518, 0.33886481],
        "properties": { "magmom": -0.0 },
        "label": "Ho",
        "xyz": [1.0775354275, 1.8373649150552185, 3.379738358048503]
      },
      {
        "species": [{ "element": "Ho", "occu": 1 }],
        "abc": [0.75, 0.72173482, 0.66113519],
        "properties": { "magmom": -0.0 },
        "label": "Ho",
        "xyz": [3.2326062825, 4.765562964944782, 6.593968731951497]
      },
      {
        "species": [{ "element": "Zn", "occu": 1 }],
        "abc": [0.25, 0.03751331, 0.60612909],
        "properties": { "magmom": -0.0 },
        "label": "Zn",
        "xyz": [1.0775354275, 0.2476976804700828, 6.045354002388248]
      },
      {
        "species": [{ "element": "Zn", "occu": 1 }],
        "abc": [0.75, 0.96248669, 0.39387091],
        "properties": { "magmom": -0.0 },
        "label": "Zn",
        "xyz": [3.2326062825, 6.355230199529918, 3.928353087611752]
      },
      {
        "species": [{ "element": "Zn", "occu": 1 }],
        "abc": [0.25, 0.53751331, 0.8938709100000001],
        "properties": { "magmom": -0.0 },
        "label": "Zn",
        "xyz": [1.0775354275, 3.549161620470083, 8.915206632611753]
      },
      {
        "species": [{ "element": "Zn", "occu": 1 }],
        "abc": [0.75, 0.46248669000000003, 0.10612909],
        "properties": { "magmom": -0.0 },
        "label": "Zn",
        "xyz": [3.2326062825, 3.0537662595299175, 1.058500457388248]
      },
      {
        "species": [{ "element": "Zn", "occu": 1 }],
        "abc": [0.75, 0.77781137, 0.9557362300000001],
        "properties": { "magmom": 0.0 },
        "label": "Zn",
        "xyz": [3.2326062825, 5.135832380353996, 9.532233213320872]
      },
      {
        "species": [{ "element": "Zn", "occu": 1 }],
        "abc": [0.25, 0.22218863, 0.04426377],
        "properties": { "magmom": 0.0 },
        "label": "Zn",
        "xyz": [1.0775354275, 1.4670954996460044, 0.4414738766791293]
      },
      {
        "species": [{ "element": "Zn", "occu": 1 }],
        "abc": [0.75, 0.27781137, 0.54426377],
        "properties": { "magmom": 0.0 },
        "label": "Zn",
        "xyz": [3.2326062825, 1.8343684403539957, 5.428327421679129]
      },
      {
        "species": [{ "element": "Zn", "occu": 1 }],
        "abc": [0.25, 0.72218863, 0.45573623],
        "properties": { "magmom": 0.0 },
        "label": "Zn",
        "xyz": [1.0775354275, 4.768559439646005, 4.54537966832087]
      },
      {
        "species": [{ "element": "Zn", "occu": 1 }],
        "abc": [0.75, 0.08094805000000001, 0.14526165],
        "properties": { "magmom": 0.0 },
        "label": "Zn",
        "xyz": [3.2326062825, 0.5344941361766341, 1.4487971485100983]
      },
      {
        "species": [{ "element": "Zn", "occu": 1 }],
        "abc": [0.25, 0.9190519500000001, 0.85473835],
        "properties": { "magmom": 0.0 },
        "label": "Zn",
        "xyz": [1.0775354275, 6.068433743823366, 8.5249099414899]
      },
      {
        "species": [{ "element": "Zn", "occu": 1 }],
        "abc": [0.75, 0.58094805, 0.35473835],
        "properties": { "magmom": 0.0 },
        "label": "Zn",
        "xyz": [3.2326062825, 3.8359580761766345, 3.538056396489901]
      },
      {
        "species": [{ "element": "Zn", "occu": 1 }],
        "abc": [0.25, 0.41905195, 0.64526165],
        "properties": { "magmom": 0.0 },
        "label": "Zn",
        "xyz": [1.0775354275, 2.766969803823366, 6.435650693510098]
      }
    ]
  },
  "task_ids": null,
  "uncorrected_energy_per_atom": null,
  "energy_per_atom": -2.454533708125,
  "formation_energy_per_atom": -0.36030613437499803,
  "energy_above_hull": 0.0,
  "is_stable": true,
  "equilibrium_reaction_energy_per_atom": null,
  "decomposes_to": null,
  "xas": null,
  "grain_boundaries": null,
  "band_gap": 0.0,
  "cbm": null,
  "vbm": null,
  "efermi": 2.96057048,
  "is_gap_direct": null,
  "is_metal": null,
  "es_source_calc_id": null,
  "bandstructure": null,
  "dos": null,
  "dos_energy_up": null,
  "dos_energy_down": null,
  "is_magnetic": null,
  "ordering": null,
  "total_magnetization": 0.0,
  "total_magnetization_normalized_vol": null,
  "total_magnetization_normalized_formula_units": null,
  "num_magnetic_sites": null,
  "num_unique_magnetic_sites": null,
  "types_of_magnetic_species": null,
  "bulk_modulus": null,
  "shear_modulus": null,
  "universal_anisotropy": null,
  "homogeneous_poisson": null,
  "e_total": null,
  "e_ionic": null,
  "e_electronic": null,
  "n": null,
  "e_ij_max": null,
  "weighted_surface_energy_EV_PER_ANG2": null,
  "weighted_surface_energy": null,
  "weighted_work_function": null,
  "surface_anisotropy": null,
  "shape_factor": null,
  "has_reconstructed": null,
  "possible_species": null,
  "has_props": null,
  "theoretical": null,
  "database_IDs": null,
  "fields_not_requested": [
    "builder_meta",
    "nsites",
    "elements",
    "nelements",
    "composition",
    "composition_reduced",
    "chemsys",
    "symmetry",
    "property_name",
    "deprecated",
    "deprecation_reasons",
    "last_updated",
    "origins",
    "warnings",
    "task_ids",
    "uncorrected_energy_per_atom",
    "equilibrium_reaction_energy_per_atom",
    "decomposes_to",
    "xas",
    "grain_boundaries",
    "cbm",
    "vbm",
    "is_gap_direct",
    "is_metal",
    "es_source_calc_id",
    "bandstructure",
    "dos",
    "dos_energy_up",
    "dos_energy_down",
    "is_magnetic",
    "ordering",
    "total_magnetization_normalized_vol",
    "total_magnetization_normalized_formula_units",
    "num_magnetic_sites",
    "num_unique_magnetic_sites",
    "types_of_magnetic_species",
    "bulk_modulus",
    "shear_modulus",
    "universal_anisotropy",
    "homogeneous_poisson",
    "e_total",
    "e_ionic",
    "e_electronic",
    "n",
    "e_ij_max",
    "weighted_surface_energy_EV_PER_ANG2",
    "weighted_surface_energy",
    "weighted_work_function",
    "surface_anisotropy",
    "shape_factor",
    "has_reconstructed",
    "possible_species",
    "has_props",
    "theoretical",
    "database_IDs"
  ]
}
