{
  "builder_meta": null,
  "nsites": null,
  "elements": null,
  "nelements": null,
  "composition": null,
  "composition_reduced": null,
  "formula_pretty": "I2N3",
  "formula_anonymous": "A2B3",
  "chemsys": null,
  "volume": 935.912224184207,
  "density": 2.099494654567472,
  "density_atomic": 46.79561120921035,
  "symmetry": null,
  "property_name": null,
  "material_id": "mp-1212113",
  "deprecated": null,
  "deprecation_reasons": null,
  "last_updated": null,
  "origins": null,
  "warnings": null,
  "structure": {
    "@module": "pymatgen.core.structure",
    "@class": "Structure",
    "charge": 0,
    "lattice": {
      "matrix": [
        [11.497478, 0.0, 0.0],
        [0.0, 11.497478, 0.0],
        [0.0, 0.0, 7.079946]
      ],
      "pbc": [true, true, true],
      "a": 11.497478,
      "b": 11.497478,
      "c": 7.079946,
      "alpha": 90.0,
      "beta": 90.0,
      "gamma": 90.0,
      "volume": 935.912224184207
    },
    "properties": {},
    "sites": [
      {
        "species": [{ "element": "I", "occu": 1 }],
        "abc": [0.232971999999999, 0.267028, 0.289587],
        "properties": { "magmom": -0.136 },
        "label": "I",
        "xyz": [2.6785904446159883, 3.0701485553839998, 2.050260322302]
      },
      {
        "species": [{ "element": "I", "occu": 1 }],
        "abc": [0.767027999999999, 0.732972, 0.289587],
        "properties": { "magmom": -0.135 },
        "label": "I",
        "xyz": [8.818887555383988, 8.427329444616, 2.050260322302]
      },
      {
        "species": [{ "element": "I", "occu": 1 }],
        "abc": [0.767027999999999, 0.267028, 0.289587],
        "properties": { "magmom": -0.136 },
        "label": "I",
        "xyz": [8.818887555383988, 3.0701485553839998, 2.050260322302]
      },
      {
        "species": [{ "element": "I", "occu": 1 }],
        "abc": [0.267028, 0.232971999999999, 0.710413],
        "properties": { "magmom": -0.136 },
        "label": "I",
        "xyz": [3.0701485553839998, 2.6785904446159883, 5.029685677698]
      },
      {
        "species": [{ "element": "I", "occu": 1 }],
        "abc": [0.232971999999999, 0.732972, 0.289587],
        "properties": { "magmom": -0.136 },
        "label": "I",
        "xyz": [2.6785904446159883, 8.427329444616, 2.050260322302]
      },
      {
        "species": [{ "element": "I", "occu": 1 }],
        "abc": [0.732972, 0.767027999999999, 0.710413],
        "properties": { "magmom": -0.135 },
        "label": "I",
        "xyz": [8.427329444616, 8.818887555383988, 5.029685677698]
      },
      {
        "species": [{ "element": "I", "occu": 1 }],
        "abc": [0.732972, 0.232971999999999, 0.710413],
        "properties": { "magmom": -0.136 },
        "label": "I",
        "xyz": [8.427329444616, 2.6785904446159883, 5.029685677698]
      },
      {
        "species": [{ "element": "I", "occu": 1 }],
        "abc": [0.267028, 0.767027999999999, 0.710413],
        "properties": { "magmom": -0.136 },
        "label": "I",
        "xyz": [3.0701485553839998, 8.818887555383988, 5.029685677698]
      },
      {
        "species": [{ "element": "N", "occu": 1 }],
        "abc": [0.75, 0.25, 0.0],
        "properties": { "magmom": -0.869 },
        "label": "N",
        "xyz": [8.623108499999999, 2.8743695, 0.0]
      },
      {
        "species": [{ "element": "N", "occu": 1 }],
        "abc": [0.25, 0.75, 0.0],
        "properties": { "magmom": -0.869 },
        "label": "N",
        "xyz": [2.8743695, 8.623108499999999, 0.0]
      },
      {
        "species": [{ "element": "N", "occu": 1 }],
        "abc": [0.75, 0.75, 0.0],
        "properties": { "magmom": -0.869 },
        "label": "N",
        "xyz": [8.623108499999999, 8.623108499999999, 0.0]
      },
      {
        "species": [{ "element": "N", "occu": 1 }],
        "abc": [0.25, 0.25, 0.0],
        "properties": { "magmom": -0.869 },
        "label": "N",
        "xyz": [2.8743695, 2.8743695, 0.0]
      },
      {
        "species": [{ "element": "N", "occu": 1 }],
        "abc": [0.585311, 0.0, 0.23739000000000002],
        "properties": { "magmom": 0.264 },
        "label": "N",
        "xyz": [6.729600345658, 0.0, 1.68070838094]
      },
      {
        "species": [{ "element": "N", "occu": 1 }],
        "abc": [0.414689, 0.0, 0.23739000000000002],
        "properties": { "magmom": 0.264 },
        "label": "N",
        "xyz": [4.767877654342, 0.0, 1.68070838094]
      },
      {
        "species": [{ "element": "N", "occu": 1 }],
        "abc": [0.5, 0.914689, 0.23739000000000002],
        "properties": { "magmom": 0.265 },
        "label": "N",
        "xyz": [5.748739, 10.516616654341998, 1.68070838094]
      },
      {
        "species": [{ "element": "N", "occu": 1 }],
        "abc": [0.914689, 0.5, 0.76261],
        "properties": { "magmom": 0.264 },
        "label": "N",
        "xyz": [10.516616654341998, 5.748739, 5.39923761906]
      },
      {
        "species": [{ "element": "N", "occu": 1 }],
        "abc": [0.5, 0.085311, 0.23739000000000002],
        "properties": { "magmom": 0.265 },
        "label": "N",
        "xyz": [5.748739, 0.9808613456579999, 1.68070838094]
      },
      {
        "species": [{ "element": "N", "occu": 1 }],
        "abc": [0.085311, 0.5, 0.76261],
        "properties": { "magmom": 0.264 },
        "label": "N",
        "xyz": [0.9808613456579999, 5.748739, 5.39923761906]
      },
      {
        "species": [{ "element": "N", "occu": 1 }],
        "abc": [0.0, 0.585311, 0.76261],
        "properties": { "magmom": 0.265 },
        "label": "N",
        "xyz": [0.0, 6.729600345658, 5.39923761906]
      },
      {
        "species": [{ "element": "N", "occu": 1 }],
        "abc": [0.0, 0.414689, 0.76261],
        "properties": { "magmom": 0.265 },
        "label": "N",
        "xyz": [0.0, 4.767877654342, 5.39923761906]
      }
    ]
  },
  "task_ids": null,
  "uncorrected_energy_per_atom": null,
  "energy_per_atom": -4.4351713605,
  "formation_energy_per_atom": 1.177400332499999,
  "energy_above_hull": 1.374131435249999,
  "is_stable": false,
  "equilibrium_reaction_energy_per_atom": null,
  "decomposes_to": null,
  "xas": null,
  "grain_boundaries": null,
  "band_gap": 0.0,
  "cbm": null,
  "vbm": null,
  "efermi": -1.53345772,
  "is_gap_direct": null,
  "is_metal": null,
  "es_source_calc_id": null,
  "bandstructure": null,
  "dos": null,
  "dos_energy_up": null,
  "dos_energy_down": null,
  "is_magnetic": null,
  "ordering": null,
  "total_magnetization": 3.7851058,
  "total_magnetization_normalized_vol": null,
  "total_magnetization_normalized_formula_units": null,
  "num_magnetic_sites": null,
  "num_unique_magnetic_sites": null,
  "types_of_magnetic_species": null,
  "bulk_modulus": null,
  "shear_modulus": null,
  "universal_anisotropy": null,
  "homogeneous_poisson": null,
  "e_total": null,
  "e_ionic": null,
  "e_electronic": null,
  "n": null,
  "e_ij_max": null,
  "weighted_surface_energy_EV_PER_ANG2": null,
  "weighted_surface_energy": null,
  "weighted_work_function": null,
  "surface_anisotropy": null,
  "shape_factor": null,
  "has_reconstructed": null,
  "possible_species": null,
  "has_props": null,
  "theoretical": null,
  "database_IDs": null,
  "fields_not_requested": [
    "builder_meta",
    "nsites",
    "elements",
    "nelements",
    "composition",
    "composition_reduced",
    "chemsys",
    "symmetry",
    "property_name",
    "deprecated",
    "deprecation_reasons",
    "last_updated",
    "origins",
    "warnings",
    "task_ids",
    "uncorrected_energy_per_atom",
    "equilibrium_reaction_energy_per_atom",
    "decomposes_to",
    "xas",
    "grain_boundaries",
    "cbm",
    "vbm",
    "is_gap_direct",
    "is_metal",
    "es_source_calc_id",
    "bandstructure",
    "dos",
    "dos_energy_up",
    "dos_energy_down",
    "is_magnetic",
    "ordering",
    "total_magnetization_normalized_vol",
    "total_magnetization_normalized_formula_units",
    "num_magnetic_sites",
    "num_unique_magnetic_sites",
    "types_of_magnetic_species",
    "bulk_modulus",
    "shear_modulus",
    "universal_anisotropy",
    "homogeneous_poisson",
    "e_total",
    "e_ionic",
    "e_electronic",
    "n",
    "e_ij_max",
    "weighted_surface_energy_EV_PER_ANG2",
    "weighted_surface_energy",
    "weighted_work_function",
    "surface_anisotropy",
    "shape_factor",
    "has_reconstructed",
    "possible_species",
    "has_props",
    "theoretical",
    "database_IDs"
  ]
}
