{
  "builder_meta": null,
  "nsites": null,
  "elements": null,
  "nelements": null,
  "composition": null,
  "composition_reduced": null,
  "formula_pretty": "I2O5",
  "formula_anonymous": "A2B5",
  "chemsys": null,
  "volume": 429.70673644895584,
  "density": 5.159777653138838,
  "density_atomic": 15.346669158891281,
  "symmetry": null,
  "property_name": null,
  "material_id": "mp-23261",
  "deprecated": null,
  "deprecation_reasons": null,
  "last_updated": null,
  "origins": null,
  "warnings": null,
  "structure": {
    "@module": "pymatgen.core.structure",
    "@class": "Structure",
    "charge": 0,
    "lattice": {
      "matrix": [
        [5.02925327, 0.0, 0.0],
        [0.0, 7.80648414, -2.4049956200000002],
        [0.0, -0.03612466, 10.95606383]
      ],
      "pbc": [true, true, true],
      "a": 5.02925327,
      "b": 8.168549354707402,
      "c": 10.956123385490617,
      "alpha": 107.31176104222378,
      "beta": 90.0,
      "gamma": 90.0,
      "volume": 429.7067364489558
    },
    "properties": {},
    "sites": [
      {
        "species": [{ "element": "I", "occu": 1 }],
        "abc": [0.82624394, 0.6573164300000001, 0.37388327],
        "properties": { "magmom": 0.0 },
        "label": "I",
        "xyz": [4.155390037062684, 5.1178238797479825, 2.515445835985087]
      },
      {
        "species": [{ "element": "I", "occu": 1 }],
        "abc": [0.32624394, 0.84268357, 0.62611673],
        "properties": { "magmom": 0.0 },
        "label": "I",
        "xyz": [1.6407634020626838, 6.555777670252019, 4.833124564014912]
      },
      {
        "species": [{ "element": "I", "occu": 1 }],
        "abc": [0.17375606, 0.34268357, 0.62611673],
        "properties": { "magmom": 0.0 },
        "label": "I",
        "xyz": [0.8738632329373162, 2.652535600252018, 6.035622374014912]
      },
      {
        "species": [{ "element": "I", "occu": 1 }],
        "abc": [0.67375606, 0.15731643, 0.37388327],
        "properties": { "magmom": 0.0 },
        "label": "I",
        "xyz": [3.388489867937316, 1.2145818097479821, 3.7179436459850876]
      },
      {
        "species": [{ "element": "I", "occu": 1 }],
        "abc": [0.37687487000000003, 0.71582758, 0.12595087],
        "properties": { "magmom": 0.0 },
        "label": "I",
        "xyz": [1.895399172328325, 5.583546717889128, -0.34163642341116773]
      },
      {
        "species": [{ "element": "I", "occu": 1 }],
        "abc": [0.87687487, 0.78417242, 0.8740491300000001],
        "properties": { "magmom": 0.0 },
        "label": "I",
        "xyz": [4.410025807328324, 6.090054832110873, 7.690206823411167]
      },
      {
        "species": [{ "element": "I", "occu": 1 }],
        "abc": [0.62312513, 0.28417242, 0.8740491300000001],
        "properties": { "magmom": 0.0 },
        "label": "I",
        "xyz": [3.133854097671675, 2.186812762110873, 8.892704633411167]
      },
      {
        "species": [{ "element": "I", "occu": 1 }],
        "abc": [0.12312513, 0.21582758, 0.12595087],
        "properties": { "magmom": 0.0 },
        "label": "I",
        "xyz": [0.619227462671675, 1.6803046478891268, 0.8608613865888324]
      },
      {
        "species": [{ "element": "O", "occu": 1 }],
        "abc": [0.53324475, 0.62291732, 0.24980375000000002],
        "properties": { "magmom": -0.0 },
        "label": "O",
        "xyz": [2.681822902647833, 4.85377010357583, 1.2387524037512243]
      },
      {
        "species": [{ "element": "O", "occu": 1 }],
        "abc": [0.03324475, 0.87708268, 0.75019625],
        "properties": { "magmom": -0.0 },
        "label": "O",
        "xyz": [0.16719626764783252, 6.819831446424171, 6.1098179962487755]
      },
      {
        "species": [{ "element": "O", "occu": 1 }],
        "abc": [0.46675525, 0.37708268, 0.75019625],
        "properties": { "magmom": -0.0 },
        "label": "O",
        "xyz": [2.3474303673521675, 2.91658937642417, 7.312315806248775]
      },
      {
        "species": [{ "element": "O", "occu": 1 }],
        "abc": [0.9667552500000001, 0.12291732, 0.24980375000000002],
        "properties": { "magmom": -0.0 },
        "label": "O",
        "xyz": [4.862057002352167, 0.9505280335758298, 2.4412502137512244]
      },
      {
        "species": [{ "element": "O", "occu": 1 }],
        "abc": [0.01106, 0.79768543, 0.30957244],
        "properties": { "magmom": 0.0 },
        "label": "O",
        "xyz": [0.055623541166200004, 6.21593545886371, 1.4732654473610283]
      },
      {
        "species": [{ "element": "O", "occu": 1 }],
        "abc": [0.5110600000000001, 0.70231457, 0.69042756],
        "properties": { "magmom": 0.0 },
        "label": "O",
        "xyz": [2.5702501761662004, 5.45766609113629, 5.875304952638972]
      },
      {
        "species": [{ "element": "O", "occu": 1 }],
        "abc": [0.98894, 0.20231357, 0.69042756],
        "properties": { "magmom": 0.0 },
        "label": "O",
        "xyz": [4.9736297288338, 1.55441621465215, 7.077805167634592]
      },
      {
        "species": [{ "element": "O", "occu": 1 }],
        "abc": [0.48894000000000004, 0.29768643, 0.30957244],
        "properties": { "magmom": 0.0 },
        "label": "O",
        "xyz": [2.4590030938338003, 2.31270119534785, 2.6757608523654084]
      },
      {
        "species": [{ "element": "O", "occu": 1 }],
        "abc": [0.84718534, 0.1550926, 0.01366035],
        "properties": { "magmom": 0.0 },
        "label": "O",
        "xyz": [4.2607096414910615, 1.210234446632133, -0.22333335715427152]
      },
      {
        "species": [{ "element": "O", "occu": 1 }],
        "abc": [0.34718534, 0.3449074, 0.98633965],
        "properties": { "magmom": 0.0 },
        "label": "O",
        "xyz": [1.7460830064910617, 2.6568829633678672, 9.976899377154272]
      },
      {
        "species": [{ "element": "O", "occu": 1 }],
        "abc": [0.15281466, 0.8449074, 0.98633965],
        "properties": { "magmom": 0.0 },
        "label": "O",
        "xyz": [0.7685436285089381, 6.560125033367867, 8.774401567154271]
      },
      {
        "species": [{ "element": "O", "occu": 1 }],
        "abc": [0.65281466, 0.6550926, 0.01366035],
        "properties": { "magmom": 0.0 },
        "label": "O",
        "xyz": [3.283170263508938, 5.113476516632134, -1.4258311671542716]
      },
      {
        "species": [{ "element": "O", "occu": 1 }],
        "abc": [0.03809453, 0.43601244, 0.19551873],
        "properties": { "magmom": -0.0 },
        "label": "O",
        "xyz": [0.1915870395716131, 3.39666115005782, 1.093507677375023]
      },
      {
        "species": [{ "element": "O", "occu": 1 }],
        "abc": [0.53809453, 0.06398756, 0.80448127],
        "properties": { "magmom": -0.0 },
        "label": "O",
        "xyz": [2.7062136745716128, 0.47045625994218015, 8.660058342624977]
      },
      {
        "species": [{ "element": "O", "occu": 1 }],
        "abc": [0.96190547, 0.56398756, 0.80448127],
        "properties": { "magmom": -0.0 },
        "label": "O",
        "xyz": [4.837666230428387, 4.373698329942181, 7.457560532624977]
      },
      {
        "species": [{ "element": "O", "occu": 1 }],
        "abc": [0.46190547, 0.9360124400000001, 0.19551873],
        "properties": { "magmom": -0.0 },
        "label": "O",
        "xyz": [2.3230395954283867, 7.29990322005782, -0.10899013262497714]
      },
      {
        "species": [{ "element": "O", "occu": 1 }],
        "abc": [0.8509534400000001, 0.33545666, 0.49100841],
        "properties": { "magmom": -0.0 },
        "label": "O",
        "xyz": [4.279660370737749, 2.600999584078982, 4.572747683026981]
      },
      {
        "species": [{ "element": "O", "occu": 1 }],
        "abc": [0.35095344, 0.16454334, 0.50899159],
        "properties": { "magmom": -0.0 },
        "label": "O",
        "xyz": [1.7650337357377488, 1.2661178259210184, 5.180818336973019]
      },
      {
        "species": [{ "element": "O", "occu": 1 }],
        "abc": [0.14904656, 0.66454334, 0.50899159],
        "properties": { "magmom": -0.0 },
        "label": "O",
        "xyz": [0.7495928992622511, 5.169359895921018, 3.978320526973019]
      },
      {
        "species": [{ "element": "O", "occu": 1 }],
        "abc": [0.64904656, 0.83545666, 0.49100841],
        "properties": { "magmom": -0.0 },
        "label": "O",
        "xyz": [3.2642195342622515, 6.504241654078982, 3.370249873026981]
      }
    ]
  },
  "task_ids": null,
  "uncorrected_energy_per_atom": null,
  "energy_per_atom": -4.726152101785713,
  "formation_energy_per_atom": -0.7564620653571411,
  "energy_above_hull": 0.0,
  "is_stable": true,
  "equilibrium_reaction_energy_per_atom": null,
  "decomposes_to": null,
  "xas": null,
  "grain_boundaries": null,
  "band_gap": 2.7278000000000002,
  "cbm": null,
  "vbm": null,
  "efermi": 2.22735146,
  "is_gap_direct": null,
  "is_metal": null,
  "es_source_calc_id": null,
  "bandstructure": null,
  "dos": null,
  "dos_energy_up": null,
  "dos_energy_down": null,
  "is_magnetic": null,
  "ordering": null,
  "total_magnetization": 0.0,
  "total_magnetization_normalized_vol": null,
  "total_magnetization_normalized_formula_units": null,
  "num_magnetic_sites": null,
  "num_unique_magnetic_sites": null,
  "types_of_magnetic_species": null,
  "bulk_modulus": null,
  "shear_modulus": null,
  "universal_anisotropy": null,
  "homogeneous_poisson": null,
  "e_total": null,
  "e_ionic": null,
  "e_electronic": null,
  "n": null,
  "e_ij_max": null,
  "weighted_surface_energy_EV_PER_ANG2": null,
  "weighted_surface_energy": null,
  "weighted_work_function": null,
  "surface_anisotropy": null,
  "shape_factor": null,
  "has_reconstructed": null,
  "possible_species": null,
  "has_props": null,
  "theoretical": null,
  "database_IDs": null,
  "fields_not_requested": [
    "builder_meta",
    "nsites",
    "elements",
    "nelements",
    "composition",
    "composition_reduced",
    "chemsys",
    "symmetry",
    "property_name",
    "deprecated",
    "deprecation_reasons",
    "last_updated",
    "origins",
    "warnings",
    "task_ids",
    "uncorrected_energy_per_atom",
    "equilibrium_reaction_energy_per_atom",
    "decomposes_to",
    "xas",
    "grain_boundaries",
    "cbm",
    "vbm",
    "is_gap_direct",
    "is_metal",
    "es_source_calc_id",
    "bandstructure",
    "dos",
    "dos_energy_up",
    "dos_energy_down",
    "is_magnetic",
    "ordering",
    "total_magnetization_normalized_vol",
    "total_magnetization_normalized_formula_units",
    "num_magnetic_sites",
    "num_unique_magnetic_sites",
    "types_of_magnetic_species",
    "bulk_modulus",
    "shear_modulus",
    "universal_anisotropy",
    "homogeneous_poisson",
    "e_total",
    "e_ionic",
    "e_electronic",
    "n",
    "e_ij_max",
    "weighted_surface_energy_EV_PER_ANG2",
    "weighted_surface_energy",
    "weighted_work_function",
    "surface_anisotropy",
    "shape_factor",
    "has_reconstructed",
    "possible_species",
    "has_props",
    "theoretical",
    "database_IDs"
  ]
}
