{
  "builder_meta": null,
  "nsites": null,
  "elements": null,
  "nelements": null,
  "composition": null,
  "composition_reduced": null,
  "formula_pretty": "I3N",
  "formula_anonymous": "AB3",
  "chemsys": null,
  "volume": 866.2869814443297,
  "density": 3.026471259835135,
  "density_atomic": 54.14293634027061,
  "symmetry": null,
  "property_name": null,
  "material_id": "mp-1190039",
  "deprecated": null,
  "deprecation_reasons": null,
  "last_updated": null,
  "origins": null,
  "warnings": null,
  "structure": {
    "@module": "pymatgen.core.structure",
    "@class": "Structure",
    "charge": 0,
    "lattice": {
      "matrix": [
        [8.659141, 0.0, 0.0],
        [0.0, 9.072568, 0.0],
        [0.0, 0.0, 11.026984]
      ],
      "pbc": [true, true, true],
      "a": 8.659141,
      "b": 9.072568,
      "c": 11.026984,
      "alpha": 90.0,
      "beta": 90.0,
      "gamma": 90.0,
      "volume": 866.2869814443297
    },
    "properties": {},
    "sites": [
      {
        "species": [{ "element": "I", "occu": 1 }],
        "abc": [0.75, 0.360390999999999, 0.253654],
        "properties": { "magmom": 0.215 },
        "label": "I",
        "xyz": [6.49435575, 3.269671854087991, 2.797038599536]
      },
      {
        "species": [{ "element": "I", "occu": 1 }],
        "abc": [0.75, 0.860390999999999, 0.246345999999999],
        "properties": { "magmom": 0.215 },
        "label": "I",
        "xyz": [6.49435575, 7.805955854087991, 2.716453400463989]
      },
      {
        "species": [{ "element": "I", "occu": 1 }],
        "abc": [0.25, 0.639609, 0.746346],
        "properties": { "magmom": 0.215 },
        "label": "I",
        "xyz": [2.16478525, 5.802896145912, 8.229945400464]
      },
      {
        "species": [{ "element": "I", "occu": 1 }],
        "abc": [0.25, 0.139608999999999, 0.753653999999999],
        "properties": { "magmom": 0.215 },
        "label": "I",
        "xyz": [2.16478525, 1.266612145911991, 8.31053059953599]
      },
      {
        "species": [{ "element": "I", "occu": 1 }],
        "abc": [0.75, 0.133723999999999, 0.919080999999999],
        "properties": { "magmom": 0.005 },
        "label": "I",
        "xyz": [6.49435575, 1.213220083231991, 10.13469148170399]
      },
      {
        "species": [{ "element": "I", "occu": 1 }],
        "abc": [0.75, 0.633724, 0.580919],
        "properties": { "magmom": 0.005 },
        "label": "I",
        "xyz": [6.49435575, 5.749504083232, 6.405784518296]
      },
      {
        "species": [{ "element": "I", "occu": 1 }],
        "abc": [0.25, 0.866275999999999, 0.080918999999999],
        "properties": { "magmom": 0.005 },
        "label": "I",
        "xyz": [2.16478525, 7.859347916767992, 0.8922925182959891]
      },
      {
        "species": [{ "element": "I", "occu": 1 }],
        "abc": [0.25, 0.366276, 0.419081],
        "properties": { "magmom": 0.005 },
        "label": "I",
        "xyz": [2.16478525, 3.323063916768, 4.621199481704]
      },
      {
        "species": [{ "element": "I", "occu": 1 }],
        "abc": [0.75, 0.888783, 0.749284],
        "properties": { "magmom": 0.009000000000000001 },
        "label": "I",
        "xyz": [6.49435575, 8.063544204744, 8.262342679456]
      },
      {
        "species": [{ "element": "I", "occu": 1 }],
        "abc": [0.75, 0.388783, 0.750715999999999],
        "properties": { "magmom": 0.009000000000000001 },
        "label": "I",
        "xyz": [6.49435575, 3.527260204744, 8.27813332054399]
      },
      {
        "species": [{ "element": "I", "occu": 1 }],
        "abc": [0.25, 0.111217, 0.250716],
        "properties": { "magmom": 0.009000000000000001 },
        "label": "I",
        "xyz": [2.16478525, 1.009023795256, 2.764641320544]
      },
      {
        "species": [{ "element": "I", "occu": 1 }],
        "abc": [0.25, 0.611217, 0.249283999999999],
        "properties": { "magmom": 0.009000000000000001 },
        "label": "I",
        "xyz": [2.16478525, 5.545307795256, 2.7488506794559893]
      },
      {
        "species": [{ "element": "N", "occu": 1 }],
        "abc": [0.75, 0.6952600000000001, 0.131172999999999],
        "properties": { "magmom": 1.073 },
        "label": "N",
        "xyz": [6.49435575, 6.3077936276800015, 1.4464425722319891]
      },
      {
        "species": [{ "element": "N", "occu": 1 }],
        "abc": [0.75, 0.19526000000000002, 0.368826999999999],
        "properties": { "magmom": 1.073 },
        "label": "N",
        "xyz": [6.49435575, 1.7715096276800002, 4.067049427767989]
      },
      {
        "species": [{ "element": "N", "occu": 1 }],
        "abc": [0.25, 0.30474, 0.868827],
        "properties": { "magmom": 1.073 },
        "label": "N",
        "xyz": [2.16478525, 2.7647743723200002, 9.580541427768]
      },
      {
        "species": [{ "element": "N", "occu": 1 }],
        "abc": [0.25, 0.80474, 0.631173],
        "properties": { "magmom": 1.073 },
        "label": "N",
        "xyz": [2.16478525, 7.30105837232, 6.959934572232]
      }
    ]
  },
  "task_ids": null,
  "uncorrected_energy_per_atom": null,
  "energy_per_atom": -2.415548179375,
  "formation_energy_per_atom": 0.812030718124999,
  "energy_above_hull": 0.8940020109374991,
  "is_stable": false,
  "equilibrium_reaction_energy_per_atom": null,
  "decomposes_to": null,
  "xas": null,
  "grain_boundaries": null,
  "band_gap": 0.0,
  "cbm": null,
  "vbm": null,
  "efermi": -0.12706538,
  "is_gap_direct": null,
  "is_metal": null,
  "es_source_calc_id": null,
  "bandstructure": null,
  "dos": null,
  "dos_energy_up": null,
  "dos_energy_down": null,
  "is_magnetic": null,
  "ordering": null,
  "total_magnetization": 7.9989573,
  "total_magnetization_normalized_vol": null,
  "total_magnetization_normalized_formula_units": null,
  "num_magnetic_sites": null,
  "num_unique_magnetic_sites": null,
  "types_of_magnetic_species": null,
  "bulk_modulus": null,
  "shear_modulus": null,
  "universal_anisotropy": null,
  "homogeneous_poisson": null,
  "e_total": null,
  "e_ionic": null,
  "e_electronic": null,
  "n": null,
  "e_ij_max": null,
  "weighted_surface_energy_EV_PER_ANG2": null,
  "weighted_surface_energy": null,
  "weighted_work_function": null,
  "surface_anisotropy": null,
  "shape_factor": null,
  "has_reconstructed": null,
  "possible_species": null,
  "has_props": null,
  "theoretical": null,
  "database_IDs": null,
  "fields_not_requested": [
    "builder_meta",
    "nsites",
    "elements",
    "nelements",
    "composition",
    "composition_reduced",
    "chemsys",
    "symmetry",
    "property_name",
    "deprecated",
    "deprecation_reasons",
    "last_updated",
    "origins",
    "warnings",
    "task_ids",
    "uncorrected_energy_per_atom",
    "equilibrium_reaction_energy_per_atom",
    "decomposes_to",
    "xas",
    "grain_boundaries",
    "cbm",
    "vbm",
    "is_gap_direct",
    "is_metal",
    "es_source_calc_id",
    "bandstructure",
    "dos",
    "dos_energy_up",
    "dos_energy_down",
    "is_magnetic",
    "ordering",
    "total_magnetization_normalized_vol",
    "total_magnetization_normalized_formula_units",
    "num_magnetic_sites",
    "num_unique_magnetic_sites",
    "types_of_magnetic_species",
    "bulk_modulus",
    "shear_modulus",
    "universal_anisotropy",
    "homogeneous_poisson",
    "e_total",
    "e_ionic",
    "e_electronic",
    "n",
    "e_ij_max",
    "weighted_surface_energy_EV_PER_ANG2",
    "weighted_surface_energy",
    "weighted_work_function",
    "surface_anisotropy",
    "shape_factor",
    "has_reconstructed",
    "possible_species",
    "has_props",
    "theoretical",
    "database_IDs"
  ]
}
