{
  "builder_meta": null,
  "nsites": null,
  "elements": null,
  "nelements": null,
  "composition": null,
  "composition_reduced": null,
  "formula_pretty": "I3O8",
  "formula_anonymous": "A3B8",
  "chemsys": null,
  "volume": 698.8304286238315,
  "density": 4.835110125838481,
  "density_atomic": 15.882509741450717,
  "symmetry": null,
  "property_name": null,
  "material_id": "mp-727952",
  "deprecated": null,
  "deprecation_reasons": null,
  "last_updated": null,
  "origins": null,
  "warnings": null,
  "structure": {
    "@module": "pymatgen.core.structure",
    "@class": "Structure",
    "charge": 0,
    "lattice": {
      "matrix": [
        [7.885156, 0.0, 0.0],
        [0.0, 7.69054, 0.0],
        [0.0, 7.6168700000000005, 11.524038000000001]
      ],
      "pbc": [true, true, true],
      "a": 7.885156,
      "b": 7.69054,
      "c": 13.813767061245242,
      "alpha": 56.537092701342246,
      "beta": 90.0,
      "gamma": 90.0,
      "volume": 698.8304286238316
    },
    "properties": {},
    "sites": [
      {
        "species": [{ "element": "I", "occu": 1 }],
        "abc": [0.769477, 0.332785, 0.907095],
        "properties": { "magmom": 0.031 },
        "label": "I",
        "xyz": [6.067446183412, 9.46852104655, 10.453397249610001]
      },
      {
        "species": [{ "element": "I", "occu": 1 }],
        "abc": [0.730522999999999, 0.332785, 0.407095],
        "properties": { "magmom": 0.031 },
        "label": "I",
        "xyz": [5.760287816587993, 5.660086046550001, 4.6913782496100005]
      },
      {
        "species": [{ "element": "I", "occu": 1 }],
        "abc": [0.230522999999999, 0.667215, 0.092905],
        "properties": { "magmom": 0.031 },
        "label": "I",
        "xyz": [1.8177098165879921, 5.838888953450001, 1.0706407503900002]
      },
      {
        "species": [{ "element": "I", "occu": 1 }],
        "abc": [0.269476999999999, 0.667215, 0.592905],
        "properties": { "magmom": 0.031 },
        "label": "I",
        "xyz": [2.1248681834119925, 9.647323953450002, 6.83265975039]
      },
      {
        "species": [{ "element": "I", "occu": 1 }],
        "abc": [0.262103, 0.443361, 0.896102],
        "properties": { "magmom": 0.005 },
        "label": "I",
        "xyz": [2.066723043068, 10.23517794568, 10.326713499876]
      },
      {
        "species": [{ "element": "I", "occu": 1 }],
        "abc": [0.237897, 0.443361, 0.396102],
        "properties": { "magmom": 0.005 },
        "label": "I",
        "xyz": [1.875854956932, 6.426742945680001, 4.564694499876]
      },
      {
        "species": [{ "element": "I", "occu": 1 }],
        "abc": [0.737896999999999, 0.556639, 0.103897999999999],
        "properties": { "magmom": 0.005 },
        "label": "I",
        "xyz": [5.818432956931993, 5.072232054319993, 1.1973245001239887]
      },
      {
        "species": [{ "element": "I", "occu": 1 }],
        "abc": [0.762103, 0.556639, 0.603897999999999],
        "properties": { "magmom": 0.005 },
        "label": "I",
        "xyz": [6.009301043068, 8.880667054319993, 6.95934350012399]
      },
      {
        "species": [{ "element": "I", "occu": 1 }],
        "abc": [0.954665, 0.943037999999999, 0.81183],
        "properties": { "magmom": -0.023 },
        "label": "I",
        "xyz": [7.527682452740001, 13.436075032619993, 9.355559769540001]
      },
      {
        "species": [{ "element": "I", "occu": 1 }],
        "abc": [0.545335, 0.943037999999999, 0.31183000000000005],
        "properties": { "magmom": -0.023 },
        "label": "I",
        "xyz": [4.30005154726, 9.627640032619993, 3.593540769540001]
      },
      {
        "species": [{ "element": "I", "occu": 1 }],
        "abc": [0.045335, 0.056962, 0.18817],
        "properties": { "magmom": -0.023 },
        "label": "I",
        "xyz": [0.35747354726, 1.8713349673800002, 2.1684782304600003]
      },
      {
        "species": [{ "element": "I", "occu": 1 }],
        "abc": [0.454665, 0.056962, 0.6881700000000001],
        "properties": { "magmom": -0.023 },
        "label": "I",
        "xyz": [3.58510445274, 5.67976996738, 7.930497230460001]
      },
      {
        "species": [{ "element": "O", "occu": 1 }],
        "abc": [0.706785, 0.516125, 0.947506],
        "properties": { "magmom": 0.07200000000000001 },
        "label": "O",
        "xyz": [5.57310998346, 11.18630998372, 10.919095149228001]
      },
      {
        "species": [{ "element": "O", "occu": 1 }],
        "abc": [0.793215, 0.516125, 0.447505999999999],
        "properties": { "magmom": 0.07200000000000001 },
        "label": "O",
        "xyz": [6.25462401654, 7.377874983719993, 5.157076149227989]
      },
      {
        "species": [{ "element": "O", "occu": 1 }],
        "abc": [0.293215, 0.483875, 0.052494],
        "properties": { "magmom": 0.07200000000000001 },
        "label": "O",
        "xyz": [2.31204601654, 4.12110001628, 0.604942850772]
      },
      {
        "species": [{ "element": "O", "occu": 1 }],
        "abc": [0.206785, 0.483875, 0.552493999999999],
        "properties": { "magmom": 0.07200000000000001 },
        "label": "O",
        "xyz": [1.63053198346, 7.929535016279993, 6.36696185077199]
      },
      {
        "species": [{ "element": "O", "occu": 1 }],
        "abc": [0.564107999999999, 0.223808999999999, 0.917284],
        "properties": { "magmom": 0.062 },
        "label": "O",
        "xyz": [4.448079580847993, 8.708045047939992, 10.570815672792001]
      },
      {
        "species": [{ "element": "O", "occu": 1 }],
        "abc": [0.935892, 0.223808999999999, 0.417284],
        "properties": { "magmom": 0.062 },
        "label": "O",
        "xyz": [7.379654419152, 4.899610047939992, 4.808796672792]
      },
      {
        "species": [{ "element": "O", "occu": 1 }],
        "abc": [0.435892, 0.776191, 0.082716],
        "properties": { "magmom": 0.062 },
        "label": "O",
        "xyz": [3.437076419152, 6.59936495206, 0.953222327208]
      },
      {
        "species": [{ "element": "O", "occu": 1 }],
        "abc": [0.064108, 0.776191, 0.582716],
        "properties": { "magmom": 0.062 },
        "label": "O",
        "xyz": [0.505501580848, 10.40779995206, 6.715241327208001]
      },
      {
        "species": [{ "element": "O", "occu": 1 }],
        "abc": [0.176835, 0.182791999999999, 0.991077],
        "properties": { "magmom": 0.037 },
        "label": "O",
        "xyz": [1.39437156126, 8.954673856669993, 11.421209008926]
      },
      {
        "species": [{ "element": "O", "occu": 1 }],
        "abc": [0.323165, 0.182791999999999, 0.491077],
        "properties": { "magmom": 0.037 },
        "label": "O",
        "xyz": [2.54820643874, 5.146238856669993, 5.659190008926]
      },
      {
        "species": [{ "element": "O", "occu": 1 }],
        "abc": [0.823164999999999, 0.817207999999999, 0.008923],
        "properties": { "magmom": 0.037 },
        "label": "O",
        "xyz": [6.4907844387399924, 6.3527361433299925, 0.10282899107400001]
      },
      {
        "species": [{ "element": "O", "occu": 1 }],
        "abc": [0.676835, 0.817207999999999, 0.508923],
        "properties": { "magmom": 0.037 },
        "label": "O",
        "xyz": [5.33694956126, 10.161171143329993, 5.864847991074001]
      },
      {
        "species": [{ "element": "O", "occu": 1 }],
        "abc": [0.055897999999999004, 0.576665, 0.863951999999999],
        "properties": { "magmom": 0.048 },
        "label": "O",
        "xyz": [0.44076445008799214, 11.015475319339995, 9.95621567817599]
      },
      {
        "species": [{ "element": "O", "occu": 1 }],
        "abc": [0.444102, 0.576665, 0.363952],
        "properties": { "magmom": 0.048 },
        "label": "O",
        "xyz": [3.5018135499120002, 7.207040319340001, 4.1941966781760005]
      },
      {
        "species": [{ "element": "O", "occu": 1 }],
        "abc": [0.944102, 0.423334999999999, 0.136048],
        "properties": { "magmom": 0.048 },
        "label": "O",
        "xyz": [7.444391549912, 4.291934680659993, 1.5678223218240002]
      },
      {
        "species": [{ "element": "O", "occu": 1 }],
        "abc": [0.555898, 0.423334999999999, 0.636048],
        "properties": { "magmom": 0.048 },
        "label": "O",
        "xyz": [4.3833424500880005, 8.100369680659993, 7.329841321824]
      },
      {
        "species": [{ "element": "O", "occu": 1 }],
        "abc": [0.252751, 0.424479, 0.758968],
        "properties": { "magmom": 0.031 },
        "label": "O",
        "xyz": [1.9929810641560002, 9.04543331882, 8.746376072784]
      },
      {
        "species": [{ "element": "O", "occu": 1 }],
        "abc": [0.247249, 0.424479, 0.258968],
        "properties": { "magmom": 0.031 },
        "label": "O",
        "xyz": [1.949596935844, 5.2369983188199996, 2.984357072784]
      },
      {
        "species": [{ "element": "O", "occu": 1 }],
        "abc": [0.747248999999999, 0.575521, 0.241032],
        "properties": { "magmom": 0.031 },
        "label": "O",
        "xyz": [5.892174935843992, 6.26197668118, 2.777661927216]
      },
      {
        "species": [{ "element": "O", "occu": 1 }],
        "abc": [0.752751, 0.575521, 0.741031999999999],
        "properties": { "magmom": 0.031 },
        "label": "O",
        "xyz": [5.935559064156, 10.070411681179994, 8.53968092721599]
      },
      {
        "species": [{ "element": "O", "occu": 1 }],
        "abc": [0.549636999999999, 0.928168999999999, 0.832978],
        "properties": { "magmom": 0.297 },
        "label": "O",
        "xyz": [4.333973488371993, 13.482805960119993, 9.599270125164]
      },
      {
        "species": [{ "element": "O", "occu": 1 }],
        "abc": [0.950363, 0.928168999999999, 0.332978],
        "properties": { "magmom": 0.297 },
        "label": "O",
        "xyz": [7.4937605116279995, 9.674370960119994, 3.8372511251640002]
      },
      {
        "species": [{ "element": "O", "occu": 1 }],
        "abc": [0.450362999999999, 0.071830999999999, 0.167022],
        "properties": { "magmom": 0.297 },
        "label": "O",
        "xyz": [3.5511825116279923, 1.8246040398799925, 1.9247678748360002]
      },
      {
        "species": [{ "element": "O", "occu": 1 }],
        "abc": [0.049637, 0.071830999999999, 0.667022],
        "properties": { "magmom": 0.297 },
        "label": "O",
        "xyz": [0.391395488372, 5.633039039879993, 7.686786874836001]
      },
      {
        "species": [{ "element": "O", "occu": 1 }],
        "abc": [0.155202, 0.913279, 0.889591999999999],
        "properties": { "magmom": 0.094 },
        "label": "O",
        "xyz": [1.2237919815120002, 13.799515297699994, 10.25169201249599]
      },
      {
        "species": [{ "element": "O", "occu": 1 }],
        "abc": [0.344798, 0.913279, 0.389592],
        "properties": { "magmom": 0.094 },
        "label": "O",
        "xyz": [2.718786018488, 9.9910802977, 4.4896730124960005]
      },
      {
        "species": [{ "element": "O", "occu": 1 }],
        "abc": [0.844797999999999, 0.08672099999999901, 0.110407999999999],
        "properties": { "magmom": 0.094 },
        "label": "O",
        "xyz": [6.661364018487992, 1.507894702299985, 1.2723459875039886]
      },
      {
        "species": [{ "element": "O", "occu": 1 }],
        "abc": [0.655202, 0.08672099999999901, 0.610408],
        "properties": { "magmom": 0.094 },
        "label": "O",
        "xyz": [5.166369981512, 5.316329702299993, 7.034364987504]
      },
      {
        "species": [{ "element": "O", "occu": 1 }],
        "abc": [0.887548, 0.20097, 0.7852100000000001],
        "properties": { "magmom": 0.185 },
        "label": "O",
        "xyz": [6.998454437488, 7.526410316500001, 9.048789877980001]
      },
      {
        "species": [{ "element": "O", "occu": 1 }],
        "abc": [0.612452, 0.20097, 0.28521],
        "properties": { "magmom": 0.185 },
        "label": "O",
        "xyz": [4.829279562512, 3.7179753165000005, 3.2867708779800004]
      },
      {
        "species": [{ "element": "O", "occu": 1 }],
        "abc": [0.112452, 0.79903, 0.21479],
        "properties": { "magmom": 0.185 },
        "label": "O",
        "xyz": [0.886701562512, 7.780999683500001, 2.4752481220200004]
      },
      {
        "species": [{ "element": "O", "occu": 1 }],
        "abc": [0.387548, 0.79903, 0.71479],
        "properties": { "magmom": 0.185 },
        "label": "O",
        "xyz": [3.055876437488, 11.589434683500002, 8.23726712202]
      }
    ]
  },
  "task_ids": null,
  "uncorrected_energy_per_atom": null,
  "energy_per_atom": -4.636740210681818,
  "formation_energy_per_atom": -0.622583312045455,
  "energy_above_hull": 0.09949411397727201,
  "is_stable": false,
  "equilibrium_reaction_energy_per_atom": null,
  "decomposes_to": null,
  "xas": null,
  "grain_boundaries": null,
  "band_gap": 0.0,
  "cbm": null,
  "vbm": null,
  "efermi": 2.37740476,
  "is_gap_direct": null,
  "is_metal": null,
  "es_source_calc_id": null,
  "bandstructure": null,
  "dos": null,
  "dos_energy_up": null,
  "dos_energy_down": null,
  "is_magnetic": null,
  "ordering": null,
  "total_magnetization": 3.9970112,
  "total_magnetization_normalized_vol": null,
  "total_magnetization_normalized_formula_units": null,
  "num_magnetic_sites": null,
  "num_unique_magnetic_sites": null,
  "types_of_magnetic_species": null,
  "bulk_modulus": null,
  "shear_modulus": null,
  "universal_anisotropy": null,
  "homogeneous_poisson": null,
  "e_total": null,
  "e_ionic": null,
  "e_electronic": null,
  "n": null,
  "e_ij_max": null,
  "weighted_surface_energy_EV_PER_ANG2": null,
  "weighted_surface_energy": null,
  "weighted_work_function": null,
  "surface_anisotropy": null,
  "shape_factor": null,
  "has_reconstructed": null,
  "possible_species": null,
  "has_props": null,
  "theoretical": null,
  "database_IDs": null,
  "fields_not_requested": [
    "builder_meta",
    "nsites",
    "elements",
    "nelements",
    "composition",
    "composition_reduced",
    "chemsys",
    "symmetry",
    "property_name",
    "deprecated",
    "deprecation_reasons",
    "last_updated",
    "origins",
    "warnings",
    "task_ids",
    "uncorrected_energy_per_atom",
    "equilibrium_reaction_energy_per_atom",
    "decomposes_to",
    "xas",
    "grain_boundaries",
    "cbm",
    "vbm",
    "is_gap_direct",
    "is_metal",
    "es_source_calc_id",
    "bandstructure",
    "dos",
    "dos_energy_up",
    "dos_energy_down",
    "is_magnetic",
    "ordering",
    "total_magnetization_normalized_vol",
    "total_magnetization_normalized_formula_units",
    "num_magnetic_sites",
    "num_unique_magnetic_sites",
    "types_of_magnetic_species",
    "bulk_modulus",
    "shear_modulus",
    "universal_anisotropy",
    "homogeneous_poisson",
    "e_total",
    "e_ionic",
    "e_electronic",
    "n",
    "e_ij_max",
    "weighted_surface_energy_EV_PER_ANG2",
    "weighted_surface_energy",
    "weighted_work_function",
    "surface_anisotropy",
    "shape_factor",
    "has_reconstructed",
    "possible_species",
    "has_props",
    "theoretical",
    "database_IDs"
  ]
}
