{"builder_meta": null, "nsites": null, "elements": null, "nelements": null, "composition": null, "composition_reduced": null, "formula_pretty": "I5N2", "formula_anonymous": "A2B5", "chemsys": null, "volume": 610.7905726247706, "density": 3.6024344356408413, "density_atomic": 43.62789804462647, "symmetry": null, "property_name": null, "material_id": "mp-1105105", "deprecated": null, "deprecation_reasons": null, "last_updated": null, "origins": null, "warnings": null, "structure": {"@module": "pymatgen.core.structure", "@class": "Structure", "charge": 0, "lattice": {"matrix": [[4.426967, -7.667731, 0.0], [4.426967, 7.667731, 0.0], [0.0, 0.0, 8.996823]], "pbc": [true, true, true], "a": 8.853933335385467, "b": 8.853933335385467, "c": 8.996823, "alpha": 90.0, "beta": 90.0, "gamma": 119.99999503378413, "volume": 610.7905726247706}, "properties": {}, "sites": [{"species": [{"element": "I", "occu": 1}], "abc": [0.0, 0.0, 0.107778], "properties": {"magmom": 0.011}, "label": "I", "xyz": [0.0, 0.0, 0.9696595892939999]}, {"species": [{"element": "I", "occu": 1}], "abc": [0.0, 0.0, 0.607777999999999], "properties": {"magmom": 0.012}, "label": "I", "xyz": [0.0, 0.0, 5.468071089293991]}, {"species": [{"element": "I", "occu": 1}], "abc": [0.19615000000000002, 0.39230000000000004, 0.514104], "properties": {"magmom": 0.092}, "label": "I", "xyz": [2.6050487311500006, 1.50402543565, 4.625302691591999]}, {"species": [{"element": "I", "occu": 1}], "abc": [0.19615000000000002, 0.8038500000000001, 0.514104], "properties": {"magmom": 0.092}, "label": "I", "xyz": [4.426967000000001, 4.659680128700001, 4.625302691591999]}, {"species": [{"element": "I", "occu": 1}], "abc": [0.6077, 0.8038500000000001, 0.514104], "properties": {"magmom": 0.089}, "label": "I", "xyz": [6.248885268850001, 1.504025435650001, 4.625302691591999]}, {"species": [{"element": "I", "occu": 1}], "abc": [0.8038500000000001, 0.6077, 0.014104], "properties": {"magmom": 0.092}, "label": "I", "xyz": [6.248885268850001, -1.504025435650001, 0.126891191592]}, {"species": [{"element": "I", "occu": 1}], "abc": [0.8038500000000001, 0.19615000000000002, 0.014104], "properties": {"magmom": 0.092}, "label": "I", "xyz": [4.426967000000001, -4.659680128700001, 0.126891191592]}, {"species": [{"element": "I", "occu": 1}], "abc": [0.39230000000000004, 0.19615000000000002, 0.014104], "properties": {"magmom": 0.089}, "label": "I", "xyz": [2.6050487311500006, -1.50402543565, 0.126891191592]}, {"species": [{"element": "I", "occu": 1}], "abc": [0.333333, 0.666667, 0.097158], "properties": {"magmom": 0.217}, "label": "I", "xyz": [4.426967, 2.555915445154, 0.8741133290339999]}, {"species": [{"element": "I", "occu": 1}], "abc": [0.666667, 0.333333, 0.597158], "properties": {"magmom": 0.217}, "label": "I", "xyz": [4.426967, -2.555915445154, 5.372524829033999]}, {"species": [{"element": "N", "occu": 1}], "abc": [0.333333, 0.666667, 0.480039], "properties": {"magmom": 0.387}, "label": "N", "xyz": [4.426967, 2.555915445154, 4.3188259160969995]}, {"species": [{"element": "N", "occu": 1}], "abc": [0.666667, 0.333333, 0.980039], "properties": {"magmom": 0.387}, "label": "N", "xyz": [4.426967, -2.555915445154, 8.817237416096999]}, {"species": [{"element": "N", "occu": 1}], "abc": [0.666667, 0.333333, 0.380407999999999], "properties": {"magmom": 1.069}, "label": "N", "xyz": [4.426967, -2.555915445154, 3.422463443783991]}, {"species": [{"element": "N", "occu": 1}], "abc": [0.333333, 0.666667, 0.880408], "properties": {"magmom": 1.069}, "label": "N", "xyz": [4.426967, 2.555915445154, 7.920874943783999]}]}, "task_ids": null, "uncorrected_energy_per_atom": null, "energy_per_atom": -2.679130450714286, "formation_energy_per_atom": 0.7918150585714281, "energy_above_hull": 0.8854965360714271, "is_stable": false, "equilibrium_reaction_energy_per_atom": null, "decomposes_to": null, "xas": null, "grain_boundaries": null, "band_gap": 0.1607, "cbm": null, "vbm": null, "efermi": 0.5712358, "is_gap_direct": null, "is_metal": null, "es_source_calc_id": null, "bandstructure": null, "dos": null, "dos_energy_up": null, "dos_energy_down": null, "is_magnetic": null, "ordering": null, "total_magnetization": 5.9919309, "total_magnetization_normalized_vol": null, "total_magnetization_normalized_formula_units": null, "num_magnetic_sites": null, "num_unique_magnetic_sites": null, "types_of_magnetic_species": null, "bulk_modulus": null, "shear_modulus": null, "universal_anisotropy": null, "homogeneous_poisson": null, "e_total": null, "e_ionic": null, "e_electronic": null, "n": null, "e_ij_max": null, "weighted_surface_energy_EV_PER_ANG2": null, "weighted_surface_energy": null, "weighted_work_function": null, "surface_anisotropy": null, "shape_factor": null, "has_reconstructed": null, "possible_species": null, "has_props": null, "theoretical": null, "database_IDs": null, "fields_not_requested": ["builder_meta", "nsites", "elements", "nelements", "composition", "composition_reduced", "chemsys", "symmetry", "property_name", "deprecated", "deprecation_reasons", "last_updated", "origins", "warnings", "task_ids", "uncorrected_energy_per_atom", "equilibrium_reaction_energy_per_atom", "decomposes_to", "xas", "grain_boundaries", "cbm", "vbm", "is_gap_direct", "is_metal", "es_source_calc_id", "bandstructure", "dos", "dos_energy_up", "dos_energy_down", "is_magnetic", "ordering", "total_magnetization_normalized_vol", "total_magnetization_normalized_formula_units", "num_magnetic_sites", "num_unique_magnetic_sites", "types_of_magnetic_species", "bulk_modulus", "shear_modulus", "universal_anisotropy", "homogeneous_poisson", "e_total", "e_ionic", "e_electronic", "n", "e_ij_max", "weighted_surface_energy_EV_PER_ANG2", "weighted_surface_energy", "weighted_work_function", "surface_anisotropy", "shape_factor", "has_reconstructed", "possible_species", "has_props", "theoretical", "database_IDs"]}