{
  "builder_meta": null,
  "nsites": null,
  "elements": null,
  "nelements": null,
  "composition": null,
  "composition_reduced": null,
  "formula_pretty": "ICl",
  "formula_anonymous": "AB",
  "chemsys": null,
  "volume": 599.2621717471073,
  "density": 3.599104824565644,
  "density_atomic": 37.45388573419421,
  "symmetry": null,
  "property_name": null,
  "material_id": "mp-567998",
  "deprecated": null,
  "deprecation_reasons": null,
  "last_updated": null,
  "origins": null,
  "warnings": null,
  "structure": {
    "@module": "pymatgen.core.structure",
    "@class": "Structure",
    "charge": 0,
    "lattice": {
      "matrix": [
        [4.4181779, 0.0, 0.0],
        [0.0, 10.6245067, -5.27594876],
        [0.0, 0.41839515, 12.55852753]
      ],
      "pbc": [true, true, true],
      "a": 4.4181779,
      "b": 11.862368142006487,
      "c": 12.565495144374989,
      "alpha": 114.50007189867576,
      "beta": 90.0,
      "gamma": 90.0,
      "volume": 599.2621717471073
    },
    "properties": {},
    "sites": [
      {
        "species": [{ "element": "I", "occu": 1 }],
        "abc": [0.92943807, 0.63843197, 0.71445107],
        "properties": { "magmom": 0.0 },
        "label": "I",
        "xyz": [4.106422740292653, 7.081947605359509, 5.6041190709671]
      },
      {
        "species": [{ "element": "I", "occu": 1 }],
        "abc": [0.57056193, 0.13843197000000002, 0.71445107],
        "properties": { "magmom": 0.0 },
        "label": "I",
        "xyz": [2.520844109707347, 1.7696942553595094, 8.242093450967099]
      },
      {
        "species": [{ "element": "I", "occu": 1 }],
        "abc": [0.85836567, 0.10689206, 0.18139727],
        "properties": { "magmom": -0.0 },
        "label": "I",
        "xyz": [3.792412233312693, 1.2115711456380422, 1.7141255777509974]
      },
      {
        "species": [{ "element": "I", "occu": 1 }],
        "abc": [0.42943907000000003, 0.86156803, 0.28554893],
        "properties": { "magmom": 0.0 },
        "label": "I",
        "xyz": [1.897338208470553, 9.27320759464049, -0.9595146809671009]
      },
      {
        "species": [{ "element": "I", "occu": 1 }],
        "abc": [0.14163433, 0.89310794, 0.8186027300000001],
        "properties": { "magmom": -0.0 },
        "label": "I",
        "xyz": [0.625765666687307, 9.831330704361958, 5.568453192249002]
      },
      {
        "species": [{ "element": "I", "occu": 1 }],
        "abc": [0.07056193, 0.36156803, 0.28554893],
        "properties": { "magmom": 0.0 },
        "label": "I",
        "xyz": [0.31175515970734696, 3.96095424464049, 1.6784596990328997]
      },
      {
        "species": [{ "element": "I", "occu": 1 }],
        "abc": [0.64163433, 0.6068920600000001, 0.18139727],
        "properties": { "magmom": -0.0 },
        "label": "I",
        "xyz": [2.834854616687307, 6.523824495638043, -0.9238488022490032]
      },
      {
        "species": [{ "element": "I", "occu": 1 }],
        "abc": [0.35836567, 0.39310794, 0.8186027300000001],
        "properties": { "magmom": -0.0 },
        "label": "I",
        "xyz": [1.5833232833126931, 4.519077354361958, 8.206427572249002]
      },
      {
        "species": [{ "element": "Cl", "occu": 1 }],
        "abc": [0.77234969, 0.15453753, 0.54468204],
        "properties": { "magmom": 0.0 },
        "label": "Cl",
        "xyz": [3.412378331429851, 1.869777346714557, 6.025072304659597]
      },
      {
        "species": [{ "element": "Cl", "occu": 1 }],
        "abc": [0.72765031, 0.65453753, 0.54468204],
        "properties": { "magmom": 0.0 },
        "label": "Cl",
        "xyz": [3.214888518570149, 7.182030696714557, 3.387097924659597]
      },
      {
        "species": [{ "element": "Cl", "occu": 1 }],
        "abc": [0.22765031, 0.84546247, 0.45531796],
        "properties": { "magmom": 0.0 },
        "label": "Cl",
        "xyz": [1.0057995685701488, 9.173124503285441, 1.257506465340402]
      },
      {
        "species": [{ "element": "Cl", "occu": 1 }],
        "abc": [0.168099399999999, 0.61824251, 0.9080951700000001],
        "properties": { "magmom": -0.0 },
        "label": "Cl",
        "xyz": [0.7426930540832556, 6.948464304586241, 8.142522388291242]
      },
      {
        "species": [{ "element": "Cl", "occu": 1 }],
        "abc": [0.8319006, 0.38175749000000003, 0.09190483],
        "properties": { "magmom": -0.0 },
        "label": "Cl",
        "xyz": [3.6754848459167397, 4.094437545413758, -0.859943618291243]
      },
      {
        "species": [{ "element": "Cl", "occu": 1 }],
        "abc": [0.6680994, 0.88175749, 0.09190483],
        "properties": { "magmom": -0.0 },
        "label": "Cl",
        "xyz": [2.95178200408326, 9.406690895413757, -3.497917998291243]
      },
      {
        "species": [{ "element": "Cl", "occu": 1 }],
        "abc": [0.27234969000000003, 0.34546247, 0.45531796],
        "properties": { "magmom": 0.0 },
        "label": "Cl",
        "xyz": [1.203289381429851, 3.860871153285443, 3.8954808453404013]
      },
      {
        "species": [{ "element": "Cl", "occu": 1 }],
        "abc": [0.3319006, 0.11824251000000001, 0.9080951700000001],
        "properties": { "magmom": -0.0 },
        "label": "Cl",
        "xyz": [1.46639589591674, 1.6362109545862427, 10.780496768291242]
      }
    ]
  },
  "task_ids": null,
  "uncorrected_energy_per_atom": null,
  "energy_per_atom": -2.150815592499999,
  "formation_energy_per_atom": -0.46454095499999903,
  "energy_above_hull": 0.0,
  "is_stable": true,
  "equilibrium_reaction_energy_per_atom": null,
  "decomposes_to": null,
  "xas": null,
  "grain_boundaries": null,
  "band_gap": 1.852199999999999,
  "cbm": null,
  "vbm": null,
  "efermi": -0.32176573,
  "is_gap_direct": null,
  "is_metal": null,
  "es_source_calc_id": null,
  "bandstructure": null,
  "dos": null,
  "dos_energy_up": null,
  "dos_energy_down": null,
  "is_magnetic": null,
  "ordering": null,
  "total_magnetization": 0.0,
  "total_magnetization_normalized_vol": null,
  "total_magnetization_normalized_formula_units": null,
  "num_magnetic_sites": null,
  "num_unique_magnetic_sites": null,
  "types_of_magnetic_species": null,
  "bulk_modulus": null,
  "shear_modulus": null,
  "universal_anisotropy": null,
  "homogeneous_poisson": null,
  "e_total": null,
  "e_ionic": null,
  "e_electronic": null,
  "n": null,
  "e_ij_max": null,
  "weighted_surface_energy_EV_PER_ANG2": null,
  "weighted_surface_energy": null,
  "weighted_work_function": null,
  "surface_anisotropy": null,
  "shape_factor": null,
  "has_reconstructed": null,
  "possible_species": null,
  "has_props": null,
  "theoretical": null,
  "database_IDs": null,
  "fields_not_requested": [
    "builder_meta",
    "nsites",
    "elements",
    "nelements",
    "composition",
    "composition_reduced",
    "chemsys",
    "symmetry",
    "property_name",
    "deprecated",
    "deprecation_reasons",
    "last_updated",
    "origins",
    "warnings",
    "task_ids",
    "uncorrected_energy_per_atom",
    "equilibrium_reaction_energy_per_atom",
    "decomposes_to",
    "xas",
    "grain_boundaries",
    "cbm",
    "vbm",
    "is_gap_direct",
    "is_metal",
    "es_source_calc_id",
    "bandstructure",
    "dos",
    "dos_energy_up",
    "dos_energy_down",
    "is_magnetic",
    "ordering",
    "total_magnetization_normalized_vol",
    "total_magnetization_normalized_formula_units",
    "num_magnetic_sites",
    "num_unique_magnetic_sites",
    "types_of_magnetic_species",
    "bulk_modulus",
    "shear_modulus",
    "universal_anisotropy",
    "homogeneous_poisson",
    "e_total",
    "e_ionic",
    "e_electronic",
    "n",
    "e_ij_max",
    "weighted_surface_energy_EV_PER_ANG2",
    "weighted_surface_energy",
    "weighted_work_function",
    "surface_anisotropy",
    "shape_factor",
    "has_reconstructed",
    "possible_species",
    "has_props",
    "theoretical",
    "database_IDs"
  ]
}
