{"builder_meta": null, "nsites": null, "elements": null, "nelements": null, "composition": null, "composition_reduced": null, "formula_pretty": "ICl3", "formula_anonymous": "AB3", "chemsys": null, "volume": 256.8661311901365, "density": 3.015914188071446, "density_atomic": 32.108266398767064, "symmetry": null, "property_name": null, "material_id": "mp-1546049", "deprecated": null, "deprecation_reasons": null, "last_updated": null, "origins": null, "warnings": null, "structure": {"@module": "pymatgen.core.structure", "@class": "Structure", "charge": 0, "lattice": {"matrix": [[5.55893674, 0.19058829, 0.23688939], [0.63690037, 5.81538677, -0.03867669], [1.18429862, 2.53803752, 7.99782326]], "pbc": [true, true, true], "a": 5.5672451139411425, "b": 5.850287279471541, "c": 8.47404121847768, "alpha": 72.13978368419339, "beta": 79.04954318281384, "gamma": 81.8102205750127, "volume": 256.8661311901365}, "properties": {}, "sites": [{"species": [{"element": "I", "occu": 1}], "abc": [0.81870499, -0.00075763, 0.81620683], "properties": {"magmom": -0.0}, "label": "I", "xyz": [5.517279335708585, 2.223193231200274, 6.721849798236566]}, {"species": [{"element": "I", "occu": 1}], "abc": [0.18129501, 0.00075763, 0.18379317], "properties": {"magmom": -0.0}, "label": "I", "xyz": [1.225956024291416, 0.5054325787997264, 1.5128628517634335]}, {"species": [{"element": "Cl", "occu": 1}], "abc": [0.45153862, 0.26917844, 0.20350049], "properties": {"magmom": 0.0}, "label": "Cl", "xyz": [2.9225198217552455, 2.167926591158383, 1.7241147295180757]}, {"species": [{"element": "Cl", "occu": 1}], "abc": [0.54846138, 0.73082156, 0.79649951], "properties": {"magmom": 0.0}, "label": "Cl", "xyz": [4.457615908244755, 6.376085988841616, 6.471921230481923]}, {"species": [{"element": "Cl", "occu": 1}], "abc": [0.87221115, 0.7165798800000001, 0.13466504], "properties": {"magmom": -0.0}, "label": "Cl", "xyz": [5.464440218513452, 4.675207309549923, 1.2559298186165317]}, {"species": [{"element": "Cl", "occu": 1}], "abc": [0.12778885, 0.28342012, 0.86533496], "properties": {"magmom": -0.0}, "label": "Cl", "xyz": [1.9156955114865488, 3.868805270450078, 6.940106141383468]}, {"species": [{"element": "Cl", "occu": 1}], "abc": [0.21130882, 0.73298426, 0.45466657], "properties": {"magmom": 0.0}, "label": "Cl", "xyz": [2.1799513007933564, 5.456820768637665, 3.658050281562938]}, {"species": [{"element": "Cl", "occu": 1}], "abc": [0.78869118, 0.26701574, 0.54533343], "properties": {"magmom": 0.0}, "label": "Cl", "xyz": [5.200184429206644, 3.0871918113623353, 4.537985678437061]}]}, "task_ids": null, "uncorrected_energy_per_atom": null, "energy_per_atom": -10.949613095, "formation_energy_per_atom": -0.19561297874999803, "energy_above_hull": 0.0, "is_stable": true, "equilibrium_reaction_energy_per_atom": null, "decomposes_to": null, "xas": null, "grain_boundaries": null, "band_gap": 1.5693000000000001, "cbm": null, "vbm": null, "efermi": 0.95809141, "is_gap_direct": null, "is_metal": null, "es_source_calc_id": null, "bandstructure": null, "dos": null, "dos_energy_up": null, "dos_energy_down": null, "is_magnetic": null, "ordering": null, "total_magnetization": 0.0, "total_magnetization_normalized_vol": null, "total_magnetization_normalized_formula_units": null, "num_magnetic_sites": null, "num_unique_magnetic_sites": null, "types_of_magnetic_species": null, "bulk_modulus": null, "shear_modulus": null, "universal_anisotropy": null, "homogeneous_poisson": null, "e_total": null, "e_ionic": null, "e_electronic": null, "n": null, "e_ij_max": null, "weighted_surface_energy_EV_PER_ANG2": null, "weighted_surface_energy": null, "weighted_work_function": null, "surface_anisotropy": null, "shape_factor": null, "has_reconstructed": null, "possible_species": null, "has_props": null, "theoretical": null, "database_IDs": null, "fields_not_requested": ["builder_meta", "nsites", "elements", "nelements", "composition", "composition_reduced", "chemsys", "symmetry", "property_name", "deprecated", "deprecation_reasons", "last_updated", "origins", "warnings", "task_ids", "uncorrected_energy_per_atom", "equilibrium_reaction_energy_per_atom", "decomposes_to", "xas", "grain_boundaries", "cbm", "vbm", "is_gap_direct", "is_metal", "es_source_calc_id", "bandstructure", "dos", "dos_energy_up", "dos_energy_down", "is_magnetic", "ordering", "total_magnetization_normalized_vol", "total_magnetization_normalized_formula_units", "num_magnetic_sites", "num_unique_magnetic_sites", "types_of_magnetic_species", "bulk_modulus", "shear_modulus", "universal_anisotropy", "homogeneous_poisson", "e_total", "e_ionic", "e_electronic", "n", "e_ij_max", "weighted_surface_energy_EV_PER_ANG2", "weighted_surface_energy", "weighted_work_function", "surface_anisotropy", "shape_factor", "has_reconstructed", "possible_species", "has_props", "theoretical", "database_IDs"]}