{"builder_meta": null, "nsites": null, "elements": null, "nelements": null, "composition": null, "composition_reduced": null, "formula_pretty": "IF3", "formula_anonymous": "AB3", "chemsys": null, "volume": 291.45299682670014, "density": 4.191037397259628, "density_atomic": 18.21581230166876, "symmetry": null, "property_name": null, "material_id": "mp-29848", "deprecated": null, "deprecation_reasons": null, "last_updated": null, "origins": null, "warnings": null, "structure": {"@module": "pymatgen.core.structure", "@class": "Structure", "charge": 0, "lattice": {"matrix": [[4.728605, 0.0, 0.0], [0.0, 6.755072, 0.0], [0.0, 0.0, 9.124425]], "pbc": [true, true, true], "a": 4.728605, "b": 6.755072, "c": 9.124425, "alpha": 90.0, "beta": 90.0, "gamma": 90.0, "volume": 291.45299682670014}, "properties": {}, "sites": [{"species": [{"element": "I", "occu": 1}], "abc": [0.5232289999999991, 0.75, 0.812414], "properties": {"magmom": -0.0}, "label": "I", "xyz": [2.4741432655449955, 5.066304000000001, 7.41281061195]}, {"species": [{"element": "I", "occu": 1}], "abc": [0.023229, 0.25, 0.687585999999999], "properties": {"magmom": -0.0}, "label": "I", "xyz": [0.109840765545, 1.688768, 6.2738268880499914]}, {"species": [{"element": "I", "occu": 1}], "abc": [0.476771, 0.25, 0.187586], "properties": {"magmom": -0.0}, "label": "I", "xyz": [2.254461734455, 1.688768, 1.71161438805]}, {"species": [{"element": "I", "occu": 1}], "abc": [0.976771, 0.75, 0.312413999999999], "properties": {"magmom": -0.0}, "label": "I", "xyz": [4.618764234455, 5.066304000000001, 2.8505981119499912]}, {"species": [{"element": "F", "occu": 1}], "abc": [0.851536, 0.75, 0.934178], "properties": {"magmom": -0.0}, "label": "F", "xyz": [4.02657738728, 5.066304000000001, 8.52383709765]}, {"species": [{"element": "F", "occu": 1}], "abc": [0.351535999999999, 0.25, 0.565821999999999], "properties": {"magmom": -0.0}, "label": "F", "xyz": [1.6622748872799953, 1.688768, 5.162800402349991]}, {"species": [{"element": "F", "occu": 1}], "abc": [0.148463999999999, 0.25, 0.065821999999999], "properties": {"magmom": -0.0}, "label": "F", "xyz": [0.7020276127199954, 1.688768, 0.6005879023499909]}, {"species": [{"element": "F", "occu": 1}], "abc": [0.648463999999999, 0.75, 0.434177999999999], "properties": {"magmom": -0.0}, "label": "F", "xyz": [3.0663301127199953, 5.066304000000001, 3.9616245976499913]}, {"species": [{"element": "F", "occu": 1}], "abc": [0.913994, 0.456028, 0.331243], "properties": {"magmom": -0.0}, "label": "F", "xyz": [4.32191659837, 3.080501974016, 3.022401910275]}, {"species": [{"element": "F", "occu": 1}], "abc": [0.413994, 0.543972, 0.168757], "properties": {"magmom": -0.0}, "label": "F", "xyz": [1.9576140983699999, 3.6745700259840004, 1.539810589725]}, {"species": [{"element": "F", "occu": 1}], "abc": [0.086006, 0.956028, 0.668756999999999], "properties": {"magmom": -0.0}, "label": "F", "xyz": [0.40668840163, 6.458037974016, 6.102023089724992]}, {"species": [{"element": "F", "occu": 1}], "abc": [0.586006, 0.043972, 0.831243], "properties": {"magmom": -0.0}, "label": "F", "xyz": [2.7709909016300003, 0.29703402598399997, 7.584614410275]}, {"species": [{"element": "F", "occu": 1}], "abc": [0.086006, 0.543972, 0.668756999999999], "properties": {"magmom": -0.0}, "label": "F", "xyz": [0.40668840163, 3.6745700259840004, 6.102023089724992]}, {"species": [{"element": "F", "occu": 1}], "abc": [0.586006, 0.456028, 0.831243], "properties": {"magmom": -0.0}, "label": "F", "xyz": [2.7709909016300003, 3.080501974016, 7.584614410275]}, {"species": [{"element": "F", "occu": 1}], "abc": [0.913994, 0.043972, 0.331243], "properties": {"magmom": -0.0}, "label": "F", "xyz": [4.32191659837, 0.29703402598399997, 3.022401910275]}, {"species": [{"element": "F", "occu": 1}], "abc": [0.413994, 0.956028, 0.168757], "properties": {"magmom": -0.0}, "label": "F", "xyz": [1.9576140983699999, 6.458037974016, 1.539810589725]}]}, "task_ids": null, "uncorrected_energy_per_atom": null, "energy_per_atom": -3.497281081249999, "formation_energy_per_atom": -1.680888646249999, "energy_above_hull": 0.091486564299998, "is_stable": false, "equilibrium_reaction_energy_per_atom": null, "decomposes_to": null, "xas": null, "grain_boundaries": null, "band_gap": 2.1132, "cbm": null, "vbm": null, "efermi": 1.03648529, "is_gap_direct": null, "is_metal": null, "es_source_calc_id": null, "bandstructure": null, "dos": null, "dos_energy_up": null, "dos_energy_down": null, "is_magnetic": null, "ordering": null, "total_magnetization": 0.0006671, "total_magnetization_normalized_vol": null, "total_magnetization_normalized_formula_units": null, "num_magnetic_sites": null, "num_unique_magnetic_sites": null, "types_of_magnetic_species": null, "bulk_modulus": null, "shear_modulus": null, "universal_anisotropy": null, "homogeneous_poisson": null, "e_total": null, "e_ionic": null, "e_electronic": null, "n": null, "e_ij_max": null, "weighted_surface_energy_EV_PER_ANG2": null, "weighted_surface_energy": null, "weighted_work_function": null, "surface_anisotropy": null, "shape_factor": null, "has_reconstructed": null, "possible_species": null, "has_props": null, "theoretical": null, "database_IDs": null, "fields_not_requested": ["builder_meta", "nsites", "elements", "nelements", "composition", "composition_reduced", "chemsys", "symmetry", "property_name", "deprecated", "deprecation_reasons", "last_updated", "origins", "warnings", "task_ids", "uncorrected_energy_per_atom", "equilibrium_reaction_energy_per_atom", "decomposes_to", "xas", "grain_boundaries", "cbm", "vbm", "is_gap_direct", "is_metal", "es_source_calc_id", "bandstructure", "dos", "dos_energy_up", "dos_energy_down", "is_magnetic", "ordering", "total_magnetization_normalized_vol", "total_magnetization_normalized_formula_units", "num_magnetic_sites", "num_unique_magnetic_sites", "types_of_magnetic_species", "bulk_modulus", "shear_modulus", "universal_anisotropy", "homogeneous_poisson", "e_total", "e_ionic", "e_electronic", "n", "e_ij_max", "weighted_surface_energy_EV_PER_ANG2", "weighted_surface_energy", "weighted_work_function", "surface_anisotropy", "shape_factor", "has_reconstructed", "possible_species", "has_props", "theoretical", "database_IDs"]}