{
  "builder_meta": null,
  "nsites": null,
  "elements": null,
  "nelements": null,
  "composition": null,
  "composition_reduced": null,
  "formula_pretty": "IF5",
  "formula_anonymous": "AB5",
  "chemsys": null,
  "volume": 911.538361091725,
  "density": 4.042263051913207,
  "density_atomic": 15.192306018195417,
  "symmetry": null,
  "property_name": null,
  "material_id": "mp-23257",
  "deprecated": null,
  "deprecation_reasons": null,
  "last_updated": null,
  "origins": null,
  "warnings": null,
  "structure": {
    "@module": "pymatgen.core.structure",
    "@class": "Structure",
    "charge": 0,
    "lattice": {
      "matrix": [
        [6.80091747, -0.0, 0.0],
        [-3.40045874, 7.45022155, -0.38843798],
        [0.0, -0.01631773, 17.99114465]
      ],
      "pbc": [true, true, true],
      "a": 6.80091747,
      "b": 8.198768495989706,
      "c": 17.99115204998101,
      "alpha": 92.76282797071543,
      "beta": 90.0,
      "gamma": 114.5037235903439,
      "volume": 911.5383610917252
    },
    "properties": {},
    "sites": [
      {
        "species": [{ "element": "I", "occu": 1 }],
        "abc": [0.8984438, 0.42944673, 0.8455385400000001],
        "properties": { "magmom": -0.0 },
        "label": "I",
        "xyz": [4.6499262488402655, 3.185676012822717, 15.045392759971007]
      },
      {
        "species": [{ "element": "I", "occu": 1 }],
        "abc": [0.46899607, 0.57055327, 0.65446146],
        "properties": { "magmom": -0.0 },
        "label": "I",
        "xyz": [1.2494607122172632, 4.240068942177283, 11.552886235028994]
      },
      {
        "species": [{ "element": "I", "occu": 1 }],
        "abc": [0.1015562, 0.57055327, 0.15446146],
        "properties": { "magmom": -0.0 },
        "label": "I",
        "xyz": [-1.2494675188402657, 4.248227807177282, 2.557313910028994]
      },
      {
        "species": [{ "element": "I", "occu": 1 }],
        "abc": [0.53100393, 0.42944673, 0.34553854],
        "properties": { "magmom": -0.0 },
        "label": "I",
        "xyz": [2.1509980177827366, 3.193834877822717, 6.049820434971005]
      },
      {
        "species": [{ "element": "I", "occu": 1 }],
        "abc": [0.79451019, 0.21101262, 0.55306867],
        "properties": { "magmom": 0.0 },
        "label": "I",
        "xyz": [4.685858523334721, 1.563065943617442, 9.868373127485809]
      },
      {
        "species": [{ "element": "I", "occu": 1 }],
        "abc": [0.58349858, 0.78898738, 0.9469313300000001],
        "properties": { "magmom": 0.0 },
        "label": "I",
        "xyz": [1.2854066543714913, 5.862679011382558, 16.729905867514194]
      },
      {
        "species": [{ "element": "I", "occu": 1 }],
        "abc": [0.20548981, 0.78898738, 0.44693133],
        "properties": { "magmom": 0.0 },
        "label": "I",
        "xyz": [-1.2853997933347205, 5.870837876382558, 7.734333542514192]
      },
      {
        "species": [{ "element": "I", "occu": 1 }],
        "abc": [0.41650142, 0.21101262, 0.05306867],
        "properties": { "magmom": 0.0 },
        "label": "I",
        "xyz": [2.1150520756285087, 1.571224808617442, 0.8728008024858078]
      },
      {
        "species": [{ "element": "I", "occu": 1 }],
        "abc": [0.25707048, -0.0, 0.75],
        "properties": { "magmom": 0.0 },
        "label": "I",
        "xyz": [1.7483151184532855, -0.012238297499999998, 13.4933584875]
      },
      {
        "species": [{ "element": "I", "occu": 1 }],
        "abc": [0.74292952, -0.0, 0.25],
        "properties": { "magmom": 0.0 },
        "label": "I",
        "xyz": [5.052602351546715, -0.0040794325, 4.4977861625]
      },
      {
        "species": [{ "element": "F", "occu": 1 }],
        "abc": [0.69639689, 0.3450656, 0.92342345],
        "properties": { "magmom": 0.0 },
        "label": "F",
        "xyz": [3.562756439861325, 2.5557469947509115, 16.479408277520555]
      },
      {
        "species": [{ "element": "F", "occu": 1 }],
        "abc": [0.35133129, 0.654934399999999, 0.57657655],
        "properties": { "magmom": 0.0 },
        "label": "F",
        "xyz": [0.1622977033119839, 4.869997960249082, 10.118870717479446]
      },
      {
        "species": [{ "element": "F", "occu": 1 }],
        "abc": [0.30360311, 0.654934399999999, 0.07657655000000001],
        "properties": { "magmom": 0.0 },
        "label": "F",
        "xyz": [-0.16229770986132097, 4.878156825249081, 1.123298392479446]
      },
      {
        "species": [{ "element": "F", "occu": 1 }],
        "abc": [0.64866871, 0.3450656, 0.42342345000000003],
        "properties": { "magmom": 0.0 },
        "label": "F",
        "xyz": [3.23816102668802, 2.5639058597509115, 7.483835952520555]
      },
      {
        "species": [{ "element": "F", "occu": 1 }],
        "abc": [0.11148021, 0.57125303, 0.91860809],
        "properties": { "magmom": 0.0 },
        "label": "F",
        "xyz": [-1.1843546508667135, 4.240972035820361, 16.30491465080814]
      },
      {
        "species": [{ "element": "F", "occu": 1 }],
        "abc": [0.54022718, 0.42874697, 0.58139191],
        "properties": { "magmom": 0.0 },
        "label": "F",
        "xyz": [2.216104084845817, 3.1847729191796392, 10.29336434419186]
      },
      {
        "species": [{ "element": "F", "occu": 1 }],
        "abc": [0.88851979, 0.42874697, 0.08139191],
        "properties": { "magmom": 0.0 },
        "label": "F",
        "xyz": [4.584813380866714, 3.192931784179639, 1.2977920191918608]
      },
      {
        "species": [{ "element": "F", "occu": 1 }],
        "abc": [0.45977282, 0.57125303, 0.41860809],
        "properties": { "magmom": 0.0 },
        "label": "F",
        "xyz": [1.184354645154183, 4.249130900820361, 7.309342325808139]
      },
      {
        "species": [{ "element": "F", "occu": 1 }],
        "abc": [0.12372702000000001, 0.45509854, 0.77828634],
        "properties": { "magmom": 0.0 },
        "label": "F",
        "xyz": [-0.7060865560752002, 3.3778850837227288, 13.82548456448053]
      },
      {
        "species": [{ "element": "F", "occu": 1 }],
        "abc": [0.66862848, 0.5449014600000001, 0.72171366],
        "properties": { "magmom": 0.0 },
        "label": "F",
        "xyz": [2.694372178475785, 4.0478598712772715, 12.772794430519468]
      },
      {
        "species": [{ "element": "F", "occu": 1 }],
        "abc": [0.01210744, -0.0, 0.25],
        "properties": { "magmom": -0.0 },
        "label": "F",
        "xyz": [0.0823417002129768, -0.0040794325, 4.4977861625]
      },
      {
        "species": [{ "element": "F", "occu": 1 }],
        "abc": [0.98789256, -0.0, 0.75],
        "properties": { "magmom": -0.0 },
        "label": "F",
        "xyz": [6.718575769787023, -0.012238297499999998, 13.4933584875]
      },
      {
        "species": [{ "element": "F", "occu": 1 }],
        "abc": [0.8935713, 0.21272206, 0.19757026],
        "properties": { "magmom": 0.0 },
        "label": "F",
        "xyz": [5.353752076742806, 1.581602577413683, 3.47188579891027]
      },
      {
        "species": [{ "element": "F", "occu": 1 }],
        "abc": [0.68084924, 0.7872779400000001, 0.30242974],
        "properties": { "magmom": 0.0 },
        "label": "F",
        "xyz": [1.9532933388700267, 5.860460107586317, 5.135248546089729]
      },
      {
        "species": [{ "element": "F", "occu": 1 }],
        "abc": [0.1064287, 0.7872779400000001, 0.80242974],
        "properties": { "magmom": 0.0 },
        "label": "F",
        "xyz": [-1.9532933467428069, 5.852301242586317, 14.13082087108973]
      },
      {
        "species": [{ "element": "F", "occu": 1 }],
        "abc": [0.31915076000000003, 0.21272206, 0.69757026],
        "properties": { "magmom": 0.0 },
        "label": "F",
        "xyz": [1.4471653911299729, 1.573443712413683, 12.46745812391027]
      },
      {
        "species": [{ "element": "F", "occu": 1 }],
        "abc": [0.85382375, 0.13759794, 0.33985399],
        "properties": { "magmom": 0.0 },
        "label": "F",
        "xyz": [5.338888739996916, 1.0195894921753643, 6.060914028103892]
      },
      {
        "species": [{ "element": "F", "occu": 1 }],
        "abc": [0.716226799999999, 0.86240206, 0.16014601],
        "properties": { "magmom": 0.0 },
        "label": "F",
        "xyz": [1.9384367342811855, 6.4224731928246355, 2.546220316896108]
      },
      {
        "species": [{ "element": "F", "occu": 1 }],
        "abc": [0.14617625, 0.86240206, 0.6601460100000001],
        "properties": { "magmom": 0.0 },
        "label": "F",
        "xyz": [-1.938430009996917, 6.414314327824636, 11.541792641896109]
      },
      {
        "species": [{ "element": "F", "occu": 1 }],
        "abc": [0.2837732, 0.13759794, 0.83985399],
        "properties": { "magmom": 0.0 },
        "label": "F",
        "xyz": [1.4620219957188085, 1.0114306271753644, 15.056486353103892]
      },
      {
        "species": [{ "element": "F", "occu": 1 }],
        "abc": [0.14141719, 0.11894467, 0.08843768],
        "properties": { "magmom": 0.0 },
        "label": "F",
        "xyz": [0.5573001953513934, 0.8847210415075721, 1.5448924660438454]
      },
      {
        "species": [{ "element": "F", "occu": 1 }],
        "abc": [0.02247252, 0.88105533, 0.41156232],
        "properties": { "magmom": 0.0 },
        "label": "F",
        "xyz": [-2.8431585434591597, 6.557341643492428, 7.062241878956154]
      },
      {
        "species": [{ "element": "F", "occu": 1 }],
        "abc": [0.85858281, 0.88105533, 0.91156232],
        "properties": { "magmom": 0.0 },
        "label": "F",
        "xyz": [2.8431585346486066, 6.549182778492429, 16.057814203956156]
      },
      {
        "species": [{ "element": "F", "occu": 1 }],
        "abc": [0.97752748, 0.11894467, 0.58843768],
        "properties": { "magmom": 0.0 },
        "label": "F",
        "xyz": [6.24361727345916, 0.8765621765075722, 10.540464791043844]
      },
      {
        "species": [{ "element": "F", "occu": 1 }],
        "abc": [0.29485025, -0.00344217, 0.9911369],
        "properties": { "magmom": -0.0 },
        "label": "F",
        "xyz": [2.016957173319933, -0.0418180334400005, 17.833024405414204]
      },
      {
        "species": [{ "element": "F", "occu": 1 }],
        "abc": [0.29829243, 0.00344217, 0.5088631],
        "properties": { "magmom": -0.0 },
        "label": "F",
        "xyz": [2.016957241294686, 0.017341438440000502, 9.153692569585798]
      },
      {
        "species": [{ "element": "F", "occu": 1 }],
        "abc": [0.70514975, 0.00344217, 0.008863099999999001],
        "properties": { "magmom": -0.0 },
        "label": "F",
        "xyz": [4.783960296680067, 0.025500303440000517, 0.15812024458578042]
      },
      {
        "species": [{ "element": "F", "occu": 1 }],
        "abc": [0.7017075700000001, -0.00344217, 0.4911369],
        "properties": { "magmom": -0.0 },
        "label": "F",
        "xyz": [4.783960228705314, -0.0336591684400005, 8.8374520804142]
      },
      {
        "species": [{ "element": "F", "occu": 1 }],
        "abc": [0.29407211, 0.32411451, 0.99001269],
        "properties": { "magmom": 0.0 },
        "label": "F",
        "xyz": [0.8978221320484441, 2.398570147297697, 17.685563125572518]
      },
      {
        "species": [{ "element": "F", "occu": 1 }],
        "abc": [0.9699576, 0.67588549, 0.50998731],
        "properties": { "magmom": 0.0 },
        "label": "F",
        "xyz": [4.298280865289589, 5.027174807702303, 8.912715869427482]
      },
      {
        "species": [{ "element": "F", "occu": 1 }],
        "abc": [0.70592789, 0.67588549, 0.009987310000000001],
        "properties": { "magmom": 0.0 },
        "label": "F",
        "xyz": [2.5026365979515557, 5.035333672702303, -0.08285645557251872]
      },
      {
        "species": [{ "element": "F", "occu": 1 }],
        "abc": [0.0300424, 0.32411451, 0.49001269000000003],
        "properties": { "magmom": 0.0 },
        "label": "F",
        "xyz": [-0.8978221352895895, 2.406729012297697, 8.689990800572518]
      },
      {
        "species": [{ "element": "F", "occu": 1 }],
        "abc": [0.44753671, 0.3944561, 0.12744152],
        "properties": { "magmom": -0.0 },
        "label": "F",
        "xyz": [1.7023285367140097, 2.936705780434805, 2.1395970900531895]
      },
      {
        "species": [{ "element": "F", "occu": 1 }],
        "abc": [0.05308162, 0.6055439, 0.37255848],
        "properties": { "magmom": -0.0 },
        "label": "F",
        "xyz": [-1.6981233304147847, 4.505356904565194, 6.46753725494681]
      },
      {
        "species": [{ "element": "F", "occu": 1 }],
        "abc": [0.55246329, 0.6055439, 0.87255848],
        "properties": { "magmom": -0.0 },
        "label": "F",
        "xyz": [1.6981301932859907, 4.497198039565195, 15.46310957994681]
      },
      {
        "species": [{ "element": "F", "occu": 1 }],
        "abc": [0.9469183800000001, 0.3944561, 0.62744152],
        "properties": { "magmom": -0.0 },
        "label": "F",
        "xyz": [5.098582060414785, 2.928546915434805, 11.13516941505319]
      },
      {
        "species": [{ "element": "F", "occu": 1 }],
        "abc": [0.45610966000000003, 0.07531198, 0.13033668],
        "properties": { "magmom": 0.0 },
        "label": "F",
        "xyz": [2.845868874312055, 0.5589641376158326, 2.3156520296997614]
      },
      {
        "species": [{ "element": "F", "occu": 1 }],
        "abc": [0.38079968000000003, 0.92468802, 0.36966332],
        "properties": { "magmom": 0.0 },
        "label": "F",
        "xyz": [-0.5545762630998854, 6.883098547384168, 6.291482315300238]
      },
      {
        "species": [{ "element": "F", "occu": 1 }],
        "abc": [0.54389034, 0.92468802, 0.86966332],
        "properties": { "magmom": 0.0 },
        "label": "F",
        "xyz": [0.5545898556879449, 6.874939682384167, 15.287054640300237]
      },
      {
        "species": [{ "element": "F", "occu": 1 }],
        "abc": [0.61920032, 0.07531198, 0.63033668],
        "properties": { "magmom": 0.0 },
        "label": "F",
        "xyz": [3.9550349930998854, 0.5508052726158327, 11.31122435469976]
      },
      {
        "species": [{ "element": "F", "occu": 1 }],
        "abc": [0.28315444, 0.25466719, 0.37794937],
        "properties": { "magmom": -0.0 },
        "label": "F",
        "xyz": [1.0597247056773265, 1.8911597112426142, 6.700819377190494]
      },
      {
        "species": [{ "element": "F", "occu": 1 }],
        "abc": [0.028487250000000002, 0.7453328100000001, 0.12205063000000001],
        "properties": { "magmom": -0.0 },
        "label": "F",
        "xyz": [-2.340734031776002, 5.5509029737573865, 1.906314967809506]
      },
      {
        "species": [{ "element": "F", "occu": 1 }],
        "abc": [0.71684556, 0.7453328100000001, 0.62205063],
        "properties": { "magmom": -0.0 },
        "label": "F",
        "xyz": [2.340734024322674, 5.542744108757386, 10.901887292809507]
      },
      {
        "species": [{ "element": "F", "occu": 1 }],
        "abc": [0.97151275, 0.25466719, 0.8779493700000001],
        "properties": { "magmom": -0.0 },
        "label": "F",
        "xyz": [5.741192761776002, 1.8830008462426142, 15.696391702190496]
      },
      {
        "species": [{ "element": "F", "occu": 1 }],
        "abc": [0.52528339, 0.235841499999999, 0.28139589],
        "properties": { "magmom": -0.0 },
        "label": "F",
        "xyz": [2.7704396938221167, 1.752479683528188, 4.971024365045318]
      },
      {
        "species": [{ "element": "F", "occu": 1 }],
        "abc": [0.28944189, 0.7641585, 0.21860411000000002],
        "properties": { "magmom": -0.0 },
        "label": "F",
        "xyz": [-0.6300190438194717, 5.689583001471805, 3.6361099799546817]
      },
      {
        "species": [{ "element": "F", "occu": 1 }],
        "abc": [0.47471661, 0.7641585, 0.71860411],
        "properties": { "magmom": -0.0 },
        "label": "F",
        "xyz": [0.6300190361778868, 5.681424136471805, 12.631682304954682]
      },
      {
        "species": [{ "element": "F", "occu": 1 }],
        "abc": [0.71055811, 0.235841499999999, 0.78139589],
        "properties": { "magmom": -0.0 },
        "label": "F",
        "xyz": [4.0304777738194755, 1.744320818528188, 13.966596690045318]
      },
      {
        "species": [{ "element": "F", "occu": 1 }],
        "abc": [0.33137152000000003, 0.45509854, 0.27828634],
        "properties": { "magmom": 0.0 },
        "label": "F",
        "xyz": [0.7060865515242152, 3.3860439487227287, 4.829912239480532]
      },
      {
        "species": [{ "element": "F", "occu": 1 }],
        "abc": [0.87627298, 0.5449014600000001, 0.22171366],
        "properties": { "magmom": 0.0 },
        "label": "F",
        "xyz": [4.1065452860752, 4.056018736277272, 3.777222105519468]
      }
    ]
  },
  "task_ids": null,
  "uncorrected_energy_per_atom": null,
  "energy_per_atom": -3.818184871166665,
  "formation_energy_per_atom": -1.969305789499999,
  "energy_above_hull": 0.0,
  "is_stable": true,
  "equilibrium_reaction_energy_per_atom": null,
  "decomposes_to": null,
  "xas": null,
  "grain_boundaries": null,
  "band_gap": 4.6921,
  "cbm": null,
  "vbm": null,
  "efermi": -2.11244815,
  "is_gap_direct": null,
  "is_metal": null,
  "es_source_calc_id": null,
  "bandstructure": null,
  "dos": null,
  "dos_energy_up": null,
  "dos_energy_down": null,
  "is_magnetic": null,
  "ordering": null,
  "total_magnetization": 0.0,
  "total_magnetization_normalized_vol": null,
  "total_magnetization_normalized_formula_units": null,
  "num_magnetic_sites": null,
  "num_unique_magnetic_sites": null,
  "types_of_magnetic_species": null,
  "bulk_modulus": null,
  "shear_modulus": null,
  "universal_anisotropy": null,
  "homogeneous_poisson": null,
  "e_total": null,
  "e_ionic": null,
  "e_electronic": null,
  "n": null,
  "e_ij_max": null,
  "weighted_surface_energy_EV_PER_ANG2": null,
  "weighted_surface_energy": null,
  "weighted_work_function": null,
  "surface_anisotropy": null,
  "shape_factor": null,
  "has_reconstructed": null,
  "possible_species": null,
  "has_props": null,
  "theoretical": null,
  "database_IDs": null,
  "fields_not_requested": [
    "builder_meta",
    "nsites",
    "elements",
    "nelements",
    "composition",
    "composition_reduced",
    "chemsys",
    "symmetry",
    "property_name",
    "deprecated",
    "deprecation_reasons",
    "last_updated",
    "origins",
    "warnings",
    "task_ids",
    "uncorrected_energy_per_atom",
    "equilibrium_reaction_energy_per_atom",
    "decomposes_to",
    "xas",
    "grain_boundaries",
    "cbm",
    "vbm",
    "is_gap_direct",
    "is_metal",
    "es_source_calc_id",
    "bandstructure",
    "dos",
    "dos_energy_up",
    "dos_energy_down",
    "is_magnetic",
    "ordering",
    "total_magnetization_normalized_vol",
    "total_magnetization_normalized_formula_units",
    "num_magnetic_sites",
    "num_unique_magnetic_sites",
    "types_of_magnetic_species",
    "bulk_modulus",
    "shear_modulus",
    "universal_anisotropy",
    "homogeneous_poisson",
    "e_total",
    "e_ionic",
    "e_electronic",
    "n",
    "e_ij_max",
    "weighted_surface_energy_EV_PER_ANG2",
    "weighted_surface_energy",
    "weighted_work_function",
    "surface_anisotropy",
    "shape_factor",
    "has_reconstructed",
    "possible_species",
    "has_props",
    "theoretical",
    "database_IDs"
  ]
}
