{"builder_meta": null, "nsites": null, "elements": null, "nelements": null, "composition": null, "composition_reduced": null, "formula_pretty": "IF7", "formula_anonymous": "AB7", "chemsys": null, "volume": 295.29125934113586, "density": 2.922964710438197, "density_atomic": 18.45570370882099, "symmetry": null, "property_name": null, "material_id": "mp-27988", "deprecated": null, "deprecation_reasons": null, "last_updated": null, "origins": null, "warnings": null, "structure": {"@module": "pymatgen.core.structure", "@class": "Structure", "charge": 0, "lattice": {"matrix": [[3.413967, -4.418435, 0.0], [3.413967, 4.418435, 0.0], [0.0, 0.0, 9.787974]], "pbc": [true, true, true], "a": 5.583702940371559, "b": 5.583702940371559, "c": 9.787974, "alpha": 90.0, "beta": 90.0, "gamma": 104.61603724065702, "volume": 295.29125934113586}, "properties": {}, "sites": [{"species": [{"element": "I", "occu": 1}], "abc": [0.365969, 0.365969, 0.0], "properties": {"magmom": -0.0}, "label": "I", "xyz": [2.4988121780459998, 0.0, 0.0]}, {"species": [{"element": "I", "occu": 1}], "abc": [0.865969, 0.865969, 0.5], "properties": {"magmom": -0.0}, "label": "I", "xyz": [5.912779178046, 0.0, 4.893987]}, {"species": [{"element": "F", "occu": 1}], "abc": [0.179925, 0.383924999999999, 0.160605], "properties": {"magmom": -0.0}, "label": "F", "xyz": [1.9249652929499965, 0.9013607399999957, 1.57199756427]}, {"species": [{"element": "F", "occu": 1}], "abc": [0.177803, 0.004523, 0.583704999999999], "properties": {"magmom": -0.0}, "label": "F", "xyz": [0.6224549472419999, -0.7656264167999999, 5.713289363669991]}, {"species": [{"element": "F", "occu": 1}], "abc": [0.677802999999999, 0.5045229999999991, 0.916295], "properties": {"magmom": -0.0}, "label": "F", "xyz": [4.036421947241993, -0.7656264168, 8.96867163633]}, {"species": [{"element": "F", "occu": 1}], "abc": [0.690265, 0.038564999999999, 0.604599], "properties": {"magmom": -0.0}, "label": "F", "xyz": [2.488201568609997, -2.8794940895000045, 5.917799292426]}, {"species": [{"element": "F", "occu": 1}], "abc": [0.038564999999999, 0.690265, 0.395401], "properties": {"magmom": -0.0}, "label": "F", "xyz": [2.488201568609997, 2.8794940895000045, 3.8701747075740003]}, {"species": [{"element": "F", "occu": 1}], "abc": [0.538565, 0.190265, 0.104599], "properties": {"magmom": -0.0}, "label": "F", "xyz": [2.48820156861, -1.5389409104999998, 1.023812292426]}, {"species": [{"element": "F", "occu": 1}], "abc": [0.190265, 0.538565, 0.895401], "properties": {"magmom": -0.0}, "label": "F", "xyz": [2.48820156861, 1.5389409104999998, 8.764161707574]}, {"species": [{"element": "F", "occu": 1}], "abc": [0.883925, 0.679925, 0.660605], "properties": {"magmom": -0.0}, "label": "F", "xyz": [5.33893229295, -0.9013607399999994, 6.46598456427]}, {"species": [{"element": "F", "occu": 1}], "abc": [0.087224, 0.087224, 0.0], "properties": {"magmom": -0.0}, "label": "F", "xyz": [0.5955597152159999, 0.0, 0.0]}, {"species": [{"element": "F", "occu": 1}], "abc": [0.5045229999999991, 0.677802999999999, 0.083705], "properties": {"magmom": -0.0}, "label": "F", "xyz": [4.036421947241993, 0.7656264168, 0.81930236367]}, {"species": [{"element": "F", "occu": 1}], "abc": [0.587224, 0.587224, 0.5], "properties": {"magmom": -0.0}, "label": "F", "xyz": [4.0095267152159995, 0.0, 4.893987]}, {"species": [{"element": "F", "occu": 1}], "abc": [0.679925, 0.883925, 0.339395], "properties": {"magmom": -0.0}, "label": "F", "xyz": [5.33893229295, 0.9013607399999994, 3.32198943573]}, {"species": [{"element": "F", "occu": 1}], "abc": [0.383924999999999, 0.179925, 0.839395], "properties": {"magmom": -0.0}, "label": "F", "xyz": [1.9249652929499965, -0.9013607399999957, 8.215976435730001]}, {"species": [{"element": "F", "occu": 1}], "abc": [0.004523, 0.177803, 0.416294999999999], "properties": {"magmom": -0.0}, "label": "F", "xyz": [0.6224549472419999, 0.7656264167999999, 4.074684636329991]}]}, "task_ids": null, "uncorrected_energy_per_atom": null, "energy_per_atom": -3.557248483749999, "formation_energy_per_atom": -1.692126078749999, "energy_above_hull": 0.0, "is_stable": true, "equilibrium_reaction_energy_per_atom": null, "decomposes_to": null, "xas": null, "grain_boundaries": null, "band_gap": 1.4397, "cbm": null, "vbm": null, "efermi": -3.02993017, "is_gap_direct": null, "is_metal": null, "es_source_calc_id": null, "bandstructure": null, "dos": null, "dos_energy_up": null, "dos_energy_down": null, "is_magnetic": null, "ordering": null, "total_magnetization": 2.55e-05, "total_magnetization_normalized_vol": null, "total_magnetization_normalized_formula_units": null, "num_magnetic_sites": null, "num_unique_magnetic_sites": null, "types_of_magnetic_species": null, "bulk_modulus": null, "shear_modulus": null, "universal_anisotropy": null, "homogeneous_poisson": null, "e_total": null, "e_ionic": null, "e_electronic": null, "n": null, "e_ij_max": null, "weighted_surface_energy_EV_PER_ANG2": null, "weighted_surface_energy": null, "weighted_work_function": null, "surface_anisotropy": null, "shape_factor": null, "has_reconstructed": null, "possible_species": null, "has_props": null, "theoretical": null, "database_IDs": null, "fields_not_requested": ["builder_meta", "nsites", "elements", "nelements", "composition", "composition_reduced", "chemsys", "symmetry", "property_name", "deprecated", "deprecation_reasons", "last_updated", "origins", "warnings", "task_ids", "uncorrected_energy_per_atom", "equilibrium_reaction_energy_per_atom", "decomposes_to", "xas", "grain_boundaries", "cbm", "vbm", "is_gap_direct", "is_metal", "es_source_calc_id", "bandstructure", "dos", "dos_energy_up", "dos_energy_down", "is_magnetic", "ordering", "total_magnetization_normalized_vol", "total_magnetization_normalized_formula_units", "num_magnetic_sites", "num_unique_magnetic_sites", "types_of_magnetic_species", "bulk_modulus", "shear_modulus", "universal_anisotropy", "homogeneous_poisson", "e_total", "e_ionic", "e_electronic", "n", "e_ij_max", "weighted_surface_energy_EV_PER_ANG2", "weighted_surface_energy", "weighted_work_function", "surface_anisotropy", "shape_factor", "has_reconstructed", "possible_species", "has_props", "theoretical", "database_IDs"]}