{
  "builder_meta": null,
  "nsites": null,
  "elements": null,
  "nelements": null,
  "composition": null,
  "composition_reduced": null,
  "formula_pretty": "IN2",
  "formula_anonymous": "AB2",
  "chemsys": null,
  "volume": 149.21872115049626,
  "density": 3.447920921263097,
  "density_atomic": 24.869786858416045,
  "symmetry": null,
  "property_name": null,
  "material_id": "mp-1097011",
  "deprecated": null,
  "deprecation_reasons": null,
  "last_updated": null,
  "origins": null,
  "warnings": null,
  "structure": {
    "@module": "pymatgen.core.structure",
    "@class": "Structure",
    "charge": 0,
    "lattice": {
      "matrix": [
        [-2.438549, 2.438549, 6.273362],
        [2.438549, -2.438549, 6.273362],
        [2.438549, 2.438549, -6.273362]
      ],
      "pbc": [true, true, true],
      "a": 7.158778752961011,
      "b": 7.158778752961011,
      "c": 7.158778752961011,
      "alpha": 140.1685539138554,
      "beta": 140.1685539138554,
      "gamma": 57.597462821968016,
      "volume": 149.21872115049626
    },
    "properties": {},
    "sites": [
      {
        "species": [{ "element": "I", "occu": 1 }],
        "abc": [0.25, 0.25, 0.0],
        "properties": { "magmom": -0.0 },
        "label": "I",
        "xyz": [0.0, 0.0, 3.136681]
      },
      {
        "species": [{ "element": "I", "occu": 1 }],
        "abc": [0.75, 0.75, 0.0],
        "properties": { "magmom": -0.0 },
        "label": "I",
        "xyz": [0.0, 0.0, 9.410043]
      },
      {
        "species": [{ "element": "N", "occu": 1 }],
        "abc": [0.58062, 0.08062000000000001, 0.661241],
        "properties": { "magmom": -0.0 },
        "label": "N",
        "xyz": [0.39319407930899986, 2.8317430793089997, -6.273361998765381e-6]
      },
      {
        "species": [{ "element": "N", "occu": 1 }],
        "abc": [0.41938000000000003, 0.9193800000000001, 0.338759],
        "properties": { "magmom": -0.0 },
        "label": "N",
        "xyz": [2.0453549206910004, -0.3931940793090003, 6.273368273362001]
      },
      {
        "species": [{ "element": "N", "occu": 1 }],
        "abc": [0.08062000000000001, 0.41938000000000003, 0.5],
        "properties": { "magmom": -0.0 },
        "label": "N",
        "xyz": [2.04535735924, 0.39319164076, 4.440892098500626e-16]
      },
      {
        "species": [{ "element": "N", "occu": 1 }],
        "abc": [0.9193800000000001, 0.58062, 0.5],
        "properties": { "magmom": -0.0 },
        "label": "N",
        "xyz": [0.3931916407599998, 2.0453573592400005, 6.2733620000000005]
      }
    ]
  },
  "task_ids": null,
  "uncorrected_energy_per_atom": null,
  "energy_per_atom": -6.275622169999999,
  "formation_energy_per_atom": -0.20876613500000002,
  "energy_above_hull": 0.009823979166666,
  "is_stable": false,
  "equilibrium_reaction_energy_per_atom": null,
  "decomposes_to": null,
  "xas": null,
  "grain_boundaries": null,
  "band_gap": 0.0,
  "cbm": null,
  "vbm": null,
  "efermi": 1.35516361,
  "is_gap_direct": null,
  "is_metal": null,
  "es_source_calc_id": null,
  "bandstructure": null,
  "dos": null,
  "dos_energy_up": null,
  "dos_energy_down": null,
  "is_magnetic": null,
  "ordering": null,
  "total_magnetization": 0.0001717,
  "total_magnetization_normalized_vol": null,
  "total_magnetization_normalized_formula_units": null,
  "num_magnetic_sites": null,
  "num_unique_magnetic_sites": null,
  "types_of_magnetic_species": null,
  "bulk_modulus": null,
  "shear_modulus": null,
  "universal_anisotropy": null,
  "homogeneous_poisson": null,
  "e_total": null,
  "e_ionic": null,
  "e_electronic": null,
  "n": null,
  "e_ij_max": null,
  "weighted_surface_energy_EV_PER_ANG2": null,
  "weighted_surface_energy": null,
  "weighted_work_function": null,
  "surface_anisotropy": null,
  "shape_factor": null,
  "has_reconstructed": null,
  "possible_species": null,
  "has_props": null,
  "theoretical": null,
  "database_IDs": null,
  "fields_not_requested": [
    "builder_meta",
    "nsites",
    "elements",
    "nelements",
    "composition",
    "composition_reduced",
    "chemsys",
    "symmetry",
    "property_name",
    "deprecated",
    "deprecation_reasons",
    "last_updated",
    "origins",
    "warnings",
    "task_ids",
    "uncorrected_energy_per_atom",
    "equilibrium_reaction_energy_per_atom",
    "decomposes_to",
    "xas",
    "grain_boundaries",
    "cbm",
    "vbm",
    "is_gap_direct",
    "is_metal",
    "es_source_calc_id",
    "bandstructure",
    "dos",
    "dos_energy_up",
    "dos_energy_down",
    "is_magnetic",
    "ordering",
    "total_magnetization_normalized_vol",
    "total_magnetization_normalized_formula_units",
    "num_magnetic_sites",
    "num_unique_magnetic_sites",
    "types_of_magnetic_species",
    "bulk_modulus",
    "shear_modulus",
    "universal_anisotropy",
    "homogeneous_poisson",
    "e_total",
    "e_ionic",
    "e_electronic",
    "n",
    "e_ij_max",
    "weighted_surface_energy_EV_PER_ANG2",
    "weighted_surface_energy",
    "weighted_work_function",
    "surface_anisotropy",
    "shape_factor",
    "has_reconstructed",
    "possible_species",
    "has_props",
    "theoretical",
    "database_IDs"
  ]
}
