{
  "builder_meta": null,
  "nsites": null,
  "elements": null,
  "nelements": null,
  "composition": null,
  "composition_reduced": null,
  "formula_pretty": "In2Au3",
  "formula_anonymous": "A2B3",
  "chemsys": null,
  "volume": 106.22739651581236,
  "density": 12.826555499841632,
  "density_atomic": 21.245479303162472,
  "symmetry": null,
  "property_name": null,
  "material_id": "mp-1017579",
  "deprecated": null,
  "deprecation_reasons": null,
  "last_updated": null,
  "origins": null,
  "warnings": null,
  "structure": {
    "@module": "pymatgen.core.structure",
    "@class": "Structure",
    "charge": 0,
    "lattice": {
      "matrix": [
        [4.62025663, 5.4560000000000006e-5, -2.9880000000000002e-5],
        [-2.31007997, 4.00116885, 9.199999999999997e-6],
        [-1.038e-5, 6.86e-6, 5.7461981600000005]
      ],
      "pbc": [true, true, true],
      "a": 4.6202566304187656,
      "b": 4.620153853941464,
      "c": 5.746198160013471,
      "alpha": 89.99977492087224,
      "beta": 90.00047404069436,
      "gamma": 119.99936697731198,
      "volume": 106.22739651581237
    },
    "properties": {},
    "sites": [
      {
        "species": [{ "element": "In", "occu": 1 }],
        "abc": [0.66670977, 0.33335589, 0.321670199999999],
        "properties": { "magmom": 0.0 },
        "label": "In",
        "xyz": [2.3102881318210757, 1.3338517853746497, 1.848363856953087]
      },
      {
        "species": [{ "element": "In", "occu": 1 }],
        "abc": [0.33329023, 0.66664411, 0.6783298],
        "properties": { "magmom": 0.0 },
        "label": "In",
        "xyz": [-0.00012185182107577097, 2.6673784846253503, 3.897813623046908]
      },
      {
        "species": [{ "element": "Au", "occu": 1 }],
        "abc": [0.6666731100000001, 0.33333706, 0.80654473],
        "properties": { "magmom": 0.0 },
        "label": "Au",
        "xyz": [2.3101572190212343, 1.3337797676043106, 4.634548989992123]
      },
      {
        "species": [{ "element": "Au", "occu": 1 }],
        "abc": [0.33332689, 0.66666294, 0.19345527],
        "properties": { "magmom": 0.0 },
        "label": "Au",
        "xyz": [9.060978766192199e-6, 2.6674505023956896, 1.1116284900078781]
      },
      {
        "species": [{ "element": "Au", "occu": 1 }],
        "abc": [0.0, 0.0, 0.0],
        "properties": { "magmom": 0.0 },
        "label": "Au",
        "xyz": [0.0, 0.0, 0.0]
      }
    ]
  },
  "task_ids": null,
  "uncorrected_energy_per_atom": null,
  "energy_per_atom": -39.606542126,
  "formation_energy_per_atom": -0.22412988400000103,
  "energy_above_hull": 0.0,
  "is_stable": true,
  "equilibrium_reaction_energy_per_atom": null,
  "decomposes_to": null,
  "xas": null,
  "grain_boundaries": null,
  "band_gap": 0.0,
  "cbm": null,
  "vbm": null,
  "efermi": 6.26646294,
  "is_gap_direct": null,
  "is_metal": null,
  "es_source_calc_id": null,
  "bandstructure": null,
  "dos": null,
  "dos_energy_up": null,
  "dos_energy_down": null,
  "is_magnetic": null,
  "ordering": null,
  "total_magnetization": 0.0,
  "total_magnetization_normalized_vol": null,
  "total_magnetization_normalized_formula_units": null,
  "num_magnetic_sites": null,
  "num_unique_magnetic_sites": null,
  "types_of_magnetic_species": null,
  "bulk_modulus": null,
  "shear_modulus": null,
  "universal_anisotropy": null,
  "homogeneous_poisson": null,
  "e_total": null,
  "e_ionic": null,
  "e_electronic": null,
  "n": null,
  "e_ij_max": null,
  "weighted_surface_energy_EV_PER_ANG2": null,
  "weighted_surface_energy": null,
  "weighted_work_function": null,
  "surface_anisotropy": null,
  "shape_factor": null,
  "has_reconstructed": null,
  "possible_species": null,
  "has_props": null,
  "theoretical": null,
  "database_IDs": null,
  "fields_not_requested": [
    "builder_meta",
    "nsites",
    "elements",
    "nelements",
    "composition",
    "composition_reduced",
    "chemsys",
    "symmetry",
    "property_name",
    "deprecated",
    "deprecation_reasons",
    "last_updated",
    "origins",
    "warnings",
    "task_ids",
    "uncorrected_energy_per_atom",
    "equilibrium_reaction_energy_per_atom",
    "decomposes_to",
    "xas",
    "grain_boundaries",
    "cbm",
    "vbm",
    "is_gap_direct",
    "is_metal",
    "es_source_calc_id",
    "bandstructure",
    "dos",
    "dos_energy_up",
    "dos_energy_down",
    "is_magnetic",
    "ordering",
    "total_magnetization_normalized_vol",
    "total_magnetization_normalized_formula_units",
    "num_magnetic_sites",
    "num_unique_magnetic_sites",
    "types_of_magnetic_species",
    "bulk_modulus",
    "shear_modulus",
    "universal_anisotropy",
    "homogeneous_poisson",
    "e_total",
    "e_ionic",
    "e_electronic",
    "n",
    "e_ij_max",
    "weighted_surface_energy_EV_PER_ANG2",
    "weighted_surface_energy",
    "weighted_work_function",
    "surface_anisotropy",
    "shape_factor",
    "has_reconstructed",
    "possible_species",
    "has_props",
    "theoretical",
    "database_IDs"
  ]
}
