{"builder_meta": null, "nsites": null, "elements": null, "nelements": null, "composition": null, "composition_reduced": null, "formula_pretty": "In2Ag", "formula_anonymous": "AB2", "chemsys": null, "volume": 134.36736552712267, "density": 8.341890265437295, "density_atomic": 22.39456092118711, "symmetry": null, "property_name": null, "material_id": "mp-19974", "deprecated": null, "deprecation_reasons": null, "last_updated": null, "origins": null, "warnings": null, "structure": {"@module": "pymatgen.core.structure", "@class": "Structure", "charge": 0, "lattice": {"matrix": [[4.82889254, -1e-08, 2.78571736], [2.41444576, 4.9094424, 1.39285817], [-0.0387917, -1e-08, 5.64541609]], "pbc": [true, true, true], "a": 5.574802630826765, "b": 5.645549299105933, "c": 5.645549364341772, "alpha": 75.89063882160102, "beta": 60.41367635009203, "gamma": 60.41368518911097, "volume": 134.3673655271227}, "properties": {}, "sites": [{"species": [{"element": "In", "occu": 1}], "abc": [0.15456448, 0.5, 0.19087203], "properties": {"magmom": 0.0}, "label": "In", "xyz": [1.9461938938948282, 2.4547211965456346, 2.204554069468336]}, {"species": [{"element": "In", "occu": 1}], "abc": [0.34543552, 0.80912797, 0.5], "properties": {"magmom": 0.0}, "label": "In", "xyz": [3.6022707520429282, 3.972367154489573, 4.911994273414642]}, {"species": [{"element": "In", "occu": 1}], "abc": [0.65456448, 0.19087203, 0.5], "properties": {"magmom": 0.0}, "label": "In", "xyz": [3.6022758479570722, 0.9370752255104271, 4.911997346585358]}, {"species": [{"element": "In", "occu": 1}], "abc": [0.84543552, 0.5, 0.80912797], "properties": {"magmom": 0.0}, "label": "In", "xyz": [5.258352706105172, 2.454721183454365, 7.619437550531665]}, {"species": [{"element": "Ag", "occu": 1}], "abc": [0.25, -0.0, 0.0], "properties": {"magmom": -0.0}, "label": "Ag", "xyz": [1.207223135, -2.5e-09, 0.69642934]}, {"species": [{"element": "Ag", "occu": 1}], "abc": [0.75, -0.0, 0.0], "properties": {"magmom": -0.0}, "label": "Ag", "xyz": [3.621669405, -7.500000000000001e-09, 2.08928802]}]}, "task_ids": null, "uncorrected_energy_per_atom": null, "energy_per_atom": -22.221024458333332, "formation_energy_per_atom": -0.050005156666661006, "energy_above_hull": 0.0, "is_stable": true, "equilibrium_reaction_energy_per_atom": null, "decomposes_to": null, "xas": null, "grain_boundaries": null, "band_gap": 0.0, "cbm": null, "vbm": null, "efermi": 6.48706421, "is_gap_direct": null, "is_metal": null, "es_source_calc_id": null, "bandstructure": null, "dos": null, "dos_energy_up": null, "dos_energy_down": null, "is_magnetic": null, "ordering": null, "total_magnetization": 0.0, "total_magnetization_normalized_vol": null, "total_magnetization_normalized_formula_units": null, "num_magnetic_sites": null, "num_unique_magnetic_sites": null, "types_of_magnetic_species": null, "bulk_modulus": null, "shear_modulus": null, "universal_anisotropy": null, "homogeneous_poisson": null, "e_total": null, "e_ionic": null, "e_electronic": null, "n": null, "e_ij_max": null, "weighted_surface_energy_EV_PER_ANG2": null, "weighted_surface_energy": null, "weighted_work_function": null, "surface_anisotropy": null, "shape_factor": null, "has_reconstructed": null, "possible_species": null, "has_props": null, "theoretical": null, "database_IDs": null, "fields_not_requested": ["builder_meta", "nsites", "elements", "nelements", "composition", "composition_reduced", "chemsys", "symmetry", "property_name", "deprecated", "deprecation_reasons", "last_updated", "origins", "warnings", "task_ids", "uncorrected_energy_per_atom", "equilibrium_reaction_energy_per_atom", "decomposes_to", "xas", "grain_boundaries", "cbm", "vbm", "is_gap_direct", "is_metal", "es_source_calc_id", "bandstructure", "dos", "dos_energy_up", "dos_energy_down", "is_magnetic", "ordering", "total_magnetization_normalized_vol", "total_magnetization_normalized_formula_units", "num_magnetic_sites", "num_unique_magnetic_sites", "types_of_magnetic_species", "bulk_modulus", "shear_modulus", "universal_anisotropy", "homogeneous_poisson", "e_total", "e_ionic", "e_electronic", "n", "e_ij_max", "weighted_surface_energy_EV_PER_ANG2", "weighted_surface_energy", "weighted_work_function", "surface_anisotropy", "shape_factor", "has_reconstructed", "possible_species", "has_props", "theoretical", "database_IDs"]}