{
  "builder_meta": null,
  "nsites": null,
  "elements": null,
  "nelements": null,
  "composition": null,
  "composition_reduced": null,
  "formula_pretty": "In2Br3",
  "formula_anonymous": "A2B3",
  "chemsys": null,
  "volume": 2978.489589541353,
  "density": 4.186662622920037,
  "density_atomic": 37.23111986926691,
  "symmetry": null,
  "property_name": null,
  "material_id": "mp-685014",
  "deprecated": null,
  "deprecation_reasons": null,
  "last_updated": null,
  "origins": null,
  "warnings": null,
  "structure": {
    "@module": "pymatgen.core.structure",
    "@class": "Structure",
    "charge": 0,
    "lattice": {
      "matrix": [
        [13.23699, 0.0, 0.0],
        [0.0, 13.405726, 0.0],
        [0.0, 0.0, 16.784813]
      ],
      "pbc": [true, true, true],
      "a": 13.23699,
      "b": 13.405726,
      "c": 16.784813,
      "alpha": 90.0,
      "beta": 90.0,
      "gamma": 90.0,
      "volume": 2978.489589541353
    },
    "properties": {},
    "sites": [
      {
        "species": [{ "element": "In", "occu": 1 }],
        "abc": [0.773061999999999, 0.823792, 0.748365],
        "properties": { "magmom": -0.0 },
        "label": "In",
        "xyz": [10.233013963379987, 11.043529832991998, 12.561166580744999]
      },
      {
        "species": [{ "element": "In", "occu": 1 }],
        "abc": [0.785631, 0.511315, 0.246783],
        "properties": { "magmom": -0.0 },
        "label": "In",
        "xyz": [10.39938969069, 6.854548789689999, 4.142206506579]
      },
      {
        "species": [{ "element": "In", "occu": 1 }],
        "abc": [0.860679, 0.194763, 0.669096],
        "properties": { "magmom": -0.0 },
        "label": "In",
        "xyz": [11.39279931621, 2.610939412938, 11.230651239048001]
      },
      {
        "species": [{ "element": "In", "occu": 1 }],
        "abc": [0.866428, 0.193392999999999, 0.835248999999999],
        "properties": { "magmom": -0.0 },
        "label": "In",
        "xyz": [11.46889877172, 2.5925735683179867, 14.019498273436984]
      },
      {
        "species": [{ "element": "In", "occu": 1 }],
        "abc": [0.896895, 0.520031999999999, 0.9499900000000001],
        "properties": { "magmom": 0.0 },
        "label": "In",
        "xyz": [11.87219014605, 6.971406503231987, 15.945404501870001]
      },
      {
        "species": [{ "element": "In", "occu": 1 }],
        "abc": [0.938234, 0.893679, 0.054964],
        "properties": { "magmom": 0.0 },
        "label": "In",
        "xyz": [12.419394075660001, 11.980415805954, 0.922560461732]
      },
      {
        "species": [{ "element": "In", "occu": 1 }],
        "abc": [0.929891999999999, 0.8819600000000001, 0.441248],
        "properties": { "magmom": 0.0 },
        "label": "In",
        "xyz": [12.308971105079987, 11.823314102960001, 7.406265166623999]
      },
      {
        "species": [{ "element": "In", "occu": 1 }],
        "abc": [0.939302, 0.65232, 0.249971],
        "properties": { "magmom": -0.0 },
        "label": "In",
        "xyz": [12.43353118098, 8.74482318432, 4.195716490423]
      },
      {
        "species": [{ "element": "In", "occu": 1 }],
        "abc": [0.060697999999999, 0.15232, 0.250029],
        "properties": { "magmom": -0.0 },
        "label": "In",
        "xyz": [0.8034588190199868, 2.04196018432, 4.196690009577]
      },
      {
        "species": [{ "element": "In", "occu": 1 }],
        "abc": [0.070108, 0.38196, 0.058752],
        "properties": { "magmom": 0.0 },
        "label": "In",
        "xyz": [0.9280188949200001, 5.12045110296, 0.986141333376]
      },
      {
        "species": [{ "element": "In", "occu": 1 }],
        "abc": [0.061765999999999, 0.393679, 0.445036],
        "properties": { "magmom": 0.0 },
        "label": "In",
        "xyz": [0.8175959243399868, 5.277552805954, 7.469846038268]
      },
      {
        "species": [{ "element": "In", "occu": 1 }],
        "abc": [0.103105, 0.020031999999999002, 0.55001],
        "properties": { "magmom": 0.0 },
        "label": "In",
        "xyz": [1.3647998539500001, 0.2685435032319866, 9.23181499813]
      },
      {
        "species": [{ "element": "In", "occu": 1 }],
        "abc": [0.133572, 0.693392999999999, 0.664751],
        "properties": { "magmom": -0.0 },
        "label": "In",
        "xyz": [1.76809122828, 9.295436568317987, 11.157721226563]
      },
      {
        "species": [{ "element": "In", "occu": 1 }],
        "abc": [0.139321, 0.694763, 0.830904],
        "properties": { "magmom": -0.0 },
        "label": "In",
        "xyz": [1.8441906837900002, 9.313802412938, 13.946568260951999]
      },
      {
        "species": [{ "element": "In", "occu": 1 }],
        "abc": [0.214369, 0.011314999999999001, 0.253216999999999],
        "properties": { "magmom": -0.0 },
        "label": "In",
        "xyz": [2.83760030931, 0.1516857896899866, 4.250199993420984]
      },
      {
        "species": [{ "element": "In", "occu": 1 }],
        "abc": [0.226938, 0.323791999999999, 0.751634999999999],
        "properties": { "magmom": -0.0 },
        "label": "In",
        "xyz": [3.00397603662, 4.340666832991987, 12.616052919254983]
      },
      {
        "species": [{ "element": "In", "occu": 1 }],
        "abc": [0.273061999999999, 0.676207999999999, 0.251635],
        "properties": { "magmom": -0.0 },
        "label": "In",
        "xyz": [3.6145189633799872, 9.065059167007986, 4.223646419255]
      },
      {
        "species": [{ "element": "In", "occu": 1 }],
        "abc": [0.285630999999999, 0.988684999999999, 0.753216999999999],
        "properties": { "magmom": -0.0 },
        "label": "In",
        "xyz": [3.7808946906899874, 13.254040210309986, 12.642606493420983]
      },
      {
        "species": [{ "element": "In", "occu": 1 }],
        "abc": [0.366428, 0.306606999999999, 0.164750999999999],
        "properties": { "magmom": -0.0 },
        "label": "In",
        "xyz": [4.85040377172, 4.110289431681987, 2.765314726562983]
      },
      {
        "species": [{ "element": "In", "occu": 1 }],
        "abc": [0.36067899999999903, 0.305237, 0.330904],
        "properties": { "magmom": -0.0 },
        "label": "In",
        "xyz": [4.774304316209987, 4.091923587061999, 5.554161760952]
      },
      {
        "species": [{ "element": "In", "occu": 1 }],
        "abc": [0.396895, 0.979968, 0.050010000000000006],
        "properties": { "magmom": 0.0 },
        "label": "In",
        "xyz": [5.25369514605, 13.137182496767998, 0.8394084981300001]
      },
      {
        "species": [{ "element": "In", "occu": 1 }],
        "abc": [0.438233999999999, 0.606321, 0.945036],
        "properties": { "magmom": 0.0 },
        "label": "In",
        "xyz": [5.800899075659987, 8.128173194046, 15.862252538267999]
      },
      {
        "species": [{ "element": "In", "occu": 1 }],
        "abc": [0.429892, 0.61804, 0.558752],
        "properties": { "magmom": 0.0 },
        "label": "In",
        "xyz": [5.69047610508, 8.28527489704, 9.378547833376]
      },
      {
        "species": [{ "element": "In", "occu": 1 }],
        "abc": [0.439301999999999, 0.8476800000000001, 0.750029],
        "properties": { "magmom": -0.0 },
        "label": "In",
        "xyz": [5.8150361809799875, 11.36376581568, 12.589096509576999]
      },
      {
        "species": [{ "element": "In", "occu": 1 }],
        "abc": [0.560698, 0.34768000000000004, 0.749970999999999],
        "properties": { "magmom": -0.0 },
        "label": "In",
        "xyz": [7.4219538190200005, 4.66090281568, 12.588122990422985]
      },
      {
        "species": [{ "element": "In", "occu": 1 }],
        "abc": [0.570108, 0.11804, 0.941248],
        "properties": { "magmom": 0.0 },
        "label": "In",
        "xyz": [7.5465138949199995, 1.58241189704, 15.798671666624]
      },
      {
        "species": [{ "element": "In", "occu": 1 }],
        "abc": [0.561766, 0.106321, 0.554964],
        "properties": { "magmom": 0.0 },
        "label": "In",
        "xyz": [7.43609092434, 1.425310194046, 9.314966961732]
      },
      {
        "species": [{ "element": "In", "occu": 1 }],
        "abc": [0.603105, 0.479968, 0.44999000000000006],
        "properties": { "magmom": 0.0 },
        "label": "In",
        "xyz": [7.98329485395, 6.4343194967679995, 7.552998001870001]
      },
      {
        "species": [{ "element": "In", "occu": 1 }],
        "abc": [0.639320999999999, 0.805237, 0.169096],
        "properties": { "magmom": -0.0 },
        "label": "In",
        "xyz": [8.462685683789987, 10.794786587062, 2.8382447390479997]
      },
      {
        "species": [{ "element": "In", "occu": 1 }],
        "abc": [0.633572, 0.806607, 0.335248999999999],
        "properties": { "magmom": -0.0 },
        "label": "In",
        "xyz": [8.38658622828, 10.813152431682, 5.627091773436984]
      },
      {
        "species": [{ "element": "In", "occu": 1 }],
        "abc": [0.714368999999999, 0.488685, 0.746783],
        "properties": { "magmom": -0.0 },
        "label": "In",
        "xyz": [9.456095309309987, 6.55117721031, 12.534613006578999]
      },
      {
        "species": [{ "element": "In", "occu": 1 }],
        "abc": [0.726938, 0.176208, 0.248365],
        "properties": { "magmom": -0.0 },
        "label": "In",
        "xyz": [9.62247103662, 2.362196167008, 4.168760080745]
      },
      {
        "species": [{ "element": "Br", "occu": 1 }],
        "abc": [0.760743, 0.698882999999999, 0.080572999999999],
        "properties": { "magmom": -0.0 },
        "label": "Br",
        "xyz": [10.06994748357, 9.369034004057987, 1.3524027378489833]
      },
      {
        "species": [{ "element": "Br", "occu": 1 }],
        "abc": [0.758254, 0.697805, 0.419813999999999],
        "properties": { "magmom": -0.0 },
        "label": "Br",
        "xyz": [10.03700061546, 9.35458263143, 7.046499484781983]
      },
      {
        "species": [{ "element": "Br", "occu": 1 }],
        "abc": [0.809283, 0.387947999999999, 0.128457],
        "properties": { "magmom": 0.0 },
        "label": "Br",
        "xyz": [10.71247097817, 5.200724590247987, 2.1561267235409995]
      },
      {
        "species": [{ "element": "Br", "occu": 1 }],
        "abc": [0.803484, 0.392924, 0.37388000000000005],
        "properties": { "magmom": 0.0 },
        "label": "Br",
        "xyz": [10.635709673160001, 5.267431482824, 6.27550588444]
      },
      {
        "species": [{ "element": "Br", "occu": 1 }],
        "abc": [0.827546999999999, 0.0176, 0.604669],
        "properties": { "magmom": 0.0 },
        "label": "Br",
        "xyz": [10.954231363529988, 0.2359407776, 10.149256091897]
      },
      {
        "species": [{ "element": "Br", "occu": 1 }],
        "abc": [0.8235600000000001, 0.016458999999999002, 0.894795],
        "properties": { "magmom": -0.0 },
        "label": "Br",
        "xyz": [10.901455484400001, 0.22064484423398661, 15.018966748335]
      },
      {
        "species": [{ "element": "Br", "occu": 1 }],
        "abc": [0.909947, 0.848243, 0.249700999999999],
        "properties": { "magmom": 0.0 },
        "label": "Br",
        "xyz": [12.04495933953, 11.371313239417999, 4.191184590912983]
      },
      {
        "species": [{ "element": "Br", "occu": 1 }],
        "abc": [0.908887, 0.460636999999999, 0.753602],
        "properties": { "magmom": 0.0 },
        "label": "Br",
        "xyz": [12.03092813013, 6.175173407461987, 12.649068646426]
      },
      {
        "species": [{ "element": "Br", "occu": 1 }],
        "abc": [0.938322999999999, 0.132207, 0.127114],
        "properties": { "magmom": 0.0 },
        "label": "Br",
        "xyz": [12.420572167769988, 1.7723308172819998, 2.133584719682]
      },
      {
        "species": [{ "element": "Br", "occu": 1 }],
        "abc": [0.939777, 0.132825, 0.374044999999999],
        "properties": { "magmom": 0.0 },
        "label": "Br",
        "xyz": [12.43981875123, 1.7806155559499999, 6.278275378584984]
      },
      {
        "species": [{ "element": "Br", "occu": 1 }],
        "abc": [0.958178, 0.740862999999999, 0.605642999999999],
        "properties": { "magmom": 0.0 },
        "label": "Br",
        "xyz": [12.68339260422, 9.931806381537987, 10.165604499758985]
      },
      {
        "species": [{ "element": "Br", "occu": 1 }],
        "abc": [0.959406, 0.738174, 0.892791],
        "properties": { "magmom": -0.0 },
        "label": "Br",
        "xyz": [12.699647627940001, 9.895758384324, 14.985329983083]
      },
      {
        "species": [{ "element": "Br", "occu": 1 }],
        "abc": [0.041822, 0.240863, 0.894357],
        "properties": { "magmom": 0.0 },
        "label": "Br",
        "xyz": [0.55359739578, 3.228943381538, 15.011615000241]
      },
      {
        "species": [{ "element": "Br", "occu": 1 }],
        "abc": [0.040594, 0.238174, 0.607209],
        "properties": { "magmom": -0.0 },
        "label": "Br",
        "xyz": [0.53734237206, 3.1928953843239998, 10.191889516917]
      },
      {
        "species": [{ "element": "Br", "occu": 1 }],
        "abc": [0.060223, 0.632825, 0.125954999999999],
        "properties": { "magmom": 0.0 },
        "label": "Br",
        "xyz": [0.79717124877, 8.483478555949999, 2.1141311214149834]
      },
      {
        "species": [{ "element": "Br", "occu": 1 }],
        "abc": [0.061676999999999, 0.632207, 0.372886],
        "properties": { "magmom": 0.0 },
        "label": "Br",
        "xyz": [0.8164178322299869, 8.475193817282, 6.258821780318]
      },
      {
        "species": [{ "element": "Br", "occu": 1 }],
        "abc": [0.091113, 0.960637, 0.746398],
        "properties": { "magmom": 0.0 },
        "label": "Br",
        "xyz": [1.20606186987, 12.878036407462, 12.528150853574]
      },
      {
        "species": [{ "element": "Br", "occu": 1 }],
        "abc": [0.090053, 0.348242999999999, 0.250299],
        "properties": { "magmom": 0.0 },
        "label": "Br",
        "xyz": [1.19203066047, 4.668450239417987, 4.201221909087]
      },
      {
        "species": [{ "element": "Br", "occu": 1 }],
        "abc": [0.172453, 0.5176000000000001, 0.895331],
        "properties": { "magmom": 0.0 },
        "label": "Br",
        "xyz": [2.28275863647, 6.9388037776000004, 15.027963408103]
      },
      {
        "species": [{ "element": "Br", "occu": 1 }],
        "abc": [0.17644, 0.516459, 0.605205],
        "properties": { "magmom": -0.0 },
        "label": "Br",
        "xyz": [2.3355345156000005, 6.923507844234, 10.158252751665]
      },
      {
        "species": [{ "element": "Br", "occu": 1 }],
        "abc": [0.196516, 0.892923999999999, 0.12612],
        "properties": { "magmom": 0.0 },
        "label": "Br",
        "xyz": [2.60128032684, 11.970294482823986, 2.11690061556]
      },
      {
        "species": [{ "element": "Br", "occu": 1 }],
        "abc": [0.190717, 0.887948, 0.371542999999999],
        "properties": { "magmom": 0.0 },
        "label": "Br",
        "xyz": [2.52451902183, 11.903587590248, 6.236279776458983]
      },
      {
        "species": [{ "element": "Br", "occu": 1 }],
        "abc": [0.241746, 0.197804999999999, 0.080186],
        "properties": { "magmom": -0.0 },
        "label": "Br",
        "xyz": [3.19998938454, 2.6517196314299865, 1.345907015218]
      },
      {
        "species": [{ "element": "Br", "occu": 1 }],
        "abc": [0.239257, 0.198883, 0.419427],
        "properties": { "magmom": -0.0 },
        "label": "Br",
        "xyz": [3.16704251643, 2.666171004058, 7.040003762151]
      },
      {
        "species": [{ "element": "Br", "occu": 1 }],
        "abc": [0.258254, 0.802195, 0.580186],
        "properties": { "magmom": -0.0 },
        "label": "Br",
        "xyz": [3.41850561546, 10.75400636857, 9.738313515218]
      },
      {
        "species": [{ "element": "Br", "occu": 1 }],
        "abc": [0.260743, 0.801117, 0.919427],
        "properties": { "magmom": -0.0 },
        "label": "Br",
        "xyz": [3.4514524835700002, 10.739554995942, 15.432410262151]
      },
      {
        "species": [{ "element": "Br", "occu": 1 }],
        "abc": [0.303484, 0.107075999999999, 0.62612],
        "properties": { "magmom": 0.0 },
        "label": "Br",
        "xyz": [4.01721467316, 1.4354315171759866, 10.50930711556]
      },
      {
        "species": [{ "element": "Br", "occu": 1 }],
        "abc": [0.309283, 0.112052, 0.871543],
        "properties": { "magmom": 0.0 },
        "label": "Br",
        "xyz": [4.09397597817, 1.5021384097519999, 14.628686276459]
      },
      {
        "species": [{ "element": "Br", "occu": 1 }],
        "abc": [0.327547, 0.4824, 0.395331],
        "properties": { "magmom": 0.0 },
        "label": "Br",
        "xyz": [4.33573636353, 6.4669222224, 6.635556908103]
      },
      {
        "species": [{ "element": "Br", "occu": 1 }],
        "abc": [0.32356, 0.483541, 0.10520499999999901],
        "properties": { "magmom": -0.0 },
        "label": "Br",
        "xyz": [4.2829604844, 6.482218155766, 1.7658462516649833]
      },
      {
        "species": [{ "element": "Br", "occu": 1 }],
        "abc": [0.409947, 0.651756999999999, 0.750298999999999],
        "properties": { "magmom": 0.0 },
        "label": "Br",
        "xyz": [5.42646433953, 8.737275760581987, 12.593628409086984]
      },
      {
        "species": [{ "element": "Br", "occu": 1 }],
        "abc": [0.408887, 0.039362999999999, 0.246397999999999],
        "properties": { "magmom": 0.0 },
        "label": "Br",
        "xyz": [5.41243313013, 0.5276895925379866, 4.135744353573983]
      },
      {
        "species": [{ "element": "Br", "occu": 1 }],
        "abc": [0.439777, 0.367175, 0.625954999999999],
        "properties": { "magmom": 0.0 },
        "label": "Br",
        "xyz": [5.82132375123, 4.92224744405, 10.506537621414983]
      },
      {
        "species": [{ "element": "Br", "occu": 1 }],
        "abc": [0.438322999999999, 0.367793, 0.872885999999999],
        "properties": { "magmom": 0.0 },
        "label": "Br",
        "xyz": [5.802077167769987, 4.930532182717999, 14.651228280317984]
      },
      {
        "species": [{ "element": "Br", "occu": 1 }],
        "abc": [0.458178, 0.759137, 0.394356999999999],
        "properties": { "magmom": 0.0 },
        "label": "Br",
        "xyz": [6.06489760422, 10.176782618462, 6.619208500240983]
      },
      {
        "species": [{ "element": "Br", "occu": 1 }],
        "abc": [0.459406, 0.761826, 0.107209],
        "properties": { "magmom": -0.0 },
        "label": "Br",
        "xyz": [6.08115262794, 10.212830615676, 1.799483016917]
      },
      {
        "species": [{ "element": "Br", "occu": 1 }],
        "abc": [0.541822, 0.259137, 0.105643],
        "properties": { "magmom": 0.0 },
        "label": "Br",
        "xyz": [7.172092395780001, 3.473919618462, 1.773197999759]
      },
      {
        "species": [{ "element": "Br", "occu": 1 }],
        "abc": [0.540594, 0.261826, 0.392791],
        "properties": { "magmom": -0.0 },
        "label": "Br",
        "xyz": [7.155837372060001, 3.509967615676, 6.592923483083]
      },
      {
        "species": [{ "element": "Br", "occu": 1 }],
        "abc": [0.560223, 0.867174999999999, 0.874045],
        "properties": { "magmom": 0.0 },
        "label": "Br",
        "xyz": [7.415666248770001, 11.625110444049987, 14.670681878584999]
      },
      {
        "species": [{ "element": "Br", "occu": 1 }],
        "abc": [0.561677, 0.867792999999999, 0.627114],
        "properties": { "magmom": 0.0 },
        "label": "Br",
        "xyz": [7.43491283223, 11.633395182717987, 10.525991219681998]
      },
      {
        "species": [{ "element": "Br", "occu": 1 }],
        "abc": [0.591113, 0.539362999999999, 0.253602],
        "properties": { "magmom": 0.0 },
        "label": "Br",
        "xyz": [7.82455686987, 7.230552592537987, 4.256662146426]
      },
      {
        "species": [{ "element": "Br", "occu": 1 }],
        "abc": [0.590052999999999, 0.151757, 0.749701],
        "properties": { "magmom": 0.0 },
        "label": "Br",
        "xyz": [7.810525660469987, 2.034412760582, 12.583591090912998]
      },
      {
        "species": [{ "element": "Br", "occu": 1 }],
        "abc": [0.67644, 0.983541, 0.394795],
        "properties": { "magmom": -0.0 },
        "label": "Br",
        "xyz": [8.9540295156, 13.185081155766, 6.626560248335]
      },
      {
        "species": [{ "element": "Br", "occu": 1 }],
        "abc": [0.672453, 0.9824, 0.104669],
        "properties": { "magmom": 0.0 },
        "label": "Br",
        "xyz": [8.901253636469999, 13.1697852224, 1.756849591897]
      },
      {
        "species": [{ "element": "Br", "occu": 1 }],
        "abc": [0.696515999999999, 0.607076, 0.8738800000000001],
        "properties": { "magmom": 0.0 },
        "label": "Br",
        "xyz": [9.219775326839988, 8.138294517176, 14.667912384440001]
      },
      {
        "species": [{ "element": "Br", "occu": 1 }],
        "abc": [0.690716999999999, 0.612051999999999, 0.628456999999999],
        "properties": { "magmom": 0.0 },
        "label": "Br",
        "xyz": [9.143014021829988, 8.205001409751986, 10.548533223540984]
      },
      {
        "species": [{ "element": "Br", "occu": 1 }],
        "abc": [0.739256999999999, 0.301116999999999, 0.580573],
        "properties": { "magmom": -0.0 },
        "label": "Br",
        "xyz": [9.785537516429988, 4.036691995941987, 9.744809237849]
      },
      {
        "species": [{ "element": "Br", "occu": 1 }],
        "abc": [0.741746, 0.302195, 0.919813999999999],
        "properties": { "magmom": -0.0 },
        "label": "Br",
        "xyz": [9.818484384540001, 4.05114336857, 15.438905984781984]
      }
    ]
  },
  "task_ids": null,
  "uncorrected_energy_per_atom": null,
  "energy_per_atom": -3.154800182875,
  "formation_energy_per_atom": -1.068962764541666,
  "energy_above_hull": 0.0,
  "is_stable": true,
  "equilibrium_reaction_energy_per_atom": null,
  "decomposes_to": null,
  "xas": null,
  "grain_boundaries": null,
  "band_gap": 2.0644,
  "cbm": null,
  "vbm": null,
  "efermi": 2.56267047,
  "is_gap_direct": null,
  "is_metal": null,
  "es_source_calc_id": null,
  "bandstructure": null,
  "dos": null,
  "dos_energy_up": null,
  "dos_energy_down": null,
  "is_magnetic": null,
  "ordering": null,
  "total_magnetization": 0.0038824999999990005,
  "total_magnetization_normalized_vol": null,
  "total_magnetization_normalized_formula_units": null,
  "num_magnetic_sites": null,
  "num_unique_magnetic_sites": null,
  "types_of_magnetic_species": null,
  "bulk_modulus": null,
  "shear_modulus": null,
  "universal_anisotropy": null,
  "homogeneous_poisson": null,
  "e_total": null,
  "e_ionic": null,
  "e_electronic": null,
  "n": null,
  "e_ij_max": null,
  "weighted_surface_energy_EV_PER_ANG2": null,
  "weighted_surface_energy": null,
  "weighted_work_function": null,
  "surface_anisotropy": null,
  "shape_factor": null,
  "has_reconstructed": null,
  "possible_species": null,
  "has_props": null,
  "theoretical": null,
  "database_IDs": null,
  "fields_not_requested": [
    "builder_meta",
    "nsites",
    "elements",
    "nelements",
    "composition",
    "composition_reduced",
    "chemsys",
    "symmetry",
    "property_name",
    "deprecated",
    "deprecation_reasons",
    "last_updated",
    "origins",
    "warnings",
    "task_ids",
    "uncorrected_energy_per_atom",
    "equilibrium_reaction_energy_per_atom",
    "decomposes_to",
    "xas",
    "grain_boundaries",
    "cbm",
    "vbm",
    "is_gap_direct",
    "is_metal",
    "es_source_calc_id",
    "bandstructure",
    "dos",
    "dos_energy_up",
    "dos_energy_down",
    "is_magnetic",
    "ordering",
    "total_magnetization_normalized_vol",
    "total_magnetization_normalized_formula_units",
    "num_magnetic_sites",
    "num_unique_magnetic_sites",
    "types_of_magnetic_species",
    "bulk_modulus",
    "shear_modulus",
    "universal_anisotropy",
    "homogeneous_poisson",
    "e_total",
    "e_ionic",
    "e_electronic",
    "n",
    "e_ij_max",
    "weighted_surface_energy_EV_PER_ANG2",
    "weighted_surface_energy",
    "weighted_work_function",
    "surface_anisotropy",
    "shape_factor",
    "has_reconstructed",
    "possible_species",
    "has_props",
    "theoretical",
    "database_IDs"
  ]
}
