{"builder_meta": null, "nsites": null, "elements": null, "nelements": null, "composition": null, "composition_reduced": null, "formula_pretty": "In2Bi", "formula_anonymous": "AB2", "chemsys": null, "volume": 174.19311599093172, "density": 8.362439161939886, "density_atomic": 29.032185998488618, "symmetry": null, "property_name": null, "material_id": "mp-23188", "deprecated": null, "deprecation_reasons": null, "last_updated": null, "origins": null, "warnings": null, "structure": {"@module": "pymatgen.core.structure", "@class": "Structure", "charge": 0, "lattice": {"matrix": [[2.77959574, -4.81440236, -0.0], [2.77959574, 4.81440236, -0.0], [0.0, 0.0, 6.50844099]], "pbc": [true, true, true], "a": 5.559192617799793, "b": 5.559192617799793, "c": 6.50844099, "alpha": 90.0, "beta": 90.0, "gamma": 120.00001354085585, "volume": 174.19311599093172}, "properties": {}, "sites": [{"species": [{"element": "In", "occu": 1}], "abc": [-0.0, 0.0, 0.5], "properties": {"magmom": 0.0}, "label": "In", "xyz": [0.0, 0.0, 3.254220495]}, {"species": [{"element": "In", "occu": 1}], "abc": [0.0, 0.0, 0.0], "properties": {"magmom": 0.0}, "label": "In", "xyz": [0.0, 0.0, 0.0]}, {"species": [{"element": "In", "occu": 1}], "abc": [0.333333, 0.666667, 0.75], "properties": {"magmom": 0.001}, "label": "In", "xyz": [2.77959574, 1.6048039962682399, 4.8813307425]}, {"species": [{"element": "In", "occu": 1}], "abc": [0.666667, 0.333333, 0.25], "properties": {"magmom": 0.001}, "label": "In", "xyz": [2.77959574, -1.6048039962682399, 1.6271102475]}, {"species": [{"element": "Bi", "occu": 1}], "abc": [0.333333, 0.666667, 0.25], "properties": {"magmom": 0.002}, "label": "Bi", "xyz": [2.77959574, 1.6048039962682399, 1.6271102475]}, {"species": [{"element": "Bi", "occu": 1}], "abc": [0.666667, 0.333333, 0.75], "properties": {"magmom": 0.002}, "label": "Bi", "xyz": [2.77959574, -1.6048039962682399, 4.8813307425]}]}, "task_ids": null, "uncorrected_energy_per_atom": null, "energy_per_atom": -34.518654471666665, "formation_energy_per_atom": 0.034497030000001004, "energy_above_hull": 0.08222195500000101, "is_stable": false, "equilibrium_reaction_energy_per_atom": null, "decomposes_to": null, "xas": null, "grain_boundaries": null, "band_gap": 0.0, "cbm": null, "vbm": null, "efermi": 6.20993599, "is_gap_direct": null, "is_metal": null, "es_source_calc_id": null, "bandstructure": null, "dos": null, "dos_energy_up": null, "dos_energy_down": null, "is_magnetic": null, "ordering": null, "total_magnetization": 0.0089301, "total_magnetization_normalized_vol": null, "total_magnetization_normalized_formula_units": null, "num_magnetic_sites": null, "num_unique_magnetic_sites": null, "types_of_magnetic_species": null, "bulk_modulus": null, "shear_modulus": null, "universal_anisotropy": null, "homogeneous_poisson": null, "e_total": null, "e_ionic": null, "e_electronic": null, "n": null, "e_ij_max": null, "weighted_surface_energy_EV_PER_ANG2": null, "weighted_surface_energy": null, "weighted_work_function": null, "surface_anisotropy": null, "shape_factor": null, "has_reconstructed": null, "possible_species": null, "has_props": null, "theoretical": null, "database_IDs": null, "fields_not_requested": ["builder_meta", "nsites", "elements", "nelements", "composition", "composition_reduced", "chemsys", "symmetry", "property_name", "deprecated", "deprecation_reasons", "last_updated", "origins", "warnings", "task_ids", "uncorrected_energy_per_atom", "equilibrium_reaction_energy_per_atom", "decomposes_to", "xas", "grain_boundaries", "cbm", "vbm", "is_gap_direct", "is_metal", "es_source_calc_id", "bandstructure", "dos", "dos_energy_up", "dos_energy_down", "is_magnetic", "ordering", "total_magnetization_normalized_vol", "total_magnetization_normalized_formula_units", "num_magnetic_sites", "num_unique_magnetic_sites", "types_of_magnetic_species", "bulk_modulus", "shear_modulus", "universal_anisotropy", "homogeneous_poisson", "e_total", "e_ionic", "e_electronic", "n", "e_ij_max", "weighted_surface_energy_EV_PER_ANG2", "weighted_surface_energy", "weighted_work_function", "surface_anisotropy", "shape_factor", "has_reconstructed", "possible_species", "has_props", "theoretical", "database_IDs"]}