{
  "builder_meta": null,
  "nsites": null,
  "elements": null,
  "nelements": null,
  "composition": null,
  "composition_reduced": null,
  "formula_pretty": "In2Co",
  "formula_anonymous": "AB2",
  "chemsys": null,
  "volume": 216.97974286810395,
  "density": 8.833643461474539,
  "density_atomic": 18.08164523900866,
  "symmetry": null,
  "property_name": null,
  "material_id": "mp-20296",
  "deprecated": null,
  "deprecation_reasons": null,
  "last_updated": null,
  "origins": null,
  "warnings": null,
  "structure": {
    "@module": "pymatgen.core.structure",
    "@class": "Structure",
    "charge": 0,
    "lattice": {
      "matrix": [
        [4.95225545, -0.0001591, 1.46105799],
        [2.47599933, 4.74703213, 0.73046834],
        [-0.043796180000000004, -0.00012165, 9.21676012]
      ],
      "pbc": [true, true, true],
      "a": 5.163286213014959,
      "b": 5.403560929716176,
      "c": 9.216864175510223,
      "alpha": 82.35745832786412,
      "beta": 73.83467858838092,
      "gamma": 61.463796362406526,
      "volume": 216.97974286810395
    },
    "properties": {},
    "sites": [
      {
        "species": [{ "element": "In", "occu": 1 }],
        "abc": [0.28318445000000003, 0.24979426000000002, 0.43322368],
        "properties": { "magmom": 0.0 },
        "label": "In",
        "xyz": [2.001918613996056, 1.185683621802907, 4.589134438623626]
      },
      {
        "species": [{ "element": "In", "occu": 1 }],
        "abc": [0.466968499999999, 0.24980511, 0.06688004],
        "properties": { "magmom": -0.0 },
        "label": "In",
        "xyz": [2.9281354938236492, 1.1857504527629683, 1.4811600675245358]
      },
      {
        "species": [{ "element": "In", "occu": 1 }],
        "abc": [0.71681555, 0.7502057400000001, 0.56677632],
        "properties": { "magmom": 0.0 },
        "label": "In",
        "xyz": [5.382539986003945, 3.5610677581970935, 6.819152011376374]
      },
      {
        "species": [{ "element": "In", "occu": 1 }],
        "abc": [0.5330315, 0.7501948900000001, 0.93311996],
        "properties": { "magmom": -0.0 },
        "label": "In",
        "xyz": [4.456323106176345, 3.561000927237032, 9.927126382475462]
      },
      {
        "species": [{ "element": "In", "occu": 1 }],
        "abc": [0.28173769, 0.43668813, 0.74985598],
        "properties": { "magmom": 0.0 },
        "label": "In",
        "xyz": [2.443635700597707, 2.072836539453171, 7.641864648684965]
      },
      {
        "species": [{ "element": "In", "occu": 1 }],
        "abc": [0.96853212, 0.06298244, 0.74984971],
        "properties": { "magmom": 0.0 },
        "label": "In",
        "xyz": [4.919522396139712, 0.2987343536282837, 8.372273174015154]
      },
      {
        "species": [{ "element": "In", "occu": 1 }],
        "abc": [0.7182623100000001, 0.56331187, 0.25014402],
        "properties": { "magmom": 0.0 },
        "label": "In",
        "xyz": [4.940822899402294, 2.6739148405468294, 3.766421801315036]
      },
      {
        "species": [{ "element": "In", "occu": 1 }],
        "abc": [0.031467880000000004, 0.93701756, 0.25015029],
        "properties": { "magmom": 0.0 },
        "label": "In",
        "xyz": [2.4649362038602884, 4.4480170263717165, 3.0360132759848466]
      },
      {
        "species": [{ "element": "Co", "occu": 1 }],
        "abc": [0.25404039, 0.74960658, 0.49231967],
        "properties": { "magmom": -0.0 },
        "label": "Co",
        "xyz": [3.0925365748563562, 3.5583062116055113, 5.456323916485454]
      },
      {
        "species": [{ "element": "Co", "occu": 1 }],
        "abc": [0.99632624, 0.74961689, 0.00771067],
        "properties": { "magmom": 0.0 },
        "label": "Co",
        "xyz": [6.789775271523451, 3.558296008512886, 2.074329214627401]
      },
      {
        "species": [{ "element": "Co", "occu": 1 }],
        "abc": [0.74595961, 0.25039342, 0.50768033],
        "properties": { "magmom": -0.0 },
        "label": "Co",
        "xyz": [4.291922025143643, 1.188445168394489, 5.951962533514546]
      },
      {
        "species": [{ "element": "Co", "occu": 1 }],
        "abc": [0.00367376, 0.25038311, 0.99228933],
        "properties": { "magmom": 0.0 },
        "label": "Co",
        "xyz": [0.594683328476549, 1.1884553714871138, 9.3339572353726]
      }
    ]
  },
  "task_ids": null,
  "uncorrected_energy_per_atom": null,
  "energy_per_atom": -19.387586626666668,
  "formation_energy_per_atom": 0.07621733666666501,
  "energy_above_hull": 0.090735557222217,
  "is_stable": false,
  "equilibrium_reaction_energy_per_atom": null,
  "decomposes_to": null,
  "xas": null,
  "grain_boundaries": null,
  "band_gap": 0.0,
  "cbm": null,
  "vbm": null,
  "efermi": 8.16168734,
  "is_gap_direct": null,
  "is_metal": null,
  "es_source_calc_id": null,
  "bandstructure": null,
  "dos": null,
  "dos_energy_up": null,
  "dos_energy_down": null,
  "is_magnetic": null,
  "ordering": null,
  "total_magnetization": 1e-6,
  "total_magnetization_normalized_vol": null,
  "total_magnetization_normalized_formula_units": null,
  "num_magnetic_sites": null,
  "num_unique_magnetic_sites": null,
  "types_of_magnetic_species": null,
  "bulk_modulus": null,
  "shear_modulus": null,
  "universal_anisotropy": null,
  "homogeneous_poisson": null,
  "e_total": null,
  "e_ionic": null,
  "e_electronic": null,
  "n": null,
  "e_ij_max": null,
  "weighted_surface_energy_EV_PER_ANG2": null,
  "weighted_surface_energy": null,
  "weighted_work_function": null,
  "surface_anisotropy": null,
  "shape_factor": null,
  "has_reconstructed": null,
  "possible_species": null,
  "has_props": null,
  "theoretical": null,
  "database_IDs": null,
  "fields_not_requested": [
    "builder_meta",
    "nsites",
    "elements",
    "nelements",
    "composition",
    "composition_reduced",
    "chemsys",
    "symmetry",
    "property_name",
    "deprecated",
    "deprecation_reasons",
    "last_updated",
    "origins",
    "warnings",
    "task_ids",
    "uncorrected_energy_per_atom",
    "equilibrium_reaction_energy_per_atom",
    "decomposes_to",
    "xas",
    "grain_boundaries",
    "cbm",
    "vbm",
    "is_gap_direct",
    "is_metal",
    "es_source_calc_id",
    "bandstructure",
    "dos",
    "dos_energy_up",
    "dos_energy_down",
    "is_magnetic",
    "ordering",
    "total_magnetization_normalized_vol",
    "total_magnetization_normalized_formula_units",
    "num_magnetic_sites",
    "num_unique_magnetic_sites",
    "types_of_magnetic_species",
    "bulk_modulus",
    "shear_modulus",
    "universal_anisotropy",
    "homogeneous_poisson",
    "e_total",
    "e_ionic",
    "e_electronic",
    "n",
    "e_ij_max",
    "weighted_surface_energy_EV_PER_ANG2",
    "weighted_surface_energy",
    "weighted_work_function",
    "surface_anisotropy",
    "shape_factor",
    "has_reconstructed",
    "possible_species",
    "has_props",
    "theoretical",
    "database_IDs"
  ]
}
