{"builder_meta": null, "nsites": null, "elements": null, "nelements": null, "composition": null, "composition_reduced": null, "formula_pretty": "In2Cl3", "formula_anonymous": "A2B3", "chemsys": null, "volume": 4790.590746713635, "density": 3.726857772202804, "density_atomic": 29.941192166960217, "symmetry": null, "property_name": null, "material_id": "mp-667324", "deprecated": null, "deprecation_reasons": null, "last_updated": null, "origins": null, "warnings": null, "structure": {"@module": "pymatgen.core.structure", "@class": "Structure", "charge": 0, "lattice": {"matrix": [[12.773422, 0.0, 0.0], [0.0, 14.743359, 0.0], [0.0, 0.0, 25.438141]], "pbc": [true, true, true], "a": 12.773422, "b": 14.743359, "c": 25.438141, "alpha": 90.0, "beta": 90.0, "gamma": 90.0, "volume": 4790.590746713635}, "properties": {}, "sites": [{"species": [{"element": "In", "occu": 1}], "abc": [0.257164, 0.079502999999999, 0.336254], "properties": {"magmom": 0.0}, "label": "In", "xyz": [3.284864295208, 1.1721412705769854, 8.553676663814]}, {"species": [{"element": "In", "occu": 1}], "abc": [0.410778, 0.368984, 0.75], "properties": {"magmom": 0.0}, "label": "In", "xyz": [5.247040742316, 5.440063577256, 19.07860575]}, {"species": [{"element": "In", "occu": 1}], "abc": [0.581214, 0.641524, 0.661349], "properties": {"magmom": 0.0}, "label": "In", "xyz": [7.424091694308, 9.458218639116, 16.823489112209]}, {"species": [{"element": "In", "occu": 1}], "abc": [0.078315, 0.378973, 0.054422], "properties": {"magmom": 0.0}, "label": "In", "xyz": [1.00035054393, 5.587334990307, 1.384394509502]}, {"species": [{"element": "In", "occu": 1}], "abc": [0.918786, 0.141523999999999, 0.338651], "properties": {"magmom": 0.0}, "label": "In", "xyz": [11.736041305692, 2.0865391391159855, 8.614651887791]}, {"species": [{"element": "In", "occu": 1}], "abc": [0.589222, 0.631016, 0.25], "properties": {"magmom": 0.0}, "label": "In", "xyz": [7.526381257684, 9.303295422744, 6.35953525]}, {"species": [{"element": "In", "occu": 1}], "abc": [0.078315, 0.378973, 0.445578], "properties": {"magmom": 0.0}, "label": "In", "xyz": [1.00035054393, 5.587334990307, 11.334675990498]}, {"species": [{"element": "In", "occu": 1}], "abc": [0.579747999999999, 0.172871, 0.845143], "properties": {"magmom": 0.0}, "label": "In", "xyz": [7.405365857655988, 2.548699213689, 21.498866799163]}, {"species": [{"element": "In", "occu": 1}], "abc": [0.257164, 0.079502999999999, 0.163746], "properties": {"magmom": 0.0}, "label": "In", "xyz": [3.284864295208, 1.1721412705769854, 4.165393836186]}, {"species": [{"element": "In", "occu": 1}], "abc": [0.414643999999999, 0.364965999999999, 0.529621], "properties": {"magmom": 0.0}, "label": "In", "xyz": [5.296422791767988, 5.380824760793986, 13.472573674561001]}, {"species": [{"element": "In", "occu": 1}], "abc": [0.268079, 0.107477999999999, 0.841113999999999], "properties": {"magmom": 0.0}, "label": "In", "xyz": [3.424286196338, 1.5845867386019854, 21.396376529073976]}, {"species": [{"element": "In", "occu": 1}], "abc": [0.231921, 0.607478, 0.341114], "properties": {"magmom": 0.0}, "label": "In", "xyz": [2.962424803662, 8.956266238602, 8.677306029074]}, {"species": [{"element": "In", "occu": 1}], "abc": [0.252898, 0.112358, 0.494932], "properties": {"magmom": 0.0}, "label": "In", "xyz": [3.2303728769560003, 1.656534330522, 12.590150001412]}, {"species": [{"element": "In", "occu": 1}], "abc": [0.918786, 0.141523999999999, 0.161349], "properties": {"magmom": 0.0}, "label": "In", "xyz": [11.736041305692, 2.0865391391159855, 4.104418612209]}, {"species": [{"element": "In", "occu": 1}], "abc": [0.768079, 0.392522, 0.658886], "properties": {"magmom": 0.0}, "label": "In", "xyz": [9.810997196337999, 5.787092761398, 16.760834970926002]}, {"species": [{"element": "In", "occu": 1}], "abc": [0.077304, 0.371925, 0.25], "properties": {"magmom": 0.0}, "label": "In", "xyz": [0.987436614288, 5.483423796075, 6.35953525]}, {"species": [{"element": "In", "occu": 1}], "abc": [0.742835999999999, 0.920497, 0.663746], "properties": {"magmom": 0.0}, "label": "In", "xyz": [9.488557704791988, 13.571217729423, 16.884464336186]}, {"species": [{"element": "In", "occu": 1}], "abc": [0.079748, 0.327129, 0.845143], "properties": {"magmom": 0.0}, "label": "In", "xyz": [1.018654857656, 4.822980286311, 21.498866799163]}, {"species": [{"element": "In", "occu": 1}], "abc": [0.421685, 0.878973, 0.554422], "properties": {"magmom": 0.0}, "label": "In", "xyz": [5.386360456069999, 12.959014490307, 14.103465009502]}, {"species": [{"element": "In", "occu": 1}], "abc": [0.421685, 0.878973, 0.945577999999999], "properties": {"magmom": 0.0}, "label": "In", "xyz": [5.386360456069999, 12.959014490307, 24.05374649049798]}, {"species": [{"element": "In", "occu": 1}], "abc": [0.079748, 0.327129, 0.654857], "properties": {"magmom": 0.0}, "label": "In", "xyz": [1.018654857656, 4.822980286311, 16.658344700837002]}, {"species": [{"element": "In", "occu": 1}], "abc": [0.420251999999999, 0.827129, 0.345143], "properties": {"magmom": 0.0}, "label": "In", "xyz": [5.368056142343987, 12.194659786311, 8.779796299163]}, {"species": [{"element": "In", "occu": 1}], "abc": [0.420251999999999, 0.827129, 0.154857], "properties": {"magmom": 0.0}, "label": "In", "xyz": [5.368056142343987, 12.194659786311, 3.939274200837]}, {"species": [{"element": "In", "occu": 1}], "abc": [0.742835999999999, 0.920497, 0.836253999999999], "properties": {"magmom": 0.0}, "label": "In", "xyz": [9.488557704791988, 13.571217729423, 21.27274716381398]}, {"species": [{"element": "In", "occu": 1}], "abc": [0.578315, 0.121027, 0.054422], "properties": {"magmom": 0.0}, "label": "In", "xyz": [7.387061543930001, 1.784344509693, 1.384394509502]}, {"species": [{"element": "In", "occu": 1}], "abc": [0.757164, 0.420496999999999, 0.336254], "properties": {"magmom": 0.0}, "label": "In", "xyz": [9.671575295208, 6.199538229422985, 8.553676663814]}, {"species": [{"element": "In", "occu": 1}], "abc": [0.578315, 0.121027, 0.445578], "properties": {"magmom": 0.0}, "label": "In", "xyz": [7.387061543930001, 1.784344509693, 11.334675990498]}, {"species": [{"element": "In", "occu": 1}], "abc": [0.268079, 0.107477999999999, 0.658886], "properties": {"magmom": 0.0}, "label": "In", "xyz": [3.424286196338, 1.5845867386019854, 16.760834970926002]}, {"species": [{"element": "In", "occu": 1}], "abc": [0.414643999999999, 0.364965999999999, 0.970379], "properties": {"magmom": 0.0}, "label": "In", "xyz": [5.296422791767988, 5.380824760793986, 24.684637825439]}, {"species": [{"element": "In", "occu": 1}], "abc": [0.752898, 0.387642, 0.005068], "properties": {"magmom": 0.0}, "label": "In", "xyz": [9.617083876956, 5.715145169477999, 0.128920498588]}, {"species": [{"element": "In", "occu": 1}], "abc": [0.752898, 0.387642, 0.494932], "properties": {"magmom": 0.0}, "label": "In", "xyz": [9.617083876956, 5.715145169477999, 12.590150001412]}, {"species": [{"element": "In", "occu": 1}], "abc": [0.579747999999999, 0.172871, 0.654857], "properties": {"magmom": 0.0}, "label": "In", "xyz": [7.405365857655988, 2.548699213689, 16.658344700837002]}, {"species": [{"element": "In", "occu": 1}], "abc": [0.757164, 0.420496999999999, 0.163746], "properties": {"magmom": 0.0}, "label": "In", "xyz": [9.671575295208, 6.199538229422985, 4.165393836186]}, {"species": [{"element": "In", "occu": 1}], "abc": [0.581214, 0.641524, 0.838650999999999], "properties": {"magmom": 0.0}, "label": "In", "xyz": [7.424091694308, 9.458218639116, 21.333722387790978]}, {"species": [{"element": "In", "occu": 1}], "abc": [0.247102, 0.612358, 0.994931999999999], "properties": {"magmom": 0.0}, "label": "In", "xyz": [3.1563381230439997, 9.028213830521999, 25.30922050141198]}, {"species": [{"element": "In", "occu": 1}], "abc": [0.231921, 0.607478, 0.158886], "properties": {"magmom": 0.0}, "label": "In", "xyz": [2.962424803662, 8.956266238602, 4.041764470926]}, {"species": [{"element": "In", "occu": 1}], "abc": [0.585356, 0.635034, 0.029620999999999002], "properties": {"magmom": 0.0}, "label": "In", "xyz": [7.476999208232, 9.362534239206, 0.7535031745609747]}, {"species": [{"element": "In", "occu": 1}], "abc": [0.585356, 0.635034, 0.470379], "properties": {"magmom": 0.0}, "label": "In", "xyz": [7.476999208232, 9.362534239206, 11.965567325439]}, {"species": [{"element": "In", "occu": 1}], "abc": [0.081214, 0.858475999999999, 0.661349], "properties": {"magmom": 0.0}, "label": "In", "xyz": [1.037380694308, 12.656819860883985, 16.823489112209]}, {"species": [{"element": "In", "occu": 1}], "abc": [0.418786, 0.358475999999999, 0.338651], "properties": {"magmom": 0.0}, "label": "In", "xyz": [5.349330305692, 5.285140360883985, 8.614651887791]}, {"species": [{"element": "In", "occu": 1}], "abc": [0.921685, 0.621027, 0.554422], "properties": {"magmom": 0.0}, "label": "In", "xyz": [11.77307145607, 9.156024009693, 14.103465009502]}, {"species": [{"element": "In", "occu": 1}], "abc": [0.914644, 0.135034, 0.970379], "properties": {"magmom": 0.0}, "label": "In", "xyz": [11.683133791768, 1.9908547392059999, 24.684637825439]}, {"species": [{"element": "In", "occu": 1}], "abc": [0.242836, 0.579503, 0.836253999999999], "properties": {"magmom": 0.0}, "label": "In", "xyz": [3.101846704792, 8.543820770577, 21.27274716381398]}, {"species": [{"element": "In", "occu": 1}], "abc": [0.731920999999999, 0.892521999999999, 0.341114], "properties": {"magmom": 0.0}, "label": "In", "xyz": [9.349135803661987, 13.158772261397985, 8.677306029074]}, {"species": [{"element": "In", "occu": 1}], "abc": [0.418786, 0.358475999999999, 0.161349], "properties": {"magmom": 0.0}, "label": "In", "xyz": [5.349330305692, 5.285140360883985, 4.104418612209]}, {"species": [{"element": "In", "occu": 1}], "abc": [0.920252, 0.672871, 0.154857], "properties": {"magmom": 0.0}, "label": "In", "xyz": [11.754767142343999, 9.920378713689, 3.939274200837]}, {"species": [{"element": "In", "occu": 1}], "abc": [0.747101999999999, 0.887641999999999, 0.505068], "properties": {"magmom": 0.0}, "label": "In", "xyz": [9.543049123043987, 13.086824669477986, 12.847990998588]}, {"species": [{"element": "In", "occu": 1}], "abc": [0.422695999999999, 0.871925, 0.75], "properties": {"magmom": 0.0}, "label": "In", "xyz": [5.399274385711988, 12.855103296074999, 19.07860575]}, {"species": [{"element": "In", "occu": 1}], "abc": [0.768079, 0.392522, 0.841113999999999], "properties": {"magmom": 0.0}, "label": "In", "xyz": [9.810997196337999, 5.787092761398, 21.396376529073976]}, {"species": [{"element": "In", "occu": 1}], "abc": [0.910778, 0.131016, 0.75], "properties": {"magmom": 0.0}, "label": "In", "xyz": [11.633751742315999, 1.931615922744, 19.07860575]}, {"species": [{"element": "In", "occu": 1}], "abc": [0.252898, 0.112358, 0.005068], "properties": {"magmom": 0.0}, "label": "In", "xyz": [3.2303728769560003, 1.656534330522, 0.128920498588]}, {"species": [{"element": "In", "occu": 1}], "abc": [0.577303999999999, 0.128075, 0.25], "properties": {"magmom": 0.0}, "label": "In", "xyz": [7.374147614287987, 1.8882557039249999, 6.35953525]}, {"species": [{"element": "In", "occu": 1}], "abc": [0.731920999999999, 0.892521999999999, 0.158886], "properties": {"magmom": 0.0}, "label": "In", "xyz": [9.349135803661987, 13.158772261397985, 4.041764470926]}, {"species": [{"element": "In", "occu": 1}], "abc": [0.747101999999999, 0.887641999999999, 0.994931999999999], "properties": {"magmom": 0.0}, "label": "In", "xyz": [9.543049123043987, 13.086824669477986, 25.30922050141198]}, {"species": [{"element": "In", "occu": 1}], "abc": [0.242836, 0.579503, 0.663746], "properties": {"magmom": 0.0}, "label": "In", "xyz": [3.101846704792, 8.543820770577, 16.884464336186]}, {"species": [{"element": "In", "occu": 1}], "abc": [0.914644, 0.135034, 0.529621], "properties": {"magmom": 0.0}, "label": "In", "xyz": [11.683133791768, 1.9908547392059999, 13.472573674561001]}, {"species": [{"element": "In", "occu": 1}], "abc": [0.921685, 0.621027, 0.945577999999999], "properties": {"magmom": 0.0}, "label": "In", "xyz": [11.77307145607, 9.156024009693, 24.05374649049798]}, {"species": [{"element": "In", "occu": 1}], "abc": [0.085356, 0.864966, 0.470379], "properties": {"magmom": 0.0}, "label": "In", "xyz": [1.090288208232, 12.752504260794, 11.965567325439]}, {"species": [{"element": "In", "occu": 1}], "abc": [0.089222, 0.868984, 0.25], "properties": {"magmom": 0.0}, "label": "In", "xyz": [1.1396702576839999, 12.811743077255999, 6.35953525]}, {"species": [{"element": "In", "occu": 1}], "abc": [0.920252, 0.672871, 0.345143], "properties": {"magmom": 0.0}, "label": "In", "xyz": [11.754767142343999, 9.920378713689, 8.779796299163]}, {"species": [{"element": "In", "occu": 1}], "abc": [0.081214, 0.858475999999999, 0.838650999999999], "properties": {"magmom": 0.0}, "label": "In", "xyz": [1.037380694308, 12.656819860883985, 21.333722387790978]}, {"species": [{"element": "In", "occu": 1}], "abc": [0.922696, 0.628074999999999, 0.75], "properties": {"magmom": 0.0}, "label": "In", "xyz": [11.785985385712, 9.259935203924986, 19.07860575]}, {"species": [{"element": "In", "occu": 1}], "abc": [0.085356, 0.864966, 0.029620999999999002], "properties": {"magmom": 0.0}, "label": "In", "xyz": [1.090288208232, 12.752504260794, 0.7535031745609747]}, {"species": [{"element": "In", "occu": 1}], "abc": [0.247102, 0.612358, 0.505068], "properties": {"magmom": 0.0}, "label": "In", "xyz": [3.1563381230439997, 9.028213830521999, 12.847990998588]}, {"species": [{"element": "Cl", "occu": 1}], "abc": [0.396681, 0.359739, 0.651843], "properties": {"magmom": 0.0}, "label": "Cl", "xyz": [5.066973812382, 5.303761223301, 16.581674143863]}, {"species": [{"element": "Cl", "occu": 1}], "abc": [0.39347000000000004, 0.664898, 0.25], "properties": {"magmom": 0.0}, "label": "Cl", "xyz": [5.02595835434, 9.802829912382, 6.35953525]}, {"species": [{"element": "Cl", "occu": 1}], "abc": [0.365687, 0.7657400000000001, 0.823072999999999], "properties": {"magmom": 0.0}, "label": "Cl", "xyz": [4.671074370914, 11.28957972066, 20.937447027292976]}, {"species": [{"element": "Cl", "occu": 1}], "abc": [0.787976999999999, 0.599505, 0.25], "properties": {"magmom": 0.0}, "label": "Cl", "xyz": [10.065162747293988, 8.838717437295, 6.35953525]}, {"species": [{"element": "Cl", "occu": 1}], "abc": [0.915859, 0.37431000000000003, 0.5530400000000001], "properties": {"magmom": 0.0}, "label": "Cl", "xyz": [11.698653499498, 5.518586707290001, 14.068309498640003]}, {"species": [{"element": "Cl", "occu": 1}], "abc": [0.839297, 0.274607999999999, 0.430635999999999], "properties": {"magmom": 0.0}, "label": "Cl", "xyz": [10.720694764333999, 4.048644328271986, 10.954579287675976]}, {"species": [{"element": "Cl", "occu": 1}], "abc": [0.590675, 0.400618, 0.063752], "properties": {"magmom": 0.0}, "label": "Cl", "xyz": [7.544941039849999, 5.906454995861999, 1.6217323650320001]}, {"species": [{"element": "Cl", "occu": 1}], "abc": [0.896681, 0.140261, 0.651843], "properties": {"magmom": 0.0}, "label": "Cl", "xyz": [11.453684812381999, 2.067918276699, 16.581674143863]}, {"species": [{"element": "Cl", "occu": 1}], "abc": [0.832587, 0.758756, 0.455862], "properties": {"magmom": 0.0}, "label": "Cl", "xyz": [10.634985102714, 11.186612101404, 11.596281832542001]}, {"species": [{"element": "Cl", "occu": 1}], "abc": [0.167413, 0.241244, 0.544138], "properties": {"magmom": 0.0}, "label": "Cl", "xyz": [2.138436897286, 3.556746898596, 13.841859167458]}, {"species": [{"element": "Cl", "occu": 1}], "abc": [0.339296999999999, 0.225391999999999, 0.069364], "properties": {"magmom": 0.0}, "label": "Cl", "xyz": [4.333983764333987, 3.3230351717279856, 1.764491212324]}, {"species": [{"element": "Cl", "occu": 1}], "abc": [0.678242, 0.50577, 0.940209], "properties": {"magmom": 0.0}, "label": "Cl", "xyz": [8.663471284124, 7.456748681430001, 23.917169111469]}, {"species": [{"element": "Cl", "occu": 1}], "abc": [0.134313, 0.26574000000000003, 0.176927], "properties": {"magmom": 0.0}, "label": "Cl", "xyz": [1.715636629086, 3.9179002206600004, 4.500693972707]}, {"species": [{"element": "Cl", "occu": 1}], "abc": [0.178241999999999, 0.9942300000000001, 0.559790999999999], "properties": {"magmom": 0.0}, "label": "Cl", "xyz": [2.2767602841239873, 14.658289818570001, 14.240042388530977]}, {"species": [{"element": "Cl", "occu": 1}], "abc": [0.415859, 0.12569000000000002, 0.94696], "properties": {"magmom": 0.0}, "label": "Cl", "xyz": [5.311942499498, 1.8530927927100003, 24.08890200136]}, {"species": [{"element": "Cl", "occu": 1}], "abc": [0.662571999999999, 0.016537, 0.5555500000000001], "properties": {"magmom": 0.0}, "label": "Cl", "xyz": [8.463311761383988, 0.24381092778299998, 14.132159232550004]}, {"species": [{"element": "Cl", "occu": 1}], "abc": [0.10653000000000001, 0.164898, 0.75], "properties": {"magmom": 0.0}, "label": "Cl", "xyz": [1.36075264566, 2.431150412382, 19.07860575]}, {"species": [{"element": "Cl", "occu": 1}], "abc": [0.162572, 0.483463, 0.5555500000000001], "properties": {"magmom": 0.0}, "label": "Cl", "xyz": [2.076600761384, 7.127868572216999, 14.132159232550004]}, {"species": [{"element": "Cl", "occu": 1}], "abc": [0.337428, 0.983463, 0.44445], "properties": {"magmom": 0.0}, "label": "Cl", "xyz": [4.310110238616, 14.499548072217, 11.305981767450001]}, {"species": [{"element": "Cl", "occu": 1}], "abc": [0.160702999999999, 0.725391999999999, 0.569364], "properties": {"magmom": 0.0}, "label": "Cl", "xyz": [2.0527272356659876, 10.694714671727986, 14.483561712324]}, {"species": [{"element": "Cl", "occu": 1}], "abc": [0.287977, 0.900494999999999, 0.25], "properties": {"magmom": 0.0}, "label": "Cl", "xyz": [3.678451747294, 13.276321062704985, 6.35953525]}, {"species": [{"element": "Cl", "occu": 1}], "abc": [0.634313, 0.23426000000000002, 0.176927], "properties": {"magmom": 0.0}, "label": "Cl", "xyz": [8.102347629086001, 3.4537792793400004, 4.500693972707]}, {"species": [{"element": "Cl", "occu": 1}], "abc": [0.660702999999999, 0.774608, 0.930635999999999], "properties": {"magmom": 0.0}, "label": "Cl", "xyz": [8.439438235665987, 11.420323828272, 23.673649787675977]}, {"species": [{"element": "Cl", "occu": 1}], "abc": [0.105027, 0.705329, 0.75], "properties": {"magmom": 0.0}, "label": "Cl", "xyz": [1.341554192394, 10.398918660110999, 19.07860575]}, {"species": [{"element": "Cl", "occu": 1}], "abc": [0.55818, 0.457937999999999, 0.25], "properties": {"magmom": 0.0}, "label": "Cl", "xyz": [7.1298686919600005, 6.751544333741985, 6.35953525]}, {"species": [{"element": "Cl", "occu": 1}], "abc": [0.660702999999999, 0.774608, 0.569364], "properties": {"magmom": 0.0}, "label": "Cl", "xyz": [8.439438235665987, 11.420323828272, 14.483561712324]}, {"species": [{"element": "Cl", "occu": 1}], "abc": [0.756166, 0.047824, 0.25], "properties": {"magmom": 0.0}, "label": "Cl", "xyz": [9.658827420052, 0.7050864008159999, 6.35953525]}, {"species": [{"element": "Cl", "occu": 1}], "abc": [0.44182000000000005, 0.542061999999999, 0.75], "properties": {"magmom": 0.0}, "label": "Cl", "xyz": [5.64355330804, 7.991814666257985, 19.07860575]}, {"species": [{"element": "Cl", "occu": 1}], "abc": [0.821758, 0.005770000000000001, 0.440208999999999], "properties": {"magmom": 0.0}, "label": "Cl", "xyz": [10.496661715876, 0.08506918143000002, 11.198098611468975]}, {"species": [{"element": "Cl", "occu": 1}], "abc": [0.160702999999999, 0.725391999999999, 0.930635999999999], "properties": {"magmom": 0.0}, "label": "Cl", "xyz": [2.0527272356659876, 10.694714671727986, 23.673649787675977]}, {"species": [{"element": "Cl", "occu": 1}], "abc": [0.090674999999999, 0.099382, 0.436247999999999], "properties": {"magmom": 0.0}, "label": "Cl", "xyz": [1.1582300398499874, 1.4652245041379999, 11.097338134967975]}, {"species": [{"element": "Cl", "occu": 1}], "abc": [0.584141, 0.87431, 0.44696], "properties": {"magmom": 0.0}, "label": "Cl", "xyz": [7.4614795005020005, 12.89026620729, 11.369831501360002]}, {"species": [{"element": "Cl", "occu": 1}], "abc": [0.162572, 0.483463, 0.9444500000000001], "properties": {"magmom": 0.0}, "label": "Cl", "xyz": [2.076600761384, 7.127868572216999, 24.025052267450004]}, {"species": [{"element": "Cl", "occu": 1}], "abc": [0.134313, 0.26574000000000003, 0.323073], "properties": {"magmom": 0.0}, "label": "Cl", "xyz": [1.715636629086, 3.9179002206600004, 8.218376527293001]}, {"species": [{"element": "Cl", "occu": 1}], "abc": [0.256166, 0.452175999999999, 0.25], "properties": {"magmom": 0.0}, "label": "Cl", "xyz": [3.272116420052, 6.666593099183985, 6.35953525]}, {"species": [{"element": "Cl", "occu": 1}], "abc": [0.104006, 0.6913900000000001, 0.25], "properties": {"magmom": 0.0}, "label": "Cl", "xyz": [1.328512528532, 10.19341097901, 6.35953525]}, {"species": [{"element": "Cl", "occu": 1}], "abc": [0.837428, 0.516537, 0.05555], "properties": {"magmom": 0.0}, "label": "Cl", "xyz": [10.696821238616, 7.6154904277830004, 1.4130887325500001]}, {"species": [{"element": "Cl", "occu": 1}], "abc": [0.662571999999999, 0.016537, 0.9444500000000001], "properties": {"magmom": 0.0}, "label": "Cl", "xyz": [8.463311761383988, 0.24381092778299998, 24.025052267450004]}, {"species": [{"element": "Cl", "occu": 1}], "abc": [0.415859, 0.12569000000000002, 0.5530400000000001], "properties": {"magmom": 0.0}, "label": "Cl", "xyz": [5.311942499498, 1.8530927927100003, 14.068309498640003]}, {"species": [{"element": "Cl", "occu": 1}], "abc": [0.605028, 0.794671, 0.75], "properties": {"magmom": 0.0}, "label": "Cl", "xyz": [7.728277965816, 11.716119839889, 19.07860575]}, {"species": [{"element": "Cl", "occu": 1}], "abc": [0.584141, 0.87431, 0.053040000000000004], "properties": {"magmom": 0.0}, "label": "Cl", "xyz": [7.4614795005020005, 12.89026620729, 1.3492389986400002]}, {"species": [{"element": "Cl", "occu": 1}], "abc": [0.678242, 0.50577, 0.559790999999999], "properties": {"magmom": 0.0}, "label": "Cl", "xyz": [8.663471284124, 7.456748681430001, 14.240042388530977]}, {"species": [{"element": "Cl", "occu": 1}], "abc": [0.321758, 0.49423000000000006, 0.059791], "properties": {"magmom": 0.0}, "label": "Cl", "xyz": [4.109950715876, 7.286610318570001, 1.520971888531]}, {"species": [{"element": "Cl", "occu": 1}], "abc": [0.337428, 0.983463, 0.05555], "properties": {"magmom": 0.0}, "label": "Cl", "xyz": [4.310110238616, 14.499548072217, 1.4130887325500001]}, {"species": [{"element": "Cl", "occu": 1}], "abc": [0.016336, 0.480614999999999, 0.32337000000000005], "properties": {"magmom": 0.0}, "label": "Cl", "xyz": [0.208666621792, 7.085879485784986, 8.225931655170001]}, {"species": [{"element": "Cl", "occu": 1}], "abc": [0.896681, 0.140261, 0.848156999999999], "properties": {"magmom": 0.0}, "label": "Cl", "xyz": [11.453684812381999, 2.067918276699, 21.575537356136977]}, {"species": [{"element": "Cl", "occu": 1}], "abc": [0.167413, 0.241244, 0.955862], "properties": {"magmom": 0.0}, "label": "Cl", "xyz": [2.138436897286, 3.556746898596, 24.315352332542002]}, {"species": [{"element": "Cl", "occu": 1}], "abc": [0.8934700000000001, 0.835102, 0.25], "properties": {"magmom": 0.0}, "label": "Cl", "xyz": [11.412669354340002, 12.312208587618, 6.35953525]}, {"species": [{"element": "Cl", "occu": 1}], "abc": [0.395993999999999, 0.19139, 0.75], "properties": {"magmom": 0.0}, "label": "Cl", "xyz": [5.058198471467987, 2.82173147901, 19.07860575]}, {"species": [{"element": "Cl", "occu": 1}], "abc": [0.915859, 0.37431000000000003, 0.94696], "properties": {"magmom": 0.0}, "label": "Cl", "xyz": [11.698653499498, 5.518586707290001, 24.08890200136]}, {"species": [{"element": "Cl", "occu": 1}], "abc": [0.243834, 0.952175999999999, 0.75], "properties": {"magmom": 0.0}, "label": "Cl", "xyz": [3.114594579948, 14.038272599183985, 19.07860575]}, {"species": [{"element": "Cl", "occu": 1}], "abc": [0.365687, 0.7657400000000001, 0.676927], "properties": {"magmom": 0.0}, "label": "Cl", "xyz": [4.671074370914, 11.28957972066, 17.219764472707]}, {"species": [{"element": "Cl", "occu": 1}], "abc": [0.743834, 0.547824, 0.75], "properties": {"magmom": 0.0}, "label": "Cl", "xyz": [9.501305579948, 8.076765900816, 19.07860575]}, {"species": [{"element": "Cl", "occu": 1}], "abc": [0.634313, 0.23426000000000002, 0.323073], "properties": {"magmom": 0.0}, "label": "Cl", "xyz": [8.102347629086001, 3.4537792793400004, 8.218376527293001]}, {"species": [{"element": "Cl", "occu": 1}], "abc": [0.394972999999999, 0.205328999999999, 0.25], "properties": {"magmom": 0.0}, "label": "Cl", "xyz": [5.045156807605988, 3.0272391601109856, 6.35953525]}, {"species": [{"element": "Cl", "occu": 1}], "abc": [0.05818, 0.042061999999999, 0.25], "properties": {"magmom": 0.0}, "label": "Cl", "xyz": [0.74315769196, 0.6201351662579853, 6.35953525]}, {"species": [{"element": "Cl", "occu": 1}], "abc": [0.604005999999999, 0.80861, 0.25], "properties": {"magmom": 0.0}, "label": "Cl", "xyz": [7.715223528531988, 11.92162752099, 6.35953525]}, {"species": [{"element": "Cl", "occu": 1}], "abc": [0.909324999999999, 0.900617999999999, 0.936248], "properties": {"magmom": 0.0}, "label": "Cl", "xyz": [11.615191960149987, 13.278134495861986, 23.816408634968]}, {"species": [{"element": "Cl", "occu": 1}], "abc": [0.9418200000000001, 0.957938, 0.75], "properties": {"magmom": 0.0}, "label": "Cl", "xyz": [12.030264308040001, 14.123223833742, 19.07860575]}, {"species": [{"element": "Cl", "occu": 1}], "abc": [0.667412999999999, 0.258756, 0.544138], "properties": {"magmom": 0.0}, "label": "Cl", "xyz": [8.525147897285988, 3.8149326014039997, 13.841859167458]}, {"species": [{"element": "Cl", "occu": 1}], "abc": [0.839297, 0.274607999999999, 0.069364], "properties": {"magmom": 0.0}, "label": "Cl", "xyz": [10.720694764333999, 4.048644328271986, 1.764491212324]}, {"species": [{"element": "Cl", "occu": 1}], "abc": [0.894972, 0.294670999999999, 0.25], "properties": {"magmom": 0.0}, "label": "Cl", "xyz": [11.431855034184, 4.344440339888985, 6.35953525]}, {"species": [{"element": "Cl", "occu": 1}], "abc": [0.084141, 0.6256900000000001, 0.44696], "properties": {"magmom": 0.0}, "label": "Cl", "xyz": [1.074768500502, 9.224772292710002, 11.369831501360002]}, {"species": [{"element": "Cl", "occu": 1}], "abc": [0.339296999999999, 0.225391999999999, 0.430635999999999], "properties": {"magmom": 0.0}, "label": "Cl", "xyz": [4.333983764333987, 3.3230351717279856, 10.954579287675976]}, {"species": [{"element": "Cl", "occu": 1}], "abc": [0.821758, 0.005770000000000001, 0.059791], "properties": {"magmom": 0.0}, "label": "Cl", "xyz": [10.496661715876, 0.08506918143000002, 1.520971888531]}, {"species": [{"element": "Cl", "occu": 1}], "abc": [0.103319, 0.859738999999999, 0.348157], "properties": {"magmom": 0.0}, "label": "Cl", "xyz": [1.319737187618, 12.675440723300985, 8.856466856137]}, {"species": [{"element": "Cl", "occu": 1}], "abc": [0.60653, 0.335102, 0.75], "properties": {"magmom": 0.0}, "label": "Cl", "xyz": [7.74746364566, 4.940529087618, 19.07860575]}, {"species": [{"element": "Cl", "occu": 1}], "abc": [0.103319, 0.859738999999999, 0.151843], "properties": {"magmom": 0.0}, "label": "Cl", "xyz": [1.319737187618, 12.675440723300985, 3.8626036438630003]}, {"species": [{"element": "Cl", "occu": 1}], "abc": [0.332586999999999, 0.741244, 0.455862], "properties": {"magmom": 0.0}, "label": "Cl", "xyz": [4.248274102713988, 10.928426398596, 11.596281832542001]}, {"species": [{"element": "Cl", "occu": 1}], "abc": [0.516336, 0.019385, 0.17663], "properties": {"magmom": 0.0}, "label": "Cl", "xyz": [6.595377621792, 0.285800014215, 4.493138844830001]}, {"species": [{"element": "Cl", "occu": 1}], "abc": [0.590675, 0.400618, 0.436247999999999], "properties": {"magmom": 0.0}, "label": "Cl", "xyz": [7.544941039849999, 5.906454995861999, 11.097338134967975]}, {"species": [{"element": "Cl", "occu": 1}], "abc": [0.712023, 0.099505, 0.75], "properties": {"magmom": 0.0}, "label": "Cl", "xyz": [9.094970252706, 1.467037937295, 19.07860575]}, {"species": [{"element": "Cl", "occu": 1}], "abc": [0.865687, 0.73426, 0.823072999999999], "properties": {"magmom": 0.0}, "label": "Cl", "xyz": [11.057785370913999, 10.82545877934, 20.937447027292976]}, {"species": [{"element": "Cl", "occu": 1}], "abc": [0.483664, 0.9806149999999991, 0.82337], "properties": {"magmom": 0.0}, "label": "Cl", "xyz": [6.178044378208, 14.457558985784987, 20.945002155170002]}, {"species": [{"element": "Cl", "occu": 1}], "abc": [0.409325, 0.599382, 0.563751999999999], "properties": {"magmom": 0.0}, "label": "Cl", "xyz": [5.22848096015, 8.836904004137999, 14.340802865031977]}, {"species": [{"element": "Cl", "occu": 1}], "abc": [0.409325, 0.599382, 0.936248], "properties": {"magmom": 0.0}, "label": "Cl", "xyz": [5.22848096015, 8.836904004137999, 23.816408634968]}, {"species": [{"element": "Cl", "occu": 1}], "abc": [0.483664, 0.9806149999999991, 0.6766300000000001], "properties": {"magmom": 0.0}, "label": "Cl", "xyz": [6.178044378208, 14.457558985784987, 17.212209344830004]}, {"species": [{"element": "Cl", "occu": 1}], "abc": [0.832587, 0.758756, 0.044138], "properties": {"magmom": 0.0}, "label": "Cl", "xyz": [10.634985102714, 11.186612101404, 1.1227886674579999]}, {"species": [{"element": "Cl", "occu": 1}], "abc": [0.865687, 0.73426, 0.676927], "properties": {"magmom": 0.0}, "label": "Cl", "xyz": [11.057785370913999, 10.82545877934, 17.219764472707]}, {"species": [{"element": "Cl", "occu": 1}], "abc": [0.603318999999999, 0.640261, 0.348157], "properties": {"magmom": 0.0}, "label": "Cl", "xyz": [7.706448187617988, 9.439597776699, 8.856466856137]}, {"species": [{"element": "Cl", "occu": 1}], "abc": [0.516336, 0.019385, 0.32337000000000005], "properties": {"magmom": 0.0}, "label": "Cl", "xyz": [6.595377621792, 0.285800014215, 8.225931655170001]}, {"species": [{"element": "Cl", "occu": 1}], "abc": [0.178241999999999, 0.9942300000000001, 0.940209], "properties": {"magmom": 0.0}, "label": "Cl", "xyz": [2.2767602841239873, 14.658289818570001, 23.917169111469]}, {"species": [{"element": "Cl", "occu": 1}], "abc": [0.016336, 0.480614999999999, 0.17663], "properties": {"magmom": 0.0}, "label": "Cl", "xyz": [0.208666621792, 7.085879485784986, 4.493138844830001]}, {"species": [{"element": "Cl", "occu": 1}], "abc": [0.837428, 0.516537, 0.44445], "properties": {"magmom": 0.0}, "label": "Cl", "xyz": [10.696821238616, 7.6154904277830004, 11.305981767450001]}, {"species": [{"element": "Cl", "occu": 1}], "abc": [0.983664, 0.519385, 0.6766300000000001], "properties": {"magmom": 0.0}, "label": "Cl", "xyz": [12.564755378208, 7.657479514215, 17.212209344830004]}, {"species": [{"element": "Cl", "occu": 1}], "abc": [0.983664, 0.519385, 0.82337], "properties": {"magmom": 0.0}, "label": "Cl", "xyz": [12.564755378208, 7.657479514215, 20.945002155170002]}, {"species": [{"element": "Cl", "occu": 1}], "abc": [0.084141, 0.6256900000000001, 0.053040000000000004], "properties": {"magmom": 0.0}, "label": "Cl", "xyz": [1.074768500502, 9.224772292710002, 1.3492389986400002]}, {"species": [{"element": "Cl", "occu": 1}], "abc": [0.321758, 0.49423000000000006, 0.440208999999999], "properties": {"magmom": 0.0}, "label": "Cl", "xyz": [4.109950715876, 7.286610318570001, 11.198098611468975]}, {"species": [{"element": "Cl", "occu": 1}], "abc": [0.603318999999999, 0.640261, 0.151843], "properties": {"magmom": 0.0}, "label": "Cl", "xyz": [7.706448187617988, 9.439597776699, 3.8626036438630003]}, {"species": [{"element": "Cl", "occu": 1}], "abc": [0.332586999999999, 0.741244, 0.044138], "properties": {"magmom": 0.0}, "label": "Cl", "xyz": [4.248274102713988, 10.928426398596, 1.1227886674579999]}, {"species": [{"element": "Cl", "occu": 1}], "abc": [0.667412999999999, 0.258756, 0.955862], "properties": {"magmom": 0.0}, "label": "Cl", "xyz": [8.525147897285988, 3.8149326014039997, 24.315352332542002]}, {"species": [{"element": "Cl", "occu": 1}], "abc": [0.909324999999999, 0.900617999999999, 0.563751999999999], "properties": {"magmom": 0.0}, "label": "Cl", "xyz": [11.615191960149987, 13.278134495861986, 14.340802865031977]}, {"species": [{"element": "Cl", "occu": 1}], "abc": [0.396681, 0.359739, 0.848156999999999], "properties": {"magmom": 0.0}, "label": "Cl", "xyz": [5.066973812382, 5.303761223301, 21.575537356136977]}, {"species": [{"element": "Cl", "occu": 1}], "abc": [0.212023, 0.400495, 0.75], "properties": {"magmom": 0.0}, "label": "Cl", "xyz": [2.7082592527059997, 5.904641562705, 19.07860575]}, {"species": [{"element": "Cl", "occu": 1}], "abc": [0.090674999999999, 0.099382, 0.063752], "properties": {"magmom": 0.0}, "label": "Cl", "xyz": [1.1582300398499874, 1.4652245041379999, 1.6217323650320001]}, {"species": [{"element": "Cl", "occu": 1}], "abc": [0.895994, 0.30861000000000005, 0.75], "properties": {"magmom": 0.0}, "label": "Cl", "xyz": [11.444909471468, 4.5499480209900005, 19.07860575]}]}, "task_ids": null, "uncorrected_energy_per_atom": null, "energy_per_atom": -13.7879113996625, "formation_energy_per_atom": -1.065011909162498, "energy_above_hull": 0.0033328665875000003, "is_stable": false, "equilibrium_reaction_energy_per_atom": null, "decomposes_to": null, "xas": null, "grain_boundaries": null, "band_gap": 2.5084, "cbm": null, "vbm": null, "efermi": 2.75851479, "is_gap_direct": null, "is_metal": null, "es_source_calc_id": null, "bandstructure": null, "dos": null, "dos_energy_up": null, "dos_energy_down": null, "is_magnetic": null, "ordering": null, "total_magnetization": 0.0002919, "total_magnetization_normalized_vol": null, "total_magnetization_normalized_formula_units": null, "num_magnetic_sites": null, "num_unique_magnetic_sites": null, "types_of_magnetic_species": null, "bulk_modulus": null, "shear_modulus": null, "universal_anisotropy": null, "homogeneous_poisson": null, "e_total": null, "e_ionic": null, "e_electronic": null, "n": null, "e_ij_max": null, "weighted_surface_energy_EV_PER_ANG2": null, "weighted_surface_energy": null, "weighted_work_function": null, "surface_anisotropy": null, "shape_factor": null, "has_reconstructed": null, "possible_species": null, "has_props": null, "theoretical": null, "database_IDs": null, "fields_not_requested": ["builder_meta", "nsites", "elements", "nelements", "composition", "composition_reduced", "chemsys", "symmetry", "property_name", "deprecated", "deprecation_reasons", "last_updated", "origins", "warnings", "task_ids", "uncorrected_energy_per_atom", "equilibrium_reaction_energy_per_atom", "decomposes_to", "xas", "grain_boundaries", "cbm", "vbm", "is_gap_direct", "is_metal", "es_source_calc_id", "bandstructure", "dos", "dos_energy_up", "dos_energy_down", "is_magnetic", "ordering", "total_magnetization_normalized_vol", "total_magnetization_normalized_formula_units", "num_magnetic_sites", "num_unique_magnetic_sites", "types_of_magnetic_species", "bulk_modulus", "shear_modulus", "universal_anisotropy", "homogeneous_poisson", "e_total", "e_ionic", "e_electronic", "n", "e_ij_max", "weighted_surface_energy_EV_PER_ANG2", "weighted_surface_energy", "weighted_work_function", "surface_anisotropy", "shape_factor", "has_reconstructed", "possible_species", "has_props", "theoretical", "database_IDs"]}