{"builder_meta": null, "nsites": null, "elements": null, "nelements": null, "composition": null, "composition_reduced": null, "formula_pretty": "In2Cu", "formula_anonymous": "AB2", "chemsys": null, "volume": 131.72241125924214, "density": 7.391910912802436, "density_atomic": 21.953735209873688, "symmetry": null, "property_name": null, "material_id": "mp-1072518", "deprecated": null, "deprecation_reasons": null, "last_updated": null, "origins": null, "warnings": null, "structure": {"@module": "pymatgen.core.structure", "@class": "Structure", "charge": 0, "lattice": {"matrix": [[-3.593269, 3.593269, 2.55047], [3.593269, -3.593269, 2.55047], [3.593269, 3.593269, -2.55047]], "pbc": [true, true, true], "a": 5.6857771178284855, "b": 5.6857771178284855, "c": 5.6857771178284855, "alpha": 101.60802938687897, "beta": 101.60802938687897, "gamma": 126.69603121117925, "volume": 131.72241125924214}, "properties": {}, "sites": [{"species": [{"element": "In", "occu": 1}], "abc": [0.152871, 0.652871, 0.805740999999999], "properties": {"magmom": -0.0}, "label": "In", "xyz": [4.691878657328997, 1.0986096573289965, 2.5504700023049054e-06]}, {"species": [{"element": "In", "occu": 1}], "abc": [0.847128999999999, 0.347128999999999, 0.194259], "properties": {"magmom": -0.0}, "label": "In", "xyz": [-1.0986096573290003, 2.494659342671, 2.5504674495299944]}, {"species": [{"element": "In", "occu": 1}], "abc": [0.347128999999999, 0.152871, 0.5], "properties": {"magmom": -0.0}, "label": "In", "xyz": [1.0986132505980035, 2.4946557494019963, -2.4424906541753444e-15]}, {"species": [{"element": "In", "occu": 1}], "abc": [0.652871, 0.847128999999999, 0.5], "properties": {"magmom": -0.0}, "label": "In", "xyz": [2.4946557494019963, 1.0986132505980033, 2.550469999999997]}, {"species": [{"element": "Cu", "occu": 1}], "abc": [0.0, 0.0, 0.0], "properties": {"magmom": -0.0}, "label": "Cu", "xyz": [0.0, 0.0, 0.0]}, {"species": [{"element": "Cu", "occu": 1}], "abc": [0.5, 0.5, 0.0], "properties": {"magmom": -0.0}, "label": "Cu", "xyz": [0.0, 0.0, 2.55047]}]}, "task_ids": null, "uncorrected_energy_per_atom": null, "energy_per_atom": -18.553581915404763, "formation_energy_per_atom": 0.11441033792857001, "energy_above_hull": 0.139243073095236, "is_stable": false, "equilibrium_reaction_energy_per_atom": null, "decomposes_to": null, "xas": null, "grain_boundaries": null, "band_gap": 0.0, "cbm": null, "vbm": null, "efermi": 6.98496026, "is_gap_direct": null, "is_metal": null, "es_source_calc_id": null, "bandstructure": null, "dos": null, "dos_energy_up": null, "dos_energy_down": null, "is_magnetic": null, "ordering": null, "total_magnetization": 0.0002024, "total_magnetization_normalized_vol": null, "total_magnetization_normalized_formula_units": null, "num_magnetic_sites": null, "num_unique_magnetic_sites": null, "types_of_magnetic_species": null, "bulk_modulus": null, "shear_modulus": null, "universal_anisotropy": null, "homogeneous_poisson": null, "e_total": null, "e_ionic": null, "e_electronic": null, "n": null, "e_ij_max": null, "weighted_surface_energy_EV_PER_ANG2": null, "weighted_surface_energy": null, "weighted_work_function": null, "surface_anisotropy": null, "shape_factor": null, "has_reconstructed": null, "possible_species": null, "has_props": null, "theoretical": null, "database_IDs": null, "fields_not_requested": ["builder_meta", "nsites", "elements", "nelements", "composition", "composition_reduced", "chemsys", "symmetry", "property_name", "deprecated", "deprecation_reasons", "last_updated", "origins", "warnings", "task_ids", "uncorrected_energy_per_atom", "equilibrium_reaction_energy_per_atom", "decomposes_to", "xas", "grain_boundaries", "cbm", "vbm", "is_gap_direct", "is_metal", "es_source_calc_id", "bandstructure", "dos", "dos_energy_up", "dos_energy_down", "is_magnetic", "ordering", "total_magnetization_normalized_vol", "total_magnetization_normalized_formula_units", "num_magnetic_sites", "num_unique_magnetic_sites", "types_of_magnetic_species", "bulk_modulus", "shear_modulus", "universal_anisotropy", "homogeneous_poisson", "e_total", "e_ionic", "e_electronic", "n", "e_ij_max", "weighted_surface_energy_EV_PER_ANG2", "weighted_surface_energy", "weighted_work_function", "surface_anisotropy", "shape_factor", "has_reconstructed", "possible_species", "has_props", "theoretical", "database_IDs"]}