{
  "builder_meta": null,
  "nsites": null,
  "elements": null,
  "nelements": null,
  "composition": null,
  "composition_reduced": null,
  "formula_pretty": "In2Ir",
  "formula_anonymous": "AB2",
  "chemsys": null,
  "volume": 240.58477159989496,
  "density": 11.646678752009848,
  "density_atomic": 20.048730966657914,
  "symmetry": null,
  "property_name": null,
  "material_id": "mp-22812",
  "deprecated": null,
  "deprecation_reasons": null,
  "last_updated": null,
  "origins": null,
  "warnings": null,
  "structure": {
    "@module": "pymatgen.core.structure",
    "@class": "Structure",
    "charge": 0,
    "lattice": {
      "matrix": [
        [5.13635869, -1e-8, 1.5215556700000001],
        [2.56817883, 4.96710697, 0.76077783],
        [8.29e-5, 0.0, 9.42997209]
      ],
      "pbc": [true, true, true],
      "a": 5.356987236240876,
      "b": 5.643268296023347,
      "c": 9.42997209036439,
      "alpha": 82.25204492040933,
      "beta": 73.49850247554531,
      "gamma": 61.66440704825487,
      "volume": 240.58477159989496
    },
    "properties": {},
    "sites": [
      {
        "species": [{ "element": "In", "occu": 1 }],
        "abc": [0.02945576, 0.94108947, 0.25],
        "properties": { "magmom": -0.0 },
        "label": "In",
        "xyz": [2.5682021278364746, 4.6744920655360485, 3.118271605964609]
      },
      {
        "species": [{ "element": "In", "occu": 1 }],
        "abc": [0.7205442400000001, 0.55891053, 0.25],
        "properties": { "magmom": -0.0 },
        "label": "In",
        "xyz": [5.136376584663526, 2.7761683819639513, 3.8790479365353905]
      },
      {
        "species": [{ "element": "In", "occu": 1 }],
        "abc": [0.9705442400000001, 0.05891053, 0.75],
        "properties": { "magmom": -0.0 },
        "label": "In",
        "xyz": [5.136418292163525, 0.2926148944639517, 8.594033984035391]
      },
      {
        "species": [{ "element": "In", "occu": 1 }],
        "abc": [0.27945576, 0.44108947, 0.75],
        "properties": { "magmom": -0.0 },
        "label": "In",
        "xyz": [2.5682438353364745, 2.1909385780360484, 7.833257653464609]
      },
      {
        "species": [{ "element": "In", "occu": 1 }],
        "abc": [0.5393057, 0.75, 0.9213876],
        "properties": { "magmom": 0.0 },
        "label": "In",
        "xyz": [4.696278024293573, 3.7253302221069426, 10.079826370270402]
      },
      {
        "species": [{ "element": "In", "occu": 1 }],
        "abc": [0.7106943, 0.75, 0.5786124],
        "properties": { "magmom": 0.0 },
        "label": "In",
        "xyz": [5.576562933206427, 3.7253302203930567, 7.108243097229597]
      },
      {
        "species": [{ "element": "In", "occu": 1 }],
        "abc": [0.4606943, 0.25, 0.0786124],
        "properties": { "magmom": 0.0 },
        "label": "In",
        "xyz": [3.0083423957064266, 1.2417767378930569, 1.632479219729597]
      },
      {
        "species": [{ "element": "In", "occu": 1 }],
        "abc": [0.2893057, 0.25, 0.4213876],
        "properties": { "magmom": 0.0 },
        "label": "In",
        "xyz": [2.128057486793573, 1.241776739606943, 4.604062492770403]
      },
      {
        "species": [{ "element": "Ir", "occu": 1 }],
        "abc": [0.00583763, 0.25, 0.98832273],
        "properties": { "magmom": -0.0 },
        "label": "Ir",
        "xyz": [0.6721108010338217, 1.2417767424416237, 9.518932496338468]
      },
      {
        "species": [{ "element": "Ir", "occu": 1 }],
        "abc": [0.74416237, 0.25, 0.51167727],
        "properties": { "magmom": -0.0 },
        "label": "Ir",
        "xyz": [4.464371981466178, 1.2417767350583762, 6.147581306161531]
      },
      {
        "species": [{ "element": "Ir", "occu": 1 }],
        "abc": [0.9941623700000001, 0.75, 0.01167727],
        "properties": { "magmom": -0.0 },
        "label": "Ir",
        "xyz": [7.032509618966178, 3.7253302175583762, 2.1933730936615325]
      },
      {
        "species": [{ "element": "Ir", "occu": 1 }],
        "abc": [0.25583763, 0.75, 0.48832273],
        "properties": { "magmom": -0.0 },
        "label": "Ir",
        "xyz": [3.2402484385338215, 3.7253302249416236, 5.564724283838467]
      }
    ]
  },
  "task_ids": null,
  "uncorrected_energy_per_atom": null,
  "energy_per_atom": -32.7661168225,
  "formation_energy_per_atom": -0.260605419166665,
  "energy_above_hull": 0.0,
  "is_stable": true,
  "equilibrium_reaction_energy_per_atom": null,
  "decomposes_to": null,
  "xas": null,
  "grain_boundaries": null,
  "band_gap": 0.0,
  "cbm": null,
  "vbm": null,
  "efermi": 8.43988794,
  "is_gap_direct": null,
  "is_metal": null,
  "es_source_calc_id": null,
  "bandstructure": null,
  "dos": null,
  "dos_energy_up": null,
  "dos_energy_down": null,
  "is_magnetic": null,
  "ordering": null,
  "total_magnetization": 1e-7,
  "total_magnetization_normalized_vol": null,
  "total_magnetization_normalized_formula_units": null,
  "num_magnetic_sites": null,
  "num_unique_magnetic_sites": null,
  "types_of_magnetic_species": null,
  "bulk_modulus": null,
  "shear_modulus": null,
  "universal_anisotropy": null,
  "homogeneous_poisson": null,
  "e_total": null,
  "e_ionic": null,
  "e_electronic": null,
  "n": null,
  "e_ij_max": null,
  "weighted_surface_energy_EV_PER_ANG2": null,
  "weighted_surface_energy": null,
  "weighted_work_function": null,
  "surface_anisotropy": null,
  "shape_factor": null,
  "has_reconstructed": null,
  "possible_species": null,
  "has_props": null,
  "theoretical": null,
  "database_IDs": null,
  "fields_not_requested": [
    "builder_meta",
    "nsites",
    "elements",
    "nelements",
    "composition",
    "composition_reduced",
    "chemsys",
    "symmetry",
    "property_name",
    "deprecated",
    "deprecation_reasons",
    "last_updated",
    "origins",
    "warnings",
    "task_ids",
    "uncorrected_energy_per_atom",
    "equilibrium_reaction_energy_per_atom",
    "decomposes_to",
    "xas",
    "grain_boundaries",
    "cbm",
    "vbm",
    "is_gap_direct",
    "is_metal",
    "es_source_calc_id",
    "bandstructure",
    "dos",
    "dos_energy_up",
    "dos_energy_down",
    "is_magnetic",
    "ordering",
    "total_magnetization_normalized_vol",
    "total_magnetization_normalized_formula_units",
    "num_magnetic_sites",
    "num_unique_magnetic_sites",
    "types_of_magnetic_species",
    "bulk_modulus",
    "shear_modulus",
    "universal_anisotropy",
    "homogeneous_poisson",
    "e_total",
    "e_ionic",
    "e_electronic",
    "n",
    "e_ij_max",
    "weighted_surface_energy_EV_PER_ANG2",
    "weighted_surface_energy",
    "weighted_work_function",
    "surface_anisotropy",
    "shape_factor",
    "has_reconstructed",
    "possible_species",
    "has_props",
    "theoretical",
    "database_IDs"
  ]
}
