{
  "builder_meta": null,
  "nsites": null,
  "elements": null,
  "nelements": null,
  "composition": null,
  "composition_reduced": null,
  "formula_pretty": "In2O3",
  "formula_anonymous": "A2B3",
  "chemsys": null,
  "volume": 526.9797159082178,
  "density": 6.998712419580601,
  "density_atomic": 13.174492897705445,
  "symmetry": null,
  "property_name": null,
  "material_id": "mp-22598",
  "deprecated": null,
  "deprecation_reasons": null,
  "last_updated": null,
  "origins": null,
  "warnings": null,
  "structure": {
    "@module": "pymatgen.core.structure",
    "@class": "Structure",
    "charge": 0,
    "lattice": {
      "matrix": [
        [8.30921593, 0.00014164, -2.93788625],
        [-4.15437843, 7.19603023, -2.93759995],
        [-0.00014504, 9.535000000000001e-5, 8.81325327]
      ],
      "pbc": [true, true, true],
      "a": 8.813299325982678,
      "b": 8.813126838810566,
      "c": 8.813253271709257,
      "alpha": 109.4694607691416,
      "beta": 109.47298966923053,
      "gamma": 109.46915933477139,
      "volume": 526.9797159082179
    },
    "properties": {},
    "sites": [
      {
        "species": [{ "element": "In", "occu": 1 }],
        "abc": [0.75000736, 0.28400235, 0.53400718],
        "properties": { "magmom": -0.0 },
        "label": "In",
        "xyz": [5.052042414018548, 2.043846644618124, 1.6686189258357969]
      },
      {
        "species": [{ "element": "In", "occu": 1 }],
        "abc": [0.25000207, 0.71620933, 0.46618611],
        "properties": { "magmom": -0.0 },
        "label": "In",
        "xyz": [-0.8981510249731713, 5.1539438508268285, 1.270202122464009]
      },
      {
        "species": [{ "element": "In", "occu": 1 }],
        "abc": [1.429999999999999e-6, 0.00027884, 0.49999269],
        "properties": { "magmom": 0.0 },
        "label": "In",
        "xyz": [-0.0012190436423989, 0.0020542155748699, 4.405738888571201]
      },
      {
        "species": [{ "element": "In", "occu": 1 }],
        "abc": [0.50002654, 0.99998023, 0.00028908],
        "properties": { "magmom": -0.0 },
        "label": "In",
        "xyz": [0.000532151724179605, 7.195958815805256, -4.404015234894772]
      },
      {
        "species": [{ "element": "In", "occu": 1 }],
        "abc": [0.53397508, 0.74998013, 0.283991],
        "properties": { "magmom": 0.0 },
        "label": "In",
        "xyz": [1.3211717759037889, 5.39698239815151, -1.2690150283630737]
      },
      {
        "species": [{ "element": "In", "occu": 1 }],
        "abc": [0.46620116, 0.25000139, 0.71620783],
        "properties": { "magmom": 0.0 },
        "label": "In",
        "xyz": [2.835061844386798, 1.7991518831309123, 4.208070951285125]
      },
      {
        "species": [{ "element": "In", "occu": 1 }],
        "abc": [0.74999423, 0.78379812, 0.03380452],
        "properties": { "magmom": -0.0 },
        "label": "In",
        "xyz": [2.975665097113951, 5.640344418180887, -4.207955257587651]
      },
      {
        "species": [{ "element": "In", "occu": 1 }],
        "abc": [0.24999548, 0.21598506, 0.96601417],
        "properties": { "magmom": -0.0 },
        "label": "In",
        "xyz": [1.1798426396825235, 1.5543625397992604, 7.144791557907939]
      },
      {
        "species": [{ "element": "In", "occu": 1 }],
        "abc": [0.28397426, 0.53396759, 0.74998309],
        "properties": { "magmom": 0.0 },
        "label": "In",
        "xyz": [0.14119122913950433, 3.842558652482064, 4.2069236808936585]
      },
      {
        "species": [{ "element": "In", "occu": 1 }],
        "abc": [0.03382555, 0.74998472, 0.78377454],
        "properties": { "magmom": 0.0 },
        "label": "In",
        "xyz": [-2.83477022335586, 5.396992241111377, 4.6050728333812945]
      },
      {
        "species": [{ "element": "In", "occu": 1 }],
        "abc": [0.00019915000000000002, 0.50002173, 7.12e-6],
        "properties": { "magmom": -0.0 },
        "label": "In",
        "xyz": [-2.0756247103235097, 3.5981715136233965, -1.4693861387303189]
      },
      {
        "species": [{ "element": "In", "occu": 1 }],
        "abc": [0.49973895, 0.49974481, 0.49974489],
        "properties": { "magmom": 0.0 },
        "label": "In",
        "xyz": [2.07623730201418, 3.5962971937457455, 1.468151767295093]
      },
      {
        "species": [{ "element": "In", "occu": 1 }],
        "abc": [0.96600186, 0.2500191, 0.21600093],
        "properties": { "magmom": -0.0 },
        "label": "In",
        "xyz": [6.988012758618729, 1.7993024218695186, -1.6687887749819286]
      },
      {
        "species": [{ "element": "In", "occu": 1 }],
        "abc": [0.7161698400000001, 0.46618783, 0.24999272],
        "properties": { "magmom": 0.0 },
        "label": "In",
        "xyz": [4.014052918888936, 3.35482699264009, -1.2702497146831142]
      },
      {
        "species": [{ "element": "In", "occu": 1 }],
        "abc": [0.21602144, 0.966032, 0.2499977],
        "properties": { "magmom": 0.0 },
        "label": "In",
        "xyz": [-2.218329972686629, 6.951649909704817, -1.2691689261621208]
      },
      {
        "species": [{ "element": "In", "occu": 1 }],
        "abc": [0.78381925, 0.03380103, 0.7500103300000001],
        "properties": { "magmom": 0.0 },
        "label": "In",
        "xyz": [6.372392346898606, 0.24341576732867243, 4.207965292308019]
      },
      {
        "species": [{ "element": "O", "occu": 1 }],
        "abc": [0.54471638, 0.53681346, 0.77213559],
        "properties": { "magmom": -0.0 },
        "label": "O",
        "xyz": [2.2959277723242923, 3.8630766627874653, 3.627768557243778]
      },
      {
        "species": [{ "element": "O", "occu": 1 }],
        "abc": [0.53682767, 0.77213027, 0.54471219],
        "properties": { "magmom": -0.0 },
        "label": "O",
        "xyz": [1.2528166833346688, 5.556400738996557, 0.9553380168683385]
      },
      {
        "species": [{ "element": "O", "occu": 1 }],
        "abc": [0.96316941, 0.50794561, 0.23533385],
        "properties": { "magmom": -0.0 },
        "label": "O",
        "xyz": [5.892950186241906, 3.6553508271536206, -2.2477663415441427]
      },
      {
        "species": [{ "element": "O", "occu": 1 }],
        "abc": [0.2647099, 0.77256845, 0.72785985],
        "properties": { "magmom": 0.0 },
        "label": "O",
        "xyz": [-1.0101155552624703, 5.559532815891176, 3.367628587573757]
      },
      {
        "species": [{ "element": "O", "occu": 1 }],
        "abc": [0.46309644, 0.22764555, 0.45529333],
        "properties": { "magmom": -0.0 },
        "label": "O",
        "xyz": [2.9021765180242194, 1.6382532647237535, 1.983359209634017]
      },
      {
        "species": [{ "element": "O", "occu": 1 }],
        "abc": [0.04469708, 0.27233725000000003, 0.0077871500000000005],
        "properties": { "magmom": 0.0 },
        "label": "O",
        "xyz": [-0.7599954373732694, 1.9597541571542314, -0.8627027035288072]
      },
      {
        "species": [{ "element": "O", "occu": 1 }],
        "abc": [0.2276123, 0.45529147000000003, 0.46305487],
        "properties": { "magmom": -0.0 },
        "label": "O",
        "xyz": [-0.000240474785398191, 3.276367572869165, 2.074856601208624]
      },
      {
        "species": [{ "element": "O", "occu": 1 }],
        "abc": [0.99215191, 0.95531363, 0.7274394200000001],
        "properties": { "magmom": -0.0 },
        "label": "O",
        "xyz": [4.275164609381449, 6.874675650356265, 0.6899491210193478]
      },
      {
        "species": [{ "element": "O", "occu": 1 }],
        "abc": [0.27234427, 0.73541597, 0.22763933],
        "properties": { "magmom": 0.0 },
        "label": "O",
        "xyz": [-0.7922619129257295, 5.2921358319972915, -0.95423133329738]
      },
      {
        "species": [{ "element": "O", "occu": 1 }],
        "abc": [0.23534832, 0.9632181, 0.50787381],
        "properties": { "magmom": -0.0 },
        "label": "O",
        "xyz": [-2.0460861504002477, 6.931428326186991, 0.9550444810421643]
      },
      {
        "species": [{ "element": "O", "occu": 1 }],
        "abc": [0.5078905, 0.23528737, 0.96318974],
        "properties": { "magmom": -0.0 },
        "label": "O",
        "xyz": [3.242559357476347, 1.6932988050093238, 6.305530442882194]
      },
      {
        "species": [{ "element": "O", "occu": 1 }],
        "abc": [0.00774955, 0.04470437, 0.2723119],
        "properties": { "magmom": 0.0 },
        "label": "O",
        "xyz": [-0.12136568226238362, 0.3217210605190321, 2.2458628916694443]
      },
      {
        "species": [{ "element": "O", "occu": 1 }],
        "abc": [0.76452619, 0.036917530000000004, 0.49222744],
        "properties": { "magmom": -0.0 },
        "label": "O",
        "xyz": [6.199172413861432, 0.2658148832728875, 1.9835851795157184]
      },
      {
        "species": [{ "element": "O", "occu": 1 }],
        "abc": [0.9553048900000001, 0.7274821, 0.9920969900000001],
        "properties": { "magmom": -0.0 },
        "label": "O",
        "xyz": [4.915454771796366, 5.235213089216499, 3.7999735598000015]
      },
      {
        "species": [{ "element": "O", "occu": 1 }],
        "abc": [0.22766786, 0.27236132, 0.73543765],
        "properties": { "magmom": 0.0 },
        "label": "O",
        "xyz": [0.7601427482099262, 1.9600226630583215, 5.012647398268757]
      },
      {
        "species": [{ "element": "O", "occu": 1 }],
        "abc": [0.72740806, 0.99209735, 0.95528183],
        "properties": { "magmom": -0.0 },
        "label": "O",
        "xyz": [1.9225042543856123, 7.139356637903, 3.3677134486507763]
      },
      {
        "species": [{ "element": "O", "occu": 1 }],
        "abc": [0.77259238, 0.72788866, 0.26471861],
        "properties": { "magmom": 0.0 },
        "label": "O",
        "xyz": [3.395673567959815, 5.238043472338358, -2.075002066065987]
      },
      {
        "species": [{ "element": "O", "occu": 1 }],
        "abc": [0.72786677, 0.26469197, 0.772614199999999],
        "properties": { "magmom": 0.0 },
        "label": "O",
        "xyz": [4.948259489475871, 1.9049081815715259, 3.893295731346112]
      },
      {
        "species": [{ "element": "O", "occu": 1 }],
        "abc": [0.73547488, 0.22768663, 0.27239844],
        "properties": { "magmom": 0.0 },
        "label": "O",
        "xyz": [5.165283655869711, 1.6385700183000822, -0.42887732800316947]
      },
      {
        "species": [{ "element": "O", "occu": 1 }],
        "abc": [0.03690895, 0.49219815, 0.76455438],
        "properties": { "magmom": -0.0 },
        "label": "O",
        "xyz": [-1.7382038333136063, 3.5419508945938856, 5.183895832090792]
      },
      {
        "species": [{ "element": "O", "occu": 1 }],
        "abc": [0.27236657000000003, 0.00773029, 0.04469846],
        "properties": { "magmom": -0.0 },
        "label": "O",
        "xyz": [2.231031609145177, 0.055670240525802495, -0.4289516517211839]
      },
      {
        "species": [{ "element": "O", "occu": 1 }],
        "abc": [0.49220448, 0.76449859, 0.03691524],
        "properties": { "magmom": -0.0 },
        "label": "O",
        "xyz": [0.9138114997855429, 5.501428200143057, -3.3664884340966355]
      },
      {
        "species": [{ "element": "O", "occu": 1 }],
        "abc": [0.77213845, 0.54473906, 0.53681718],
        "properties": { "magmom": -0.0 },
        "label": "O",
        "xyz": [4.152735048099246, 3.9201192944299548, 0.8624253962568194]
      },
      {
        "species": [{ "element": "O", "occu": 1 }],
        "abc": [0.45527113, 0.46304158, 0.22760963],
        "properties": { "magmom": -0.0 },
        "label": "O",
        "xyz": [1.8592631612192465, 3.332147394608037, -0.6917843992238928]
      }
    ]
  },
  "task_ids": null,
  "uncorrected_energy_per_atom": null,
  "energy_per_atom": -6.066513488,
  "formation_energy_per_atom": -1.994067387666665,
  "energy_above_hull": 0.0,
  "is_stable": true,
  "equilibrium_reaction_energy_per_atom": null,
  "decomposes_to": null,
  "xas": null,
  "grain_boundaries": null,
  "band_gap": 0.6305000000000001,
  "cbm": null,
  "vbm": null,
  "efermi": 5.1450695,
  "is_gap_direct": null,
  "is_metal": null,
  "es_source_calc_id": null,
  "bandstructure": null,
  "dos": null,
  "dos_energy_up": null,
  "dos_energy_down": null,
  "is_magnetic": null,
  "ordering": null,
  "total_magnetization": 0.0,
  "total_magnetization_normalized_vol": null,
  "total_magnetization_normalized_formula_units": null,
  "num_magnetic_sites": null,
  "num_unique_magnetic_sites": null,
  "types_of_magnetic_species": null,
  "bulk_modulus": null,
  "shear_modulus": null,
  "universal_anisotropy": null,
  "homogeneous_poisson": null,
  "e_total": null,
  "e_ionic": null,
  "e_electronic": null,
  "n": null,
  "e_ij_max": null,
  "weighted_surface_energy_EV_PER_ANG2": null,
  "weighted_surface_energy": null,
  "weighted_work_function": null,
  "surface_anisotropy": null,
  "shape_factor": null,
  "has_reconstructed": null,
  "possible_species": null,
  "has_props": null,
  "theoretical": null,
  "database_IDs": null,
  "fields_not_requested": [
    "builder_meta",
    "nsites",
    "elements",
    "nelements",
    "composition",
    "composition_reduced",
    "chemsys",
    "symmetry",
    "property_name",
    "deprecated",
    "deprecation_reasons",
    "last_updated",
    "origins",
    "warnings",
    "task_ids",
    "uncorrected_energy_per_atom",
    "equilibrium_reaction_energy_per_atom",
    "decomposes_to",
    "xas",
    "grain_boundaries",
    "cbm",
    "vbm",
    "is_gap_direct",
    "is_metal",
    "es_source_calc_id",
    "bandstructure",
    "dos",
    "dos_energy_up",
    "dos_energy_down",
    "is_magnetic",
    "ordering",
    "total_magnetization_normalized_vol",
    "total_magnetization_normalized_formula_units",
    "num_magnetic_sites",
    "num_unique_magnetic_sites",
    "types_of_magnetic_species",
    "bulk_modulus",
    "shear_modulus",
    "universal_anisotropy",
    "homogeneous_poisson",
    "e_total",
    "e_ionic",
    "e_electronic",
    "n",
    "e_ij_max",
    "weighted_surface_energy_EV_PER_ANG2",
    "weighted_surface_energy",
    "weighted_work_function",
    "surface_anisotropy",
    "shape_factor",
    "has_reconstructed",
    "possible_species",
    "has_props",
    "theoretical",
    "database_IDs"
  ]
}
