{
  "builder_meta": null,
  "nsites": null,
  "elements": null,
  "nelements": null,
  "composition": null,
  "composition_reduced": null,
  "formula_pretty": "In2Pt3",
  "formula_anonymous": "A2B3",
  "chemsys": null,
  "volume": 378.50247635993907,
  "density": 14.300074038266018,
  "density_atomic": 18.925123817996955,
  "symmetry": null,
  "property_name": null,
  "material_id": "mp-510439",
  "deprecated": null,
  "deprecation_reasons": null,
  "last_updated": null,
  "origins": null,
  "warnings": null,
  "structure": {
    "@module": "pymatgen.core.structure",
    "@class": "Structure",
    "charge": 0,
    "lattice": {
      "matrix": [
        [5.61772662, 0.0, 0.0],
        [-2.80886331, 4.86509529, 0.0],
        [0.0, 0.0, 13.84894764]
      ],
      "pbc": [true, true, true],
      "a": 5.61772662,
      "b": 5.61772776797206,
      "c": 13.84894764,
      "alpha": 90.0,
      "beta": 90.0,
      "gamma": 119.99999324021911,
      "volume": 378.50247635993907
    },
    "properties": {},
    "sites": [
      {
        "species": [{ "element": "In", "occu": 1 }],
        "abc": [0.0, -0.0, 0.25],
        "properties": { "magmom": -0.0 },
        "label": "In",
        "xyz": [0.0, 0.0, 3.46223691]
      },
      {
        "species": [{ "element": "In", "occu": 1 }],
        "abc": [0.0, -0.0, 0.75],
        "properties": { "magmom": -0.0 },
        "label": "In",
        "xyz": [0.0, 0.0, 10.38671073]
      },
      {
        "species": [{ "element": "In", "occu": 1 }],
        "abc": [0.333333, 0.666667, 0.25],
        "properties": { "magmom": -0.0 },
        "label": "In",
        "xyz": [-2.8088633101663874e-6, 3.24339848169843, 3.46223691]
      },
      {
        "species": [{ "element": "In", "occu": 1 }],
        "abc": [0.666667, 0.333333, 0.75],
        "properties": { "magmom": -0.0 },
        "label": "In",
        "xyz": [2.8088661188633104, 1.62169680830157, 10.38671073]
      },
      {
        "species": [{ "element": "In", "occu": 1 }],
        "abc": [0.333333, 0.666667, 0.91764947],
        "properties": { "magmom": 0.0 },
        "label": "In",
        "xyz": [-2.8088633101663874e-6, 3.24339848169843, 12.708479461903751]
      },
      {
        "species": [{ "element": "In", "occu": 1 }],
        "abc": [0.333333, 0.666667, 0.58235053],
        "properties": { "magmom": 0.0 },
        "label": "In",
        "xyz": [-2.8088633101663874e-6, 3.24339848169843, 8.06494199809625]
      },
      {
        "species": [{ "element": "In", "occu": 1 }],
        "abc": [0.666667, 0.333333, 0.08235053],
        "properties": { "magmom": 0.0 },
        "label": "In",
        "xyz": [2.8088661188633104, 1.62169680830157, 1.1404681780962493]
      },
      {
        "species": [{ "element": "In", "occu": 1 }],
        "abc": [0.666667, 0.333333, 0.41764947],
        "properties": { "magmom": 0.0 },
        "label": "In",
        "xyz": [2.8088661188633104, 1.62169680830157, 5.784005641903751]
      },
      {
        "species": [{ "element": "Pt", "occu": 1 }],
        "abc": [0.16576447, 0.33152893, 0.09055762],
        "properties": { "magmom": 0.0 },
        "label": "Pt",
        "xyz": [2.808863308612075e-8, 1.6129198358417398, 1.254127737783017]
      },
      {
        "species": [{ "element": "Pt", "occu": 1 }],
        "abc": [0.6684710700000001, 0.83423753, 0.09055762],
        "properties": { "magmom": 0.0 },
        "label": "Pt",
        "xyz": [1.412028534796859, 4.058645077944234, 1.254127737783017]
      },
      {
        "species": [{ "element": "Pt", "occu": 1 }],
        "abc": [0.16576247, 0.8342355300000001, 0.09055762],
        "properties": { "magmom": 0.0 },
        "label": "Pt",
        "xyz": [-1.4120453317994532, 4.058635347753654, 1.254127737783017]
      },
      {
        "species": [{ "element": "Pt", "occu": 1 }],
        "abc": [0.6684710700000001, 0.8342355300000001, 0.40944238],
        "properties": { "magmom": 0.0 },
        "label": "Pt",
        "xyz": [1.412034152523479, 4.058635347753654, 5.670346082216983]
      },
      {
        "species": [{ "element": "Pt", "occu": 1 }],
        "abc": [0.16576247, 0.33152893, 0.40944238],
        "properties": { "magmom": 0.0 },
        "label": "Pt",
        "xyz": [-1.1207364606913295e-5, 1.6129198358417398, 5.670346082216983]
      },
      {
        "species": [{ "element": "Pt", "occu": 1 }],
        "abc": [0.16576447, 0.83423753, 0.40944238],
        "properties": { "magmom": 0.0 },
        "label": "Pt",
        "xyz": [-1.4120397140728331, 4.058645077944234, 5.670346082216983]
      },
      {
        "species": [{ "element": "Pt", "occu": 1 }],
        "abc": [0.8342355300000001, 0.6684710700000001, 0.90944238],
        "properties": { "magmom": 0.0 },
        "label": "Pt",
        "xyz": [2.8088632819113677, 3.2521754541582606, 12.594819902216983]
      },
      {
        "species": [{ "element": "Pt", "occu": 1 }],
        "abc": [0.33152893, 0.16576247, 0.90944238],
        "properties": { "magmom": 0.0 },
        "label": "Pt",
        "xyz": [1.396834775203141, 0.8064502120557663, 12.594819902216983]
      },
      {
        "species": [{ "element": "Pt", "occu": 1 }],
        "abc": [0.83423753, 0.16576447, 0.90944238],
        "properties": { "magmom": 0.0 },
        "label": "Pt",
        "xyz": [4.220908641799453, 0.8064599422463463, 12.594819902216983]
      },
      {
        "species": [{ "element": "Pt", "occu": 1 }],
        "abc": [0.33152893, 0.16576447, 0.59055762],
        "properties": { "magmom": 0.0 },
        "label": "Pt",
        "xyz": [1.396829157476521, 0.8064599422463463, 8.178601557783017]
      },
      {
        "species": [{ "element": "Pt", "occu": 1 }],
        "abc": [0.83423753, 0.6684710700000001, 0.59055762],
        "properties": { "magmom": 0.0 },
        "label": "Pt",
        "xyz": [2.8088745173646075, 3.2521754541582606, 8.178601557783017]
      },
      {
        "species": [{ "element": "Pt", "occu": 1 }],
        "abc": [0.8342355300000001, 0.16576247, 0.59055762],
        "properties": { "magmom": 0.0 },
        "label": "Pt",
        "xyz": [4.220903024072833, 0.8064502120557663, 8.178601557783017]
      }
    ]
  },
  "task_ids": null,
  "uncorrected_energy_per_atom": null,
  "energy_per_atom": -40.507923359,
  "formation_energy_per_atom": -0.5838570670000021,
  "energy_above_hull": 0.0,
  "is_stable": true,
  "equilibrium_reaction_energy_per_atom": null,
  "decomposes_to": null,
  "xas": null,
  "grain_boundaries": null,
  "band_gap": 0.0,
  "cbm": null,
  "vbm": null,
  "efermi": 7.46740284,
  "is_gap_direct": null,
  "is_metal": null,
  "es_source_calc_id": null,
  "bandstructure": null,
  "dos": null,
  "dos_energy_up": null,
  "dos_energy_down": null,
  "is_magnetic": null,
  "ordering": null,
  "total_magnetization": 0.0,
  "total_magnetization_normalized_vol": null,
  "total_magnetization_normalized_formula_units": null,
  "num_magnetic_sites": null,
  "num_unique_magnetic_sites": null,
  "types_of_magnetic_species": null,
  "bulk_modulus": null,
  "shear_modulus": null,
  "universal_anisotropy": null,
  "homogeneous_poisson": null,
  "e_total": null,
  "e_ionic": null,
  "e_electronic": null,
  "n": null,
  "e_ij_max": null,
  "weighted_surface_energy_EV_PER_ANG2": null,
  "weighted_surface_energy": null,
  "weighted_work_function": null,
  "surface_anisotropy": null,
  "shape_factor": null,
  "has_reconstructed": null,
  "possible_species": null,
  "has_props": null,
  "theoretical": null,
  "database_IDs": null,
  "fields_not_requested": [
    "builder_meta",
    "nsites",
    "elements",
    "nelements",
    "composition",
    "composition_reduced",
    "chemsys",
    "symmetry",
    "property_name",
    "deprecated",
    "deprecation_reasons",
    "last_updated",
    "origins",
    "warnings",
    "task_ids",
    "uncorrected_energy_per_atom",
    "equilibrium_reaction_energy_per_atom",
    "decomposes_to",
    "xas",
    "grain_boundaries",
    "cbm",
    "vbm",
    "is_gap_direct",
    "is_metal",
    "es_source_calc_id",
    "bandstructure",
    "dos",
    "dos_energy_up",
    "dos_energy_down",
    "is_magnetic",
    "ordering",
    "total_magnetization_normalized_vol",
    "total_magnetization_normalized_formula_units",
    "num_magnetic_sites",
    "num_unique_magnetic_sites",
    "types_of_magnetic_species",
    "bulk_modulus",
    "shear_modulus",
    "universal_anisotropy",
    "homogeneous_poisson",
    "e_total",
    "e_ionic",
    "e_electronic",
    "n",
    "e_ij_max",
    "weighted_surface_energy_EV_PER_ANG2",
    "weighted_surface_energy",
    "weighted_work_function",
    "surface_anisotropy",
    "shape_factor",
    "has_reconstructed",
    "possible_species",
    "has_props",
    "theoretical",
    "database_IDs"
  ]
}
