{
  "builder_meta": null,
  "nsites": null,
  "elements": null,
  "nelements": null,
  "composition": null,
  "composition_reduced": null,
  "formula_pretty": "In2S3",
  "formula_anonymous": "A2B3",
  "chemsys": null,
  "volume": 961.988411199058,
  "density": 4.499472952568761,
  "density_atomic": 24.04971027997645,
  "symmetry": null,
  "property_name": null,
  "material_id": "mp-22216",
  "deprecated": null,
  "deprecation_reasons": null,
  "last_updated": null,
  "origins": null,
  "warnings": null,
  "structure": {
    "@module": "pymatgen.core.structure",
    "@class": "Structure",
    "charge": 0,
    "lattice": {
      "matrix": [
        [7.48568563, -0.0, -1.71664573],
        [-0.39366821, 7.47532612, -1.71664573],
        [0.00242509, 0.0025556900000000002, 17.190102070000002]
      ],
      "pbc": [true, true, true],
      "a": 7.67999752041078,
      "b": 7.6799966030100615,
      "c": 17.19010243103953,
      "alpha": 102.90788118401068,
      "beta": 102.90787804556768,
      "gamma": 90.00000378873138,
      "volume": 961.9884111990582
    },
    "properties": {},
    "sites": [
      {
        "species": [{ "element": "In", "occu": 1 }],
        "abc": [0.29549909, 0.54549909, 0.09100018],
        "properties": { "magmom": 0.0 },
        "label": "In",
        "xyz": [1.997488325000664, 4.078016164163255, 0.12060644795360154]
      },
      {
        "species": [{ "element": "In", "occu": 1 }],
        "abc": [0.04549909, 0.79549909, 0.59100018],
        "properties": { "magmom": 0.0 },
        "label": "In",
        "xyz": [0.028862410000663995, 5.948125539163255, 8.715657482953603]
      },
      {
        "species": [{ "element": "In", "occu": 1 }],
        "abc": [0.70450091, 0.45450091000000004, 0.90899982],
        "properties": { "magmom": 0.0 },
        "label": "In",
        "xyz": [5.096954184999336, 3.3998656458367456, 13.6362041620464]
      },
      {
        "species": [{ "element": "In", "occu": 1 }],
        "abc": [0.95450091, 0.20450091, 0.40899982],
        "properties": { "magmom": 0.0 },
        "label": "In",
        "xyz": [7.065580099999336, 1.5297562708367451, 5.0411531270464]
      },
      {
        "species": [{ "element": "In", "occu": 1 }],
        "abc": [0.8135897, 0.33210391, 0.66420882],
        "properties": { "magmom": -0.0 },
        "label": "In",
        "xyz": [5.9611487403896035, 2.484282544816315, 9.451067368099473]
      },
      {
        "species": [{ "element": "In", "occu": 1 }],
        "abc": [0.16789609, 0.14938189, 0.83579118],
        "properties": { "magmom": -0.0 },
        "label": "In",
        "xyz": [1.2000373158361761, 1.118814367332781, 13.822681803815719]
      },
      {
        "species": [{ "element": "In", "occu": 1 }],
        "abc": [0.16789609, 0.686410299999999, 0.83579118],
        "properties": { "magmom": -0.0 },
        "label": "In",
        "xyz": [0.9886263029523302, 5.133276867787843, 12.90079427690053]
      },
      {
        "species": [{ "element": "In", "occu": 1 }],
        "abc": [0.64938189, 0.66789609, 0.33579118],
        "properties": { "magmom": -0.0 },
        "label": "In",
        "xyz": [4.598953547971648, 4.993599265183685, 3.5109850388157176]
      },
      {
        "species": [{ "element": "In", "occu": 1 }],
        "abc": [0.1864103, 0.66789609, 0.33579118],
        "properties": { "magmom": -0.0 },
        "label": "In",
        "xyz": [1.1332937696103964, 4.993599265183685, 4.305743241900529]
      },
      {
        "species": [{ "element": "In", "occu": 1 }],
        "abc": [0.8321039100000001, 0.313589699999999, 0.16420882],
        "properties": { "magmom": -0.0 },
        "label": "In",
        "xyz": [6.1058162070476705, 2.3446049422121424, 0.8560163330994739]
      },
      {
        "species": [{ "element": "In", "occu": 1 }],
        "abc": [0.8321039100000001, 0.85061811, 0.16420882],
        "properties": { "magmom": -0.0 },
        "label": "In",
        "xyz": [5.8944051941638245, 6.359067442667219, -0.06587119381571682]
      },
      {
        "species": [{ "element": "In", "occu": 1 }],
        "abc": [0.35061811, 0.33210391, 0.66420882],
        "properties": { "magmom": -0.0 },
        "label": "In",
        "xyz": [2.495488962028352, 2.484282544816315, 10.245825571184284]
      },
      {
        "species": [{ "element": "In", "occu": 1 }],
        "abc": [0.5, -0.0, -0.0],
        "properties": { "magmom": -0.0 },
        "label": "In",
        "xyz": [3.742842815, 0.0, -0.858322865]
      },
      {
        "species": [{ "element": "In", "occu": 1 }],
        "abc": [0.5, -0.0, 0.5],
        "properties": { "magmom": -0.0 },
        "label": "In",
        "xyz": [3.74405536, 0.0012778450000000001, 7.736728170000001]
      },
      {
        "species": [{ "element": "In", "occu": 1 }],
        "abc": [0.5, 0.5, 0.5],
        "properties": { "magmom": -0.0 },
        "label": "In",
        "xyz": [3.5472212549999997, 3.738940905, 6.878405305000001]
      },
      {
        "species": [{ "element": "In", "occu": 1 }],
        "abc": [-0.0, -0.0, -0.0],
        "properties": { "magmom": -0.0 },
        "label": "In",
        "xyz": [0.0, 0.0, 0.0]
      },
      {
        "species": [{ "element": "S", "occu": 1 }],
        "abc": [0.93492718, 0.41303293, 0.8260668600000001],
        "properties": { "magmom": -0.0 },
        "label": "S",
        "xyz": [6.837976308679785, 3.089667020862565, 11.886203673002573]
      },
      {
        "species": [{ "element": "S", "occu": 1 }],
        "abc": [0.08696707000000001, 0.10886132, 0.67393314],
        "properties": { "magmom": -0.0 },
        "label": "S",
        "xyz": [0.6097872537180496, 0.815496233040245, 11.248811495449328]
      },
      {
        "species": [{ "element": "S", "occu": 1 }],
        "abc": [0.08696707000000001, 0.56507282, 0.67393314],
        "properties": { "magmom": -0.0 },
        "label": "S",
        "xyz": [0.4301912891316345, 4.225825975234625, 10.465657971997432]
      },
      {
        "species": [{ "element": "S", "occu": 1 }],
        "abc": [0.60886132, 0.58696707, 0.17393314],
        "properties": { "magmom": -0.0 },
        "label": "S",
        "xyz": [4.327095961529469, 4.388214789137435, 0.9371147304493257]
      },
      {
        "species": [{ "element": "S", "occu": 1 }],
        "abc": [0.06507282, 0.58696707, 0.17393314],
        "properties": { "magmom": -0.0 },
        "label": "S",
        "xyz": [0.25646620132021447, 4.388214789137435, 1.8706069369974307]
      },
      {
        "species": [{ "element": "S", "occu": 1 }],
        "abc": [0.91303293, 0.43492718, 0.32606686],
        "properties": { "magmom": -0.0 },
        "label": "S",
        "xyz": [6.6642512208683655, 3.252055834765375, 3.2911526380025706]
      },
      {
        "species": [{ "element": "S", "occu": 1 }],
        "abc": [0.91303293, 0.8911386800000001, 0.32606686],
        "properties": { "magmom": -0.0 },
        "label": "S",
        "xyz": [6.48465525628195, 6.662385576959755, 2.5079991145506755]
      },
      {
        "species": [{ "element": "S", "occu": 1 }],
        "abc": [0.39113868, 0.41303293, 0.8260668600000001],
        "properties": { "magmom": -0.0 },
        "label": "S",
        "xyz": [2.7673465484705306, 3.089667020862565, 12.819695879550677]
      },
      {
        "species": [{ "element": "S", "occu": 1 }],
        "abc": [0.58937982, 0.07798985, 0.1559817],
        "properties": { "magmom": 0.0 },
        "label": "S",
        "xyz": [4.381588194199171, 0.583398203670755, 1.5357040497151104]
      },
      {
        "species": [{ "element": "S", "occu": 1 }],
        "abc": [0.42201015000000003, 0.43339812, 0.3440183],
        "properties": { "magmom": 0.0 },
        "label": "S",
        "xyz": [2.9892545287905263, 3.2406714909240213, 4.4452767368456945]
      },
      {
        "species": [{ "element": "S", "occu": 1 }],
        "abc": [0.42201015000000003, 0.91062018, 0.3440183],
        "properties": { "magmom": 0.0 },
        "label": "S",
        "xyz": [2.8013873746578137, 6.808062021082229, 3.626055525284891]
      },
      {
        "species": [{ "element": "S", "occu": 1 }],
        "abc": [0.93339812, 0.92201015, 0.8440183],
        "properties": { "magmom": 0.0 },
        "label": "S",
        "xyz": [6.626205628939831, 6.894483606329245, 11.323682041845695]
      },
      {
        "species": [{ "element": "S", "occu": 1 }],
        "abc": [0.41062018, 0.92201015, 0.8440183],
        "properties": { "magmom": 0.0 },
        "label": "S",
        "xyz": [2.7128543158008287, 6.894483606329245, 12.221106560284891]
      },
      {
        "species": [{ "element": "S", "occu": 1 }],
        "abc": [0.57798985, 0.08937982, 0.6559817],
        "properties": { "magmom": 0.0 },
        "label": "S",
        "xyz": [4.293055135342186, 0.6698197889177714, 10.130755084715112]
      },
      {
        "species": [{ "element": "S", "occu": 1 }],
        "abc": [0.57798985, 0.56660188, 0.6559817],
        "properties": { "magmom": 0.0 },
        "label": "S",
        "xyz": [4.105187981209474, 4.237210319075979, 9.311533873154307]
      },
      {
        "species": [{ "element": "S", "occu": 1 }],
        "abc": [0.06660188, 0.07798985, 0.1559817],
        "properties": { "magmom": 0.0 },
        "label": "S",
        "xyz": [0.4682368810601689, 0.583398203670755, 2.4331285681543067]
      },
      {
        "species": [{ "element": "S", "occu": 1 }],
        "abc": [0.25743321, 0.25067935, 0.501358699999999],
        "properties": { "magmom": -0.0 },
        "label": "S",
        "xyz": [1.829595429753092, 1.8751912102156252, 7.746157970199124]
      },
      {
        "species": [{ "element": "S", "occu": 1 }],
        "abc": [0.75067935, 0.75743321, 0.0013587],
        "properties": { "magmom": -0.0 },
        "label": "S",
        "xyz": [5.321175542027269, 5.662063731284448, -2.5655387948008594]
      },
      {
        "species": [{ "element": "S", "occu": 1 }],
        "abc": [0.75067935, 0.24392549, 0.0013587],
        "properties": { "magmom": -0.0 },
        "label": "S",
        "xyz": [5.52332720698085, 1.8234260591468017, -1.6840279599408243]
      },
      {
        "species": [{ "element": "S", "occu": 1 }],
        "abc": [0.25607451000000003, 0.74932065, 0.49864129999999907],
        "properties": { "magmom": -0.0 },
        "label": "S",
        "xyz": [1.6231188107449719, 5.602690599784375, 6.845787534940809]
      },
      {
        "species": [{ "element": "S", "occu": 1 }],
        "abc": [0.74256679, 0.74932065, 0.49864129999999907],
        "properties": { "magmom": -0.0 },
        "label": "S",
        "xyz": [5.264847080246908, 5.602690599784375, 6.010652639800844]
      },
      {
        "species": [{ "element": "S", "occu": 1 }],
        "abc": [0.24932065, 0.75607451, 0.9986413],
        "properties": { "magmom": -0.0 },
        "label": "S",
        "xyz": [1.5711153030191494, 5.654455750853198, 15.440838569940826]
      },
      {
        "species": [{ "element": "S", "occu": 1 }],
        "abc": [0.24932065, 0.24256679, 0.9986413],
        "properties": { "magmom": -0.0 },
        "label": "S",
        "xyz": [1.7732669679727304, 1.8158180787155518, 16.32234940480086]
      },
      {
        "species": [{ "element": "S", "occu": 1 }],
        "abc": [0.74392549, 0.25067935, 0.501358699999999],
        "properties": { "magmom": -0.0 },
        "label": "S",
        "xyz": [5.471323699255027, 1.8751912102156252, 6.911023075059159]
      }
    ]
  },
  "task_ids": null,
  "uncorrected_energy_per_atom": null,
  "energy_per_atom": -14.595410443,
  "formation_energy_per_atom": -0.742974841687498,
  "energy_above_hull": 0.0,
  "is_stable": true,
  "equilibrium_reaction_energy_per_atom": null,
  "decomposes_to": null,
  "xas": null,
  "grain_boundaries": null,
  "band_gap": 0.8856,
  "cbm": null,
  "vbm": null,
  "efermi": 4.35222947,
  "is_gap_direct": null,
  "is_metal": null,
  "es_source_calc_id": null,
  "bandstructure": null,
  "dos": null,
  "dos_energy_up": null,
  "dos_energy_down": null,
  "is_magnetic": null,
  "ordering": null,
  "total_magnetization": 0.0,
  "total_magnetization_normalized_vol": null,
  "total_magnetization_normalized_formula_units": null,
  "num_magnetic_sites": null,
  "num_unique_magnetic_sites": null,
  "types_of_magnetic_species": null,
  "bulk_modulus": null,
  "shear_modulus": null,
  "universal_anisotropy": null,
  "homogeneous_poisson": null,
  "e_total": null,
  "e_ionic": null,
  "e_electronic": null,
  "n": null,
  "e_ij_max": null,
  "weighted_surface_energy_EV_PER_ANG2": null,
  "weighted_surface_energy": null,
  "weighted_work_function": null,
  "surface_anisotropy": null,
  "shape_factor": null,
  "has_reconstructed": null,
  "possible_species": null,
  "has_props": null,
  "theoretical": null,
  "database_IDs": null,
  "fields_not_requested": [
    "builder_meta",
    "nsites",
    "elements",
    "nelements",
    "composition",
    "composition_reduced",
    "chemsys",
    "symmetry",
    "property_name",
    "deprecated",
    "deprecation_reasons",
    "last_updated",
    "origins",
    "warnings",
    "task_ids",
    "uncorrected_energy_per_atom",
    "equilibrium_reaction_energy_per_atom",
    "decomposes_to",
    "xas",
    "grain_boundaries",
    "cbm",
    "vbm",
    "is_gap_direct",
    "is_metal",
    "es_source_calc_id",
    "bandstructure",
    "dos",
    "dos_energy_up",
    "dos_energy_down",
    "is_magnetic",
    "ordering",
    "total_magnetization_normalized_vol",
    "total_magnetization_normalized_formula_units",
    "num_magnetic_sites",
    "num_unique_magnetic_sites",
    "types_of_magnetic_species",
    "bulk_modulus",
    "shear_modulus",
    "universal_anisotropy",
    "homogeneous_poisson",
    "e_total",
    "e_ionic",
    "e_electronic",
    "n",
    "e_ij_max",
    "weighted_surface_energy_EV_PER_ANG2",
    "weighted_surface_energy",
    "weighted_work_function",
    "surface_anisotropy",
    "shape_factor",
    "has_reconstructed",
    "possible_species",
    "has_props",
    "theoretical",
    "database_IDs"
  ]
}
