{
  "builder_meta": null,
  "nsites": null,
  "elements": null,
  "nelements": null,
  "composition": null,
  "composition_reduced": null,
  "formula_pretty": "In2Se3",
  "formula_anonymous": "A2B3",
  "chemsys": null,
  "volume": 895.3792135737424,
  "density": 5.191105833931657,
  "density_atomic": 29.84597378579141,
  "symmetry": null,
  "property_name": null,
  "material_id": "mp-612740",
  "deprecated": null,
  "deprecation_reasons": null,
  "last_updated": null,
  "origins": null,
  "warnings": null,
  "structure": {
    "@module": "pymatgen.core.structure",
    "@class": "Structure",
    "charge": 0,
    "lattice": {
      "matrix": [
        [7.27357115, 0.00011703, 0.0],
        [-3.6368863, 6.29903864, 0.0],
        [0.0, 0.0, 19.54254]
      ],
      "pbc": [true, true, true],
      "a": 7.273571150941493,
      "b": 7.273570632594471,
      "c": 19.54254,
      "alpha": 90.0,
      "beta": 90.0,
      "gamma": 119.99999666385543,
      "volume": 895.3792135737424
    },
    "properties": {},
    "sites": [
      {
        "species": [{ "element": "In", "occu": 1 }],
        "abc": [0.32952869, 0.98666816, 0.0004105],
        "properties": { "magmom": 0.0 },
        "label": "In",
        "xyz": [-1.1915495410689148, 6.215099429440293, 0.008022212669999999]
      },
      {
        "species": [{ "element": "In", "occu": 1 }],
        "abc": [0.013331840000000001, 0.34286153, 0.3337445],
        "properties": { "magmom": 0.0 },
        "label": "In",
        "xyz": [-1.149978314453623, 2.1596995858647547, 6.52221524103]
      },
      {
        "species": [{ "element": "In", "occu": 1 }],
        "abc": [0.00819273, 0.69670916, 0.47191797],
        "properties": { "magmom": 0.0 },
        "label": "In",
        "xyz": [-2.474261594520769, 4.388598878477135, 9.2224758054438]
      },
      {
        "species": [{ "element": "In", "occu": 1 }],
        "abc": [0.99180727, 0.30329084, 0.97191797],
        "properties": { "magmom": 0.0 },
        "label": "In",
        "xyz": [6.110946444520769, 1.9105567915228656, 18.9937458054438]
      },
      {
        "species": [{ "element": "In", "occu": 1 }],
        "abc": [0.98666816, 0.65713847, 0.8337445],
        "properties": { "magmom": 0.0 },
        "label": "In",
        "xyz": [4.786663164453624, 4.139456084135246, 16.293485241029998]
      },
      {
        "species": [{ "element": "In", "occu": 1 }],
        "abc": [0.34286153, 0.32952869, 0.1670775],
        "properties": { "magmom": 0.0 },
        "label": "In",
        "xyz": [1.2953693549349128, 2.0757540763834377, 3.2651187268499995]
      },
      {
        "species": [{ "element": "In", "occu": 1 }],
        "abc": [0.65713847, 0.67047131, 0.6670775],
        "properties": { "magmom": 0.0 },
        "label": "In",
        "xyz": [2.3413154950650874, 4.223401593616562, 13.03638872685]
      },
      {
        "species": [{ "element": "In", "occu": 1 }],
        "abc": [0.67047131, 0.013331840000000001, 0.5004105],
        "properties": { "magmom": 0.0 },
        "label": "In",
        "xyz": [4.828234391068915, 0.08405624055970691, 9.779292212669999]
      },
      {
        "species": [{ "element": "In", "occu": 1 }],
        "abc": [0.31148457, 0.00819273, 0.63858497],
        "properties": { "magmom": 0.0 },
        "label": "In",
        "xyz": [2.235809154525557, 0.0516427758763143, 12.4795723196238]
      },
      {
        "species": [{ "element": "In", "occu": 1 }],
        "abc": [0.30329084, 0.31148457, 0.80525197],
        "properties": { "magmom": 0.0 },
        "label": "In",
        "xyz": [1.0731735385888752, 1.96208883632079, 15.7366688338038]
      },
      {
        "species": [{ "element": "In", "occu": 1 }],
        "abc": [0.68851543, 0.99180727, 0.13858497],
        "properties": { "magmom": 0.0 },
        "label": "In",
        "xyz": [1.400875695474444, 6.247512894123686, 2.7083023196238]
      },
      {
        "species": [{ "element": "In", "occu": 1 }],
        "abc": [0.69670916, 0.68851543, 0.30525197],
        "properties": { "magmom": 0.0 },
        "label": "In",
        "xyz": [2.563511311411126, 4.33706683367921, 5.9653988338038]
      },
      {
        "species": [{ "element": "Se", "occu": 1 }],
        "abc": [0.69011694, 0.03429216, 0.63546099],
        "properties": { "magmom": -0.0 },
        "label": "Se",
        "xyz": [4.894897978008873, 0.21608840527455062, 12.4185218155146]
      },
      {
        "species": [{ "element": "Se", "occu": 1 }],
        "abc": [0.63774322, 0.66767718, 0.45349885],
        "properties": { "magmom": 0.0 },
        "label": "Se",
        "xyz": [2.2104046973354694, 4.205798990955271, 8.862519416079]
      },
      {
        "species": [{ "element": "Se", "occu": 1 }],
        "abc": [0.93305244, 0.27813196, 0.82662768],
        "properties": { "magmom": 0.0 },
        "label": "Se",
        "xyz": [5.775088994104959, 1.7520731581859876, 16.154404501507198]
      },
      {
        "species": [{ "element": "Se", "occu": 1 }],
        "abc": [0.97006704, 0.63774322, 0.62016585],
        "properties": { "magmom": 0.0 },
        "label": "Se",
        "xyz": [4.736452055974009, 4.017282712123713, 12.119615930259]
      },
      {
        "species": [{ "element": "Se", "occu": 1 }],
        "abc": [0.34417422000000003, 0.30988306, 0.30212799],
        "properties": { "magmom": -0.0 },
        "label": "Se",
        "xyz": [1.3763662216496755, 1.9520056475304048, 5.9043483296946]
      },
      {
        "species": [{ "element": "Se", "occu": 1 }],
        "abc": [0.06694756, 0.72186804, 0.32662768000000003],
        "properties": { "magmom": 0.0 },
        "label": "Se",
        "xyz": [-2.138404144104958, 4.547082511814013, 6.3831345015072]
      },
      {
        "species": [{ "element": "Se", "occu": 1 }],
        "abc": [0.96570784, 0.65582578, 0.96879399],
        "properties": { "magmom": -0.0 },
        "label": "Se",
        "xyz": [4.638980889884001, 4.1311849461166545, 18.932695301334597]
      },
      {
        "species": [{ "element": "Se", "occu": 1 }],
        "abc": [0.66767718, 0.02993296, 0.28683285000000003],
        "properties": { "magmom": 0.0 },
        "label": "Se",
        "xyz": [4.74753470181891, 0.1886270099099498, 5.605442444439]
      },
      {
        "species": [{ "element": "Se", "occu": 1 }],
        "abc": [0.30988306, 0.96570784, 0.13546099],
        "properties": { "magmom": -0.0 },
        "label": "Se",
        "xyz": [-1.2582131280088729, 6.083067264725449, 2.6472518155146]
      },
      {
        "species": [{ "element": "Se", "occu": 1 }],
        "abc": [0.27813196, 0.34507952000000003, 0.65996068],
        "properties": { "magmom": 0.0 },
        "label": "Se",
        "xyz": [0.7679976214503781, 2.1737017801359317, 12.8973079873272]
      },
      {
        "species": [{ "element": "Se", "occu": 1 }],
        "abc": [0.65492048, 0.93305244, 0.9932936800000001],
        "properties": { "magmom": 0.0 },
        "label": "Se",
        "xyz": [1.370205072654581, 5.877410018050056, 19.4114814731472]
      },
      {
        "species": [{ "element": "Se", "occu": 1 }],
        "abc": [0.34507952000000003, 0.06694756, 0.49329368],
        "properties": { "magmom": 0.0 },
        "label": "Se",
        "xyz": [2.2664797773454204, 0.421745651949944, 9.6402114731472]
      },
      {
        "species": [{ "element": "Se", "occu": 1 }],
        "abc": [0.65582578, 0.69011694, 0.80212799],
        "properties": { "magmom": -0.0 },
        "label": "Se",
        "xyz": [2.2603186283503254, 4.347150022469595, 15.675618329694599]
      },
      {
        "species": [{ "element": "Se", "occu": 1 }],
        "abc": [0.33232282, 0.97006704, 0.78683285],
        "properties": { "magmom": 0.0 },
        "label": "Se",
        "xyz": [-1.1108498518189087, 6.11052866009005, 15.376712444438999]
      },
      {
        "species": [{ "element": "Se", "occu": 1 }],
        "abc": [0.72186804, 0.65492048, 0.15996068],
        "properties": { "magmom": 0.0 },
        "label": "Se",
        "xyz": [2.8686872285496223, 4.125453889864068, 3.1260379873271997]
      },
      {
        "species": [{ "element": "Se", "occu": 1 }],
        "abc": [0.36225678, 0.33232282, 0.95349885],
        "properties": { "magmom": 0.0 },
        "label": "Se",
        "xyz": [1.426280152664531, 2.0933566790447284, 18.633789416079]
      },
      {
        "species": [{ "element": "Se", "occu": 1 }],
        "abc": [0.02993296, 0.36225678, 0.12016585],
        "properties": { "magmom": 0.0 },
        "label": "Se",
        "xyz": [-1.09976720597401, 2.281872957876288, 2.348345930259]
      },
      {
        "species": [{ "element": "Se", "occu": 1 }],
        "abc": [0.03429216, 0.34417422000000003, 0.46879399],
        "properties": { "magmom": -0.0 },
        "label": "Se",
        "xyz": [-1.002296039884002, 2.167970723883346, 9.1614253013346]
      }
    ]
  },
  "task_ids": null,
  "uncorrected_energy_per_atom": null,
  "energy_per_atom": -18.305059758333336,
  "formation_energy_per_atom": -0.686687467770832,
  "energy_above_hull": 0.0,
  "is_stable": true,
  "equilibrium_reaction_energy_per_atom": null,
  "decomposes_to": null,
  "xas": null,
  "grain_boundaries": null,
  "band_gap": 0.9903000000000001,
  "cbm": null,
  "vbm": null,
  "efermi": 2.52989165,
  "is_gap_direct": null,
  "is_metal": null,
  "es_source_calc_id": null,
  "bandstructure": null,
  "dos": null,
  "dos_energy_up": null,
  "dos_energy_down": null,
  "is_magnetic": null,
  "ordering": null,
  "total_magnetization": 0.0,
  "total_magnetization_normalized_vol": null,
  "total_magnetization_normalized_formula_units": null,
  "num_magnetic_sites": null,
  "num_unique_magnetic_sites": null,
  "types_of_magnetic_species": null,
  "bulk_modulus": null,
  "shear_modulus": null,
  "universal_anisotropy": null,
  "homogeneous_poisson": null,
  "e_total": null,
  "e_ionic": null,
  "e_electronic": null,
  "n": null,
  "e_ij_max": null,
  "weighted_surface_energy_EV_PER_ANG2": null,
  "weighted_surface_energy": null,
  "weighted_work_function": null,
  "surface_anisotropy": null,
  "shape_factor": null,
  "has_reconstructed": null,
  "possible_species": null,
  "has_props": null,
  "theoretical": null,
  "database_IDs": null,
  "fields_not_requested": [
    "builder_meta",
    "nsites",
    "elements",
    "nelements",
    "composition",
    "composition_reduced",
    "chemsys",
    "symmetry",
    "property_name",
    "deprecated",
    "deprecation_reasons",
    "last_updated",
    "origins",
    "warnings",
    "task_ids",
    "uncorrected_energy_per_atom",
    "equilibrium_reaction_energy_per_atom",
    "decomposes_to",
    "xas",
    "grain_boundaries",
    "cbm",
    "vbm",
    "is_gap_direct",
    "is_metal",
    "es_source_calc_id",
    "bandstructure",
    "dos",
    "dos_energy_up",
    "dos_energy_down",
    "is_magnetic",
    "ordering",
    "total_magnetization_normalized_vol",
    "total_magnetization_normalized_formula_units",
    "num_magnetic_sites",
    "num_unique_magnetic_sites",
    "types_of_magnetic_species",
    "bulk_modulus",
    "shear_modulus",
    "universal_anisotropy",
    "homogeneous_poisson",
    "e_total",
    "e_ionic",
    "e_electronic",
    "n",
    "e_ij_max",
    "weighted_surface_energy_EV_PER_ANG2",
    "weighted_surface_energy",
    "weighted_work_function",
    "surface_anisotropy",
    "shape_factor",
    "has_reconstructed",
    "possible_species",
    "has_props",
    "theoretical",
    "database_IDs"
  ]
}
