{"builder_meta": null, "nsites": null, "elements": null, "nelements": null, "composition": null, "composition_reduced": null, "formula_pretty": "In2Se", "formula_anonymous": "AB2", "chemsys": null, "volume": 720.5792763428628, "density": 5.689152942585251, "density_atomic": 30.024136514285953, "symmetry": null, "property_name": null, "material_id": "mp-627397", "deprecated": null, "deprecation_reasons": null, "last_updated": null, "origins": null, "warnings": null, "structure": {"@module": "pymatgen.core.structure", "@class": "Structure", "charge": 0, "lattice": {"matrix": [[4.092846, 0.0, 0.0], [0.0, 11.611788, 0.0], [0.0, 0.0, 15.162027]], "pbc": [true, true, true], "a": 4.092846, "b": 11.611788, "c": 15.162027, "alpha": 90.0, "beta": 90.0, "gamma": 90.0, "volume": 720.5792763428628}, "properties": {}, "sites": [{"species": [{"element": "In", "occu": 1}], "abc": [0.5, 0.09446, 0.859661999999999], "properties": {"magmom": -0.001}, "label": "In", "xyz": [2.046423, 1.09684949448, 13.034218454873985]}, {"species": [{"element": "In", "occu": 1}], "abc": [0.0, 0.5944600000000001, 0.640338], "properties": {"magmom": 0.001}, "label": "In", "xyz": [0.0, 6.902743494480002, 9.708822045126]}, {"species": [{"element": "In", "occu": 1}], "abc": [0.5, 0.253055, 0.239287], "properties": {"magmom": 0.001}, "label": "In", "xyz": [2.046423, 2.93842101234, 3.6280759547490002]}, {"species": [{"element": "In", "occu": 1}], "abc": [0.5, 0.746945, 0.760713], "properties": {"magmom": 0.001}, "label": "In", "xyz": [2.046423, 8.67336698766, 11.533951045251]}, {"species": [{"element": "In", "occu": 1}], "abc": [0.5, 0.691626, 0.491548], "properties": {"magmom": 0.0}, "label": "In", "xyz": [2.046423, 8.031014487288, 7.452864047796]}, {"species": [{"element": "In", "occu": 1}], "abc": [0.5, 0.586693, 0.122496], "properties": {"magmom": -0.0}, "label": "In", "xyz": [2.046423, 6.8125547370840005, 1.857287659392]}, {"species": [{"element": "In", "occu": 1}], "abc": [0.0, 0.753054999999999, 0.260713], "properties": {"magmom": -0.001}, "label": "In", "xyz": [0.0, 8.744315012339989, 3.952937545251]}, {"species": [{"element": "In", "occu": 1}], "abc": [0.5, 0.308374, 0.508452], "properties": {"magmom": 0.0}, "label": "In", "xyz": [2.046423, 3.580773512712, 7.709162952204]}, {"species": [{"element": "In", "occu": 1}], "abc": [0.0, 0.08669299999999901, 0.377504], "properties": {"magmom": 0.0}, "label": "In", "xyz": [0.0, 1.0066607370839886, 5.723725840608]}, {"species": [{"element": "In", "occu": 1}], "abc": [0.5, 0.413307, 0.877504], "properties": {"magmom": 0.0}, "label": "In", "xyz": [2.046423, 4.799233262916, 13.304739340608]}, {"species": [{"element": "In", "occu": 1}], "abc": [0.0, 0.913307, 0.622495999999999], "properties": {"magmom": -0.0}, "label": "In", "xyz": [0.0, 10.605127262916, 9.438301159391985]}, {"species": [{"element": "In", "occu": 1}], "abc": [0.0, 0.246945, 0.739286999999999], "properties": {"magmom": -0.001}, "label": "In", "xyz": [0.0, 2.8674729876600002, 11.209089454748986]}, {"species": [{"element": "In", "occu": 1}], "abc": [0.0, 0.808373999999999, 0.991548], "properties": {"magmom": -0.0}, "label": "In", "xyz": [0.0, 9.38666751271199, 15.033877547796]}, {"species": [{"element": "In", "occu": 1}], "abc": [0.0, 0.191626, 0.008452], "properties": {"magmom": -0.001}, "label": "In", "xyz": [0.0, 2.225120487288, 0.12814945220399998]}, {"species": [{"element": "In", "occu": 1}], "abc": [0.0, 0.40554, 0.359662], "properties": {"magmom": 0.001}, "label": "In", "xyz": [0.0, 4.7090445055200005, 5.453204954874]}, {"species": [{"element": "In", "occu": 1}], "abc": [0.5, 0.9055400000000001, 0.140338], "properties": {"magmom": -0.001}, "label": "In", "xyz": [2.046423, 10.514938505520002, 2.127808545126]}, {"species": [{"element": "Se", "occu": 1}], "abc": [0.0, 0.084672, 0.176424], "properties": {"magmom": -0.0}, "label": "Se", "xyz": [0.0, 0.983193313536, 2.674945451448]}, {"species": [{"element": "Se", "occu": 1}], "abc": [0.5, 0.584672, 0.323576], "properties": {"magmom": 0.0}, "label": "Se", "xyz": [2.046423, 6.789087313536, 4.906068048552]}, {"species": [{"element": "Se", "occu": 1}], "abc": [0.5, 0.346802, 0.068664], "properties": {"magmom": -0.0}, "label": "Se", "xyz": [2.046423, 4.026991301976, 1.0410854219280001]}, {"species": [{"element": "Se", "occu": 1}], "abc": [0.0, 0.915327999999999, 0.823576], "properties": {"magmom": -0.0}, "label": "Se", "xyz": [0.0, 10.62859468646399, 12.487081548552]}, {"species": [{"element": "Se", "occu": 1}], "abc": [0.5, 0.415328, 0.676423999999999], "properties": {"magmom": 0.0}, "label": "Se", "xyz": [2.046423, 4.822700686464, 10.255958951447985]}, {"species": [{"element": "Se", "occu": 1}], "abc": [0.0, 0.153198, 0.568664], "properties": {"magmom": 0.0}, "label": "Se", "xyz": [0.0, 1.7789026980240001, 8.622098921928]}, {"species": [{"element": "Se", "occu": 1}], "abc": [0.5, 0.653198, 0.931335999999999], "properties": {"magmom": -0.0}, "label": "Se", "xyz": [2.046423, 7.584796698023999, 14.120941578071985]}, {"species": [{"element": "Se", "occu": 1}], "abc": [0.0, 0.846801999999999, 0.431336], "properties": {"magmom": 0.0}, "label": "Se", "xyz": [0.0, 9.83288530197599, 6.539928078072]}]}, "task_ids": null, "uncorrected_energy_per_atom": null, "energy_per_atom": -20.179070212083335, "formation_energy_per_atom": -0.35615654843750105, "energy_above_hull": 0.09499445958333201, "is_stable": false, "equilibrium_reaction_energy_per_atom": null, "decomposes_to": null, "xas": null, "grain_boundaries": null, "band_gap": 0.0, "cbm": null, "vbm": null, "efermi": 4.82749609, "is_gap_direct": null, "is_metal": null, "es_source_calc_id": null, "bandstructure": null, "dos": null, "dos_energy_up": null, "dos_energy_down": null, "is_magnetic": null, "ordering": null, "total_magnetization": 0.0018547, "total_magnetization_normalized_vol": null, "total_magnetization_normalized_formula_units": null, "num_magnetic_sites": null, "num_unique_magnetic_sites": null, "types_of_magnetic_species": null, "bulk_modulus": null, "shear_modulus": null, "universal_anisotropy": null, "homogeneous_poisson": null, "e_total": null, "e_ionic": null, "e_electronic": null, "n": null, "e_ij_max": null, "weighted_surface_energy_EV_PER_ANG2": null, "weighted_surface_energy": null, "weighted_work_function": null, "surface_anisotropy": null, "shape_factor": null, "has_reconstructed": null, "possible_species": null, "has_props": null, "theoretical": null, "database_IDs": null, "fields_not_requested": ["builder_meta", "nsites", "elements", "nelements", "composition", "composition_reduced", "chemsys", "symmetry", "property_name", "deprecated", "deprecation_reasons", "last_updated", "origins", "warnings", "task_ids", "uncorrected_energy_per_atom", "equilibrium_reaction_energy_per_atom", "decomposes_to", "xas", "grain_boundaries", "cbm", "vbm", "is_gap_direct", "is_metal", "es_source_calc_id", "bandstructure", "dos", "dos_energy_up", "dos_energy_down", "is_magnetic", "ordering", "total_magnetization_normalized_vol", "total_magnetization_normalized_formula_units", "num_magnetic_sites", "num_unique_magnetic_sites", "types_of_magnetic_species", "bulk_modulus", "shear_modulus", "universal_anisotropy", "homogeneous_poisson", "e_total", "e_ionic", "e_electronic", "n", "e_ij_max", "weighted_surface_energy_EV_PER_ANG2", "weighted_surface_energy", "weighted_work_function", "surface_anisotropy", "shape_factor", "has_reconstructed", "possible_species", "has_props", "theoretical", "database_IDs"]}