{
  "builder_meta": null,
  "nsites": null,
  "elements": null,
  "nelements": null,
  "composition": null,
  "composition_reduced": null,
  "formula_pretty": "In2Te3",
  "formula_anonymous": "A2B3",
  "chemsys": null,
  "volume": 193.50901449101463,
  "density": 5.255434256988888,
  "density_atomic": 38.70180289820293,
  "symmetry": null,
  "property_name": null,
  "material_id": "mp-1223866",
  "deprecated": null,
  "deprecation_reasons": null,
  "last_updated": null,
  "origins": null,
  "warnings": null,
  "structure": {
    "@module": "pymatgen.core.structure",
    "@class": "Structure",
    "charge": 0,
    "lattice": {
      "matrix": [
        [-4.474183, 0.0, 0.0],
        [0.0, 0.002839, -6.448716],
        [-2.237092, -6.705364, -3.221533]
      ],
      "pbc": [true, true, true],
      "a": 4.474183,
      "b": 6.448716624924451,
      "c": 7.768189097791647,
      "alpha": 65.52297558867794,
      "beta": 73.26287127510597,
      "gamma": 90.0,
      "volume": 193.50901449101463
    },
    "properties": {},
    "sites": [
      {
        "species": [{ "element": "In", "occu": 1 }],
        "abc": [0.505297, 0.745351, 0.989406],
        "properties": { "magmom": 0.0 },
        "label": "In",
        "xyz": [-4.474183494703, -6.632211322295, -7.993960998714]
      },
      {
        "species": [{ "element": "In", "occu": 1 }],
        "abc": [0.827874, 0.06789, 0.344253],
        "properties": { "magmom": 0.0 },
        "label": "In",
        "xyz": [-4.474185409218, -2.308148933382, -1.546825729089]
      },
      {
        "species": [{ "element": "Te", "occu": 1 }],
        "abc": [0.014154, 0.037587999999999004, 0.971691],
        "properties": { "magmom": 0.0 },
        "label": "Te",
        "xyz": [-2.237089748754, -6.515435138192, -3.3727289593109933]
      },
      {
        "species": [{ "element": "Te", "occu": 1 }],
        "abc": [0.666652999999999, 0.639836, 0.666694999999999],
        "properties": { "magmom": 0.0 },
        "label": "Te",
        "xyz": [-4.474185570438994, -4.468616157575994, -6.273900594010996]
      },
      {
        "species": [{ "element": "Te", "occu": 1 }],
        "abc": [0.319022, 0.342335, 0.361956],
        "properties": { "magmom": 0.0 },
        "label": "Te",
        "xyz": [-2.237091680978, -2.426074842919, -3.373674390408]
      }
    ]
  },
  "task_ids": null,
  "uncorrected_energy_per_atom": null,
  "energy_per_atom": -24.723706329555554,
  "formation_energy_per_atom": -0.441935591555554,
  "energy_above_hull": 0.004663606977779,
  "is_stable": false,
  "equilibrium_reaction_energy_per_atom": null,
  "decomposes_to": null,
  "xas": null,
  "grain_boundaries": null,
  "band_gap": 0.136499999999999,
  "cbm": null,
  "vbm": null,
  "efermi": 4.24034727,
  "is_gap_direct": null,
  "is_metal": null,
  "es_source_calc_id": null,
  "bandstructure": null,
  "dos": null,
  "dos_energy_up": null,
  "dos_energy_down": null,
  "is_magnetic": null,
  "ordering": null,
  "total_magnetization": 0.000357899999999,
  "total_magnetization_normalized_vol": null,
  "total_magnetization_normalized_formula_units": null,
  "num_magnetic_sites": null,
  "num_unique_magnetic_sites": null,
  "types_of_magnetic_species": null,
  "bulk_modulus": null,
  "shear_modulus": null,
  "universal_anisotropy": null,
  "homogeneous_poisson": null,
  "e_total": null,
  "e_ionic": null,
  "e_electronic": null,
  "n": null,
  "e_ij_max": null,
  "weighted_surface_energy_EV_PER_ANG2": null,
  "weighted_surface_energy": null,
  "weighted_work_function": null,
  "surface_anisotropy": null,
  "shape_factor": null,
  "has_reconstructed": null,
  "possible_species": null,
  "has_props": null,
  "theoretical": null,
  "database_IDs": null,
  "fields_not_requested": [
    "builder_meta",
    "nsites",
    "elements",
    "nelements",
    "composition",
    "composition_reduced",
    "chemsys",
    "symmetry",
    "property_name",
    "deprecated",
    "deprecation_reasons",
    "last_updated",
    "origins",
    "warnings",
    "task_ids",
    "uncorrected_energy_per_atom",
    "equilibrium_reaction_energy_per_atom",
    "decomposes_to",
    "xas",
    "grain_boundaries",
    "cbm",
    "vbm",
    "is_gap_direct",
    "is_metal",
    "es_source_calc_id",
    "bandstructure",
    "dos",
    "dos_energy_up",
    "dos_energy_down",
    "is_magnetic",
    "ordering",
    "total_magnetization_normalized_vol",
    "total_magnetization_normalized_formula_units",
    "num_magnetic_sites",
    "num_unique_magnetic_sites",
    "types_of_magnetic_species",
    "bulk_modulus",
    "shear_modulus",
    "universal_anisotropy",
    "homogeneous_poisson",
    "e_total",
    "e_ionic",
    "e_electronic",
    "n",
    "e_ij_max",
    "weighted_surface_energy_EV_PER_ANG2",
    "weighted_surface_energy",
    "weighted_work_function",
    "surface_anisotropy",
    "shape_factor",
    "has_reconstructed",
    "possible_species",
    "has_props",
    "theoretical",
    "database_IDs"
  ]
}
