{"builder_meta": null, "nsites": null, "elements": null, "nelements": null, "composition": null, "composition_reduced": null, "formula_pretty": "IN3", "formula_anonymous": "AB3", "chemsys": null, "volume": 252.31399293969898, "density": 4.446932879551314, "density_atomic": 15.769624558731186, "symmetry": null, "property_name": null, "material_id": "mp-684692", "deprecated": null, "deprecation_reasons": null, "last_updated": null, "origins": null, "warnings": null, "structure": {"@module": "pymatgen.core.structure", "@class": "Structure", "charge": 0, "lattice": {"matrix": [[5.94819, 0.0, 0.0], [0.042552, 6.049526, 0.0], [0.019889, 0.056991, 7.011891]], "pbc": [true, true, true], "a": 5.94819, "b": 6.04967565224616, "c": 7.012150807154892, "alpha": 89.53319392786399, "beta": 89.8374881947029, "gamma": 89.59699159860368, "volume": 252.31399293969898}, "properties": {}, "sites": [{"species": [{"element": "I", "occu": 1}], "abc": [0.628876, 0.008636, 0.771049], "properties": {"magmom": 0.0}, "label": "I", "xyz": [3.7563768070730004, 0.096186560095, 5.4065115436590006]}, {"species": [{"element": "I", "occu": 1}], "abc": [0.126368, 0.988563, 0.734785], "properties": {"magmom": 0.0}, "label": "I", "xyz": [0.8083403455610001, 6.022213703073, 5.152232328435001]}, {"species": [{"element": "I", "occu": 1}], "abc": [0.371124, 0.991363999999999, 0.228951], "properties": {"magmom": 0.0}, "label": "I", "xyz": [2.254254192927, 6.010330439904995, 1.605379456341]}, {"species": [{"element": "I", "occu": 1}], "abc": [0.873632, 0.011437, 0.265215], "properties": {"magmom": 0.0}, "label": "I", "xyz": [5.2022906544389995, 0.08430329692699999, 1.8596586715649999]}, {"species": [{"element": "N", "occu": 1}], "abc": [0.040420000000000005, 0.547640999999999, 0.418554999999999], "properties": {"magmom": 0.0}, "label": "N", "xyz": [0.27205370002699997, 3.336822336170994, 2.934862037504993]}, {"species": [{"element": "N", "occu": 1}], "abc": [0.103835, 0.477464, 0.019982], "properties": {"magmom": 0.0}, "label": "N", "xyz": [0.6383447787759999, 2.889569676226, 0.140111605962]}, {"species": [{"element": "N", "occu": 1}], "abc": [0.896165, 0.522536, 0.980018], "properties": {"magmom": 0.0}, "label": "N", "xyz": [5.372286221224001, 3.2169473237740003, 6.871779394038]}, {"species": [{"element": "N", "occu": 1}], "abc": [0.9595800000000001, 0.452358999999999, 0.581445], "properties": {"magmom": 0.0}, "label": "N", "xyz": [5.7385772999730005, 2.769694663828994, 4.0770289624950005]}, {"species": [{"element": "N", "occu": 1}], "abc": [0.602534, 0.534845, 0.489488], "properties": {"magmom": -0.0}, "label": "N", "xyz": [3.6164808647320004, 3.263455144078, 3.432236501808]}, {"species": [{"element": "N", "occu": 1}], "abc": [0.460514999999999, 0.536275, 0.915052], "properties": {"magmom": 0.0}, "label": "N", "xyz": [2.7802497608779944, 3.296359284182, 6.416244883332]}, {"species": [{"element": "N", "occu": 1}], "abc": [0.249225, 0.550308, 0.89104], "properties": {"magmom": -0.0}, "label": "N", "xyz": [1.523576253326, 3.379883814648, 6.247875356640001]}, {"species": [{"element": "N", "occu": 1}], "abc": [0.748811999999999, 0.430539, 0.597181], "properties": {"magmom": 0.0}, "label": "N", "xyz": [4.484273678716995, 2.638590816885, 4.187368079271]}, {"species": [{"element": "N", "occu": 1}], "abc": [0.397466, 0.465155, 0.510512], "properties": {"magmom": -0.0}, "label": "N", "xyz": [2.394150135268, 2.843061855922, 3.5796544981919998]}, {"species": [{"element": "N", "occu": 1}], "abc": [0.251187999999999, 0.569461, 0.402819], "properties": {"magmom": 0.0}, "label": "N", "xyz": [1.5263573212829942, 3.4679261831150003, 2.824522920729]}, {"species": [{"element": "N", "occu": 1}], "abc": [0.539485, 0.463725, 0.084948], "properties": {"magmom": 0.0}, "label": "N", "xyz": [3.230381239122, 2.8101577158180002, 0.595646116668]}, {"species": [{"element": "N", "occu": 1}], "abc": [0.750775, 0.449692, 0.10896000000000002], "properties": {"magmom": -0.0}, "label": "N", "xyz": [4.4870547466740005, 2.726633185352, 0.7640156433600002]}]}, "task_ids": null, "uncorrected_energy_per_atom": null, "energy_per_atom": -5.970232815625, "formation_energy_per_atom": 0.664478646874999, "energy_above_hull": 0.9103925253125, "is_stable": false, "equilibrium_reaction_energy_per_atom": null, "decomposes_to": null, "xas": null, "grain_boundaries": null, "band_gap": 0.0, "cbm": null, "vbm": null, "efermi": 3.84384209, "is_gap_direct": null, "is_metal": null, "es_source_calc_id": null, "bandstructure": null, "dos": null, "dos_energy_up": null, "dos_energy_down": null, "is_magnetic": null, "ordering": null, "total_magnetization": 0.001661, "total_magnetization_normalized_vol": null, "total_magnetization_normalized_formula_units": null, "num_magnetic_sites": null, "num_unique_magnetic_sites": null, "types_of_magnetic_species": null, "bulk_modulus": null, "shear_modulus": null, "universal_anisotropy": null, "homogeneous_poisson": null, "e_total": null, "e_ionic": null, "e_electronic": null, "n": null, "e_ij_max": null, "weighted_surface_energy_EV_PER_ANG2": null, "weighted_surface_energy": null, "weighted_work_function": null, "surface_anisotropy": null, "shape_factor": null, "has_reconstructed": null, "possible_species": null, "has_props": null, "theoretical": null, "database_IDs": null, "fields_not_requested": ["builder_meta", "nsites", "elements", "nelements", "composition", "composition_reduced", "chemsys", "symmetry", "property_name", "deprecated", "deprecation_reasons", "last_updated", "origins", "warnings", "task_ids", "uncorrected_energy_per_atom", "equilibrium_reaction_energy_per_atom", "decomposes_to", "xas", "grain_boundaries", "cbm", "vbm", "is_gap_direct", "is_metal", "es_source_calc_id", "bandstructure", "dos", "dos_energy_up", "dos_energy_down", "is_magnetic", "ordering", "total_magnetization_normalized_vol", "total_magnetization_normalized_formula_units", "num_magnetic_sites", "num_unique_magnetic_sites", "types_of_magnetic_species", "bulk_modulus", "shear_modulus", "universal_anisotropy", "homogeneous_poisson", "e_total", "e_ionic", "e_electronic", "n", "e_ij_max", "weighted_surface_energy_EV_PER_ANG2", "weighted_surface_energy", "weighted_work_function", "surface_anisotropy", "shape_factor", "has_reconstructed", "possible_species", "has_props", "theoretical", "database_IDs"]}