{"builder_meta": null, "nsites": null, "elements": null, "nelements": null, "composition": null, "composition_reduced": null, "formula_pretty": "In3Au", "formula_anonymous": "AB3", "chemsys": null, "volume": 201.41077496446303, "density": 8.92752640909037, "density_atomic": 25.17634687055788, "symmetry": null, "property_name": null, "material_id": "mp-1184506", "deprecated": null, "deprecation_reasons": null, "last_updated": null, "origins": null, "warnings": null, "structure": {"@module": "pymatgen.core.structure", "@class": "Structure", "charge": 0, "lattice": {"matrix": [[3.446551, -5.969602, 0.0], [3.446551, 5.969602, 0.0], [0.0, 0.0, 4.894661]], "pbc": [true, true, true], "a": 6.893102482482399, "b": 6.893102482482399, "c": 4.894661, "alpha": 90.0, "beta": 90.0, "gamma": 120.00000463082891, "volume": 201.41077496446303}, "properties": {}, "sites": [{"species": [{"element": "In", "occu": 1}], "abc": [0.175061, 0.350122999999999, 0.25], "properties": {"magmom": 0.001}, "label": "In", "xyz": [1.8100734403839966, 1.045050465323994, 1.22366525]}, {"species": [{"element": "In", "occu": 1}], "abc": [0.649876999999999, 0.824939, 0.25], "properties": {"magmom": -0.001}, "label": "In", "xyz": [5.083028559615997, 1.0450504653240054, 1.22366525]}, {"species": [{"element": "In", "occu": 1}], "abc": [0.175061, 0.824939, 0.25], "properties": {"magmom": -0.0}, "label": "In", "xyz": [3.4465509999999995, 3.8795130085559997, 1.22366525]}, {"species": [{"element": "In", "occu": 1}], "abc": [0.824939, 0.649876999999999, 0.75], "properties": {"magmom": 0.001}, "label": "In", "xyz": [5.083028559615997, -1.0450504653240054, 3.6709957500000003]}, {"species": [{"element": "In", "occu": 1}], "abc": [0.350122999999999, 0.175061, 0.75], "properties": {"magmom": -0.001}, "label": "In", "xyz": [1.8100734403839966, -1.045050465323994, 3.6709957500000003]}, {"species": [{"element": "In", "occu": 1}], "abc": [0.824939, 0.175061, 0.75], "properties": {"magmom": 0.0}, "label": "In", "xyz": [3.4465509999999995, -3.8795130085559997, 3.6709957500000003]}, {"species": [{"element": "Au", "occu": 1}], "abc": [0.333333, 0.666667, 0.75], "properties": {"magmom": 0.0}, "label": "Au", "xyz": [3.4465510000000004, 1.9898713130680001, 3.6709957500000003]}, {"species": [{"element": "Au", "occu": 1}], "abc": [0.666667, 0.333333, 0.25], "properties": {"magmom": -0.0}, "label": "Au", "xyz": [3.4465510000000004, -1.9898713130680001, 1.22366525]}]}, "task_ids": null, "uncorrected_energy_per_atom": null, "energy_per_atom": -29.657310733750002, "formation_energy_per_atom": -0.07712791125000201, "energy_above_hull": 0.16163790625000002, "is_stable": false, "equilibrium_reaction_energy_per_atom": null, "decomposes_to": null, "xas": null, "grain_boundaries": null, "band_gap": 0.0, "cbm": null, "vbm": null, "efermi": 6.46135015, "is_gap_direct": null, "is_metal": null, "es_source_calc_id": null, "bandstructure": null, "dos": null, "dos_energy_up": null, "dos_energy_down": null, "is_magnetic": null, "ordering": null, "total_magnetization": 0.0015983999999990002, "total_magnetization_normalized_vol": null, "total_magnetization_normalized_formula_units": null, "num_magnetic_sites": null, "num_unique_magnetic_sites": null, "types_of_magnetic_species": null, "bulk_modulus": null, "shear_modulus": null, "universal_anisotropy": null, "homogeneous_poisson": null, "e_total": null, "e_ionic": null, "e_electronic": null, "n": null, "e_ij_max": null, "weighted_surface_energy_EV_PER_ANG2": null, "weighted_surface_energy": null, "weighted_work_function": null, "surface_anisotropy": null, "shape_factor": null, "has_reconstructed": null, "possible_species": null, "has_props": null, "theoretical": null, "database_IDs": null, "fields_not_requested": ["builder_meta", "nsites", "elements", "nelements", "composition", "composition_reduced", "chemsys", "symmetry", "property_name", "deprecated", "deprecation_reasons", "last_updated", "origins", "warnings", "task_ids", "uncorrected_energy_per_atom", "equilibrium_reaction_energy_per_atom", "decomposes_to", "xas", "grain_boundaries", "cbm", "vbm", "is_gap_direct", "is_metal", "es_source_calc_id", "bandstructure", "dos", "dos_energy_up", "dos_energy_down", "is_magnetic", "ordering", "total_magnetization_normalized_vol", "total_magnetization_normalized_formula_units", "num_magnetic_sites", "num_unique_magnetic_sites", "types_of_magnetic_species", "bulk_modulus", "shear_modulus", "universal_anisotropy", "homogeneous_poisson", "e_total", "e_ionic", "e_electronic", "n", "e_ij_max", "weighted_surface_energy_EV_PER_ANG2", "weighted_surface_energy", "weighted_work_function", "surface_anisotropy", "shape_factor", "has_reconstructed", "possible_species", "has_props", "theoretical", "database_IDs"]}