{"builder_meta": null, "nsites": null, "elements": null, "nelements": null, "composition": null, "composition_reduced": null, "formula_pretty": "In3Au7", "formula_anonymous": "A3B7", "chemsys": null, "volume": 1185.760580303818, "density": 14.479183148679716, "density_atomic": 19.762676338396965, "symmetry": null, "property_name": null, "material_id": "mp-567550", "deprecated": null, "deprecation_reasons": null, "last_updated": null, "origins": null, "warnings": null, "structure": {"@module": "pymatgen.core.structure", "@class": "Structure", "charge": 0, "lattice": {"matrix": [[6.25469, -10.833441, 0.0], [6.25469, 10.833441, 0.0], [0.0, 0.0, 8.749732999999999]], "pbc": [true, true, true], "a": 12.509380116399893, "b": 12.509380116399893, "c": 8.749732999999999, "alpha": 90.0, "beta": 90.0, "gamma": 120.00000061561444, "volume": 1185.7605803038177}, "properties": {}, "sites": [{"species": [{"element": "In", "occu": 1}], "abc": [0.6907500000000001, 0.16581, 0.460898], "properties": {"magmom": 0.0}, "label": "In", "xyz": [5.3575172664, -5.686906518540001, 4.032734440233999]}, {"species": [{"element": "In", "occu": 1}], "abc": [0.5249400000000001, 0.6907500000000001, 0.539102], "properties": {"magmom": 0.0}, "label": "In", "xyz": [7.603764086100001, 1.7962928522100006, 4.716998559765999]}, {"species": [{"element": "In", "occu": 1}], "abc": [0.141041, 0.643100999999999, 0.041235999999999], "properties": {"magmom": -0.0}, "label": "In", "xyz": [4.904565125979994, 5.43903738845999, 0.36080398998799124]}, {"species": [{"element": "In", "occu": 1}], "abc": [0.49794000000000005, 0.141041, 0.958764], "properties": {"magmom": 0.0}, "label": "In", "xyz": [3.9966280708900004, -3.8664442594590005, 8.388929010012]}, {"species": [{"element": "In", "occu": 1}], "abc": [0.8341900000000001, 0.5249400000000001, 0.460898], "properties": {"magmom": -0.0}, "label": "In", "xyz": [8.500936819700001, -3.35024162925, 4.032734440233999]}, {"species": [{"element": "In", "occu": 1}], "abc": [0.833552, 0.812948999999999, 0.75134], "properties": {"magmom": 0.0}, "label": "In", "xyz": [10.298353339689992, -0.22320138492301034, 6.574024392219999]}, {"species": [{"element": "In", "occu": 1}], "abc": [0.020603, 0.833552, 0.24866000000000002], "properties": {"magmom": -0.0}, "label": "In", "xyz": [5.34247473695, 8.807035027509, 2.17570860778]}, {"species": [{"element": "In", "occu": 1}], "abc": [0.356898999999999, 0.49794000000000005, 0.041235999999999], "properties": {"magmom": -0.0}, "label": "In", "xyz": [5.346752944909994, 1.527959352081011, 0.36080398998799124]}, {"species": [{"element": "In", "occu": 1}], "abc": [0.812948999999999, 0.979397, 0.24866000000000002], "properties": {"magmom": 0.0}, "label": "In", "xyz": [11.210568602739993, 1.8032045875680112, 2.17570860778]}, {"species": [{"element": "In", "occu": 1}], "abc": [0.643100999999999, 0.5020600000000001, 0.958764], "properties": {"magmom": -0.0}, "label": "In", "xyz": [7.162627055089994, -1.5279593520809893, 8.388929010012]}, {"species": [{"element": "In", "occu": 1}], "abc": [0.166447999999999, 0.187051, 0.24866000000000002], "properties": {"magmom": 0.0}, "label": "In", "xyz": [2.2110266603099937, 0.22320138492301078, 2.17570860778]}, {"species": [{"element": "In", "occu": 1}], "abc": [0.187051, 0.020603, 0.75134], "properties": {"magmom": 0.0}, "label": "In", "xyz": [1.29881139726, -1.803204587568, 6.574024392219999]}, {"species": [{"element": "In", "occu": 1}], "abc": [0.16581, 0.47506000000000004, 0.539102], "properties": {"magmom": -0.0}, "label": "In", "xyz": [4.0084431803000005, 3.3502416292500006, 4.716998559765999]}, {"species": [{"element": "In", "occu": 1}], "abc": [0.30925, 0.8341900000000001, 0.539102], "properties": {"magmom": 0.0}, "label": "In", "xyz": [7.151862733600002, 5.686906518540001, 4.716998559765999]}, {"species": [{"element": "In", "occu": 1}], "abc": [0.858958999999999, 0.356898999999999, 0.958764], "properties": {"magmom": -0.0}, "label": "In", "xyz": [7.604814874019988, -5.439037388460001, 8.388929010012]}, {"species": [{"element": "In", "occu": 1}], "abc": [0.979397, 0.166447999999999, 0.75134], "properties": {"magmom": -0.0}, "label": "In", "xyz": [7.166905263049993, -8.807035027509011, 6.574024392219999]}, {"species": [{"element": "In", "occu": 1}], "abc": [0.5020600000000001, 0.858958999999999, 0.041235999999999], "properties": {"magmom": 0.0}, "label": "In", "xyz": [8.512751929109994, 3.866444259458989, 0.36080398998799124]}, {"species": [{"element": "In", "occu": 1}], "abc": [0.47506000000000004, 0.30925, 0.460898], "properties": {"magmom": 0.0}, "label": "In", "xyz": [4.9056159139, -1.7962928522100001, 4.032734440233999]}, {"species": [{"element": "Au", "occu": 1}], "abc": [0.223, 0.229839, 0.573971999999999], "properties": {"magmom": -0.0}, "label": "Au", "xyz": [2.83236756491, 0.07408990299899987, 5.022101749475991]}, {"species": [{"element": "Au", "occu": 1}], "abc": [0.993161, 0.223, 0.426027999999999], "properties": {"magmom": 0.0}, "label": "Au", "xyz": [7.60671004509, -8.343493754000999, 3.727631250523991]}, {"species": [{"element": "Au", "occu": 1}], "abc": [0.355286, 0.441627999999999, 0.365782999999999], "properties": {"magmom": -0.0}, "label": "Au", "xyz": [4.984450026659994, 0.93538096282199, 3.200503585938991]}, {"species": [{"element": "Au", "occu": 1}], "abc": [0.229839, 0.006839, 0.426027999999999], "properties": {"magmom": -0.0}, "label": "Au", "xyz": [1.48034751982, -2.4158573430000003, 3.727631250523991]}, {"species": [{"element": "Au", "occu": 1}], "abc": [0.529482999999999, 0.887755, 0.7045], "properties": {"magmom": -0.0}, "label": "Au", "xyz": [8.864384346219994, 3.8813185739520097, 6.1641868985]}, {"species": [{"element": "Au", "occu": 1}], "abc": [0.794051, 0.757131, 0.084558], "properties": {"magmom": 0.0}, "label": "Au", "xyz": [9.70216254358, -0.3999706417199995, 0.7398599230139998]}, {"species": [{"element": "Au", "occu": 1}], "abc": [0.893165, 0.578337, 0.125756], "properties": {"magmom": 0.0}, "label": "Au", "xyz": [9.20378884438, -3.4106705631480008, 1.100331423148]}, {"species": [{"element": "Au", "occu": 1}], "abc": [0.333333, 0.666667, 0.324847], "properties": {"magmom": -0.0}, "label": "Au", "xyz": [6.25469, 3.6111542222940005, 2.8423245158509998]}, {"species": [{"element": "Au", "occu": 1}], "abc": [0.333333, 0.666667, 0.833881], "properties": {"magmom": -0.0}, "label": "Au", "xyz": [6.25469, 3.6111542222940005, 7.2962361037729995]}, {"species": [{"element": "Au", "occu": 1}], "abc": [0.913658, 0.355286, 0.634216999999999], "properties": {"magmom": 0.0}, "label": "Au", "xyz": [7.93685134736, -6.049090118052, 5.549229414060991]}, {"species": [{"element": "Au", "occu": 1}], "abc": [0.862649, 0.560775, 0.791080999999999], "properties": {"magmom": 0.0}, "label": "Au", "xyz": [8.903075858560001, -3.270334168434, 6.921747531372991]}, {"species": [{"element": "Au", "occu": 1}], "abc": [0.441627999999999, 0.086342, 0.634216999999999], "properties": {"magmom": 0.0}, "label": "Au", "xyz": [3.302288679299994, -3.84896991912599, 5.549229414060991]}, {"species": [{"element": "Au", "occu": 1}], "abc": [0.301874, 0.862649, 0.208919], "properties": {"magmom": -0.0}, "label": "Au", "xyz": [7.28373036287, 6.075122876775001, 1.8279854686269998]}, {"species": [{"element": "Au", "occu": 1}], "abc": [0.421662999999999, 0.314828, 0.125756], "properties": {"magmom": 0.0}, "label": "Au", "xyz": [4.606522892789994, -1.1573906692349891, 1.100331423148]}, {"species": [{"element": "Au", "occu": 1}], "abc": [0.106835, 0.421662999999999, 0.874243999999999], "properties": {"magmom": 0.0}, "label": "Au", "xyz": [3.305591155619994, 3.410670563147989, 7.64940157685199]}, {"species": [{"element": "Au", "occu": 1}], "abc": [0.777, 0.770161, 0.426027999999999], "properties": {"magmom": -0.0}, "label": "Au", "xyz": [9.677012435089999, -0.07408990299900076, 3.727631250523991]}, {"species": [{"element": "Au", "occu": 1}], "abc": [0.685172, 0.106835, 0.125756], "properties": {"magmom": -0.0}, "label": "Au", "xyz": [4.95375826283, -6.265379767617, 1.100331423148]}, {"species": [{"element": "Au", "occu": 1}], "abc": [0.96308, 0.205949, 0.084558], "properties": {"magmom": -0.0}, "label": "Au", "xyz": [7.31191399601, -8.202334017771001, 0.7398599230139998]}, {"species": [{"element": "Au", "occu": 1}], "abc": [0.137351, 0.439225, 0.208919], "properties": {"magmom": 0.0}, "label": "Au", "xyz": [3.60630414144, 3.270334168434, 1.8279854686269998]}, {"species": [{"element": "Au", "occu": 1}], "abc": [0.086342, 0.644714, 0.365782999999999], "properties": {"magmom": 0.0}, "label": "Au", "xyz": [4.57252865264, 6.049090118052, 3.200503585938991]}, {"species": [{"element": "Au", "occu": 1}], "abc": [0.558372, 0.913658, 0.365782999999999], "properties": {"magmom": 0.0}, "label": "Au", "xyz": [9.2070913207, 3.8489699191260005, 3.200503585938991]}, {"species": [{"element": "Au", "occu": 1}], "abc": [0.641728, 0.529482999999999, 0.29550000000000004], "properties": {"magmom": -0.0}, "label": "Au", "xyz": [7.325561729589994, -1.2159995850450098, 2.5855461015000003]}, {"species": [{"element": "Au", "occu": 1}], "abc": [0.698125999999999, 0.137351, 0.791080999999999], "properties": {"magmom": -0.0}, "label": "Au", "xyz": [5.225649637129994, -6.07512287677499, 6.921747531372991]}, {"species": [{"element": "Au", "occu": 1}], "abc": [0.112245, 0.641728, 0.7045], "properties": {"magmom": 0.0}, "label": "Au", "xyz": [4.71586738337, 5.736122841003, 6.1641868985]}, {"species": [{"element": "Au", "occu": 1}], "abc": [0.03692, 0.794051, 0.915442], "properties": {"magmom": -0.0}, "label": "Au", "xyz": [5.19746600399, 8.202334017771001, 8.009873076985999]}, {"species": [{"element": "Au", "occu": 1}], "abc": [0.666667, 0.333333, 0.166119], "properties": {"magmom": -0.0}, "label": "Au", "xyz": [6.25469, -3.6111542222940005, 1.4534968962269998]}, {"species": [{"element": "Au", "occu": 1}], "abc": [0.757131, 0.96308, 0.915442], "properties": {"magmom": -0.0}, "label": "Au", "xyz": [10.75938653959, 2.231136340509, 8.009873076985999]}, {"species": [{"element": "Au", "occu": 1}], "abc": [0.006839, 0.777, 0.573971999999999], "properties": {"magmom": 0.0}, "label": "Au", "xyz": [4.9026699549099995, 8.343493754001, 5.022101749475991]}, {"species": [{"element": "Au", "occu": 1}], "abc": [0.770161, 0.993161, 0.573971999999999], "properties": {"magmom": -0.0}, "label": "Au", "xyz": [11.02903248018, 2.415857342999999, 5.022101749475991]}, {"species": [{"element": "Au", "occu": 1}], "abc": [0.666667, 0.333333, 0.675153], "properties": {"magmom": -0.0}, "label": "Au", "xyz": [6.25469, -3.6111542222940005, 5.907408484148999]}, {"species": [{"element": "Au", "occu": 1}], "abc": [0.470516999999999, 0.112245, 0.29550000000000004], "properties": {"magmom": -0.0}, "label": "Au", "xyz": [3.6449956537799935, -3.8813185739519893, 2.5855461015000003]}, {"species": [{"element": "Au", "occu": 1}], "abc": [0.0, 0.0, 0.0], "properties": {"magmom": -0.0}, "label": "Au", "xyz": [0.0, 0.0, 0.0]}, {"species": [{"element": "Au", "occu": 1}], "abc": [0.314828, 0.893165, 0.874243999999999], "properties": {"magmom": -0.0}, "label": "Au", "xyz": [7.55562173717, 6.265379767617, 7.64940157685199]}, {"species": [{"element": "Au", "occu": 1}], "abc": [0.578337, 0.685172, 0.874243999999999], "properties": {"magmom": 0.0}, "label": "Au", "xyz": [7.90285710721, 1.1573906692350002, 7.64940157685199]}, {"species": [{"element": "Au", "occu": 1}], "abc": [0.887755, 0.358272, 0.29550000000000004], "properties": {"magmom": 0.0}, "label": "Au", "xyz": [7.79351261663, -5.736122841003, 2.5855461015000003]}, {"species": [{"element": "Au", "occu": 1}], "abc": [0.644714, 0.558372, 0.634216999999999], "properties": {"magmom": -0.0}, "label": "Au", "xyz": [7.52492997334, -0.9353809628220002, 5.549229414060991]}, {"species": [{"element": "Au", "occu": 1}], "abc": [0.358272, 0.470516999999999, 0.7045], "properties": {"magmom": -0.0}, "label": "Au", "xyz": [5.1838182704099935, 1.2159995850449894, 6.1641868985]}, {"species": [{"element": "Au", "occu": 1}], "abc": [0.439225, 0.301874, 0.791080999999999], "properties": {"magmom": -0.0}, "label": "Au", "xyz": [4.63534450431, -1.4879839547910003, 6.921747531372991]}, {"species": [{"element": "Au", "occu": 1}], "abc": [0.560775, 0.698125999999999, 0.208919], "properties": {"magmom": -0.0}, "label": "Au", "xyz": [7.874035495689994, 1.4879839547909892, 1.8279854686269998]}, {"species": [{"element": "Au", "occu": 1}], "abc": [0.205949, 0.242869, 0.915442], "properties": {"magmom": 0.0}, "label": "Au", "xyz": [2.80721745642, 0.3999706417200004, 8.009873076985999]}, {"species": [{"element": "Au", "occu": 1}], "abc": [0.242869, 0.03692, 0.084558], "properties": {"magmom": -0.0}, "label": "Au", "xyz": [1.74999346041, -2.2311363405090003, 0.7398599230139998]}, {"species": [{"element": "Au", "occu": 1}], "abc": [0.0, 0.0, 0.5], "properties": {"magmom": -0.0}, "label": "Au", "xyz": [0.0, 0.0, 4.3748664999999995]}]}, "task_ids": null, "uncorrected_energy_per_atom": null, "energy_per_atom": -42.35489835975758, "formation_energy_per_atom": -0.17184914075757302, "energy_above_hull": 0.0023752138333250003, "is_stable": false, "equilibrium_reaction_energy_per_atom": null, "decomposes_to": null, "xas": null, "grain_boundaries": null, "band_gap": 0.0, "cbm": null, "vbm": null, "efermi": 6.54090754, "is_gap_direct": null, "is_metal": null, "es_source_calc_id": null, "bandstructure": null, "dos": null, "dos_energy_up": null, "dos_energy_down": null, "is_magnetic": null, "ordering": null, "total_magnetization": 0.0014684, "total_magnetization_normalized_vol": null, "total_magnetization_normalized_formula_units": null, "num_magnetic_sites": null, "num_unique_magnetic_sites": null, "types_of_magnetic_species": null, "bulk_modulus": null, "shear_modulus": null, "universal_anisotropy": null, "homogeneous_poisson": null, "e_total": null, "e_ionic": null, "e_electronic": null, "n": null, "e_ij_max": null, "weighted_surface_energy_EV_PER_ANG2": null, "weighted_surface_energy": null, "weighted_work_function": null, "surface_anisotropy": null, "shape_factor": null, "has_reconstructed": null, "possible_species": null, "has_props": null, "theoretical": null, "database_IDs": null, "fields_not_requested": ["builder_meta", "nsites", "elements", "nelements", "composition", "composition_reduced", "chemsys", "symmetry", "property_name", "deprecated", "deprecation_reasons", "last_updated", "origins", "warnings", "task_ids", "uncorrected_energy_per_atom", "equilibrium_reaction_energy_per_atom", "decomposes_to", "xas", "grain_boundaries", "cbm", "vbm", "is_gap_direct", "is_metal", "es_source_calc_id", "bandstructure", "dos", "dos_energy_up", "dos_energy_down", "is_magnetic", "ordering", "total_magnetization_normalized_vol", "total_magnetization_normalized_formula_units", "num_magnetic_sites", "num_unique_magnetic_sites", "types_of_magnetic_species", "bulk_modulus", "shear_modulus", "universal_anisotropy", "homogeneous_poisson", "e_total", "e_ionic", "e_electronic", "n", "e_ij_max", "weighted_surface_energy_EV_PER_ANG2", "weighted_surface_energy", "weighted_work_function", "surface_anisotropy", "shape_factor", "has_reconstructed", "possible_species", "has_props", "theoretical", "database_IDs"]}