{"builder_meta": null, "nsites": null, "elements": null, "nelements": null, "composition": null, "composition_reduced": null, "formula_pretty": "In3Co", "formula_anonymous": "AB3", "chemsys": null, "volume": 328.6815891397892, "density": 8.151843223306399, "density_atomic": 20.542599321236825, "symmetry": null, "property_name": null, "material_id": "mp-22236", "deprecated": null, "deprecation_reasons": null, "last_updated": null, "origins": null, "warnings": null, "structure": {"@module": "pymatgen.core.structure", "@class": "Structure", "charge": 0, "lattice": {"matrix": [[6.81487624, -0.00045626, 1.029999999999998e-06], [-0.00045626, 6.81487624, 1.029999999999998e-06], [1.02e-06, 1.02e-06, 7.07716683]], "pbc": [true, true, true], "a": 6.814876255273517, "b": 6.814876255273517, "c": 7.077166830000147, "alpha": 89.99998308309091, "beta": 89.99998308309091, "gamma": 90.00767197272452, "volume": 328.6815891397892}, "properties": {}, "sites": [{"species": [{"element": "In", "occu": 1}], "abc": [-0.0, 0.5, 0.0], "properties": {"magmom": -0.0}, "label": "In", "xyz": [-0.00022813, 3.40743812, 5.14999999999999e-07]}, {"species": [{"element": "In", "occu": 1}], "abc": [-0.0, 0.5, 0.5], "properties": {"magmom": 0.0}, "label": "In", "xyz": [-0.00022762, 3.40743863, 3.53858393]}, {"species": [{"element": "In", "occu": 1}], "abc": [0.5, -0.0, 0.5], "properties": {"magmom": 0.0}, "label": "In", "xyz": [3.40743863, -0.00022762, 3.53858393]}, {"species": [{"element": "In", "occu": 1}], "abc": [0.5, -0.0, 0.0], "properties": {"magmom": -0.0}, "label": "In", "xyz": [3.40743812, -0.00022813, 5.14999999999999e-07]}, {"species": [{"element": "In", "occu": 1}], "abc": [0.15399428, 0.15399428, 0.25744503], "properties": {"magmom": 0.0}, "label": "In", "xyz": [1.049381961031645, 1.049381961031645, 1.8219817440925719]}, {"species": [{"element": "In", "occu": 1}], "abc": [0.3460221, 0.653978899999999, 0.75749435], "properties": {"magmom": 0.0}, "label": "In", "xyz": [2.357800176036227, 4.45662816367222, 5.3609149177334405]}, {"species": [{"element": "In", "occu": 1}], "abc": [0.653978899999999, 0.3460221, 0.75749435], "properties": {"magmom": 0.0}, "label": "In", "xyz": [4.45662816367222, 2.357800176036227, 5.3609149177334405]}, {"species": [{"element": "In", "occu": 1}], "abc": [0.653978899999999, 0.3460221, 0.24250565000000002], "properties": {"magmom": 0.0}, "label": "In", "xyz": [4.456627638383747, 2.357799650747753, 1.7162539722686196]}, {"species": [{"element": "In", "occu": 1}], "abc": [0.3460221, 0.653978899999999, 0.24250565000000002], "properties": {"magmom": 0.0}, "label": "In", "xyz": [2.357799650747753, 4.456627638383747, 1.7162539722686196]}, {"species": [{"element": "In", "occu": 1}], "abc": [0.8460057200000001, 0.8460057200000001, 0.25744503], "properties": {"magmom": 0.0}, "label": "In", "xyz": [5.7650385441562175, 5.7650385441562175, 1.8219831696361382]}, {"species": [{"element": "In", "occu": 1}], "abc": [0.15399428, 0.15399428, 0.74255497], "properties": {"magmom": 0.0}, "label": "In", "xyz": [1.0493824558437839, 1.0493824558437839, 5.255185720363863]}, {"species": [{"element": "In", "occu": 1}], "abc": [0.8460057200000001, 0.8460057200000001, 0.74255497], "properties": {"magmom": 0.0}, "label": "In", "xyz": [5.765039038968356, 5.765039038968356, 5.255187145907429]}, {"species": [{"element": "Co", "occu": 1}], "abc": [0.34746653, 0.34746653, 0.0], "properties": {"magmom": 0.0}, "label": "Co", "xyz": [2.3677828644132695, 2.3677828644132695, 7.157810517999986e-07]}, {"species": [{"element": "Co", "occu": 1}], "abc": [0.15257495000000001, 0.84742505, 0.5], "properties": {"magmom": -0.0}, "label": "Co", "xyz": [1.039393265420875, 5.775027734579124, 3.538584445]}, {"species": [{"element": "Co", "occu": 1}], "abc": [0.84742505, 0.15257495000000001, 0.5], "properties": {"magmom": -0.0}, "label": "Co", "xyz": [5.775027734579124, 1.039393265420875, 3.538584445]}, {"species": [{"element": "Co", "occu": 1}], "abc": [0.6525334700000001, 0.6525334700000001, -0.0], "properties": {"magmom": 0.0}, "label": "Co", "xyz": [4.446637115586731, 4.446637115586731, 1.3442189481999975e-06]}]}, "task_ids": null, "uncorrected_energy_per_atom": null, "energy_per_atom": -20.258833565625, "formation_energy_per_atom": -0.016332998125001, "energy_above_hull": 0.0, "is_stable": true, "equilibrium_reaction_energy_per_atom": null, "decomposes_to": null, "xas": null, "grain_boundaries": null, "band_gap": 0.0, "cbm": null, "vbm": null, "efermi": 7.78284753, "is_gap_direct": null, "is_metal": null, "es_source_calc_id": null, "bandstructure": null, "dos": null, "dos_energy_up": null, "dos_energy_down": null, "is_magnetic": null, "ordering": null, "total_magnetization": 1e-07, "total_magnetization_normalized_vol": null, "total_magnetization_normalized_formula_units": null, "num_magnetic_sites": null, "num_unique_magnetic_sites": null, "types_of_magnetic_species": null, "bulk_modulus": null, "shear_modulus": null, "universal_anisotropy": null, "homogeneous_poisson": null, "e_total": null, "e_ionic": null, "e_electronic": null, "n": null, "e_ij_max": null, "weighted_surface_energy_EV_PER_ANG2": null, "weighted_surface_energy": null, "weighted_work_function": null, "surface_anisotropy": null, "shape_factor": null, "has_reconstructed": null, "possible_species": null, "has_props": null, "theoretical": null, "database_IDs": null, "fields_not_requested": ["builder_meta", "nsites", "elements", "nelements", "composition", "composition_reduced", "chemsys", "symmetry", "property_name", "deprecated", "deprecation_reasons", "last_updated", "origins", "warnings", "task_ids", "uncorrected_energy_per_atom", "equilibrium_reaction_energy_per_atom", "decomposes_to", "xas", "grain_boundaries", "cbm", "vbm", "is_gap_direct", "is_metal", "es_source_calc_id", "bandstructure", "dos", "dos_energy_up", "dos_energy_down", "is_magnetic", "ordering", "total_magnetization_normalized_vol", "total_magnetization_normalized_formula_units", "num_magnetic_sites", "num_unique_magnetic_sites", "types_of_magnetic_species", "bulk_modulus", "shear_modulus", "universal_anisotropy", "homogeneous_poisson", "e_total", "e_ionic", "e_electronic", "n", "e_ij_max", "weighted_surface_energy_EV_PER_ANG2", "weighted_surface_energy", "weighted_work_function", "surface_anisotropy", "shape_factor", "has_reconstructed", "possible_species", "has_props", "theoretical", "database_IDs"]}