{
  "builder_meta": null,
  "nsites": null,
  "elements": null,
  "nelements": null,
  "composition": null,
  "composition_reduced": null,
  "formula_pretty": "In3Cu7",
  "formula_anonymous": "A3B7",
  "chemsys": null,
  "volume": 576.147613080268,
  "density": 9.099221120245707,
  "density_atomic": 14.4036903270067,
  "symmetry": null,
  "property_name": null,
  "material_id": "mp-21985",
  "deprecated": null,
  "deprecation_reasons": null,
  "last_updated": null,
  "origins": null,
  "warnings": null,
  "structure": {
    "@module": "pymatgen.core.structure",
    "@class": "Structure",
    "charge": 0,
    "lattice": {
      "matrix": [
        [-6.66277351, 0.00220288, -0.01357628],
        [-0.0024449800000000002, -9.06757746, -0.02704889],
        [1.20140278, 2.83458692, 9.54736797]
      ],
      "pbc": [true, true, true],
      "a": 6.662787705879323,
      "b": 9.067618133417259,
      "c": 10.031474806896977,
      "alpha": 106.58511538038775,
      "beta": 96.98496817424234,
      "gamma": 90.00314591433275,
      "volume": 576.147613080268
    },
    "properties": {},
    "sites": [
      {
        "species": [{ "element": "In", "occu": 1 }],
        "abc": [0.20807611, 0.47137241, 0.94333166],
        "properties": { "magmom": -0.0 },
        "label": "In",
        "xyz": [-0.2541952111008332, -1.599791888822795, 8.990759475773135]
      },
      {
        "species": [{ "element": "In", "occu": 1 }],
        "abc": [0.79192389, 0.52862759, 0.056668340000000005],
        "properties": { "magmom": -0.0 },
        "label": "In",
        "xyz": [-5.209620498899167, -4.630995771177206, 0.5159833242268655]
      },
      {
        "species": [{ "element": "In", "occu": 1 }],
        "abc": [0.38133777, 0.00670721, 0.63456084],
        "properties": { "magmom": 0.0 },
        "label": "In",
        "xyz": [-1.7784204340576433, 1.7387397521395038, 6.053027267906702]
      },
      {
        "species": [{ "element": "In", "occu": 1 }],
        "abc": [0.61866223, 0.99329279, 0.36543916],
        "properties": { "magmom": 0.0 },
        "label": "In",
        "xyz": [-3.6853952759423567, -7.969527412139504, 3.4537155320932977]
      },
      {
        "species": [{ "element": "In", "occu": 1 }],
        "abc": [0.07846533, 0.71834166, 0.51656629],
        "properties": { "magmom": 0.0 },
        "label": "In",
        "xyz": [0.09605112369101099, -5.049193746141906, 4.911352839693602]
      },
      {
        "species": [{ "element": "In", "occu": 1 }],
        "abc": [0.92153467, 0.28165834, 0.48343371],
        "properties": { "magmom": 0.0 },
        "label": "In",
        "xyz": [-5.559866833691011, -1.1815939138580938, 4.595389960306399]
      },
      {
        "species": [{ "element": "In", "occu": 1 }],
        "abc": [0.85793772, 0.73520596, 0.81798857],
        "properties": { "magmom": 0.0 },
        "label": "In",
        "xyz": [-4.735308535907653, -4.345987356277524, 7.7781037651954374]
      },
      {
        "species": [{ "element": "In", "occu": 1 }],
        "abc": [0.14206228, 0.26479404, 0.18201143],
        "properties": { "magmom": 0.0 },
        "label": "In",
        "xyz": [-0.7285071740923468, -1.8848003037224765, 1.728639034804563]
      },
      {
        "species": [{ "element": "In", "occu": 1 }],
        "abc": [0.6748276400000001, 0.16329664, 0.10401742],
        "properties": { "magmom": 0.0 },
        "label": "In",
        "xyz": [-4.371656163070257, -1.184371949661985, 0.9795139421849286]
      },
      {
        "species": [{ "element": "In", "occu": 1 }],
        "abc": [0.32517236, 0.83670336, 0.89598258],
        "properties": { "magmom": 0.0 },
        "label": "In",
        "xyz": [-1.0921595469297438, -5.046415710338016, 8.527228857815071]
      },
      {
        "species": [{ "element": "In", "occu": 1 }],
        "abc": [0.47967424000000003, 0.36222138, 0.62100266],
        "properties": { "magmom": -0.0 },
        "label": "In",
        "xyz": [-2.45077212161966, -1.523127738707076, 5.912631027314505]
      },
      {
        "species": [{ "element": "In", "occu": 1 }],
        "abc": [0.52032576, 0.63777862, 0.37899734],
        "properties": { "magmom": -0.0 },
        "label": "In",
        "xyz": [-3.0130435883803397, -4.707659921292923, 3.5941117726854954]
      },
      {
        "species": [{ "element": "Cu", "occu": 1 }],
        "abc": [-0.0, 0.0, 0.0],
        "properties": { "magmom": -0.0 },
        "label": "Cu",
        "xyz": [0.0, 0.0, 0.0]
      },
      {
        "species": [{ "element": "Cu", "occu": 1 }],
        "abc": [-0.0, 0.0, 0.5],
        "properties": { "magmom": 0.0 },
        "label": "Cu",
        "xyz": [0.60070139, 1.41729346, 4.773683985]
      },
      {
        "species": [{ "element": "Cu", "occu": 1 }],
        "abc": [0.6984229, 0.85422427, 0.06383341000000001],
        "properties": { "magmom": -0.0 },
        "label": "Cu",
        "xyz": [-4.5788325219221635, -7.563264845554006, 0.5768532508865055]
      },
      {
        "species": [{ "element": "Cu", "occu": 1 }],
        "abc": [0.3015771, 0.14577573, 0.93616659],
        "properties": { "magmom": -0.0 },
        "label": "Cu",
        "xyz": [-0.8849831880778358, 1.332477185554005, 8.929889549113494]
      },
      {
        "species": [{ "element": "Cu", "occu": 1 }],
        "abc": [0.15519396, 0.54047849, 0.69628068],
        "properties": { "magmom": 0.0 },
        "label": "Cu",
        "xyz": [-0.19883012008618928, -2.9268205916915253, 6.6309215624831745]
      },
      {
        "species": [{ "element": "Cu", "occu": 1 }],
        "abc": [0.84480604, 0.45952151, 0.30371932],
        "properties": { "magmom": 0.0 },
        "label": "Cu",
        "xyz": [-5.2649855899138105, -3.3039670683084745, 2.8758212375168255]
      },
      {
        "species": [{ "element": "Cu", "occu": 1 }],
        "abc": [0.8460056300000001, 0.42717234, 0.77302081],
        "properties": { "magmom": -0.0 },
        "label": "Cu",
        "xyz": [-4.709078978570863, -1.680359955923437, 7.357273974587297]
      },
      {
        "species": [{ "element": "Cu", "occu": 1 }],
        "abc": [0.15399437, 0.57282766, 0.22697919],
        "properties": { "magmom": -0.0 },
        "label": "Cu",
        "xyz": [-0.7547367314291371, -4.550427704076563, 2.1494688254127032]
      },
      {
        "species": [{ "element": "Cu", "occu": 1 }],
        "abc": [0.56048941, 0.29214083, 0.8669296200000001],
        "properties": { "magmom": -0.0 },
        "label": "Cu",
        "xyz": [-2.693596616537718, -0.19038755292962062, 8.261384639889899]
      },
      {
        "species": [{ "element": "Cu", "occu": 1 }],
        "abc": [0.43951059000000003, 0.70785917, 0.13307038000000002],
        "properties": { "magmom": -0.0 },
        "label": "Cu",
        "xyz": [-2.7702190934622815, -6.04040010707038, 1.2453581601101023]
      },
      {
        "species": [{ "element": "Cu", "occu": 1 }],
        "abc": [0.7277072800000001, 0.85042966, 0.58467862],
        "properties": { "magmom": -0.0 },
        "label": "Cu",
        "xyz": [-4.148193552253696, -6.052411395862847, 5.5492591932144055]
      },
      {
        "species": [{ "element": "Cu", "occu": 1 }],
        "abc": [0.27229272, 0.14957034, 0.41532138],
        "properties": { "magmom": -0.0 },
        "label": "Cu",
        "xyz": [-1.315622157746304, -0.17837626413715335, 3.9574836067855945]
      },
      {
        "species": [{ "element": "Cu", "occu": 1 }],
        "abc": [0.66345493, 0.00070271, 0.83914604],
        "properties": { "magmom": -0.0 },
        "label": "Cu",
        "xyz": [-3.412299265512809, 2.3737220231930785, 8.002609767025787]
      },
      {
        "species": [{ "element": "Cu", "occu": 1 }],
        "abc": [0.33654507, 0.99929729, 0.16085396],
        "properties": { "magmom": -0.0 },
        "label": "Cu",
        "xyz": [-2.051516444487191, -8.604509683193081, 1.5041330329742135]
      },
      {
        "species": [{ "element": "Cu", "occu": 1 }],
        "abc": [0.75793802, 0.14203776, 0.665172299999999],
        "properties": { "magmom": 0.0 },
        "label": "Cu",
        "xyz": [-4.251176790961303, 0.599219956586921, 6.33651276902297]
      },
      {
        "species": [{ "element": "Cu", "occu": 1 }],
        "abc": [0.24206198, 0.85796224, 0.3348277],
        "properties": { "magmom": 0.0 },
        "label": "Cu",
        "xyz": [-1.2126389190386988, -6.830007616586925, 3.170230030977021]
      },
      {
        "species": [{ "element": "Cu", "occu": 1 }],
        "abc": [0.46023066, 0.69088766, 0.65331551],
        "properties": { "magmom": -0.0 },
        "label": "Cu",
        "xyz": [-2.2832067865176455, -4.411783941012715, 6.212507609855772]
      },
      {
        "species": [{ "element": "Cu", "occu": 1 }],
        "abc": [0.53976934, 0.30911234, 0.34668449],
        "properties": { "magmom": -0.0 },
        "label": "Cu",
        "xyz": [-3.1806089234823545, -1.8190037189872865, 3.2942351901442275]
      },
      {
        "species": [{ "element": "Cu", "occu": 1 }],
        "abc": [0.14244454, 0.24038395, 0.71355052],
        "properties": { "magmom": -0.0 },
        "label": "Cu",
        "xyz": [-0.0924018633077609, -0.1567653277862937, 6.804093393644018]
      },
      {
        "species": [{ "element": "Cu", "occu": 1 }],
        "abc": [0.85755546, 0.75961605, 0.28644948],
        "properties": { "magmom": -0.0 },
        "label": "Cu",
        "xyz": [-5.371413846692239, -6.0740223322137075, 2.702649406355982]
      },
      {
        "species": [{ "element": "Cu", "occu": 1 }],
        "abc": [0.96900875, 0.01661772, 0.24939195],
        "properties": { "magmom": -0.0 },
        "label": "Cu",
        "xyz": [-6.1567062784116375, 0.5583753061099028, 2.367431690413061]
      },
      {
        "species": [{ "element": "Cu", "occu": 1 }],
        "abc": [0.03099125, 0.98338228, 0.75060805],
        "properties": { "magmom": -0.0 },
        "label": "Cu",
        "xyz": [0.6928905684116371, -6.789162966109904, 7.139311109586939]
      },
      {
        "species": [{ "element": "Cu", "occu": 1 }],
        "abc": [0.22738965, 0.44965448, 0.43504154],
        "properties": { "magmom": 0.0 },
        "label": "Cu",
        "xyz": [-0.9934850171072007, -2.8436128565831726, 4.138251904490445]
      },
      {
        "species": [{ "element": "Cu", "occu": 1 }],
        "abc": [0.77261035, 0.55034552, 0.56495846],
        "properties": { "magmom": 0.0 },
        "label": "Cu",
        "xyz": [-4.470330692892799, -3.387174803416829, 5.368490895509556]
      },
      {
        "species": [{ "element": "Cu", "occu": 1 }],
        "abc": [0.52866707, 0.58549401, 0.86374759],
        "properties": { "magmom": -0.0 },
        "label": "Cu",
        "xyz": [-2.4861117149055856, -2.859480077130331, 8.223501779689444]
      },
      {
        "species": [{ "element": "Cu", "occu": 1 }],
        "abc": [0.47133293, 0.41450599, 0.13625241],
        "properties": { "magmom": -0.0 },
        "label": "Cu",
        "xyz": [-2.9777039950944144, -3.37130758286967, 1.283241020310556]
      },
      {
        "species": [{ "element": "Cu", "occu": 1 }],
        "abc": [0.9310235, 0.23413753, 0.91318908],
        "properties": { "magmom": 0.0 },
        "label": "Cu",
        "xyz": [-5.106663275187943, 0.46750456513444005, 8.699579176929346]
      },
      {
        "species": [{ "element": "Cu", "occu": 1 }],
        "abc": [0.0689765, 0.76586247, 0.08681092],
        "properties": { "magmom": 0.0 },
        "label": "Cu",
        "xyz": [-0.357152434812058, -6.6982922251344394, 0.807163623070654]
      }
    ]
  },
  "task_ids": null,
  "uncorrected_energy_per_atom": null,
  "energy_per_atom": -14.397470312249999,
  "formation_energy_per_atom": -0.031135998249999002,
  "energy_above_hull": 0.0007918041071440001,
  "is_stable": false,
  "equilibrium_reaction_energy_per_atom": null,
  "decomposes_to": null,
  "xas": null,
  "grain_boundaries": null,
  "band_gap": 0.0,
  "cbm": null,
  "vbm": null,
  "efermi": 8.15265022,
  "is_gap_direct": null,
  "is_metal": null,
  "es_source_calc_id": null,
  "bandstructure": null,
  "dos": null,
  "dos_energy_up": null,
  "dos_energy_down": null,
  "is_magnetic": null,
  "ordering": null,
  "total_magnetization": 0.0,
  "total_magnetization_normalized_vol": null,
  "total_magnetization_normalized_formula_units": null,
  "num_magnetic_sites": null,
  "num_unique_magnetic_sites": null,
  "types_of_magnetic_species": null,
  "bulk_modulus": null,
  "shear_modulus": null,
  "universal_anisotropy": null,
  "homogeneous_poisson": null,
  "e_total": null,
  "e_ionic": null,
  "e_electronic": null,
  "n": null,
  "e_ij_max": null,
  "weighted_surface_energy_EV_PER_ANG2": null,
  "weighted_surface_energy": null,
  "weighted_work_function": null,
  "surface_anisotropy": null,
  "shape_factor": null,
  "has_reconstructed": null,
  "possible_species": null,
  "has_props": null,
  "theoretical": null,
  "database_IDs": null,
  "fields_not_requested": [
    "builder_meta",
    "nsites",
    "elements",
    "nelements",
    "composition",
    "composition_reduced",
    "chemsys",
    "symmetry",
    "property_name",
    "deprecated",
    "deprecation_reasons",
    "last_updated",
    "origins",
    "warnings",
    "task_ids",
    "uncorrected_energy_per_atom",
    "equilibrium_reaction_energy_per_atom",
    "decomposes_to",
    "xas",
    "grain_boundaries",
    "cbm",
    "vbm",
    "is_gap_direct",
    "is_metal",
    "es_source_calc_id",
    "bandstructure",
    "dos",
    "dos_energy_up",
    "dos_energy_down",
    "is_magnetic",
    "ordering",
    "total_magnetization_normalized_vol",
    "total_magnetization_normalized_formula_units",
    "num_magnetic_sites",
    "num_unique_magnetic_sites",
    "types_of_magnetic_species",
    "bulk_modulus",
    "shear_modulus",
    "universal_anisotropy",
    "homogeneous_poisson",
    "e_total",
    "e_ionic",
    "e_electronic",
    "n",
    "e_ij_max",
    "weighted_surface_energy_EV_PER_ANG2",
    "weighted_surface_energy",
    "weighted_work_function",
    "surface_anisotropy",
    "shape_factor",
    "has_reconstructed",
    "possible_species",
    "has_props",
    "theoretical",
    "database_IDs"
  ]
}
