{"builder_meta": null, "nsites": null, "elements": null, "nelements": null, "composition": null, "composition_reduced": null, "formula_pretty": "In3Hg", "formula_anonymous": "AB3", "chemsys": null, "volume": 208.7045049290162, "density": 8.673189448629854, "density_atomic": 26.088063116127024, "symmetry": null, "property_name": null, "material_id": "mp-1184933", "deprecated": null, "deprecation_reasons": null, "last_updated": null, "origins": null, "warnings": null, "structure": {"@module": "pymatgen.core.structure", "@class": "Structure", "charge": 0, "lattice": {"matrix": [[3.28655437, -5.69247817, -0.0], [3.28655437, 5.69247817, -0.0], [-0.0, 0.0, 5.57775755]], "pbc": [true, true, true], "a": 6.573107890708371, "b": 6.573107890708371, "c": 5.57775755, "alpha": 90.0, "beta": 90.0, "gamma": 119.99999145173271, "volume": 208.7045049290162}, "properties": {}, "sites": [{"species": [{"element": "In", "occu": 1}], "abc": [0.16723104, 0.33446107, 0.25], "properties": {"magmom": 0.0}, "label": "In", "xyz": [1.6488383965150208, 0.9519532951434453, 1.3944393875]}, {"species": [{"element": "In", "occu": 1}], "abc": [0.66553893, 0.83276896, 0.25], "properties": {"magmom": 0.0}, "label": "In", "xyz": [4.924270343484979, 0.9519532951434448, 1.3944393875]}, {"species": [{"element": "In", "occu": 1}], "abc": [0.16723104, 0.83276896, 0.25], "properties": {"magmom": 0.0}, "label": "In", "xyz": [3.28655437, 3.788560080907206, 1.3944393875]}, {"species": [{"element": "In", "occu": 1}], "abc": [0.83276896, 0.66553893, 0.75], "properties": {"magmom": 0.0}, "label": "In", "xyz": [4.924270343484979, -0.9519532951434448, 4.1833181625]}, {"species": [{"element": "In", "occu": 1}], "abc": [0.33446107, 0.16723104, 0.75], "properties": {"magmom": 0.0}, "label": "In", "xyz": [1.6488383965150208, -0.9519532951434453, 4.1833181625]}, {"species": [{"element": "In", "occu": 1}], "abc": [0.83276896, 0.16723104, 0.75], "properties": {"magmom": 0.0}, "label": "In", "xyz": [3.28655437, -3.788560080907206, 4.1833181625]}, {"species": [{"element": "Hg", "occu": 1}], "abc": [0.333333, 0.666667, 0.75], "properties": {"magmom": -0.0}, "label": "Hg", "xyz": [3.28655437, 1.8974965183187802, 4.1833181625]}, {"species": [{"element": "Hg", "occu": 1}], "abc": [0.666667, 0.333333, 0.25], "properties": {"magmom": -0.0}, "label": "Hg", "xyz": [3.28655437, -1.8974965183187802, 1.3944393875]}]}, "task_ids": null, "uncorrected_energy_per_atom": null, "energy_per_atom": -29.2479586775, "formation_energy_per_atom": 0.027935738124995002, "energy_above_hull": 0.033133792499999, "is_stable": false, "equilibrium_reaction_energy_per_atom": null, "decomposes_to": null, "xas": null, "grain_boundaries": null, "band_gap": 0.0, "cbm": null, "vbm": null, "efermi": 5.63772906, "is_gap_direct": null, "is_metal": null, "es_source_calc_id": null, "bandstructure": null, "dos": null, "dos_energy_up": null, "dos_energy_down": null, "is_magnetic": null, "ordering": null, "total_magnetization": 1e-07, "total_magnetization_normalized_vol": null, "total_magnetization_normalized_formula_units": null, "num_magnetic_sites": null, "num_unique_magnetic_sites": null, "types_of_magnetic_species": null, "bulk_modulus": null, "shear_modulus": null, "universal_anisotropy": null, "homogeneous_poisson": null, "e_total": null, "e_ionic": null, "e_electronic": null, "n": null, "e_ij_max": null, "weighted_surface_energy_EV_PER_ANG2": null, "weighted_surface_energy": null, "weighted_work_function": null, "surface_anisotropy": null, "shape_factor": null, "has_reconstructed": null, "possible_species": null, "has_props": null, "theoretical": null, "database_IDs": null, "fields_not_requested": ["builder_meta", "nsites", "elements", "nelements", "composition", "composition_reduced", "chemsys", "symmetry", "property_name", "deprecated", "deprecation_reasons", "last_updated", "origins", "warnings", "task_ids", "uncorrected_energy_per_atom", "equilibrium_reaction_energy_per_atom", "decomposes_to", "xas", "grain_boundaries", "cbm", "vbm", "is_gap_direct", "is_metal", "es_source_calc_id", "bandstructure", "dos", "dos_energy_up", "dos_energy_down", "is_magnetic", "ordering", "total_magnetization_normalized_vol", "total_magnetization_normalized_formula_units", "num_magnetic_sites", "num_unique_magnetic_sites", "types_of_magnetic_species", "bulk_modulus", "shear_modulus", "universal_anisotropy", "homogeneous_poisson", "e_total", "e_ionic", "e_electronic", "n", "e_ij_max", "weighted_surface_energy_EV_PER_ANG2", "weighted_surface_energy", "weighted_work_function", "surface_anisotropy", "shape_factor", "has_reconstructed", "possible_species", "has_props", "theoretical", "database_IDs"]}