{
  "builder_meta": null,
  "nsites": null,
  "elements": null,
  "nelements": null,
  "composition": null,
  "composition_reduced": null,
  "formula_pretty": "In3Ir",
  "formula_anonymous": "AB3",
  "chemsys": null,
  "volume": 335.7871832457927,
  "density": 10.615809130022292,
  "density_atomic": 20.986698952862042,
  "symmetry": null,
  "property_name": null,
  "material_id": "mp-636498",
  "deprecated": null,
  "deprecation_reasons": null,
  "last_updated": null,
  "origins": null,
  "warnings": null,
  "structure": {
    "@module": "pymatgen.core.structure",
    "@class": "Structure",
    "charge": 0,
    "lattice": {
      "matrix": [
        [5.34121561, -0.0, 0.0],
        [0.0, 7.5242889900000005, 0.0],
        [0.0, 0.0, 8.35523248]
      ],
      "pbc": [true, true, true],
      "a": 5.34121561,
      "b": 7.5242889900000005,
      "c": 8.35523248,
      "alpha": 90.0,
      "beta": 90.0,
      "gamma": 90.0,
      "volume": 335.78718324579273
    },
    "properties": {},
    "sites": [
      {
        "species": [{ "element": "In", "occu": 1 }],
        "abc": [0.6348275, 0.3308705, 0.55431079],
        "properties": { "magmom": -0.0 },
        "label": "In",
        "xyz": [3.3907505526572748, 2.4895652602657954, 4.63139551662246]
      },
      {
        "species": [{ "element": "In", "occu": 1 }],
        "abc": [0.08183104000000001, 0.48942782, 0.75],
        "properties": { "magmom": 0.0 },
        "label": "In",
        "xyz": [0.4370772282305344, 3.682596357425702, 6.26642436]
      },
      {
        "species": [{ "element": "In", "occu": 1 }],
        "abc": [0.8651725, 0.8308705, 0.9456892100000001],
        "properties": { "magmom": -0.0 },
        "label": "In",
        "xyz": [4.621072862342725, 6.251709755265795, 7.901453203377541]
      },
      {
        "species": [{ "element": "In", "occu": 1 }],
        "abc": [0.91816896, 0.51057218, 0.25],
        "properties": { "magmom": 0.0 },
        "label": "In",
        "xyz": [4.9041383817694655, 3.841692632574299, 2.08880812]
      },
      {
        "species": [{ "element": "In", "occu": 1 }],
        "abc": [0.1348275, 0.1691295, 0.05431079],
        "properties": { "magmom": -0.0 },
        "label": "In",
        "xyz": [0.7201427476572749, 1.272579234734205, 0.45377927662245915]
      },
      {
        "species": [{ "element": "In", "occu": 1 }],
        "abc": [0.41816896000000003, 0.9894278200000001, 0.75],
        "properties": { "magmom": 0.0 },
        "label": "In",
        "xyz": [2.2335305767694655, 7.444740852425703, 6.26642436]
      },
      {
        "species": [{ "element": "In", "occu": 1 }],
        "abc": [0.3651725, 0.669129499999999, 0.44568921],
        "properties": { "magmom": -0.0 },
        "label": "In",
        "xyz": [1.9504650573427251, 5.034723729734198, 3.7238369633775408]
      },
      {
        "species": [{ "element": "In", "occu": 1 }],
        "abc": [0.58183104, 0.01057218, 0.25],
        "properties": { "magmom": 0.0 },
        "label": "In",
        "xyz": [3.1076850332305344, 0.07954813757429821, 2.08880812]
      },
      {
        "species": [{ "element": "In", "occu": 1 }],
        "abc": [0.8651725, 0.8308705, 0.55431079],
        "properties": { "magmom": -0.0 },
        "label": "In",
        "xyz": [4.621072862342725, 6.251709755265795, 4.63139551662246]
      },
      {
        "species": [{ "element": "In", "occu": 1 }],
        "abc": [0.6348275, 0.3308705, 0.9456892100000001],
        "properties": { "magmom": -0.0 },
        "label": "In",
        "xyz": [3.3907505526572748, 2.4895652602657954, 7.901453203377541]
      },
      {
        "species": [{ "element": "In", "occu": 1 }],
        "abc": [0.1348275, 0.1691295, 0.44568921],
        "properties": { "magmom": -0.0 },
        "label": "In",
        "xyz": [0.7201427476572749, 1.272579234734205, 3.7238369633775408]
      },
      {
        "species": [{ "element": "In", "occu": 1 }],
        "abc": [0.3651725, 0.669129499999999, 0.05431079],
        "properties": { "magmom": -0.0 },
        "label": "In",
        "xyz": [1.9504650573427251, 5.034723729734198, 0.45377927662245915]
      },
      {
        "species": [{ "element": "Ir", "occu": 1 }],
        "abc": [0.438060299999999, 0.3729104, 0.25],
        "properties": { "magmom": 0.0 },
        "label": "Ir",
        "xyz": [2.3397745124812777, 2.805885616976496, 2.08880812]
      },
      {
        "species": [{ "element": "Ir", "occu": 1 }],
        "abc": [0.561939699999999, 0.6270896, 0.75],
        "properties": { "magmom": 0.0 },
        "label": "Ir",
        "xyz": [3.001441097518712, 4.718403373023505, 6.26642436]
      },
      {
        "species": [{ "element": "Ir", "occu": 1 }],
        "abc": [0.9380603, 0.1270896, 0.75],
        "properties": { "magmom": 0.0 },
        "label": "Ir",
        "xyz": [5.010382317481283, 0.9562588780235041, 6.26642436]
      },
      {
        "species": [{ "element": "Ir", "occu": 1 }],
        "abc": [0.0619397, 0.8729104, 0.25],
        "properties": { "magmom": 0.0 },
        "label": "Ir",
        "xyz": [0.330833292518717, 6.568030111976496, 2.08880812]
      }
    ]
  },
  "task_ids": null,
  "uncorrected_energy_per_atom": null,
  "energy_per_atom": -30.299173001875,
  "formation_energy_per_atom": -0.275391854375001,
  "energy_above_hull": 0.0,
  "is_stable": true,
  "equilibrium_reaction_energy_per_atom": null,
  "decomposes_to": null,
  "xas": null,
  "grain_boundaries": null,
  "band_gap": 0.0,
  "cbm": null,
  "vbm": null,
  "efermi": 8.47761007,
  "is_gap_direct": null,
  "is_metal": null,
  "es_source_calc_id": null,
  "bandstructure": null,
  "dos": null,
  "dos_energy_up": null,
  "dos_energy_down": null,
  "is_magnetic": null,
  "ordering": null,
  "total_magnetization": 0.0,
  "total_magnetization_normalized_vol": null,
  "total_magnetization_normalized_formula_units": null,
  "num_magnetic_sites": null,
  "num_unique_magnetic_sites": null,
  "types_of_magnetic_species": null,
  "bulk_modulus": null,
  "shear_modulus": null,
  "universal_anisotropy": null,
  "homogeneous_poisson": null,
  "e_total": null,
  "e_ionic": null,
  "e_electronic": null,
  "n": null,
  "e_ij_max": null,
  "weighted_surface_energy_EV_PER_ANG2": null,
  "weighted_surface_energy": null,
  "weighted_work_function": null,
  "surface_anisotropy": null,
  "shape_factor": null,
  "has_reconstructed": null,
  "possible_species": null,
  "has_props": null,
  "theoretical": null,
  "database_IDs": null,
  "fields_not_requested": [
    "builder_meta",
    "nsites",
    "elements",
    "nelements",
    "composition",
    "composition_reduced",
    "chemsys",
    "symmetry",
    "property_name",
    "deprecated",
    "deprecation_reasons",
    "last_updated",
    "origins",
    "warnings",
    "task_ids",
    "uncorrected_energy_per_atom",
    "equilibrium_reaction_energy_per_atom",
    "decomposes_to",
    "xas",
    "grain_boundaries",
    "cbm",
    "vbm",
    "is_gap_direct",
    "is_metal",
    "es_source_calc_id",
    "bandstructure",
    "dos",
    "dos_energy_up",
    "dos_energy_down",
    "is_magnetic",
    "ordering",
    "total_magnetization_normalized_vol",
    "total_magnetization_normalized_formula_units",
    "num_magnetic_sites",
    "num_unique_magnetic_sites",
    "types_of_magnetic_species",
    "bulk_modulus",
    "shear_modulus",
    "universal_anisotropy",
    "homogeneous_poisson",
    "e_total",
    "e_ionic",
    "e_electronic",
    "n",
    "e_ij_max",
    "weighted_surface_energy_EV_PER_ANG2",
    "weighted_surface_energy",
    "weighted_work_function",
    "surface_anisotropy",
    "shape_factor",
    "has_reconstructed",
    "possible_species",
    "has_props",
    "theoretical",
    "database_IDs"
  ]
}
