{"builder_meta": null, "nsites": null, "elements": null, "nelements": null, "composition": null, "composition_reduced": null, "formula_pretty": "In3Pt4", "formula_anonymous": "A3B4", "chemsys": null, "volume": 383.6483346098608, "density": 14.60523272142212, "density_atomic": 18.268968314755277, "symmetry": null, "property_name": null, "material_id": "mp-1224298", "deprecated": null, "deprecation_reasons": null, "last_updated": null, "origins": null, "warnings": null, "structure": {"@module": "pymatgen.core.structure", "@class": "Structure", "charge": 0, "lattice": {"matrix": [[7.15485883, 0.00010024, -0.010844699999999001], [-1.6419971800000002, 6.97280537, -0.01302482], [-2.78530785, -3.47969254, 7.70190917]], "pbc": [true, true, true], "a": 7.154867049414344, "b": 7.163542357867707, "c": 8.898629380704277, "alpha": 108.08655209219083, "beta": 108.3198360097362, "gamma": 103.24992731032246, "volume": 383.6483346098608}, "properties": {}, "sites": [{"species": [{"element": "In", "occu": 1}], "abc": [0.50104181, 0.73625184, 0.6688699100000001], "properties": {"magmom": -0.0}, "label": "In", "xyz": [0.5129513624760778, 2.806329371997944, 5.1365520975585]}, {"species": [{"element": "In", "occu": 1}], "abc": [0.94279744, 0.18164388, 0.6896424], "properties": {"magmom": -0.0}, "label": "In", "xyz": [4.526457459348297, -1.1330815866406747, 5.29897289034214]}, {"species": [{"element": "In", "occu": 1}], "abc": [0.47935892, 0.25111896, 0.30627448], "properties": {"magmom": 0.0}, "label": "In", "xyz": [2.164340063938063, 0.6853106604865766, 2.350428943116671]}, {"species": [{"element": "In", "occu": 1}], "abc": [0.0637846, 0.8224283, 0.30791651000000003], "properties": {"magmom": -0.0}, "label": "In", "xyz": [-1.7516974132717795, 4.663184077658439, 2.360141286541371]}, {"species": [{"element": "In", "occu": 1}], "abc": [0.43781173, 0.6829651, 0.18832862], "properties": {"magmom": -0.0}, "label": "In", "xyz": [1.4865011703639905, 4.106900908967907, 1.4368464909893328]}, {"species": [{"element": "In", "occu": 1}], "abc": [0.53855724, 0.29504374, 0.83250223], "properties": {"magmom": 0.0}, "label": "In", "xyz": [1.0500650386562707, -0.8395152396297432, 6.402173175976196]}, {"species": [{"element": "In", "occu": 1}], "abc": [0.96590519, 0.19641909999999901, 0.13771047], "properties": {"magmom": 0.0}, "label": "In", "xyz": [6.204829616198002, 0.890498882447912, 1.047600256261956]}, {"species": [{"element": "In", "occu": 1}], "abc": [0.06035985, 0.82386973, 0.8825151], "properties": {"magmom": 0.0}, "label": "In", "xyz": [-3.379001803370921, 2.67380811808846, 6.785665801951474]}, {"species": [{"element": "In", "occu": 1}], "abc": [0.99530799, 0.49384081, 0.50244358], "properties": {"magmom": 0.0}, "label": "In", "xyz": [4.910942895876033, 1.695206444469174, 3.8525488119915727]}, {"species": [{"element": "Pt", "occu": 1}], "abc": [0.72884116, 0.45377938, 0.18190212], "properties": {"magmom": -0.0}, "label": "Pt", "xyz": [3.9629977442236526, 2.531224906722964, 1.3871791475983775]}, {"species": [{"element": "Pt", "occu": 1}], "abc": [0.29051398, 0.55293483, 0.83383878], "properties": {"magmom": 0.0}, "label": "Pt", "xyz": [-1.1518286161107592, 0.9540334906766912, 6.411798132392227]}, {"species": [{"element": "Pt", "occu": 1}], "abc": [0.74992234, 0.75880087, 0.99728016], "properties": {"magmom": -0.0}, "label": "Pt", "xyz": [1.34190732914446, 1.8208176202700272, 7.662945281814877]}, {"species": [{"element": "Pt", "occu": 1}], "abc": [0.25026278, 0.24837099, 0.99761042], "properties": {"magmom": -0.0}, "label": "Pt", "xyz": [-1.3958817379382578, -1.7395098771349833, 7.677555829677314]}, {"species": [{"element": "Pt", "occu": 1}], "abc": [0.5057283300000001, 0.00126916, -0.00196013], "properties": {"magmom": 0.0}, "label": "Pt", "xyz": [3.621790415816706, 0.0157209496096186, -0.020597745822293796]}, {"species": [{"element": "Pt", "occu": 1}], "abc": [0.00038842, 0.503849, 0.00213286], "properties": {"magmom": 0.0}, "label": "Pt", "xyz": [-0.8304802185800225, 3.505819354773486, 0.0098603391617722]}, {"species": [{"element": "Pt", "occu": 1}], "abc": [0.24495657, 0.261654, 0.49805415000000003], "properties": {"magmom": 0.0}, "label": "Pt", "xyz": [-0.06423958602478441, 0.0914116604575157, 3.8299033482745974]}, {"species": [{"element": "Pt", "occu": 1}], "abc": [0.75899038, 0.754686299999999, 0.49680339], "properties": {"magmom": 0.0}, "label": "Pt", "xyz": [2.8075258637698113, 3.533633716471404, 3.8082739089401354]}, {"species": [{"element": "Pt", "occu": 1}], "abc": [0.49780579, 0.00107573, 0.49489773000000004], "properties": {"magmom": -0.0}, "label": "Pt", "xyz": [2.181521274264004, -1.7145411831708746, 3.8062447992587534]}, {"species": [{"element": "Pt", "occu": 1}], "abc": [0.78599354, 0.04322827, 0.32933305], "properties": {"magmom": 0.0}, "label": "Pt", "xyz": [4.635398193126236, -0.8444766560761876, 2.5274063332001697]}, {"species": [{"element": "Pt", "occu": 1}], "abc": [0.712975399999999, 0.46404538, 0.65720694], "properties": {"magmom": -0.0}, "label": "Pt", "xyz": [2.508753481854268, 0.948891499887559, 5.0479720459069295]}, {"species": [{"element": "Pt", "occu": 1}], "abc": [0.20879554, 0.92752461, 0.65759723], "properties": {"magmom": 0.0}, "label": "Pt", "xyz": [-1.8607009078242374, 4.179233335524421, 5.0504089698201415]}]}, "task_ids": null, "uncorrected_energy_per_atom": null, "energy_per_atom": -39.642863557619044, "formation_energy_per_atom": -0.5447723090476191, "energy_above_hull": 0.04129864970239, "is_stable": false, "equilibrium_reaction_energy_per_atom": null, "decomposes_to": null, "xas": null, "grain_boundaries": null, "band_gap": 0.0, "cbm": null, "vbm": null, "efermi": 7.96258524, "is_gap_direct": null, "is_metal": null, "es_source_calc_id": null, "bandstructure": null, "dos": null, "dos_energy_up": null, "dos_energy_down": null, "is_magnetic": null, "ordering": null, "total_magnetization": 0.0, "total_magnetization_normalized_vol": null, "total_magnetization_normalized_formula_units": null, "num_magnetic_sites": null, "num_unique_magnetic_sites": null, "types_of_magnetic_species": null, "bulk_modulus": null, "shear_modulus": null, "universal_anisotropy": null, "homogeneous_poisson": null, "e_total": null, "e_ionic": null, "e_electronic": null, "n": null, "e_ij_max": null, "weighted_surface_energy_EV_PER_ANG2": null, "weighted_surface_energy": null, "weighted_work_function": null, "surface_anisotropy": null, "shape_factor": null, "has_reconstructed": null, "possible_species": null, "has_props": null, "theoretical": null, "database_IDs": null, "fields_not_requested": ["builder_meta", "nsites", "elements", "nelements", "composition", "composition_reduced", "chemsys", "symmetry", "property_name", "deprecated", "deprecation_reasons", "last_updated", "origins", "warnings", "task_ids", "uncorrected_energy_per_atom", "equilibrium_reaction_energy_per_atom", "decomposes_to", "xas", "grain_boundaries", "cbm", "vbm", "is_gap_direct", "is_metal", "es_source_calc_id", "bandstructure", "dos", "dos_energy_up", "dos_energy_down", "is_magnetic", "ordering", "total_magnetization_normalized_vol", "total_magnetization_normalized_formula_units", "num_magnetic_sites", "num_unique_magnetic_sites", "types_of_magnetic_species", "bulk_modulus", "shear_modulus", "universal_anisotropy", "homogeneous_poisson", "e_total", "e_ionic", "e_electronic", "n", "e_ij_max", "weighted_surface_energy_EV_PER_ANG2", "weighted_surface_energy", "weighted_work_function", "surface_anisotropy", "shape_factor", "has_reconstructed", "possible_species", "has_props", "theoretical", "database_IDs"]}