{
  "builder_meta": null,
  "nsites": null,
  "elements": null,
  "nelements": null,
  "composition": null,
  "composition_reduced": null,
  "formula_pretty": "In3Pb",
  "formula_anonymous": "AB3",
  "chemsys": null,
  "volume": 222.84303670473332,
  "density": 8.221419271537858,
  "density_atomic": 27.855379588091665,
  "symmetry": null,
  "property_name": null,
  "material_id": "mp-1184932",
  "deprecated": null,
  "deprecation_reasons": null,
  "last_updated": null,
  "origins": null,
  "warnings": null,
  "structure": {
    "@module": "pymatgen.core.structure",
    "@class": "Structure",
    "charge": 0,
    "lattice": {
      "matrix": [
        [3.45816825, -5.98972266, -0.0],
        [3.45816825, 5.98972266, 0.0],
        [-0.0, 0.0, 5.37918201]
      ],
      "pbc": [true, true, true],
      "a": 6.916336110183305,
      "b": 6.916336110183305,
      "c": 5.37918201,
      "alpha": 90.0,
      "beta": 90.0,
      "gamma": 119.99999627113769,
      "volume": 222.84303670473332
    },
    "properties": {},
    "sites": [
      {
        "species": [{ "element": "In", "occu": 1 }],
        "abc": [0.16230433, 0.32460966, 0.25],
        "properties": { "magmom": 0.0 },
        "label": "In",
        "xyz": [1.6838305006988175, 0.9721639129397779, 1.3447955025]
      },
      {
        "species": [{ "element": "In", "occu": 1 }],
        "abc": [0.67539034, 0.83769567, 0.25],
        "properties": { "magmom": 0.0 },
        "label": "In",
        "xyz": [5.232505999301182, 0.9721639129397781, 1.3447955025]
      },
      {
        "species": [{ "element": "In", "occu": 1 }],
        "abc": [0.16230433, 0.83769567, 0.25],
        "properties": { "magmom": 0.0 },
        "label": "In",
        "xyz": [3.45816825, 4.045406813565764, 1.3447955025]
      },
      {
        "species": [{ "element": "In", "occu": 1 }],
        "abc": [0.83769567, 0.67539034, 0.75],
        "properties": { "magmom": 0.0 },
        "label": "In",
        "xyz": [5.232505999301182, -0.9721639129397781, 4.0343865075]
      },
      {
        "species": [{ "element": "In", "occu": 1 }],
        "abc": [0.32460966, 0.16230433, 0.75],
        "properties": { "magmom": 0.0 },
        "label": "In",
        "xyz": [1.6838305006988175, -0.9721639129397779, 4.0343865075]
      },
      {
        "species": [{ "element": "In", "occu": 1 }],
        "abc": [0.83769567, 0.16230433, 0.75],
        "properties": { "magmom": 0.0 },
        "label": "In",
        "xyz": [3.45816825, -4.045406813565764, 4.0343865075]
      },
      {
        "species": [{ "element": "Pb", "occu": 1 }],
        "abc": [0.333333, 0.666667, 0.75],
        "properties": { "magmom": -0.0 },
        "label": "Pb",
        "xyz": [3.45816825, 1.99657821314844, 4.0343865075]
      },
      {
        "species": [{ "element": "Pb", "occu": 1 }],
        "abc": [0.666667, 0.333333, 0.25],
        "properties": { "magmom": -0.0 },
        "label": "Pb",
        "xyz": [3.45816825, -1.99657821314844, 1.3447955025]
      }
    ]
  },
  "task_ids": null,
  "uncorrected_energy_per_atom": null,
  "energy_per_atom": -30.9700682825,
  "formation_energy_per_atom": 0.035158029999998,
  "energy_above_hull": 0.035158029999998,
  "is_stable": false,
  "equilibrium_reaction_energy_per_atom": null,
  "decomposes_to": null,
  "xas": null,
  "grain_boundaries": null,
  "band_gap": 0.0,
  "cbm": null,
  "vbm": null,
  "efermi": 6.76144198,
  "is_gap_direct": null,
  "is_metal": null,
  "es_source_calc_id": null,
  "bandstructure": null,
  "dos": null,
  "dos_energy_up": null,
  "dos_energy_down": null,
  "is_magnetic": null,
  "ordering": null,
  "total_magnetization": 5e-7,
  "total_magnetization_normalized_vol": null,
  "total_magnetization_normalized_formula_units": null,
  "num_magnetic_sites": null,
  "num_unique_magnetic_sites": null,
  "types_of_magnetic_species": null,
  "bulk_modulus": null,
  "shear_modulus": null,
  "universal_anisotropy": null,
  "homogeneous_poisson": null,
  "e_total": null,
  "e_ionic": null,
  "e_electronic": null,
  "n": null,
  "e_ij_max": null,
  "weighted_surface_energy_EV_PER_ANG2": null,
  "weighted_surface_energy": null,
  "weighted_work_function": null,
  "surface_anisotropy": null,
  "shape_factor": null,
  "has_reconstructed": null,
  "possible_species": null,
  "has_props": null,
  "theoretical": null,
  "database_IDs": null,
  "fields_not_requested": [
    "builder_meta",
    "nsites",
    "elements",
    "nelements",
    "composition",
    "composition_reduced",
    "chemsys",
    "symmetry",
    "property_name",
    "deprecated",
    "deprecation_reasons",
    "last_updated",
    "origins",
    "warnings",
    "task_ids",
    "uncorrected_energy_per_atom",
    "equilibrium_reaction_energy_per_atom",
    "decomposes_to",
    "xas",
    "grain_boundaries",
    "cbm",
    "vbm",
    "is_gap_direct",
    "is_metal",
    "es_source_calc_id",
    "bandstructure",
    "dos",
    "dos_energy_up",
    "dos_energy_down",
    "is_magnetic",
    "ordering",
    "total_magnetization_normalized_vol",
    "total_magnetization_normalized_formula_units",
    "num_magnetic_sites",
    "num_unique_magnetic_sites",
    "types_of_magnetic_species",
    "bulk_modulus",
    "shear_modulus",
    "universal_anisotropy",
    "homogeneous_poisson",
    "e_total",
    "e_ionic",
    "e_electronic",
    "n",
    "e_ij_max",
    "weighted_surface_energy_EV_PER_ANG2",
    "weighted_surface_energy",
    "weighted_work_function",
    "surface_anisotropy",
    "shape_factor",
    "has_reconstructed",
    "possible_species",
    "has_props",
    "theoretical",
    "database_IDs"
  ]
}
