{"builder_meta": null, "nsites": null, "elements": null, "nelements": null, "composition": null, "composition_reduced": null, "formula_pretty": "In3Pt2", "formula_anonymous": "A2B3", "chemsys": null, "volume": 100.95876779146725, "density": 12.082838933845673, "density_atomic": 20.19175355829345, "symmetry": null, "property_name": null, "material_id": "mp-1069815", "deprecated": null, "deprecation_reasons": null, "last_updated": null, "origins": null, "warnings": null, "structure": {"@module": "pymatgen.core.structure", "@class": "Structure", "charge": 0, "lattice": {"matrix": [[2.28612875, -3.95969104, 0.0], [2.28612875, 3.95969104, -0.0], [-0.0, -0.0, 5.57637613]], "pbc": [true, true, true], "a": 4.5722574067776245, "b": 4.5722574067776245, "c": 5.57637613, "alpha": 90.0, "beta": 90.0, "gamma": 119.99999865109459, "volume": 100.95876779146725}, "properties": {}, "sites": [{"species": [{"element": "In", "occu": 1}], "abc": [0.0, 0.0, 0.0], "properties": {"magmom": 0.0}, "label": "In", "xyz": [0.0, 0.0, 0.0]}, {"species": [{"element": "In", "occu": 1}], "abc": [0.666667, 0.333333, 0.34967418], "properties": {"magmom": 0.0}, "label": "In", "xyz": [2.28612875, -1.31989965312736, 1.9499147506293233]}, {"species": [{"element": "In", "occu": 1}], "abc": [0.333333, 0.666667, 0.65032582], "properties": {"magmom": 0.0}, "label": "In", "xyz": [2.28612875, 1.31989965312736, 3.626461379370677]}, {"species": [{"element": "Pt", "occu": 1}], "abc": [0.666667, 0.333333, 0.83717036], "properties": {"magmom": -0.0}, "label": "Pt", "xyz": [2.28612875, -1.31989965312736, 4.668376812247507]}, {"species": [{"element": "Pt", "occu": 1}], "abc": [0.333333, 0.666667, 0.16282964], "properties": {"magmom": -0.0}, "label": "Pt", "xyz": [2.28612875, 1.31989965312736, 0.9079993177524932]}]}, "task_ids": null, "uncorrected_energy_per_atom": null, "energy_per_atom": -34.74120092, "formation_energy_per_atom": -0.5989599319999961, "energy_above_hull": 0.00039437725000300003, "is_stable": false, "equilibrium_reaction_energy_per_atom": null, "decomposes_to": null, "xas": null, "grain_boundaries": null, "band_gap": 0.0, "cbm": null, "vbm": null, "efermi": 8.29031303, "is_gap_direct": null, "is_metal": null, "es_source_calc_id": null, "bandstructure": null, "dos": null, "dos_energy_up": null, "dos_energy_down": null, "is_magnetic": null, "ordering": null, "total_magnetization": 0.0, "total_magnetization_normalized_vol": null, "total_magnetization_normalized_formula_units": null, "num_magnetic_sites": null, "num_unique_magnetic_sites": null, "types_of_magnetic_species": null, "bulk_modulus": null, "shear_modulus": null, "universal_anisotropy": null, "homogeneous_poisson": null, "e_total": null, "e_ionic": null, "e_electronic": null, "n": null, "e_ij_max": null, "weighted_surface_energy_EV_PER_ANG2": null, "weighted_surface_energy": null, "weighted_work_function": null, "surface_anisotropy": null, "shape_factor": null, "has_reconstructed": null, "possible_species": null, "has_props": null, "theoretical": null, "database_IDs": null, "fields_not_requested": ["builder_meta", "nsites", "elements", "nelements", "composition", "composition_reduced", "chemsys", "symmetry", "property_name", "deprecated", "deprecation_reasons", "last_updated", "origins", "warnings", "task_ids", "uncorrected_energy_per_atom", "equilibrium_reaction_energy_per_atom", "decomposes_to", "xas", "grain_boundaries", "cbm", "vbm", "is_gap_direct", "is_metal", "es_source_calc_id", "bandstructure", "dos", "dos_energy_up", "dos_energy_down", "is_magnetic", "ordering", "total_magnetization_normalized_vol", "total_magnetization_normalized_formula_units", "num_magnetic_sites", "num_unique_magnetic_sites", "types_of_magnetic_species", "bulk_modulus", "shear_modulus", "universal_anisotropy", "homogeneous_poisson", "e_total", "e_ionic", "e_electronic", "n", "e_ij_max", "weighted_surface_energy_EV_PER_ANG2", "weighted_surface_energy", "weighted_work_function", "surface_anisotropy", "shape_factor", "has_reconstructed", "possible_species", "has_props", "theoretical", "database_IDs"]}