{
  "builder_meta": null,
  "nsites": null,
  "elements": null,
  "nelements": null,
  "composition": null,
  "composition_reduced": null,
  "formula_pretty": "In3Pd5",
  "formula_anonymous": "A3B5",
  "chemsys": null,
  "volume": 269.144601416629,
  "density": 10.816134920212193,
  "density_atomic": 16.82153758853931,
  "symmetry": null,
  "property_name": null,
  "material_id": "mp-22146",
  "deprecated": null,
  "deprecation_reasons": null,
  "last_updated": null,
  "origins": null,
  "warnings": null,
  "structure": {
    "@module": "pymatgen.core.structure",
    "@class": "Structure",
    "charge": 0,
    "lattice": {
      "matrix": [
        [4.22291898, 0.0, 0.0],
        [0.0, 5.683138, 0.0],
        [0.0, 0.0, 11.21462412]
      ],
      "pbc": [true, true, true],
      "a": 4.22291898,
      "b": 5.683138,
      "c": 11.21462412,
      "alpha": 90.0,
      "beta": 90.0,
      "gamma": 90.0,
      "volume": 269.144601416629
    },
    "properties": {},
    "sites": [
      {
        "species": [{ "element": "In", "occu": 1 }],
        "abc": [0.5, 0.31944329, 0.85698512],
        "properties": { "magmom": 0.0 },
        "label": "In",
        "xyz": [2.11145949, 1.8154403002440198, 9.610765997233095]
      },
      {
        "species": [{ "element": "In", "occu": 1 }],
        "abc": [0.5, 0.81944329, 0.6430148800000001],
        "properties": { "magmom": 0.0 },
        "label": "In",
        "xyz": [2.11145949, 4.65700930024402, 7.211170182766907]
      },
      {
        "species": [{ "element": "In", "occu": 1 }],
        "abc": [-0.0, 0.5, 0.5],
        "properties": { "magmom": -0.0 },
        "label": "In",
        "xyz": [0.0, 2.841569, 5.60731206]
      },
      {
        "species": [{ "element": "In", "occu": 1 }],
        "abc": [-0.0, -0.0, -0.0],
        "properties": { "magmom": -0.0 },
        "label": "In",
        "xyz": [0.0, 0.0, 0.0]
      },
      {
        "species": [{ "element": "In", "occu": 1 }],
        "abc": [0.5, 0.6805567100000001, 0.14301488],
        "properties": { "magmom": 0.0 },
        "label": "In",
        "xyz": [2.11145949, 3.86769769975598, 1.6038581227669058]
      },
      {
        "species": [{ "element": "In", "occu": 1 }],
        "abc": [0.5, 0.18055671, 0.35698512],
        "properties": { "magmom": 0.0 },
        "label": "In",
        "xyz": [2.11145949, 1.02612869975598, 4.003453937233094]
      },
      {
        "species": [{ "element": "Pd", "occu": 1 }],
        "abc": [0.5, 0.70225139, 0.39061361],
        "properties": { "magmom": -0.0 },
        "label": "Pd",
        "xyz": [2.11145949, 3.9909915600618198, 4.380584812306273]
      },
      {
        "species": [{ "element": "Pd", "occu": 1 }],
        "abc": [0.5, 0.29774861, 0.6093863900000001],
        "properties": { "magmom": -0.0 },
        "label": "Pd",
        "xyz": [2.11145949, 1.69214643993818, 6.834039307693727]
      },
      {
        "species": [{ "element": "Pd", "occu": 1 }],
        "abc": [0.0, 0.0640013, 0.75613913],
        "properties": { "magmom": -0.0 },
        "label": "Pd",
        "xyz": [0.0, 0.3637282200794, 8.479816125373816]
      },
      {
        "species": [{ "element": "Pd", "occu": 1 }],
        "abc": [0.5, 0.79774861, 0.89061361],
        "properties": { "magmom": -0.0 },
        "label": "Pd",
        "xyz": [2.11145949, 4.533715439938179, 9.987896872306274]
      },
      {
        "species": [{ "element": "Pd", "occu": 1 }],
        "abc": [-0.0, 0.435998699999999, 0.25613913],
        "properties": { "magmom": -0.0 },
        "label": "Pd",
        "xyz": [0.0, 2.4778407799205944, 2.8725040653738154]
      },
      {
        "species": [{ "element": "Pd", "occu": 1 }],
        "abc": [-0.0, 0.9359987, 0.24386087],
        "properties": { "magmom": -0.0 },
        "label": "Pd",
        "xyz": [0.0, 5.3194097799205995, 2.7348079946261845]
      },
      {
        "species": [{ "element": "Pd", "occu": 1 }],
        "abc": [-0.0, 0.564001299999999, 0.74386087],
        "properties": { "magmom": -0.0 },
        "label": "Pd",
        "xyz": [0.0, 3.205297220079394, 8.342120054626184]
      },
      {
        "species": [{ "element": "Pd", "occu": 1 }],
        "abc": [-0.0, 0.5, -0.0],
        "properties": { "magmom": -0.0 },
        "label": "Pd",
        "xyz": [0.0, 2.841569, 0.0]
      },
      {
        "species": [{ "element": "Pd", "occu": 1 }],
        "abc": [-0.0, -0.0, 0.5],
        "properties": { "magmom": -0.0 },
        "label": "Pd",
        "xyz": [0.0, 0.0, 5.60731206]
      },
      {
        "species": [{ "element": "Pd", "occu": 1 }],
        "abc": [0.5, 0.20225139, 0.10938639],
        "properties": { "magmom": -0.0 },
        "label": "Pd",
        "xyz": [2.11145949, 1.14942256006182, 1.2267272476937268]
      }
    ]
  },
  "task_ids": null,
  "uncorrected_energy_per_atom": null,
  "energy_per_atom": -23.3850643975,
  "formation_energy_per_atom": -0.5678094987499981,
  "energy_above_hull": 0.0,
  "is_stable": true,
  "equilibrium_reaction_energy_per_atom": null,
  "decomposes_to": null,
  "xas": null,
  "grain_boundaries": null,
  "band_gap": 0.0,
  "cbm": null,
  "vbm": null,
  "efermi": 7.01872237,
  "is_gap_direct": null,
  "is_metal": null,
  "es_source_calc_id": null,
  "bandstructure": null,
  "dos": null,
  "dos_energy_up": null,
  "dos_energy_down": null,
  "is_magnetic": null,
  "ordering": null,
  "total_magnetization": 6e-7,
  "total_magnetization_normalized_vol": null,
  "total_magnetization_normalized_formula_units": null,
  "num_magnetic_sites": null,
  "num_unique_magnetic_sites": null,
  "types_of_magnetic_species": null,
  "bulk_modulus": null,
  "shear_modulus": null,
  "universal_anisotropy": null,
  "homogeneous_poisson": null,
  "e_total": null,
  "e_ionic": null,
  "e_electronic": null,
  "n": null,
  "e_ij_max": null,
  "weighted_surface_energy_EV_PER_ANG2": null,
  "weighted_surface_energy": null,
  "weighted_work_function": null,
  "surface_anisotropy": null,
  "shape_factor": null,
  "has_reconstructed": null,
  "possible_species": null,
  "has_props": null,
  "theoretical": null,
  "database_IDs": null,
  "fields_not_requested": [
    "builder_meta",
    "nsites",
    "elements",
    "nelements",
    "composition",
    "composition_reduced",
    "chemsys",
    "symmetry",
    "property_name",
    "deprecated",
    "deprecation_reasons",
    "last_updated",
    "origins",
    "warnings",
    "task_ids",
    "uncorrected_energy_per_atom",
    "equilibrium_reaction_energy_per_atom",
    "decomposes_to",
    "xas",
    "grain_boundaries",
    "cbm",
    "vbm",
    "is_gap_direct",
    "is_metal",
    "es_source_calc_id",
    "bandstructure",
    "dos",
    "dos_energy_up",
    "dos_energy_down",
    "is_magnetic",
    "ordering",
    "total_magnetization_normalized_vol",
    "total_magnetization_normalized_formula_units",
    "num_magnetic_sites",
    "num_unique_magnetic_sites",
    "types_of_magnetic_species",
    "bulk_modulus",
    "shear_modulus",
    "universal_anisotropy",
    "homogeneous_poisson",
    "e_total",
    "e_ionic",
    "e_electronic",
    "n",
    "e_ij_max",
    "weighted_surface_energy_EV_PER_ANG2",
    "weighted_surface_energy",
    "weighted_work_function",
    "surface_anisotropy",
    "shape_factor",
    "has_reconstructed",
    "possible_species",
    "has_props",
    "theoretical",
    "database_IDs"
  ]
}
