{
  "builder_meta": null,
  "nsites": null,
  "elements": null,
  "nelements": null,
  "composition": null,
  "composition_reduced": null,
  "formula_pretty": "In3Ru",
  "formula_anonymous": "AB3",
  "chemsys": null,
  "volume": 361.3033973904095,
  "density": 8.190457243982019,
  "density_atomic": 22.581462336900593,
  "symmetry": null,
  "property_name": null,
  "material_id": "mp-607450",
  "deprecated": null,
  "deprecation_reasons": null,
  "last_updated": null,
  "origins": null,
  "warnings": null,
  "structure": {
    "@module": "pymatgen.core.structure",
    "@class": "Structure",
    "charge": 0,
    "lattice": {
      "matrix": [
        [7.0287055, 1.3880000000000001e-5, -1.0120000000000001e-5],
        [1.287e-5, 7.0285376, -1.1410000000000001e-5],
        [-2.9e-7, -5.4e-7, 7.31360879]
      ],
      "pbc": [true, true, true],
      "a": 7.02870550002099,
      "b": 7.028537600021044,
      "c": 7.313608790000026,
      "alpha": 90.00009724336115,
      "beta": 90.00008476693925,
      "gamma": 89.99978193983821,
      "volume": 361.30339739040943
    },
    "properties": {},
    "sites": [
      {
        "species": [{ "element": "In", "occu": 1 }],
        "abc": [0.15528007, 0.15527826, 0.26349743000000003],
        "properties": { "magmom": -0.0 },
        "label": "In",
        "xyz": [1.0914198040663365, 1.0913811018713355, 1.927113777031155]
      },
      {
        "species": [{ "element": "In", "occu": 1 }],
        "abc": [0.6552469, 0.34470996, 0.76357936],
        "properties": { "magmom": -0.0 },
        "label": "In",
        "xyz": [4.605541704867121, 2.422815597448613, 5.584510154919303]
      },
      {
        "species": [{ "element": "In", "occu": 1 }],
        "abc": [0.15531131, 0.15526894, 0.73648488],
        "properties": { "magmom": 0.0 },
        "label": "In",
        "xyz": [1.0916392435398476, 1.0913153409212915, 5.386358948701033]
      },
      {
        "species": [{ "element": "In", "occu": 1 }],
        "abc": [0.8447294, 0.8447253100000001, 0.73646302],
        "properties": { "magmom": 0.0 },
        "label": "In",
        "xyz": [5.937364837832164, 5.937194930160697, 5.3861842296046305]
      },
      {
        "species": [{ "element": "In", "occu": 1 }],
        "abc": [0.65525629, 0.34473871, 0.23643204],
        "properties": { "magmom": -0.0 },
        "label": "In",
        "xyz": [4.605607857654501, 2.4230179526944995, 1.7291608813192958]
      },
      {
        "species": [{ "element": "In", "occu": 1 }],
        "abc": [0.49996593, -1.391e-5, 8.380000000000001e-6],
        "properties": { "magmom": 0.0 },
        "label": "In",
        "xyz": [3.5141132818221634, -9.08274354328e-5, 5.62285451617e-5]
      },
      {
        "species": [{ "element": "In", "occu": 1 }],
        "abc": [3.067e-5, 0.5000435, 0.99999256],
        "properties": { "magmom": 0.0 },
        "label": "In",
        "xyz": [0.00022171595968760002, 3.514574001815317, 7.313548670943887]
      },
      {
        "species": [{ "element": "In", "occu": 1 }],
        "abc": [0.34473417, 0.65525398, 0.76352317],
        "properties": { "magmom": -0.0 },
        "label": "In",
        "xyz": [2.423043168413938, 4.605481608587415, 5.584098802322952]
      },
      {
        "species": [{ "element": "In", "occu": 1 }],
        "abc": [0.34470528, 0.65523865, 0.236463899999999],
        "properties": { "magmom": 0.0 },
        "label": "In",
        "xyz": [2.4228402617619347, 4.605374145317021, 1.7293934928672436]
      },
      {
        "species": [{ "element": "In", "occu": 1 }],
        "abc": [0.84473062, 0.84470838, 0.26355678],
        "properties": { "magmom": 0.0 },
        "label": "In",
        "xyz": [5.937373549777794, 5.937076192405433, 1.927532996075606]
      },
      {
        "species": [{ "element": "In", "occu": 1 }],
        "abc": [0.49997234, 4.7690000000000006e-5, 0.49999592000000004],
        "properties": { "magmom": 0.0 },
        "label": "In",
        "xyz": [3.5141581916208233, 0.00034186057642640003, 3.6567694952119134]
      },
      {
        "species": [{ "element": "In", "occu": 1 }],
        "abc": [2.6390000000000003e-5, 0.49998809, 0.50000542],
        "properties": { "magmom": 0.0 },
        "label": "In",
        "xyz": [0.00019177738329150004, 3.5141848204805504, 3.656838329628468]
      },
      {
        "species": [{ "element": "Ru", "occu": 1 }],
        "abc": [0.65589608, 0.6559008, -9e-7],
        "properties": { "magmom": -0.0 },
        "label": "Ru",
        "xyz": [4.6101088263679975, 4.610032538508156, -2.07037443686e-5]
      },
      {
        "species": [{ "element": "Ru", "occu": 1 }],
        "abc": [0.15591571, 0.84409919, 0.49999754],
        "properties": { "magmom": -0.0 },
        "label": "Ru",
        "xyz": [1.0958963269706936, 5.932784789155927, 3.6567751944836338]
      },
      {
        "species": [{ "element": "Ru", "occu": 1 }],
        "abc": [0.8441031, 0.15590903, 0.49999999],
        "properties": { "magmom": 0.0 },
        "label": "Ru",
        "xyz": [5.932953963086269, 1.0958239256855615, 3.656794000618508]
      },
      {
        "species": [{ "element": "Ru", "occu": 1 }],
        "abc": [0.34409475, 0.34410143, 0.99999753],
        "properties": { "magmom": -0.0 },
        "label": "Ru",
        "xyz": [2.4185448004322456, 2.4185340750052315, 7.313583316950102]
      }
    ]
  },
  "task_ids": null,
  "uncorrected_energy_per_atom": null,
  "energy_per_atom": -23.52604955625,
  "formation_energy_per_atom": -0.23597294750000203,
  "energy_above_hull": 0.0,
  "is_stable": true,
  "equilibrium_reaction_energy_per_atom": null,
  "decomposes_to": null,
  "xas": null,
  "grain_boundaries": null,
  "band_gap": 0.229,
  "cbm": null,
  "vbm": null,
  "efermi": 7.304156,
  "is_gap_direct": null,
  "is_metal": null,
  "es_source_calc_id": null,
  "bandstructure": null,
  "dos": null,
  "dos_energy_up": null,
  "dos_energy_down": null,
  "is_magnetic": null,
  "ordering": null,
  "total_magnetization": 0.0,
  "total_magnetization_normalized_vol": null,
  "total_magnetization_normalized_formula_units": null,
  "num_magnetic_sites": null,
  "num_unique_magnetic_sites": null,
  "types_of_magnetic_species": null,
  "bulk_modulus": null,
  "shear_modulus": null,
  "universal_anisotropy": null,
  "homogeneous_poisson": null,
  "e_total": null,
  "e_ionic": null,
  "e_electronic": null,
  "n": null,
  "e_ij_max": null,
  "weighted_surface_energy_EV_PER_ANG2": null,
  "weighted_surface_energy": null,
  "weighted_work_function": null,
  "surface_anisotropy": null,
  "shape_factor": null,
  "has_reconstructed": null,
  "possible_species": null,
  "has_props": null,
  "theoretical": null,
  "database_IDs": null,
  "fields_not_requested": [
    "builder_meta",
    "nsites",
    "elements",
    "nelements",
    "composition",
    "composition_reduced",
    "chemsys",
    "symmetry",
    "property_name",
    "deprecated",
    "deprecation_reasons",
    "last_updated",
    "origins",
    "warnings",
    "task_ids",
    "uncorrected_energy_per_atom",
    "equilibrium_reaction_energy_per_atom",
    "decomposes_to",
    "xas",
    "grain_boundaries",
    "cbm",
    "vbm",
    "is_gap_direct",
    "is_metal",
    "es_source_calc_id",
    "bandstructure",
    "dos",
    "dos_energy_up",
    "dos_energy_down",
    "is_magnetic",
    "ordering",
    "total_magnetization_normalized_vol",
    "total_magnetization_normalized_formula_units",
    "num_magnetic_sites",
    "num_unique_magnetic_sites",
    "types_of_magnetic_species",
    "bulk_modulus",
    "shear_modulus",
    "universal_anisotropy",
    "homogeneous_poisson",
    "e_total",
    "e_ionic",
    "e_electronic",
    "n",
    "e_ij_max",
    "weighted_surface_energy_EV_PER_ANG2",
    "weighted_surface_energy",
    "weighted_work_function",
    "surface_anisotropy",
    "shape_factor",
    "has_reconstructed",
    "possible_species",
    "has_props",
    "theoretical",
    "database_IDs"
  ]
}
