{
  "builder_meta": null,
  "nsites": null,
  "elements": null,
  "nelements": null,
  "composition": null,
  "composition_reduced": null,
  "formula_pretty": "In3Si",
  "formula_anonymous": "AB3",
  "chemsys": null,
  "volume": 194.89792432700622,
  "density": 6.348106535641657,
  "density_atomic": 24.362240540875778,
  "symmetry": null,
  "property_name": null,
  "material_id": "mp-1184934",
  "deprecated": null,
  "deprecation_reasons": null,
  "last_updated": null,
  "origins": null,
  "warnings": null,
  "structure": {
    "@module": "pymatgen.core.structure",
    "@class": "Structure",
    "charge": 0,
    "lattice": {
      "matrix": [
        [3.261028, -5.648267, 0.0],
        [3.261028, 5.648267, 0.0],
        [0.0, 0.0, 5.290631]
      ],
      "pbc": [true, true, true],
      "a": 6.522056709357332,
      "b": 6.522056709357332,
      "c": 5.290631,
      "alpha": 90.0,
      "beta": 90.0,
      "gamma": 120.00000719569067,
      "volume": 194.89792432700622
    },
    "properties": {},
    "sites": [
      {
        "species": [{ "element": "In", "occu": 1 }],
        "abc": [0.171284, 0.342568, 0.25],
        "properties": { "magmom": 0.0 },
        "label": "In",
        "xyz": [1.675685759856, 0.9674577648279999, 1.32265775]
      },
      {
        "species": [{ "element": "In", "occu": 1 }],
        "abc": [0.657432, 0.828716, 0.25],
        "properties": { "magmom": -0.0 },
        "label": "In",
        "xyz": [4.846370240144, 0.967457764828, 1.32265775]
      },
      {
        "species": [{ "element": "In", "occu": 1 }],
        "abc": [0.171284, 0.828716, 0.25],
        "properties": { "magmom": -0.0 },
        "label": "In",
        "xyz": [3.261028, 3.713351470344, 1.32265775]
      },
      {
        "species": [{ "element": "In", "occu": 1 }],
        "abc": [0.828716, 0.657432, 0.75],
        "properties": { "magmom": 0.0 },
        "label": "In",
        "xyz": [4.846370240144, -0.967457764828, 3.96797325]
      },
      {
        "species": [{ "element": "In", "occu": 1 }],
        "abc": [0.342568, 0.171284, 0.75],
        "properties": { "magmom": -0.0 },
        "label": "In",
        "xyz": [1.675685759856, -0.9674577648279999, 3.96797325]
      },
      {
        "species": [{ "element": "In", "occu": 1 }],
        "abc": [0.828716, 0.171284, 0.75],
        "properties": { "magmom": -0.0 },
        "label": "In",
        "xyz": [3.261028, -3.713351470344, 3.96797325]
      },
      {
        "species": [{ "element": "Si", "occu": 1 }],
        "abc": [0.333333, 0.666667, 0.75],
        "properties": { "magmom": -0.0 },
        "label": "Si",
        "xyz": [3.2610280000000005, 1.8827594321780001, 3.96797325]
      },
      {
        "species": [{ "element": "Si", "occu": 1 }],
        "abc": [0.666667, 0.333333, 0.25],
        "properties": { "magmom": -0.0 },
        "label": "Si",
        "xyz": [3.2610280000000005, -1.8827594321780001, 1.32265775]
      }
    ]
  },
  "task_ids": null,
  "uncorrected_energy_per_atom": null,
  "energy_per_atom": -18.8152525325,
  "formation_energy_per_atom": 0.31213140124999905,
  "energy_above_hull": 0.31213140124999905,
  "is_stable": false,
  "equilibrium_reaction_energy_per_atom": null,
  "decomposes_to": null,
  "xas": null,
  "grain_boundaries": null,
  "band_gap": 0.0,
  "cbm": null,
  "vbm": null,
  "efermi": 7.2955708,
  "is_gap_direct": null,
  "is_metal": null,
  "es_source_calc_id": null,
  "bandstructure": null,
  "dos": null,
  "dos_energy_up": null,
  "dos_energy_down": null,
  "is_magnetic": null,
  "ordering": null,
  "total_magnetization": 0.0020816,
  "total_magnetization_normalized_vol": null,
  "total_magnetization_normalized_formula_units": null,
  "num_magnetic_sites": null,
  "num_unique_magnetic_sites": null,
  "types_of_magnetic_species": null,
  "bulk_modulus": null,
  "shear_modulus": null,
  "universal_anisotropy": null,
  "homogeneous_poisson": null,
  "e_total": null,
  "e_ionic": null,
  "e_electronic": null,
  "n": null,
  "e_ij_max": null,
  "weighted_surface_energy_EV_PER_ANG2": null,
  "weighted_surface_energy": null,
  "weighted_work_function": null,
  "surface_anisotropy": null,
  "shape_factor": null,
  "has_reconstructed": null,
  "possible_species": null,
  "has_props": null,
  "theoretical": null,
  "database_IDs": null,
  "fields_not_requested": [
    "builder_meta",
    "nsites",
    "elements",
    "nelements",
    "composition",
    "composition_reduced",
    "chemsys",
    "symmetry",
    "property_name",
    "deprecated",
    "deprecation_reasons",
    "last_updated",
    "origins",
    "warnings",
    "task_ids",
    "uncorrected_energy_per_atom",
    "equilibrium_reaction_energy_per_atom",
    "decomposes_to",
    "xas",
    "grain_boundaries",
    "cbm",
    "vbm",
    "is_gap_direct",
    "is_metal",
    "es_source_calc_id",
    "bandstructure",
    "dos",
    "dos_energy_up",
    "dos_energy_down",
    "is_magnetic",
    "ordering",
    "total_magnetization_normalized_vol",
    "total_magnetization_normalized_formula_units",
    "num_magnetic_sites",
    "num_unique_magnetic_sites",
    "types_of_magnetic_species",
    "bulk_modulus",
    "shear_modulus",
    "universal_anisotropy",
    "homogeneous_poisson",
    "e_total",
    "e_ionic",
    "e_electronic",
    "n",
    "e_ij_max",
    "weighted_surface_energy_EV_PER_ANG2",
    "weighted_surface_energy",
    "weighted_work_function",
    "surface_anisotropy",
    "shape_factor",
    "has_reconstructed",
    "possible_species",
    "has_props",
    "theoretical",
    "database_IDs"
  ]
}
