{
  "builder_meta": null,
  "nsites": null,
  "elements": null,
  "nelements": null,
  "composition": null,
  "composition_reduced": null,
  "formula_pretty": "In3S4",
  "formula_anonymous": "A3B4",
  "chemsys": null,
  "volume": 337.933323479449,
  "density": 4.645650545773943,
  "density_atomic": 24.138094534246356,
  "symmetry": null,
  "property_name": null,
  "material_id": "mp-556597",
  "deprecated": null,
  "deprecation_reasons": null,
  "last_updated": null,
  "origins": null,
  "warnings": null,
  "structure": {
    "@module": "pymatgen.core.structure",
    "@class": "Structure",
    "charge": 0,
    "lattice": {
      "matrix": [
        [-0.0, 5.5284112400000005, 5.5284112400000005],
        [5.5284112400000005, -0.0, 5.5284112400000005],
        [5.5284112400000005, 5.5284112400000005, -0.0]
      ],
      "pbc": [true, true, true],
      "a": 7.818354153983861,
      "b": 7.818354153983861,
      "c": 7.818354153983861,
      "alpha": 59.99999999999999,
      "beta": 59.99999999999999,
      "gamma": 59.99999999999999,
      "volume": 337.9333234794492
    },
    "properties": {},
    "sites": [
      {
        "species": [{ "element": "In", "occu": 1 }],
        "abc": [0.75, 0.75, 0.75],
        "properties": { "magmom": -0.0 },
        "label": "In",
        "xyz": [8.29261686, 8.29261686, 8.29261686]
      },
      {
        "species": [{ "element": "In", "occu": 1 }],
        "abc": [0.625, 0.125, 0.125],
        "properties": { "magmom": 0.0 },
        "label": "In",
        "xyz": [1.3821028100000001, 4.14630843, 4.14630843]
      },
      {
        "species": [{ "element": "In", "occu": 1 }],
        "abc": [0.125, 0.125, 0.625],
        "properties": { "magmom": 0.0 },
        "label": "In",
        "xyz": [4.14630843, 4.14630843, 1.3821028100000001]
      },
      {
        "species": [{ "element": "In", "occu": 1 }],
        "abc": [0.125, 0.125, 0.125],
        "properties": { "magmom": 0.0 },
        "label": "In",
        "xyz": [1.3821028100000001, 1.3821028100000001, 1.3821028100000001]
      },
      {
        "species": [{ "element": "In", "occu": 1 }],
        "abc": [0.5, 0.5, 0.5],
        "properties": { "magmom": -0.0 },
        "label": "In",
        "xyz": [5.5284112400000005, 5.5284112400000005, 5.5284112400000005]
      },
      {
        "species": [{ "element": "In", "occu": 1 }],
        "abc": [0.125, 0.625, 0.125],
        "properties": { "magmom": 0.0 },
        "label": "In",
        "xyz": [4.14630843, 1.3821028100000001, 4.14630843]
      },
      {
        "species": [{ "element": "S", "occu": 1 }],
        "abc": [0.9007148500000001, 0.36642805, 0.36642805],
        "properties": { "magmom": -0.0 },
        "label": "S",
        "xyz": [4.0515299005425645, 7.0052870510461975, 7.0052870510461975]
      },
      {
        "species": [{ "element": "S", "occu": 1 }],
        "abc": [0.36642805, 0.9007148500000001, 0.36642805],
        "properties": { "magmom": -0.0 },
        "label": "S",
        "xyz": [7.0052870510461975, 4.0515299005425645, 7.0052870510461975]
      },
      {
        "species": [{ "element": "S", "occu": 1 }],
        "abc": [0.36642805, 0.36642805, 0.36642805],
        "properties": { "magmom": -0.0 },
        "label": "S",
        "xyz": [4.0515299005425645, 4.0515299005425645, 4.0515299005425645]
      },
      {
        "species": [{ "element": "S", "occu": 1 }],
        "abc": [0.88357195, 0.88357195, 0.34928515],
        "properties": { "magmom": -0.0 },
        "label": "S",
        "xyz": [6.8157410489538055, 6.8157410489538055, 9.769498199457438]
      },
      {
        "species": [{ "element": "S", "occu": 1 }],
        "abc": [0.36642805, 0.36642805, 0.9007148500000001],
        "properties": { "magmom": -0.0 },
        "label": "S",
        "xyz": [7.0052870510461975, 7.0052870510461975, 4.0515299005425645]
      },
      {
        "species": [{ "element": "S", "occu": 1 }],
        "abc": [0.88357195, 0.34928515, 0.88357195],
        "properties": { "magmom": -0.0 },
        "label": "S",
        "xyz": [6.8157410489538055, 9.769498199457438, 6.8157410489538055]
      },
      {
        "species": [{ "element": "S", "occu": 1 }],
        "abc": [0.88357195, 0.88357195, 0.88357195],
        "properties": { "magmom": -0.0 },
        "label": "S",
        "xyz": [9.769498199457438, 9.769498199457438, 9.769498199457438]
      },
      {
        "species": [{ "element": "S", "occu": 1 }],
        "abc": [0.34928515, 0.88357195, 0.88357195],
        "properties": { "magmom": -0.0 },
        "label": "S",
        "xyz": [9.769498199457438, 6.8157410489538055, 6.8157410489538055]
      }
    ]
  },
  "task_ids": null,
  "uncorrected_energy_per_atom": null,
  "energy_per_atom": -14.920875493571428,
  "formation_energy_per_atom": -0.652908712321427,
  "energy_above_hull": 0.07289500857143001,
  "is_stable": false,
  "equilibrium_reaction_energy_per_atom": null,
  "decomposes_to": null,
  "xas": null,
  "grain_boundaries": null,
  "band_gap": 0.0,
  "cbm": null,
  "vbm": null,
  "efermi": 5.68250229,
  "is_gap_direct": null,
  "is_metal": null,
  "es_source_calc_id": null,
  "bandstructure": null,
  "dos": null,
  "dos_energy_up": null,
  "dos_energy_down": null,
  "is_magnetic": null,
  "ordering": null,
  "total_magnetization": 5e-7,
  "total_magnetization_normalized_vol": null,
  "total_magnetization_normalized_formula_units": null,
  "num_magnetic_sites": null,
  "num_unique_magnetic_sites": null,
  "types_of_magnetic_species": null,
  "bulk_modulus": null,
  "shear_modulus": null,
  "universal_anisotropy": null,
  "homogeneous_poisson": null,
  "e_total": null,
  "e_ionic": null,
  "e_electronic": null,
  "n": null,
  "e_ij_max": null,
  "weighted_surface_energy_EV_PER_ANG2": null,
  "weighted_surface_energy": null,
  "weighted_work_function": null,
  "surface_anisotropy": null,
  "shape_factor": null,
  "has_reconstructed": null,
  "possible_species": null,
  "has_props": null,
  "theoretical": null,
  "database_IDs": null,
  "fields_not_requested": [
    "builder_meta",
    "nsites",
    "elements",
    "nelements",
    "composition",
    "composition_reduced",
    "chemsys",
    "symmetry",
    "property_name",
    "deprecated",
    "deprecation_reasons",
    "last_updated",
    "origins",
    "warnings",
    "task_ids",
    "uncorrected_energy_per_atom",
    "equilibrium_reaction_energy_per_atom",
    "decomposes_to",
    "xas",
    "grain_boundaries",
    "cbm",
    "vbm",
    "is_gap_direct",
    "is_metal",
    "es_source_calc_id",
    "bandstructure",
    "dos",
    "dos_energy_up",
    "dos_energy_down",
    "is_magnetic",
    "ordering",
    "total_magnetization_normalized_vol",
    "total_magnetization_normalized_formula_units",
    "num_magnetic_sites",
    "num_unique_magnetic_sites",
    "types_of_magnetic_species",
    "bulk_modulus",
    "shear_modulus",
    "universal_anisotropy",
    "homogeneous_poisson",
    "e_total",
    "e_ionic",
    "e_electronic",
    "n",
    "e_ij_max",
    "weighted_surface_energy_EV_PER_ANG2",
    "weighted_surface_energy",
    "weighted_work_function",
    "surface_anisotropy",
    "shape_factor",
    "has_reconstructed",
    "possible_species",
    "has_props",
    "theoretical",
    "database_IDs"
  ]
}
