{"builder_meta": null, "nsites": null, "elements": null, "nelements": null, "composition": null, "composition_reduced": null, "formula_pretty": "In3Sn", "formula_anonymous": "AB3", "chemsys": null, "volume": 109.19839327759466, "density": 7.043161471136103, "density_atomic": 27.299598319398665, "symmetry": null, "property_name": null, "material_id": "mp-1224025", "deprecated": null, "deprecation_reasons": null, "last_updated": null, "origins": null, "warnings": null, "structure": {"@module": "pymatgen.core.structure", "@class": "Structure", "charge": 0, "lattice": {"matrix": [[1.875471999999999, 2.679287, 0.0], [-1.875471999999999, 2.679287, 0.0], [0.0, 2.676741, 10.865668]], "pbc": [true, true, true], "a": 3.270470004625176, "b": 3.270470004625176, "c": 11.190517569232666, "alpha": 78.69924807350674, "beta": 78.69924807350674, "gamma": 69.98321083833333, "volume": 109.1983932775946}, "properties": {}, "sites": [{"species": [{"element": "In", "occu": 1}], "abc": [0.5016400000000001, 0.5016400000000001, 0.748278999999999], "properties": {"magmom": 0.0}, "label": "In", "xyz": [0.0, 4.691024140098998, 8.130551185371989]}, {"species": [{"element": "In", "occu": 1}], "abc": [0.0, 0.0, 0.5], "properties": {"magmom": 0.0}, "label": "In", "xyz": [0.0, 1.3383705, 5.432834]}, {"species": [{"element": "In", "occu": 1}], "abc": [0.49836, 0.49836, 0.251721], "properties": {"magmom": 0.0}, "label": "In", "xyz": [0.0, 3.344290859901, 2.7351168146279994]}, {"species": [{"element": "Sn", "occu": 1}], "abc": [0.0, 0.0, 0.0], "properties": {"magmom": 0.001}, "label": "Sn", "xyz": [0.0, 0.0, 0.0]}]}, "task_ids": null, "uncorrected_energy_per_atom": null, "energy_per_atom": -23.081924788749998, "formation_energy_per_atom": 0.038563941250000004, "energy_above_hull": 0.038563941250000004, "is_stable": false, "equilibrium_reaction_energy_per_atom": null, "decomposes_to": null, "xas": null, "grain_boundaries": null, "band_gap": 0.0, "cbm": null, "vbm": null, "efermi": 7.60066623, "is_gap_direct": null, "is_metal": null, "es_source_calc_id": null, "bandstructure": null, "dos": null, "dos_energy_up": null, "dos_energy_down": null, "is_magnetic": null, "ordering": null, "total_magnetization": 0.0230595, "total_magnetization_normalized_vol": null, "total_magnetization_normalized_formula_units": null, "num_magnetic_sites": null, "num_unique_magnetic_sites": null, "types_of_magnetic_species": null, "bulk_modulus": null, "shear_modulus": null, "universal_anisotropy": null, "homogeneous_poisson": null, "e_total": null, "e_ionic": null, "e_electronic": null, "n": null, "e_ij_max": null, "weighted_surface_energy_EV_PER_ANG2": null, "weighted_surface_energy": null, "weighted_work_function": null, "surface_anisotropy": null, "shape_factor": null, "has_reconstructed": null, "possible_species": null, "has_props": null, "theoretical": null, "database_IDs": null, "fields_not_requested": ["builder_meta", "nsites", "elements", "nelements", "composition", "composition_reduced", "chemsys", "symmetry", "property_name", "deprecated", "deprecation_reasons", "last_updated", "origins", "warnings", "task_ids", "uncorrected_energy_per_atom", "equilibrium_reaction_energy_per_atom", "decomposes_to", "xas", "grain_boundaries", "cbm", "vbm", "is_gap_direct", "is_metal", "es_source_calc_id", "bandstructure", "dos", "dos_energy_up", "dos_energy_down", "is_magnetic", "ordering", "total_magnetization_normalized_vol", "total_magnetization_normalized_formula_units", "num_magnetic_sites", "num_unique_magnetic_sites", "types_of_magnetic_species", "bulk_modulus", "shear_modulus", "universal_anisotropy", "homogeneous_poisson", "e_total", "e_ionic", "e_electronic", "n", "e_ij_max", "weighted_surface_energy_EV_PER_ANG2", "weighted_surface_energy", "weighted_work_function", "surface_anisotropy", "shape_factor", "has_reconstructed", "possible_species", "has_props", "theoretical", "database_IDs"]}