{"builder_meta": null, "nsites": null, "elements": null, "nelements": null, "composition": null, "composition_reduced": null, "formula_pretty": "In3Te4", "formula_anonymous": "A3B4", "chemsys": null, "volume": 225.92434440144257, "density": 6.283158492725109, "density_atomic": 32.27490634306322, "symmetry": null, "property_name": null, "material_id": "mp-541885", "deprecated": null, "deprecation_reasons": null, "last_updated": null, "origins": null, "warnings": null, "structure": {"@module": "pymatgen.core.structure", "@class": "Structure", "charge": 0, "lattice": {"matrix": [[13.903006, -2.170288, 0.0], [13.903006, 2.170288, 0.0], [13.564219, 0.0, 3.743751]], "pbc": [true, true, true], "a": 14.071379670770737, "b": 14.071379670770737, "c": 14.07137905928065, "alpha": 17.744769784883047, "beta": 17.744769784883047, "gamma": 17.744770263741376, "volume": 225.92434440144257}, "properties": {}, "sites": [{"species": [{"element": "In", "occu": 1}], "abc": [0.0, 0.0, 0.0], "properties": {"magmom": 0.001}, "label": "In", "xyz": [0.0, 0.0, 0.0]}, {"species": [{"element": "In", "occu": 1}], "abc": [0.426633, 0.426633, 0.426633], "properties": {"magmom": 0.0}, "label": "In", "xyz": [17.649905762223, 0.0, 1.597207720383]}, {"species": [{"element": "In", "occu": 1}], "abc": [0.573367, 0.573367, 0.573367], "properties": {"magmom": 0.0}, "label": "In", "xyz": [23.720325237776997, 0.0, 2.146543279617]}, {"species": [{"element": "Te", "occu": 1}], "abc": [0.128768, 0.128768, 0.128768], "properties": {"magmom": -0.0}, "label": "Te", "xyz": [5.3271619054079995, 0.0, 0.48207532876799997]}, {"species": [{"element": "Te", "occu": 1}], "abc": [0.871232, 0.871232, 0.871232], "properties": {"magmom": -0.0}, "label": "Te", "xyz": [36.043069094592, 0.0, 3.261675671232]}, {"species": [{"element": "Te", "occu": 1}], "abc": [0.290607, 0.290607, 0.290607], "properties": {"magmom": -0.0}, "label": "Te", "xyz": [12.022478720216998, 0.0, 1.087960246857]}, {"species": [{"element": "Te", "occu": 1}], "abc": [0.709392999999999, 0.709392999999999, 0.709392999999999], "properties": {"magmom": -0.0}, "label": "Te", "xyz": [29.34775227978296, 0.0, 2.6557907531429965]}]}, "task_ids": null, "uncorrected_energy_per_atom": null, "energy_per_atom": -24.584637012556385, "formation_energy_per_atom": -0.38397010112781704, "energy_above_hull": 0.068132223571431, "is_stable": false, "equilibrium_reaction_energy_per_atom": null, "decomposes_to": null, "xas": null, "grain_boundaries": null, "band_gap": 0.0, "cbm": null, "vbm": null, "efermi": 5.74323705, "is_gap_direct": null, "is_metal": null, "es_source_calc_id": null, "bandstructure": null, "dos": null, "dos_energy_up": null, "dos_energy_down": null, "is_magnetic": null, "ordering": null, "total_magnetization": 0.0131496, "total_magnetization_normalized_vol": null, "total_magnetization_normalized_formula_units": null, "num_magnetic_sites": null, "num_unique_magnetic_sites": null, "types_of_magnetic_species": null, "bulk_modulus": null, "shear_modulus": null, "universal_anisotropy": null, "homogeneous_poisson": null, "e_total": null, "e_ionic": null, "e_electronic": null, "n": null, "e_ij_max": null, "weighted_surface_energy_EV_PER_ANG2": null, "weighted_surface_energy": null, "weighted_work_function": null, "surface_anisotropy": null, "shape_factor": null, "has_reconstructed": null, "possible_species": null, "has_props": null, "theoretical": null, "database_IDs": null, "fields_not_requested": ["builder_meta", "nsites", "elements", "nelements", "composition", "composition_reduced", "chemsys", "symmetry", "property_name", "deprecated", "deprecation_reasons", "last_updated", "origins", "warnings", "task_ids", "uncorrected_energy_per_atom", "equilibrium_reaction_energy_per_atom", "decomposes_to", "xas", "grain_boundaries", "cbm", "vbm", "is_gap_direct", "is_metal", "es_source_calc_id", "bandstructure", "dos", "dos_energy_up", "dos_energy_down", "is_magnetic", "ordering", "total_magnetization_normalized_vol", "total_magnetization_normalized_formula_units", "num_magnetic_sites", "num_unique_magnetic_sites", "types_of_magnetic_species", "bulk_modulus", "shear_modulus", "universal_anisotropy", "homogeneous_poisson", "e_total", "e_ionic", "e_electronic", "n", "e_ij_max", "weighted_surface_energy_EV_PER_ANG2", "weighted_surface_energy", "weighted_work_function", "surface_anisotropy", "shape_factor", "has_reconstructed", "possible_species", "has_props", "theoretical", "database_IDs"]}