{"builder_meta": null, "nsites": null, "elements": null, "nelements": null, "composition": null, "composition_reduced": null, "formula_pretty": "IN4", "formula_anonymous": "AB4", "chemsys": null, "volume": 511.407041384172, "density": 2.375911911698242, "density_atomic": 25.5703520692086, "symmetry": null, "property_name": null, "material_id": "mp-1188721", "deprecated": null, "deprecation_reasons": null, "last_updated": null, "origins": null, "warnings": null, "structure": {"@module": "pymatgen.core.structure", "@class": "Structure", "charge": 0, "lattice": {"matrix": [[5.977135, 0.0, 0.0], [0.0, 8.994388, 0.0], [0.0, 0.0, 9.512661]], "pbc": [true, true, true], "a": 5.977135, "b": 8.994388, "c": 9.512661, "alpha": 90.0, "beta": 90.0, "gamma": 90.0, "volume": 511.407041384172}, "properties": {}, "sites": [{"species": [{"element": "I", "occu": 1}], "abc": [0.532135999999999, 0.478259, 0.521286], "properties": {"magmom": 0.026000000000000002}, "label": "I", "xyz": [3.180648710359994, 4.301647010492, 4.958817002046]}, {"species": [{"element": "I", "occu": 1}], "abc": [0.032136, 0.521741, 0.478714], "properties": {"magmom": 0.027}, "label": "I", "xyz": [0.19208121035999998, 4.692740989508001, 4.553843997954]}, {"species": [{"element": "I", "occu": 1}], "abc": [0.032136, 0.021741, 0.021286], "properties": {"magmom": 0.026000000000000002}, "label": "I", "xyz": [0.19208121035999998, 0.195546989508, 0.202486502046]}, {"species": [{"element": "I", "occu": 1}], "abc": [0.532135999999999, 0.978259, 0.978714], "properties": {"magmom": 0.027}, "label": "I", "xyz": [3.180648710359994, 8.798841010492001, 9.310174497954]}, {"species": [{"element": "N", "occu": 1}], "abc": [0.381304, 0.616669, 0.190943], "properties": {"magmom": 0.0}, "label": "N", "xyz": [2.2791054840399996, 5.546560253572, 1.816376029323]}, {"species": [{"element": "N", "occu": 1}], "abc": [0.881304, 0.383331, 0.809056999999999], "properties": {"magmom": 0.0}, "label": "N", "xyz": [5.26767298404, 3.447827746428, 7.696284970676991]}, {"species": [{"element": "N", "occu": 1}], "abc": [0.881304, 0.883331, 0.690943], "properties": {"magmom": 0.0}, "label": "N", "xyz": [5.26767298404, 7.945021746428001, 6.572706529323]}, {"species": [{"element": "N", "occu": 1}], "abc": [0.381304, 0.116669, 0.309056999999999], "properties": {"magmom": 0.0}, "label": "N", "xyz": [2.2791054840399996, 1.049366253572, 2.9399544706769905]}, {"species": [{"element": "N", "occu": 1}], "abc": [0.395119, 0.400217, 0.939878999999999], "properties": {"magmom": 0.0}, "label": "N", "xyz": [2.361679604065, 3.5997069821960004, 8.940750308018991]}, {"species": [{"element": "N", "occu": 1}], "abc": [0.895119, 0.599783, 0.060120999999999], "properties": {"magmom": 0.0}, "label": "N", "xyz": [5.350247104065, 5.394681017804, 0.5719106919809904]}, {"species": [{"element": "N", "occu": 1}], "abc": [0.895119, 0.099783, 0.439878999999999], "properties": {"magmom": 0.0}, "label": "N", "xyz": [5.350247104065, 0.8974870178040001, 4.1844198080189905]}, {"species": [{"element": "N", "occu": 1}], "abc": [0.395119, 0.900216999999999, 0.560121], "properties": {"magmom": 0.0}, "label": "N", "xyz": [2.361679604065, 8.096900982195992, 5.328241191980999]}, {"species": [{"element": "N", "occu": 1}], "abc": [0.834131, 0.673535, 0.146315], "properties": {"magmom": -0.0}, "label": "N", "xyz": [4.9857135946849995, 6.058035121580001, 1.391844994215]}, {"species": [{"element": "N", "occu": 1}], "abc": [0.334131, 0.326465, 0.853684999999999], "properties": {"magmom": -0.0}, "label": "N", "xyz": [1.997146094685, 2.93635287842, 8.12081600578499]}, {"species": [{"element": "N", "occu": 1}], "abc": [0.334131, 0.826465, 0.646315], "properties": {"magmom": -0.0}, "label": "N", "xyz": [1.997146094685, 7.4335468784200005, 6.148175494215]}, {"species": [{"element": "N", "occu": 1}], "abc": [0.834131, 0.173535, 0.35368499999999903], "properties": {"magmom": -0.0}, "label": "N", "xyz": [4.9857135946849995, 1.56084112158, 3.3644855057849905]}, {"species": [{"element": "N", "occu": 1}], "abc": [0.31481000000000003, 0.728951, 0.218654], "properties": {"magmom": -0.0}, "label": "N", "xyz": [1.88166186935, 6.556468126988, 2.0799813782939998]}, {"species": [{"element": "N", "occu": 1}], "abc": [0.81481, 0.271049, 0.781346], "properties": {"magmom": -0.0}, "label": "N", "xyz": [4.87022936935, 2.437919873012, 7.432679621706]}, {"species": [{"element": "N", "occu": 1}], "abc": [0.81481, 0.771049, 0.718654], "properties": {"magmom": -0.0}, "label": "N", "xyz": [4.87022936935, 6.935113873012001, 6.8363118782939996]}, {"species": [{"element": "N", "occu": 1}], "abc": [0.31481000000000003, 0.228951, 0.281346], "properties": {"magmom": -0.0}, "label": "N", "xyz": [1.88166186935, 2.059274126988, 2.6763491217059996]}]}, "task_ids": null, "uncorrected_energy_per_atom": null, "energy_per_atom": -7.237732855999999, "formation_energy_per_atom": -0.262308137, "energy_above_hull": 0.0, "is_stable": true, "equilibrium_reaction_energy_per_atom": null, "decomposes_to": null, "xas": null, "grain_boundaries": null, "band_gap": 0.0, "cbm": null, "vbm": null, "efermi": -1.16194426, "is_gap_direct": null, "is_metal": null, "es_source_calc_id": null, "bandstructure": null, "dos": null, "dos_energy_up": null, "dos_energy_down": null, "is_magnetic": null, "ordering": null, "total_magnetization": 0.143374299999999, "total_magnetization_normalized_vol": null, "total_magnetization_normalized_formula_units": null, "num_magnetic_sites": null, "num_unique_magnetic_sites": null, "types_of_magnetic_species": null, "bulk_modulus": null, "shear_modulus": null, "universal_anisotropy": null, "homogeneous_poisson": null, "e_total": null, "e_ionic": null, "e_electronic": null, "n": null, "e_ij_max": null, "weighted_surface_energy_EV_PER_ANG2": null, "weighted_surface_energy": null, "weighted_work_function": null, "surface_anisotropy": null, "shape_factor": null, "has_reconstructed": null, "possible_species": null, "has_props": null, "theoretical": null, "database_IDs": null, "fields_not_requested": ["builder_meta", "nsites", "elements", "nelements", "composition", "composition_reduced", "chemsys", "symmetry", "property_name", "deprecated", "deprecation_reasons", "last_updated", "origins", "warnings", "task_ids", "uncorrected_energy_per_atom", "equilibrium_reaction_energy_per_atom", "decomposes_to", "xas", "grain_boundaries", "cbm", "vbm", "is_gap_direct", "is_metal", "es_source_calc_id", "bandstructure", "dos", "dos_energy_up", "dos_energy_down", "is_magnetic", "ordering", "total_magnetization_normalized_vol", "total_magnetization_normalized_formula_units", "num_magnetic_sites", "num_unique_magnetic_sites", "types_of_magnetic_species", "bulk_modulus", "shear_modulus", "universal_anisotropy", "homogeneous_poisson", "e_total", "e_ionic", "e_electronic", "n", "e_ij_max", "weighted_surface_energy_EV_PER_ANG2", "weighted_surface_energy", "weighted_work_function", "surface_anisotropy", "shape_factor", "has_reconstructed", "possible_species", "has_props", "theoretical", "database_IDs"]}