{"builder_meta": null, "nsites": null, "elements": null, "nelements": null, "composition": null, "composition_reduced": null, "formula_pretty": "In4Br7", "formula_anonymous": "A4B7", "chemsys": null, "volume": 1589.6039255046624, "density": 4.256217705808122, "density_atomic": 36.12736194328778, "symmetry": null, "property_name": null, "material_id": "mp-680760", "deprecated": null, "deprecation_reasons": null, "last_updated": null, "origins": null, "warnings": null, "structure": {"@module": "pymatgen.core.structure", "@class": "Structure", "charge": 0, "lattice": {"matrix": [[3.79025727, 6.68647611, -0.02369711], [-3.79025727, 6.68647611, -0.02369711], [0.0, 4.63276963, 31.34480095]], "pbc": [true, true, true], "a": 7.686063654134731, "b": 7.686063654134731, "c": 31.68531364906731, "alpha": 82.86851527326596, "beta": 82.86851527326596, "gamma": 59.09352353705721, "volume": 1589.6039255046626}, "properties": {}, "sites": [{"species": [{"element": "In", "occu": 1}], "abc": [0.17408424, 0.67586268, 0.97566714], "properties": {"magmom": 0.0}, "label": "In", "xyz": [-1.9018693801392588, 10.20319087052904, 30.56195101109838]}, {"species": [{"element": "In", "occu": 1}], "abc": [0.45481585, 0.9627344600000001, 0.12573753000000001], "properties": {"magmom": -0.0}, "label": "In", "xyz": [-1.925142204120795, 10.06092929287331, 3.9076260041680495]}, {"species": [{"element": "In", "occu": 1}], "abc": [0.03726554, 0.54518415, 0.37426247], "properties": {"magmom": -0.0}, "label": "In", "xyz": [-1.9251422041207946, 5.628407742126692, 11.717380250831951]}, {"species": [{"element": "In", "occu": 1}], "abc": [0.67586268, 0.17408424, 0.47566714], "properties": {"magmom": 0.0}, "label": "In", "xyz": [1.9018693801392588, 7.886806055529041, 14.889550536098382]}, {"species": [{"element": "In", "occu": 1}], "abc": [0.36703938, 0.9150125100000001, 0.31527749], "properties": {"magmom": -0.0}, "label": "In", "xyz": [-2.076959139747155, 10.033017314959977, 9.851929243402576]}, {"species": [{"element": "In", "occu": 1}], "abc": [0.18354136000000001, 0.81645864, 0.75], "properties": {"magmom": -0.0}, "label": "In", "xyz": [-2.3989193218286258, 10.1610533325, 23.484903602499998]}, {"species": [{"element": "In", "occu": 1}], "abc": [0.54518415, 0.03726554, 0.87426247], "properties": {"magmom": -0.0}, "label": "In", "xyz": [1.9251422041207946, 7.944792557126692, 27.38978072583195]}, {"species": [{"element": "In", "occu": 1}], "abc": [0.82591576, 0.32413732, 0.02433286], "properties": {"magmom": 0.0}, "label": "In", "xyz": [1.9018693801392588, 7.802530979470961, 0.7354557189016182]}, {"species": [{"element": "In", "occu": 1}], "abc": [0.63296062, 0.08498749, 0.6847225100000001], "properties": {"magmom": -0.0}, "label": "In", "xyz": [2.076959139747155, 7.972704535040023, 21.445477486597422]}, {"species": [{"element": "In", "occu": 1}], "abc": [0.5, -0.0, 0.0], "properties": {"magmom": -0.0}, "label": "In", "xyz": [1.895128635, 3.343238055, -0.011848555]}, {"species": [{"element": "In", "occu": 1}], "abc": [0.9150125100000001, 0.36703938, 0.81527749], "properties": {"magmom": -0.0}, "label": "In", "xyz": [2.076959139747155, 12.349402129959977, 25.52432971840258]}, {"species": [{"element": "In", "occu": 1}], "abc": [0.9627344600000001, 0.45481585, 0.62573753], "properties": {"magmom": -0.0}, "label": "In", "xyz": [1.925142204120795, 12.37731410787331, 19.58002647916805]}, {"species": [{"element": "In", "occu": 1}], "abc": [0.32413732, 0.82591576, 0.52433286], "properties": {"magmom": 0.0}, "label": "In", "xyz": [-1.9018693801392588, 10.118915794470961, 16.40785619390162]}, {"species": [{"element": "In", "occu": 1}], "abc": [0.0, 0.5, 0.5], "properties": {"magmom": -0.0}, "label": "In", "xyz": [-1.895128635, 5.65962287, 15.66055192]}, {"species": [{"element": "In", "occu": 1}], "abc": [0.81645864, 0.18354136000000001, 0.25], "properties": {"magmom": -0.0}, "label": "In", "xyz": [2.3989193218286258, 7.844668517500001, 7.8125031275]}, {"species": [{"element": "In", "occu": 1}], "abc": [0.08498749, 0.63296062, 0.18472251], "properties": {"magmom": -0.0}, "label": "In", "xyz": [-2.076959139747155, 5.656319720040023, 5.773077011597422]}, {"species": [{"element": "Br", "occu": 1}], "abc": [0.31377505, 0.99669644, 0.23604744], "properties": {"magmom": 0.0}, "label": "Br", "xyz": [-2.5884477632860055, 9.855989721992351, 7.3678056345066745]}, {"species": [{"element": "Br", "occu": 1}], "abc": [0.51045224, 0.8637494, 0.6629686], "properties": {"magmom": -0.0}, "label": "Br", "xyz": [-1.3390871291603534, 12.25994723190644, 20.74805419567491]}, {"species": [{"element": "Br", "occu": 1}], "abc": [0.99669644, 0.31377505, 0.73604744], "properties": {"magmom": 0.0}, "label": "Br", "xyz": [2.5884477632860055, 12.17237453699235, 23.040206109506673]}, {"species": [{"element": "Br", "occu": 1}], "abc": [0.74077535, 0.68784358, 0.95041288], "properties": {"magmom": 0.0}, "label": "Br", "xyz": [0.20062502605646815, 13.955470272163598, 29.756648403983945]}, {"species": [{"element": "Br", "occu": 1}], "abc": [0.01963442, 0.013828730000000001, 0.84921084], "properties": {"magmom": 0.0}, "label": "Br", "xyz": [0.0220050587298663, 4.157948742059136, 26.617551764435802]}, {"species": [{"element": "Br", "occu": 1}], "abc": [0.1362506, 0.48954776, 0.8370314], "properties": {"magmom": -0.0}, "label": "Br", "xyz": [-1.3390871291603532, 8.062159433093562, 26.221753009325088]}, {"species": [{"element": "Br", "occu": 1}], "abc": [0.54739664, 0.60779866, 0.83477036], "properties": {"magmom": -0.0}, "label": "Br", "xyz": [-0.22893919542768604, 11.59148454766645, 26.138335983064263]}, {"species": [{"element": "Br", "occu": 1}], "abc": [0.00330356, 0.6862249500000001, 0.26395256], "properties": {"magmom": 0.0}, "label": "Br", "xyz": [-2.588447763286006, 5.833347313007649, 8.257200620493325]}, {"species": [{"element": "Br", "occu": 1}], "abc": [0.12387929, 0.19242313, 0.45025726], "properties": {"magmom": 0.0}, "label": "Br", "xyz": [-0.25979878787371685, 4.2008867346802, 14.10572873775239]}, {"species": [{"element": "Br", "occu": 1}], "abc": [0.62042761, 0.23613324, 0.950118199999999], "properties": {"magmom": -0.0}, "label": "Br", "xyz": [1.45657452971257, 10.129052402156557, 29.760967841288114]}, {"species": [{"element": "Br", "occu": 1}], "abc": [0.23613324, 0.62042761, 0.450118199999999], "properties": {"magmom": -0.0}, "label": "Br", "xyz": [-1.45657452971257, 7.812667587156556, 14.088567366288116]}, {"species": [{"element": "Br", "occu": 1}], "abc": [0.60779866, 0.54739664, 0.33477036], "properties": {"magmom": -0.0}, "label": "Br", "xyz": [0.22893919542768604, 9.275099732666451, 10.465935508064257]}, {"species": [{"element": "Br", "occu": 1}], "abc": [0.48954776, 0.1362506, 0.3370314], "properties": {"magmom": -0.0}, "label": "Br", "xyz": [1.3390871291603532, 5.745774618093562, 10.54935253432509]}, {"species": [{"element": "Br", "occu": 1}], "abc": [0.98617127, 0.9803655800000001, 0.65078916], "properties": {"magmom": 0.0}, "label": "Br", "xyz": [0.02200505872986591, 16.164157922940866, 20.352255440564196]}, {"species": [{"element": "Br", "occu": 1}], "abc": [0.013828730000000001, 0.01963442, 0.34921084], "properties": {"magmom": 0.0}, "label": "Br", "xyz": [-0.0220050587298663, 1.841563927059136, 10.945151289435803]}, {"species": [{"element": "Br", "occu": 1}], "abc": [0.80757687, 0.87612071, 0.04974274], "properties": {"magmom": 0.0}, "label": "Br", "xyz": [-0.2597987878737169, 11.4884503003198, 1.5192775172476094]}, {"species": [{"element": "Br", "occu": 1}], "abc": [0.8637494, 0.51045224, 0.1629686], "properties": {"magmom": -0.0}, "label": "Br", "xyz": [1.3390871291603534, 9.943562416906438, 5.07565372067491]}, {"species": [{"element": "Br", "occu": 1}], "abc": [0.76386676, 0.37957239, 0.5498818], "properties": {"magmom": -0.0}, "label": "Br", "xyz": [1.4565745297125698, 10.193054262843441, 17.208839363711853]}, {"species": [{"element": "Br", "occu": 1}], "abc": [0.87612071, 0.80757687, 0.54974274], "properties": {"magmom": 0.0}, "label": "Br", "xyz": [0.2597987878737169, 13.8048351153198, 17.19167799224761]}, {"species": [{"element": "Br", "occu": 1}], "abc": [0.45260336, 0.39220134, 0.16522964], "properties": {"magmom": -0.0}, "label": "Br", "xyz": [0.22893919542768537, 6.41423730233355, 5.159070746935741]}, {"species": [{"element": "Br", "occu": 1}], "abc": [0.68784358, 0.74077535, 0.45041288], "properties": {"magmom": 0.0}, "label": "Br", "xyz": [-0.20062502605646815, 11.639085457163597, 14.084247928983944]}, {"species": [{"element": "Br", "occu": 1}], "abc": [0.9803655800000001, 0.98617127, 0.15078916], "properties": {"magmom": 0.0}, "label": "Br", "xyz": [-0.02200505872986591, 13.847773107940865, 4.679854965564199]}, {"species": [{"element": "Br", "occu": 1}], "abc": [0.37957239, 0.76386676, 0.0498818], "properties": {"magmom": -0.0}, "label": "Br", "xyz": [-1.4565745297125698, 7.876669447843441, 1.5364388887118532]}, {"species": [{"element": "Br", "occu": 1}], "abc": [0.31215642, 0.25922465, 0.54958712], "properties": {"magmom": 0.0}, "label": "Br", "xyz": [0.20062502605646781, 6.366636392836403, 17.213158801016057]}, {"species": [{"element": "Br", "occu": 1}], "abc": [0.39220134, 0.45260336, 0.6652296400000001], "properties": {"magmom": -0.0}, "label": "Br", "xyz": [-0.22893919542768537, 8.730622117333551, 20.831471221935743]}, {"species": [{"element": "Br", "occu": 1}], "abc": [0.25922465, 0.31215642, 0.04958712], "properties": {"magmom": 0.0}, "label": "Br", "xyz": [-0.20062502605646781, 4.050251577836403, 1.5407583260160562]}, {"species": [{"element": "Br", "occu": 1}], "abc": [0.6862249500000001, 0.00330356, 0.76395256], "properties": {"magmom": 0.0}, "label": "Br", "xyz": [2.588447763286006, 8.14973212800765, 23.92960109549333]}, {"species": [{"element": "Br", "occu": 1}], "abc": [0.19242313, 0.12387929, 0.95025726], "properties": {"magmom": 0.0}, "label": "Br", "xyz": [0.25979878787371685, 6.517271549680201, 29.77812921275239]}]}, "task_ids": null, "uncorrected_energy_per_atom": null, "energy_per_atom": -3.149852538636361, "formation_energy_per_atom": -1.104823382424239, "energy_above_hull": 0.009646504488638, "is_stable": false, "equilibrium_reaction_energy_per_atom": null, "decomposes_to": null, "xas": null, "grain_boundaries": null, "band_gap": 2.3081, "cbm": null, "vbm": null, "efermi": 0.39843081, "is_gap_direct": null, "is_metal": null, "es_source_calc_id": null, "bandstructure": null, "dos": null, "dos_energy_up": null, "dos_energy_down": null, "is_magnetic": null, "ordering": null, "total_magnetization": 0.0, "total_magnetization_normalized_vol": null, "total_magnetization_normalized_formula_units": null, "num_magnetic_sites": null, "num_unique_magnetic_sites": null, "types_of_magnetic_species": null, "bulk_modulus": null, "shear_modulus": null, "universal_anisotropy": null, "homogeneous_poisson": null, "e_total": null, "e_ionic": null, "e_electronic": null, "n": null, "e_ij_max": null, "weighted_surface_energy_EV_PER_ANG2": null, "weighted_surface_energy": null, "weighted_work_function": null, "surface_anisotropy": null, "shape_factor": null, "has_reconstructed": null, "possible_species": null, "has_props": null, "theoretical": null, "database_IDs": null, "fields_not_requested": ["builder_meta", "nsites", "elements", "nelements", "composition", "composition_reduced", "chemsys", "symmetry", "property_name", "deprecated", "deprecation_reasons", "last_updated", "origins", "warnings", "task_ids", "uncorrected_energy_per_atom", "equilibrium_reaction_energy_per_atom", "decomposes_to", "xas", "grain_boundaries", "cbm", "vbm", "is_gap_direct", "is_metal", "es_source_calc_id", "bandstructure", "dos", "dos_energy_up", "dos_energy_down", "is_magnetic", "ordering", "total_magnetization_normalized_vol", "total_magnetization_normalized_formula_units", "num_magnetic_sites", "num_unique_magnetic_sites", "types_of_magnetic_species", "bulk_modulus", "shear_modulus", "universal_anisotropy", "homogeneous_poisson", "e_total", "e_ionic", "e_electronic", "n", "e_ij_max", "weighted_surface_energy_EV_PER_ANG2", "weighted_surface_energy", "weighted_work_function", "surface_anisotropy", "shape_factor", "has_reconstructed", "possible_species", "has_props", "theoretical", "database_IDs"]}