{
  "builder_meta": null,
  "nsites": null,
  "elements": null,
  "nelements": null,
  "composition": null,
  "composition_reduced": null,
  "formula_pretty": "In4Bi",
  "formula_anonymous": "AB4",
  "chemsys": null,
  "volume": 144.37645083067392,
  "density": 7.685874047774097,
  "density_atomic": 28.875290166134782,
  "symmetry": null,
  "property_name": null,
  "material_id": "mp-1223990",
  "deprecated": null,
  "deprecation_reasons": null,
  "last_updated": null,
  "origins": null,
  "warnings": null,
  "structure": {
    "@module": "pymatgen.core.structure",
    "@class": "Structure",
    "charge": 0,
    "lattice": {
      "matrix": [
        [1.777712, 2.72652, 0.0],
        [-1.777712, 2.72652, 0.0],
        [0.0, 0.079995, 14.893483]
      ],
      "pbc": [true, true, true],
      "a": 3.2548688553218237,
      "b": 3.2548688553218237,
      "c": 14.893697830670325,
      "alpha": 89.74221384139092,
      "beta": 89.74221384139092,
      "gamma": 66.20931895456454,
      "volume": 144.37645083067392
    },
    "properties": {},
    "sites": [
      {
        "species": [{ "element": "In", "occu": 1 }],
        "abc": [0.401897, 0.401897, 0.796358],
        "properties": { "magmom": 0.0 },
        "label": "In",
        "xyz": [0.0, 2.2552650750899996, 11.860544334914]
      },
      {
        "species": [{ "element": "In", "occu": 1 }],
        "abc": [0.799439, 0.799439, 0.599254],
        "properties": { "magmom": 0.0 },
        "label": "In",
        "xyz": [0.0, 4.40731016829, 8.924979261682]
      },
      {
        "species": [{ "element": "In", "occu": 1 }],
        "abc": [0.200561, 0.200561, 0.400746],
        "properties": { "magmom": 0.0 },
        "label": "In",
        "xyz": [0.0, 1.12572483171, 5.968503738318]
      },
      {
        "species": [{ "element": "In", "occu": 1 }],
        "abc": [0.598102999999999, 0.598102999999999, 0.203642],
        "properties": { "magmom": 0.0 },
        "label": "In",
        "xyz": [0.0, 3.2777699249099945, 3.0329386650859997]
      },
      {
        "species": [{ "element": "Bi", "occu": 1 }],
        "abc": [0.0, 0.0, 0.0],
        "properties": { "magmom": -0.0 },
        "label": "Bi",
        "xyz": [0.0, 0.0, 0.0]
      }
    ]
  },
  "task_ids": null,
  "uncorrected_energy_per_atom": null,
  "energy_per_atom": -29.722959565000004,
  "formation_energy_per_atom": 0.040367487999998,
  "energy_above_hull": 0.069002442999995,
  "is_stable": false,
  "equilibrium_reaction_energy_per_atom": null,
  "decomposes_to": null,
  "xas": null,
  "grain_boundaries": null,
  "band_gap": 0.0,
  "cbm": null,
  "vbm": null,
  "efermi": 6.8390857800000004,
  "is_gap_direct": null,
  "is_metal": null,
  "es_source_calc_id": null,
  "bandstructure": null,
  "dos": null,
  "dos_energy_up": null,
  "dos_energy_down": null,
  "is_magnetic": null,
  "ordering": null,
  "total_magnetization": 0.001303,
  "total_magnetization_normalized_vol": null,
  "total_magnetization_normalized_formula_units": null,
  "num_magnetic_sites": null,
  "num_unique_magnetic_sites": null,
  "types_of_magnetic_species": null,
  "bulk_modulus": null,
  "shear_modulus": null,
  "universal_anisotropy": null,
  "homogeneous_poisson": null,
  "e_total": null,
  "e_ionic": null,
  "e_electronic": null,
  "n": null,
  "e_ij_max": null,
  "weighted_surface_energy_EV_PER_ANG2": null,
  "weighted_surface_energy": null,
  "weighted_work_function": null,
  "surface_anisotropy": null,
  "shape_factor": null,
  "has_reconstructed": null,
  "possible_species": null,
  "has_props": null,
  "theoretical": null,
  "database_IDs": null,
  "fields_not_requested": [
    "builder_meta",
    "nsites",
    "elements",
    "nelements",
    "composition",
    "composition_reduced",
    "chemsys",
    "symmetry",
    "property_name",
    "deprecated",
    "deprecation_reasons",
    "last_updated",
    "origins",
    "warnings",
    "task_ids",
    "uncorrected_energy_per_atom",
    "equilibrium_reaction_energy_per_atom",
    "decomposes_to",
    "xas",
    "grain_boundaries",
    "cbm",
    "vbm",
    "is_gap_direct",
    "is_metal",
    "es_source_calc_id",
    "bandstructure",
    "dos",
    "dos_energy_up",
    "dos_energy_down",
    "is_magnetic",
    "ordering",
    "total_magnetization_normalized_vol",
    "total_magnetization_normalized_formula_units",
    "num_magnetic_sites",
    "num_unique_magnetic_sites",
    "types_of_magnetic_species",
    "bulk_modulus",
    "shear_modulus",
    "universal_anisotropy",
    "homogeneous_poisson",
    "e_total",
    "e_ionic",
    "e_electronic",
    "n",
    "e_ij_max",
    "weighted_surface_energy_EV_PER_ANG2",
    "weighted_surface_energy",
    "weighted_work_function",
    "surface_anisotropy",
    "shape_factor",
    "has_reconstructed",
    "possible_species",
    "has_props",
    "theoretical",
    "database_IDs"
  ]
}
