{
  "builder_meta": null,
  "nsites": null,
  "elements": null,
  "nelements": null,
  "composition": null,
  "composition_reduced": null,
  "formula_pretty": "In4Pb",
  "formula_anonymous": "AB4",
  "chemsys": null,
  "volume": 137.35436674101945,
  "density": 8.057281461474862,
  "density_atomic": 27.470873348203888,
  "symmetry": null,
  "property_name": null,
  "material_id": "mp-1223890",
  "deprecated": null,
  "deprecation_reasons": null,
  "last_updated": null,
  "origins": null,
  "warnings": null,
  "structure": {
    "@module": "pymatgen.core.structure",
    "@class": "Structure",
    "charge": 0,
    "lattice": {
      "matrix": [
        [1.75138299, 2.8681651500000003, -0.04183215],
        [-1.75138299, 2.8681651500000003, -0.04183215],
        [0.0, 0.65140676, 13.66234636]
      ],
      "pbc": [true, true, true],
      "a": 3.3608724513300836,
      "b": 3.3608724513300836,
      "c": 13.67786674988388,
      "alpha": 88.38345240172082,
      "beta": 88.38345240172082,
      "gamma": 62.81342512690611,
      "volume": 137.35436674101948
    },
    "properties": {},
    "sites": [
      {
        "species": [{ "element": "In", "occu": 1 }],
        "abc": [0.43355929, 0.43355929, 0.79076243],
        "properties": { "magmom": -0.0 },
        "label": "In",
        "xyz": [0.0, 3.0021472845295136, 10.767396772628908]
      },
      {
        "species": [{ "element": "In", "occu": 1 }],
        "abc": [0.7889090400000001, 0.7889090400000001, 0.59675491],
        "properties": { "magmom": -0.0 },
        "label": "In",
        "xyz": [0.0, 4.914173012533104, 8.087068749855357]
      },
      {
        "species": [{ "element": "In", "occu": 1 }],
        "abc": [0.21109096, 0.21109096, 0.40324509000000003],
        "properties": { "magmom": -0.0 },
        "label": "In",
        "xyz": [0.0, 1.4735640474668965, 5.491613310144645]
      },
      {
        "species": [{ "element": "In", "occu": 1 }],
        "abc": [0.56644071, 0.56644071, 0.20923757],
        "properties": { "magmom": -0.0 },
        "label": "In",
        "xyz": [0.0, 3.3855897754704865, 2.811285287371093]
      },
      {
        "species": [{ "element": "Pb", "occu": 1 }],
        "abc": [0.0, 0.0, -0.0],
        "properties": { "magmom": -0.0 },
        "label": "Pb",
        "xyz": [0.0, 0.0, 0.0]
      }
    ]
  },
  "task_ids": null,
  "uncorrected_energy_per_atom": null,
  "energy_per_atom": -29.311391628000003,
  "formation_energy_per_atom": 0.008507498,
  "energy_above_hull": 0.008507498,
  "is_stable": false,
  "equilibrium_reaction_energy_per_atom": null,
  "decomposes_to": null,
  "xas": null,
  "grain_boundaries": null,
  "band_gap": 0.0,
  "cbm": null,
  "vbm": null,
  "efermi": 6.79168075,
  "is_gap_direct": null,
  "is_metal": null,
  "es_source_calc_id": null,
  "bandstructure": null,
  "dos": null,
  "dos_energy_up": null,
  "dos_energy_down": null,
  "is_magnetic": null,
  "ordering": null,
  "total_magnetization": 0.0,
  "total_magnetization_normalized_vol": null,
  "total_magnetization_normalized_formula_units": null,
  "num_magnetic_sites": null,
  "num_unique_magnetic_sites": null,
  "types_of_magnetic_species": null,
  "bulk_modulus": null,
  "shear_modulus": null,
  "universal_anisotropy": null,
  "homogeneous_poisson": null,
  "e_total": null,
  "e_ionic": null,
  "e_electronic": null,
  "n": null,
  "e_ij_max": null,
  "weighted_surface_energy_EV_PER_ANG2": null,
  "weighted_surface_energy": null,
  "weighted_work_function": null,
  "surface_anisotropy": null,
  "shape_factor": null,
  "has_reconstructed": null,
  "possible_species": null,
  "has_props": null,
  "theoretical": null,
  "database_IDs": null,
  "fields_not_requested": [
    "builder_meta",
    "nsites",
    "elements",
    "nelements",
    "composition",
    "composition_reduced",
    "chemsys",
    "symmetry",
    "property_name",
    "deprecated",
    "deprecation_reasons",
    "last_updated",
    "origins",
    "warnings",
    "task_ids",
    "uncorrected_energy_per_atom",
    "equilibrium_reaction_energy_per_atom",
    "decomposes_to",
    "xas",
    "grain_boundaries",
    "cbm",
    "vbm",
    "is_gap_direct",
    "is_metal",
    "es_source_calc_id",
    "bandstructure",
    "dos",
    "dos_energy_up",
    "dos_energy_down",
    "is_magnetic",
    "ordering",
    "total_magnetization_normalized_vol",
    "total_magnetization_normalized_formula_units",
    "num_magnetic_sites",
    "num_unique_magnetic_sites",
    "types_of_magnetic_species",
    "bulk_modulus",
    "shear_modulus",
    "universal_anisotropy",
    "homogeneous_poisson",
    "e_total",
    "e_ionic",
    "e_electronic",
    "n",
    "e_ij_max",
    "weighted_surface_energy_EV_PER_ANG2",
    "weighted_surface_energy",
    "weighted_work_function",
    "surface_anisotropy",
    "shape_factor",
    "has_reconstructed",
    "possible_species",
    "has_props",
    "theoretical",
    "database_IDs"
  ]
}
