{
  "builder_meta": null,
  "nsites": null,
  "elements": null,
  "nelements": null,
  "composition": null,
  "composition_reduced": null,
  "formula_pretty": "In4Se3",
  "formula_anonymous": "A3B4",
  "chemsys": null,
  "volume": 800.3277504722039,
  "density": 5.777570959445928,
  "density_atomic": 28.583133945435854,
  "symmetry": null,
  "property_name": null,
  "material_id": "mp-19932",
  "deprecated": null,
  "deprecation_reasons": null,
  "last_updated": null,
  "origins": null,
  "warnings": null,
  "structure": {
    "@module": "pymatgen.core.structure",
    "@class": "Structure",
    "charge": 0,
    "lattice": {
      "matrix": [
        [4.11451074, 0.0, 0.0],
        [0.0, 12.48540012, -0.0],
        [0.0, -0.0, 15.57927383]
      ],
      "pbc": [true, true, true],
      "a": 4.11451074,
      "b": 12.48540012,
      "c": 15.57927383,
      "alpha": 90.0,
      "beta": 90.0,
      "gamma": 90.0,
      "volume": 800.3277504722039
    },
    "properties": {},
    "sites": [
      {
        "species": [{ "element": "In", "occu": 1 }],
        "abc": [-0.0, 0.6069279200000001, 0.57533621],
        "properties": { "magmom": -0.0 },
        "label": "In",
        "xyz": [0.0, 7.577737925199351, 8.963320359904385]
      },
      {
        "species": [{ "element": "In", "occu": 1 }],
        "abc": [0.0, 0.39307208, 0.42466379],
        "properties": { "magmom": -0.0 },
        "label": "In",
        "xyz": [0.0, 4.90766219480065, 6.615953470095615]
      },
      {
        "species": [{ "element": "In", "occu": 1 }],
        "abc": [0.5, 0.10692792, 0.92466379],
        "properties": { "magmom": -0.0 },
        "label": "In",
        "xyz": [2.05725537, 1.3350378651993502, 14.405590385095616]
      },
      {
        "species": [{ "element": "In", "occu": 1 }],
        "abc": [0.5, 0.89307208, 0.07533621],
        "properties": { "magmom": -0.0 },
        "label": "In",
        "xyz": [2.05725537, 11.15036225480065, 1.1736834449043843]
      },
      {
        "species": [{ "element": "In", "occu": 1 }],
        "abc": [0.5, 0.14388369, 0.53606891],
        "properties": { "magmom": 0.0 },
        "label": "In",
        "xyz": [2.05725537, 1.796445440392043, 8.351564340639625]
      },
      {
        "species": [{ "element": "In", "occu": 1 }],
        "abc": [0.5, 0.85611631, 0.46393109],
        "properties": { "magmom": 0.0 },
        "label": "In",
        "xyz": [2.05725537, 10.688954679607956, 7.227709489360374]
      },
      {
        "species": [{ "element": "In", "occu": 1 }],
        "abc": [-0.0, 0.64388369, 0.96393109],
        "properties": { "magmom": 0.0 },
        "label": "In",
        "xyz": [0.0, 8.039145500392042, 15.017346404360374]
      },
      {
        "species": [{ "element": "In", "occu": 1 }],
        "abc": [0.0, 0.35611631, 0.03606891],
        "properties": { "magmom": 0.0 },
        "label": "In",
        "xyz": [0.0, 4.446254619607957, 0.5619274256396254]
      },
      {
        "species": [{ "element": "In", "occu": 1 }],
        "abc": [0.5, 0.02629014, 0.68795186],
        "properties": { "magmom": 0.0 },
        "label": "In",
        "xyz": [2.05725537, 0.32824291711081677, 10.717790408797823]
      },
      {
        "species": [{ "element": "In", "occu": 1 }],
        "abc": [0.5, 0.97370986, 0.31204814000000003],
        "properties": { "magmom": 0.0 },
        "label": "In",
        "xyz": [2.05725537, 12.157157202889183, 4.861483421202177]
      },
      {
        "species": [{ "element": "In", "occu": 1 }],
        "abc": [0.0, 0.52629014, 0.81204814],
        "properties": { "magmom": 0.0 },
        "label": "In",
        "xyz": [0.0, 6.570942977110816, 12.651120336202176]
      },
      {
        "species": [{ "element": "In", "occu": 1 }],
        "abc": [-0.0, 0.47370986, 0.18795186],
        "properties": { "magmom": 0.0 },
        "label": "In",
        "xyz": [0.0, 5.914457142889183, 2.928153493797824]
      },
      {
        "species": [{ "element": "In", "occu": 1 }],
        "abc": [0.5, 0.83969178, 0.78924978],
        "properties": { "magmom": -0.0 },
        "label": "In",
        "xyz": [2.05725537, 10.483887850775012, 12.295938442887257]
      },
      {
        "species": [{ "element": "In", "occu": 1 }],
        "abc": [0.5, 0.16030822, 0.21075022000000002],
        "properties": { "magmom": -0.0 },
        "label": "In",
        "xyz": [2.05725537, 2.0015122692249863, 3.283335387112743]
      },
      {
        "species": [{ "element": "In", "occu": 1 }],
        "abc": [-0.0, 0.33969178, 0.71075022],
        "properties": { "magmom": -0.0 },
        "label": "In",
        "xyz": [0.0, 4.2411877907750135, 11.072972302112742]
      },
      {
        "species": [{ "element": "In", "occu": 1 }],
        "abc": [-0.0, 0.66030822, 0.28924978],
        "properties": { "magmom": -0.0 },
        "label": "In",
        "xyz": [0.0, 8.244212329224986, 4.506301527887258]
      },
      {
        "species": [{ "element": "Se", "occu": 1 }],
        "abc": [0.5, 0.65701676, 0.0707138],
        "properties": { "magmom": -0.0 },
        "label": "Se",
        "xyz": [2.05725537, 8.20311713414601, 1.1016696537598538]
      },
      {
        "species": [{ "element": "Se", "occu": 1 }],
        "abc": [0.5, 0.34298324, 0.9292862],
        "properties": { "magmom": -0.0 },
        "label": "Se",
        "xyz": [2.05725537, 4.282282985853989, 14.477604176240146]
      },
      {
        "species": [{ "element": "Se", "occu": 1 }],
        "abc": [0.0, 0.15701676, 0.4292862],
        "properties": { "magmom": -0.0 },
        "label": "Se",
        "xyz": [0.0, 1.9604170741460112, 6.687967261240146]
      },
      {
        "species": [{ "element": "Se", "occu": 1 }],
        "abc": [0.0, 0.84298324, 0.570713799999999],
        "properties": { "magmom": -0.0 },
        "label": "Se",
        "xyz": [0.0, 10.524983045853988, 8.89130656875984]
      },
      {
        "species": [{ "element": "Se", "occu": 1 }],
        "abc": [0.5, 0.6400908, 0.72949727],
        "properties": { "magmom": 0.0 },
        "label": "Se",
        "xyz": [2.05725537, 7.991789751130895, 11.365037727567444]
      },
      {
        "species": [{ "element": "Se", "occu": 1 }],
        "abc": [0.5, 0.3599092, 0.27050273],
        "properties": { "magmom": 0.0 },
        "label": "Se",
        "xyz": [2.05725537, 4.493610368869104, 4.214236102432556]
      },
      {
        "species": [{ "element": "Se", "occu": 1 }],
        "abc": [0.0, 0.1400908, 0.77050273],
        "properties": { "magmom": 0.0 },
        "label": "Se",
        "xyz": [0.0, 1.7490896911308957, 12.003873017432555]
      },
      {
        "species": [{ "element": "Se", "occu": 1 }],
        "abc": [0.0, 0.859909199999999, 0.22949727],
        "properties": { "magmom": 0.0 },
        "label": "Se",
        "xyz": [0.0, 10.736310428869091, 3.575400812567444]
      },
      {
        "species": [{ "element": "Se", "occu": 1 }],
        "abc": [0.5, 0.34721112, 0.59877411],
        "properties": { "magmom": -0.0 },
        "label": "Se",
        "xyz": [2.05725537, 4.335069759313334, 9.328465822004542]
      },
      {
        "species": [{ "element": "Se", "occu": 1 }],
        "abc": [0.5, 0.65278888, 0.40122589000000003],
        "properties": { "magmom": -0.0 },
        "label": "Se",
        "xyz": [2.05725537, 8.150330360686665, 6.2508080079954595]
      },
      {
        "species": [{ "element": "Se", "occu": 1 }],
        "abc": [0.0, 0.84721112, 0.90122589],
        "properties": { "magmom": -0.0 },
        "label": "Se",
        "xyz": [0.0, 10.577769819313334, 14.040444922995459]
      },
      {
        "species": [{ "element": "Se", "occu": 1 }],
        "abc": [0.0, 0.15278888000000002, 0.09877311],
        "properties": { "magmom": -0.0 },
        "label": "Se",
        "xyz": [0.0, 1.9076303006866657, 1.5388133277307112]
      }
    ]
  },
  "task_ids": null,
  "uncorrected_energy_per_atom": null,
  "energy_per_atom": -19.596574009285714,
  "formation_energy_per_atom": -0.5609965503124991,
  "energy_above_hull": 0.019054745714285,
  "is_stable": false,
  "equilibrium_reaction_energy_per_atom": null,
  "decomposes_to": null,
  "xas": null,
  "grain_boundaries": null,
  "band_gap": 0.1504,
  "cbm": null,
  "vbm": null,
  "efermi": 4.3828319,
  "is_gap_direct": null,
  "is_metal": null,
  "es_source_calc_id": null,
  "bandstructure": null,
  "dos": null,
  "dos_energy_up": null,
  "dos_energy_down": null,
  "is_magnetic": null,
  "ordering": null,
  "total_magnetization": 0.0,
  "total_magnetization_normalized_vol": null,
  "total_magnetization_normalized_formula_units": null,
  "num_magnetic_sites": null,
  "num_unique_magnetic_sites": null,
  "types_of_magnetic_species": null,
  "bulk_modulus": null,
  "shear_modulus": null,
  "universal_anisotropy": null,
  "homogeneous_poisson": null,
  "e_total": null,
  "e_ionic": null,
  "e_electronic": null,
  "n": null,
  "e_ij_max": null,
  "weighted_surface_energy_EV_PER_ANG2": null,
  "weighted_surface_energy": null,
  "weighted_work_function": null,
  "surface_anisotropy": null,
  "shape_factor": null,
  "has_reconstructed": null,
  "possible_species": null,
  "has_props": null,
  "theoretical": null,
  "database_IDs": null,
  "fields_not_requested": [
    "builder_meta",
    "nsites",
    "elements",
    "nelements",
    "composition",
    "composition_reduced",
    "chemsys",
    "symmetry",
    "property_name",
    "deprecated",
    "deprecation_reasons",
    "last_updated",
    "origins",
    "warnings",
    "task_ids",
    "uncorrected_energy_per_atom",
    "equilibrium_reaction_energy_per_atom",
    "decomposes_to",
    "xas",
    "grain_boundaries",
    "cbm",
    "vbm",
    "is_gap_direct",
    "is_metal",
    "es_source_calc_id",
    "bandstructure",
    "dos",
    "dos_energy_up",
    "dos_energy_down",
    "is_magnetic",
    "ordering",
    "total_magnetization_normalized_vol",
    "total_magnetization_normalized_formula_units",
    "num_magnetic_sites",
    "num_unique_magnetic_sites",
    "types_of_magnetic_species",
    "bulk_modulus",
    "shear_modulus",
    "universal_anisotropy",
    "homogeneous_poisson",
    "e_total",
    "e_ionic",
    "e_electronic",
    "n",
    "e_ij_max",
    "weighted_surface_energy_EV_PER_ANG2",
    "weighted_surface_energy",
    "weighted_work_function",
    "surface_anisotropy",
    "shape_factor",
    "has_reconstructed",
    "possible_species",
    "has_props",
    "theoretical",
    "database_IDs"
  ]
}
