{
  "builder_meta": null,
  "nsites": null,
  "elements": null,
  "nelements": null,
  "composition": null,
  "composition_reduced": null,
  "formula_pretty": "In4Te3",
  "formula_anonymous": "A3B4",
  "chemsys": null,
  "volume": 928.9629253869975,
  "density": 6.020879476142618,
  "density_atomic": 33.17724733524991,
  "symmetry": null,
  "property_name": null,
  "material_id": "mp-617281",
  "deprecated": null,
  "deprecation_reasons": null,
  "last_updated": null,
  "origins": null,
  "warnings": null,
  "structure": {
    "@module": "pymatgen.core.structure",
    "@class": "Structure",
    "charge": 0,
    "lattice": {
      "matrix": [
        [4.47252729, 0.0, 0.0],
        [0.0, 12.97434307, -0.0],
        [0.0, -0.0, 16.0088452]
      ],
      "pbc": [true, true, true],
      "a": 4.47252729,
      "b": 12.97434307,
      "c": 16.0088452,
      "alpha": 90.0,
      "beta": 90.0,
      "gamma": 90.0,
      "volume": 928.9629253869975
    },
    "properties": {},
    "sites": [
      {
        "species": [{ "element": "In", "occu": 1 }],
        "abc": [-0.0, 0.65408395, 0.2850281],
        "properties": { "magmom": 0.0 },
        "label": "In",
        "xyz": [0.0, 8.486309563880726, 4.56297073055012]
      },
      {
        "species": [{ "element": "In", "occu": 1 }],
        "abc": [-0.0, 0.34591605000000003, 0.7149719],
        "properties": { "magmom": 0.0 },
        "label": "In",
        "xyz": [0.0, 4.488033506119274, 11.44587446944988]
      },
      {
        "species": [{ "element": "In", "occu": 1 }],
        "abc": [0.0, 0.47308402, 0.18641266],
        "properties": { "magmom": 0.0 },
        "label": "In",
        "xyz": [0.0, 6.137954376414741, 2.984251417260232]
      },
      {
        "species": [{ "element": "In", "occu": 1 }],
        "abc": [0.0, 0.60808755, 0.57216913],
        "properties": { "magmom": -0.0 },
        "label": "In",
        "xyz": [0.0, 7.889536490295779, 9.159767030388677]
      },
      {
        "species": [{ "element": "In", "occu": 1 }],
        "abc": [0.5, 0.15408395, 0.2149719],
        "properties": { "magmom": 0.0 },
        "label": "In",
        "xyz": [2.236263645, 1.9991380288807263, 3.44145186944988]
      },
      {
        "species": [{ "element": "In", "occu": 1 }],
        "abc": [0.5, 0.89191245, 0.07216913],
        "properties": { "magmom": -0.0 },
        "label": "In",
        "xyz": [2.236263645, 11.57197811470422, 1.155344430388676]
      },
      {
        "species": [{ "element": "In", "occu": 1 }],
        "abc": [-0.0, 0.35436309, 0.04016753],
        "properties": { "magmom": 0.0 },
        "label": "In",
        "xyz": [0.0, 4.597628301005286, 0.643035769836356]
      },
      {
        "species": [{ "element": "In", "occu": 1 }],
        "abc": [0.5, 0.84591605, 0.7850281],
        "properties": { "magmom": 0.0 },
        "label": "In",
        "xyz": [2.236263645, 10.975205041119274, 12.56739333055012]
      },
      {
        "species": [{ "element": "In", "occu": 1 }],
        "abc": [0.5, 0.14563691, 0.5401675300000001],
        "properties": { "magmom": 0.0 },
        "label": "In",
        "xyz": [2.236263645, 1.8895432339947138, 8.647458369836357]
      },
      {
        "species": [{ "element": "In", "occu": 1 }],
        "abc": [0.0, 0.5269159800000001, 0.81358734],
        "properties": { "magmom": 0.0 },
        "label": "In",
        "xyz": [0.0, 6.836388693585259, 13.024593782739768]
      },
      {
        "species": [{ "element": "In", "occu": 1 }],
        "abc": [0.5, 0.85436309, 0.45983247],
        "properties": { "magmom": 0.0 },
        "label": "In",
        "xyz": [2.236263645, 11.084799836005287, 7.361386830163644]
      },
      {
        "species": [{ "element": "In", "occu": 1 }],
        "abc": [0.0, 0.64563691, 0.95983247],
        "properties": { "magmom": 0.0 },
        "label": "In",
        "xyz": [0.0, 8.376714768994713, 15.365809430163644]
      },
      {
        "species": [{ "element": "In", "occu": 1 }],
        "abc": [0.5, 0.10808755, 0.92783087],
        "properties": { "magmom": -0.0 },
        "label": "In",
        "xyz": [2.236263645, 1.4023649552957784, 14.853500769611323]
      },
      {
        "species": [{ "element": "In", "occu": 1 }],
        "abc": [0.5, 0.97308402, 0.31358734],
        "properties": { "magmom": 0.0 },
        "label": "In",
        "xyz": [2.236263645, 12.625125911414742, 5.020171182739768]
      },
      {
        "species": [{ "element": "In", "occu": 1 }],
        "abc": [0.5, 0.02691598, 0.68641266],
        "properties": { "magmom": 0.0 },
        "label": "In",
        "xyz": [2.236263645, 0.3492171585852586, 10.988674017260232]
      },
      {
        "species": [{ "element": "In", "occu": 1 }],
        "abc": [-0.0, 0.39191245, 0.42783087000000003],
        "properties": { "magmom": -0.0 },
        "label": "In",
        "xyz": [0.0, 5.084806579704222, 6.8490781696113245]
      },
      {
        "species": [{ "element": "Te", "occu": 1 }],
        "abc": [0.5, 0.35208128, 0.92873266],
        "properties": { "magmom": 0.0 },
        "label": "Te",
        "xyz": [2.236263645, 4.568023315244729, 14.86793738612423]
      },
      {
        "species": [{ "element": "Te", "occu": 1 }],
        "abc": [0.0, 0.8608612600000001, 0.22457512000000002],
        "properties": { "magmom": 0.0 },
        "label": "Te",
        "xyz": [0.0, 11.169109322912469, 3.5951883318514244]
      },
      {
        "species": [{ "element": "Te", "occu": 1 }],
        "abc": [-0.0, 0.85208128, 0.57126734],
        "properties": { "magmom": 0.0 },
        "label": "Te",
        "xyz": [0.0, 11.05519485024473, 9.145330413875769]
      },
      {
        "species": [{ "element": "Te", "occu": 1 }],
        "abc": [0.0, 0.14198965, 0.09857517],
        "properties": { "magmom": -0.0 },
        "label": "Te",
        "xyz": [0.0, 1.8422224314892255, 1.578074637093684]
      },
      {
        "species": [{ "element": "Te", "occu": 1 }],
        "abc": [0.0, 0.13913874, 0.77542488],
        "properties": { "magmom": 0.0 },
        "label": "Te",
        "xyz": [0.0, 1.805233747087532, 12.413656868148575]
      },
      {
        "species": [{ "element": "Te", "occu": 1 }],
        "abc": [0.5, 0.6479187200000001, 0.07126734],
        "properties": { "magmom": 0.0 },
        "label": "Te",
        "xyz": [2.236263645, 8.406319754755271, 1.140907813875768]
      },
      {
        "species": [{ "element": "Te", "occu": 1 }],
        "abc": [0.5, 0.36086126, 0.27542488],
        "properties": { "magmom": 0.0 },
        "label": "Te",
        "xyz": [2.236263645, 4.681937787912468, 4.409234268148576]
      },
      {
        "species": [{ "element": "Te", "occu": 1 }],
        "abc": [0.5, 0.64198965, 0.40142483],
        "properties": { "magmom": -0.0 },
        "label": "Te",
        "xyz": [2.236263645, 8.329393966489224, 6.426347962906316]
      },
      {
        "species": [{ "element": "Te", "occu": 1 }],
        "abc": [0.0, 0.85801035, 0.90142383],
        "properties": { "magmom": -0.0 },
        "label": "Te",
        "xyz": [0.0, 11.132120638510775, 14.430754554061116]
      },
      {
        "species": [{ "element": "Te", "occu": 1 }],
        "abc": [0.0, 0.14791872, 0.42873266],
        "properties": { "magmom": 0.0 },
        "label": "Te",
        "xyz": [0.0, 1.9191482197552705, 6.863514786124232]
      },
      {
        "species": [{ "element": "Te", "occu": 1 }],
        "abc": [0.5, 0.35801035000000003, 0.59857617],
        "properties": { "magmom": -0.0 },
        "label": "Te",
        "xyz": [2.236263645, 4.644949103510775, 9.582513245938884]
      },
      {
        "species": [{ "element": "Te", "occu": 1 }],
        "abc": [0.5, 0.63913874, 0.72457512],
        "properties": { "magmom": 0.0 },
        "label": "Te",
        "xyz": [2.236263645, 8.292405282087532, 11.599610931851425]
      }
    ]
  },
  "task_ids": null,
  "uncorrected_energy_per_atom": null,
  "energy_per_atom": -24.189687638214284,
  "formation_energy_per_atom": -0.39453985964285304,
  "energy_above_hull": 0.0,
  "is_stable": true,
  "equilibrium_reaction_energy_per_atom": null,
  "decomposes_to": null,
  "xas": null,
  "grain_boundaries": null,
  "band_gap": 0.12239999999999901,
  "cbm": null,
  "vbm": null,
  "efermi": 5.24536256,
  "is_gap_direct": null,
  "is_metal": null,
  "es_source_calc_id": null,
  "bandstructure": null,
  "dos": null,
  "dos_energy_up": null,
  "dos_energy_down": null,
  "is_magnetic": null,
  "ordering": null,
  "total_magnetization": 0.0,
  "total_magnetization_normalized_vol": null,
  "total_magnetization_normalized_formula_units": null,
  "num_magnetic_sites": null,
  "num_unique_magnetic_sites": null,
  "types_of_magnetic_species": null,
  "bulk_modulus": null,
  "shear_modulus": null,
  "universal_anisotropy": null,
  "homogeneous_poisson": null,
  "e_total": null,
  "e_ionic": null,
  "e_electronic": null,
  "n": null,
  "e_ij_max": null,
  "weighted_surface_energy_EV_PER_ANG2": null,
  "weighted_surface_energy": null,
  "weighted_work_function": null,
  "surface_anisotropy": null,
  "shape_factor": null,
  "has_reconstructed": null,
  "possible_species": null,
  "has_props": null,
  "theoretical": null,
  "database_IDs": null,
  "fields_not_requested": [
    "builder_meta",
    "nsites",
    "elements",
    "nelements",
    "composition",
    "composition_reduced",
    "chemsys",
    "symmetry",
    "property_name",
    "deprecated",
    "deprecation_reasons",
    "last_updated",
    "origins",
    "warnings",
    "task_ids",
    "uncorrected_energy_per_atom",
    "equilibrium_reaction_energy_per_atom",
    "decomposes_to",
    "xas",
    "grain_boundaries",
    "cbm",
    "vbm",
    "is_gap_direct",
    "is_metal",
    "es_source_calc_id",
    "bandstructure",
    "dos",
    "dos_energy_up",
    "dos_energy_down",
    "is_magnetic",
    "ordering",
    "total_magnetization_normalized_vol",
    "total_magnetization_normalized_formula_units",
    "num_magnetic_sites",
    "num_unique_magnetic_sites",
    "types_of_magnetic_species",
    "bulk_modulus",
    "shear_modulus",
    "universal_anisotropy",
    "homogeneous_poisson",
    "e_total",
    "e_ionic",
    "e_electronic",
    "n",
    "e_ij_max",
    "weighted_surface_energy_EV_PER_ANG2",
    "weighted_surface_energy",
    "weighted_work_function",
    "surface_anisotropy",
    "shape_factor",
    "has_reconstructed",
    "possible_species",
    "has_props",
    "theoretical",
    "database_IDs"
  ]
}
