{
  "builder_meta": null,
  "nsites": null,
  "elements": null,
  "nelements": null,
  "composition": null,
  "composition_reduced": null,
  "formula_pretty": "IN5",
  "formula_anonymous": "AB5",
  "chemsys": null,
  "volume": 134.46997390571693,
  "density": 4.86388423204707,
  "density_atomic": 11.205831158809744,
  "symmetry": null,
  "property_name": null,
  "material_id": "mp-1103129",
  "deprecated": null,
  "deprecation_reasons": null,
  "last_updated": null,
  "origins": null,
  "warnings": null,
  "structure": {
    "@module": "pymatgen.core.structure",
    "@class": "Structure",
    "charge": 0,
    "lattice": {
      "matrix": [
        [5.350466, 0.0, 0.0],
        [0.0, 5.350466, 0.0],
        [0.0, 0.0, 4.697233]
      ],
      "pbc": [true, true, true],
      "a": 5.350466,
      "b": 5.350466,
      "c": 4.697233,
      "alpha": 90.0,
      "beta": 90.0,
      "gamma": 90.0,
      "volume": 134.46997390571693
    },
    "properties": {},
    "sites": [
      {
        "species": [{ "element": "I", "occu": 1 }],
        "abc": [0.5, 0.0, 0.178804],
        "properties": { "magmom": -0.0 },
        "label": "I",
        "xyz": [2.675233, 0.0, 0.8398840493319999]
      },
      {
        "species": [{ "element": "I", "occu": 1 }],
        "abc": [0.0, 0.5, 0.821195999999999],
        "properties": { "magmom": -0.0 },
        "label": "I",
        "xyz": [0.0, 2.675233, 3.8573489506679954]
      },
      {
        "species": [{ "element": "N", "occu": 1 }],
        "abc": [0.5, 0.5, 0.5],
        "properties": { "magmom": -0.0 },
        "label": "N",
        "xyz": [2.675233, 2.675233, 2.3486165]
      },
      {
        "species": [{ "element": "N", "occu": 1 }],
        "abc": [0.0, 0.0, 0.5],
        "properties": { "magmom": -0.0 },
        "label": "N",
        "xyz": [0.0, 0.0, 2.3486165]
      },
      {
        "species": [{ "element": "N", "occu": 1 }],
        "abc": [0.348713, 0.6507400000000001, 0.3133],
        "properties": { "magmom": 0.0 },
        "label": "N",
        "xyz": [1.865777050258, 3.4817622448400005, 1.4716430989]
      },
      {
        "species": [{ "element": "N", "occu": 1 }],
        "abc": [0.651287, 0.34926, 0.3133],
        "properties": { "magmom": 0.0 },
        "label": "N",
        "xyz": [3.4846889497419995, 1.86870375516, 1.4716430989]
      },
      {
        "species": [{ "element": "N", "occu": 1 }],
        "abc": [0.848712999999999, 0.15074, 0.6867000000000001],
        "properties": { "magmom": 0.0 },
        "label": "N",
        "xyz": [4.541010050257995, 0.8065292448400001, 3.2255899011]
      },
      {
        "species": [{ "element": "N", "occu": 1 }],
        "abc": [0.151287, 0.84926, 0.6867000000000001],
        "properties": { "magmom": 0.0 },
        "label": "N",
        "xyz": [0.809455949742, 4.54393675516, 3.2255899011]
      },
      {
        "species": [{ "element": "N", "occu": 1 }],
        "abc": [0.34926, 0.348713, 0.6867000000000001],
        "properties": { "magmom": 0.0 },
        "label": "N",
        "xyz": [1.86870375516, 1.865777050258, 3.2255899011]
      },
      {
        "species": [{ "element": "N", "occu": 1 }],
        "abc": [0.6507400000000001, 0.651287, 0.6867000000000001],
        "properties": { "magmom": 0.0 },
        "label": "N",
        "xyz": [3.4817622448400005, 3.4846889497419995, 3.2255899011]
      },
      {
        "species": [{ "element": "N", "occu": 1 }],
        "abc": [0.84926, 0.848712999999999, 0.3133],
        "properties": { "magmom": 0.0 },
        "label": "N",
        "xyz": [4.54393675516, 4.541010050257995, 1.4716430989]
      },
      {
        "species": [{ "element": "N", "occu": 1 }],
        "abc": [0.15074, 0.151287, 0.3133],
        "properties": { "magmom": 0.0 },
        "label": "N",
        "xyz": [0.8065292448400001, 0.809455949742, 1.4716430989]
      }
    ]
  },
  "task_ids": null,
  "uncorrected_energy_per_atom": null,
  "energy_per_atom": -5.309445681666666,
  "formation_energy_per_atom": 1.8931212083333322,
  "energy_above_hull": 2.111711322499999,
  "is_stable": false,
  "equilibrium_reaction_energy_per_atom": null,
  "decomposes_to": null,
  "xas": null,
  "grain_boundaries": null,
  "band_gap": 0.0,
  "cbm": null,
  "vbm": null,
  "efermi": 6.62771302,
  "is_gap_direct": null,
  "is_metal": null,
  "es_source_calc_id": null,
  "bandstructure": null,
  "dos": null,
  "dos_energy_up": null,
  "dos_energy_down": null,
  "is_magnetic": null,
  "ordering": null,
  "total_magnetization": 0.0017996,
  "total_magnetization_normalized_vol": null,
  "total_magnetization_normalized_formula_units": null,
  "num_magnetic_sites": null,
  "num_unique_magnetic_sites": null,
  "types_of_magnetic_species": null,
  "bulk_modulus": null,
  "shear_modulus": null,
  "universal_anisotropy": null,
  "homogeneous_poisson": null,
  "e_total": null,
  "e_ionic": null,
  "e_electronic": null,
  "n": null,
  "e_ij_max": null,
  "weighted_surface_energy_EV_PER_ANG2": null,
  "weighted_surface_energy": null,
  "weighted_work_function": null,
  "surface_anisotropy": null,
  "shape_factor": null,
  "has_reconstructed": null,
  "possible_species": null,
  "has_props": null,
  "theoretical": null,
  "database_IDs": null,
  "fields_not_requested": [
    "builder_meta",
    "nsites",
    "elements",
    "nelements",
    "composition",
    "composition_reduced",
    "chemsys",
    "symmetry",
    "property_name",
    "deprecated",
    "deprecation_reasons",
    "last_updated",
    "origins",
    "warnings",
    "task_ids",
    "uncorrected_energy_per_atom",
    "equilibrium_reaction_energy_per_atom",
    "decomposes_to",
    "xas",
    "grain_boundaries",
    "cbm",
    "vbm",
    "is_gap_direct",
    "is_metal",
    "es_source_calc_id",
    "bandstructure",
    "dos",
    "dos_energy_up",
    "dos_energy_down",
    "is_magnetic",
    "ordering",
    "total_magnetization_normalized_vol",
    "total_magnetization_normalized_formula_units",
    "num_magnetic_sites",
    "num_unique_magnetic_sites",
    "types_of_magnetic_species",
    "bulk_modulus",
    "shear_modulus",
    "universal_anisotropy",
    "homogeneous_poisson",
    "e_total",
    "e_ionic",
    "e_electronic",
    "n",
    "e_ij_max",
    "weighted_surface_energy_EV_PER_ANG2",
    "weighted_surface_energy",
    "weighted_work_function",
    "surface_anisotropy",
    "shape_factor",
    "has_reconstructed",
    "possible_species",
    "has_props",
    "theoretical",
    "database_IDs"
  ]
}
