{
  "builder_meta": null,
  "nsites": null,
  "elements": null,
  "nelements": null,
  "composition": null,
  "composition_reduced": null,
  "formula_pretty": "In5Br7",
  "formula_anonymous": "A5B7",
  "chemsys": null,
  "volume": 3487.260085588512,
  "density": 4.317624316157118,
  "density_atomic": 36.325625891547,
  "symmetry": null,
  "property_name": null,
  "material_id": "mp-568546",
  "deprecated": null,
  "deprecation_reasons": null,
  "last_updated": null,
  "origins": null,
  "warnings": null,
  "structure": {
    "@module": "pymatgen.core.structure",
    "@class": "Structure",
    "charge": 0,
    "lattice": {
      "matrix": [
        [9.519638, 9.521347, 0.0],
        [-9.519638, 9.521347, 0.0],
        [0.0, 4.947841, 19.236919]
      ],
      "pbc": [true, true, true],
      "a": 13.464009668202598,
      "b": 13.464009668202598,
      "c": 19.86303559816178,
      "alpha": 79.85414186085362,
      "beta": 79.85414186085362,
      "gamma": 89.98971497672784,
      "volume": 3487.260085588512
    },
    "properties": {},
    "sites": [
      {
        "species": [{ "element": "In", "occu": 1 }],
        "abc": [0.304296, 0.430457, 0.752362],
        "properties": { "magmom": -0.0 },
        "label": "In",
        "xyz": [-1.2010070497179997, 10.718405822733, 14.473126852678]
      },
      {
        "species": [{ "element": "In", "occu": 1 }],
        "abc": [0.50392, 0.986386, 0.863261],
        "properties": { "magmom": 0.0 },
        "label": "In",
        "xyz": [-4.592901667308, 18.460998731683, 16.606481932858998]
      },
      {
        "species": [{ "element": "In", "occu": 1 }],
        "abc": [0.927581999999999, 0.072418, 0.25],
        "properties": { "magmom": -0.0 },
        "label": "In",
        "xyz": [8.14085171063199, 10.75830724999999, 4.80922975]
      },
      {
        "species": [{ "element": "In", "occu": 1 }],
        "abc": [0.185513999999999, 0.025972, 0.413247],
        "properties": { "magmom": -0.0 },
        "label": "In",
        "xyz": [1.5187820857959908, 4.058312041368991, 7.949599065993]
      },
      {
        "species": [{ "element": "In", "occu": 1 }],
        "abc": [0.49608, 0.013614, 0.136739],
        "properties": { "magmom": 0.0 },
        "label": "In",
        "xyz": [4.592901667308, 5.529536268317, 2.630437067141]
      },
      {
        "species": [{ "element": "In", "occu": 1 }],
        "abc": [0.807479, 0.192521, 0.75],
        "properties": { "magmom": -0.0 },
        "label": "In",
        "xyz": [5.854177545203999, 13.23222775, 14.42768925]
      },
      {
        "species": [{ "element": "In", "occu": 1 }],
        "abc": [0.261749, 0.695645, 0.901817],
        "properties": { "magmom": -0.0 },
        "label": "In",
        "xyz": [-4.130532849648, 13.577727616815, 17.348180581823]
      },
      {
        "species": [{ "element": "In", "occu": 1 }],
        "abc": [0.474253, 0.640162, 0.08536099999999901],
        "properties": { "magmom": -0.0 },
        "label": "In",
        "xyz": [-1.5793936209419996, 11.033084572605997, 1.642082642758981]
      },
      {
        "species": [{ "element": "In", "occu": 1 }],
        "abc": [0.814485999999999, 0.974028, 0.586753],
        "properties": { "magmom": -0.0 },
        "label": "In",
        "xyz": [-1.5187820857960093, 19.932222958630994, 11.287319934007]
      },
      {
        "species": [{ "element": "In", "occu": 1 }],
        "abc": [0.569543, 0.695704, 0.747637999999999],
        "properties": { "magmom": -0.0 },
        "label": "In",
        "xyz": [-1.201007049718, 15.746049677266997, 14.382251647321981]
      },
      {
        "species": [{ "element": "In", "occu": 1 }],
        "abc": [0.974028, 0.814485999999999, 0.086753],
        "properties": { "magmom": -0.0 },
        "label": "In",
        "xyz": [1.5187820857960093, 17.458302458630993, 1.668860434007]
      },
      {
        "species": [{ "element": "In", "occu": 1 }],
        "abc": [0.761976, 0.856124999999999, 0.900517999999999],
        "properties": { "magmom": -0.0 },
        "label": "In",
        "xyz": [-0.89626439806199, 19.86212098368499, 17.32319182404198]
      },
      {
        "species": [{ "element": "In", "occu": 1 }],
        "abc": [0.695645, 0.261749, 0.401817],
        "properties": { "magmom": -0.0 },
        "label": "In",
        "xyz": [4.130532849648, 11.103807116815, 7.7297210818229996]
      },
      {
        "species": [{ "element": "In", "occu": 1 }],
        "abc": [0.5812200000000001, 0.001976, 0.365769],
        "properties": { "magmom": 0.0 },
        "label": "In",
        "xyz": [5.514193193672001, 7.362578339741001, 7.036268625711]
      },
      {
        "species": [{ "element": "In", "occu": 1 }],
        "abc": [0.738251, 0.304355, 0.09818299999999901],
        "properties": { "magmom": -0.0 },
        "label": "In",
        "xyz": [4.1305328496480005, 10.412807383184996, 1.8887384181769808]
      },
      {
        "species": [{ "element": "In", "occu": 1 }],
        "abc": [0.430457, 0.304296, 0.252362],
        "properties": { "magmom": -0.0 },
        "label": "In",
        "xyz": [1.2010070497179997, 8.244485322732999, 4.854667352678]
      },
      {
        "species": [{ "element": "In", "occu": 1 }],
        "abc": [0.143875, 0.23802399999999901, 0.599482],
        "properties": { "magmom": -0.0 },
        "label": "In",
        "xyz": [-0.8962643980619907, 6.602334516314992, 11.532186675958]
      },
      {
        "species": [{ "element": "In", "occu": 1 }],
        "abc": [0.508742, 0.183494, 0.637131999999999],
        "properties": { "magmom": 0.0 },
        "label": "In",
        "xyz": [3.0962432202240002, 9.743446993903996, 12.256456676307982]
      },
      {
        "species": [{ "element": "In", "occu": 1 }],
        "abc": [0.001976, 0.5812200000000001, 0.865769],
        "properties": { "magmom": 0.0 },
        "label": "In",
        "xyz": [-5.514193193672001, 9.836498839741001, 16.654728125711]
      },
      {
        "species": [{ "element": "In", "occu": 1 }],
        "abc": [0.682831, 0.923704, 0.134913],
        "properties": { "magmom": 0.0 },
        "label": "In",
        "xyz": [-2.2930237639740003, 15.963905275478002, 2.595310453047]
      },
      {
        "species": [{ "element": "In", "occu": 1 }],
        "abc": [0.192521, 0.807479, 0.25],
        "properties": { "magmom": -0.0 },
        "label": "In",
        "xyz": [-5.854177545203999, 10.758307249999998, 4.80922975]
      },
      {
        "species": [{ "element": "In", "occu": 1 }],
        "abc": [0.317169, 0.076296, 0.865086999999999],
        "properties": { "magmom": 0.0 },
        "label": "In",
        "xyz": [2.293023763974, 8.026629724521996, 16.64160854695298]
      },
      {
        "species": [{ "element": "In", "occu": 1 }],
        "abc": [0.816506, 0.491258, 0.862868],
        "properties": { "magmom": 0.0 },
        "label": "In",
        "xyz": [3.0962432202240002, 16.721008506096002, 16.598921823692]
      },
      {
        "species": [{ "element": "In", "occu": 1 }],
        "abc": [0.998023999999999, 0.41878000000000004, 0.134231],
        "properties": { "magmom": 0.0 },
        "label": "In",
        "xyz": [5.514193193671991, 14.154036160258991, 2.5821908742889996]
      },
      {
        "species": [{ "element": "In", "occu": 1 }],
        "abc": [0.072418, 0.927581999999999, 0.75],
        "properties": { "magmom": -0.0 },
        "label": "In",
        "xyz": [-8.14085171063199, 13.232227749999993, 14.42768925]
      },
      {
        "species": [{ "element": "In", "occu": 1 }],
        "abc": [0.41878000000000004, 0.998023999999999, 0.634231],
        "properties": { "magmom": 0.0 },
        "label": "In",
        "xyz": [-5.514193193671991, 16.62795666025899, 12.200650374289]
      },
      {
        "species": [{ "element": "In", "occu": 1 }],
        "abc": [0.525747, 0.359838, 0.914639],
        "properties": { "magmom": -0.0 },
        "label": "In",
        "xyz": [1.579393620942, 12.957450427394, 17.594836357241]
      },
      {
        "species": [{ "element": "In", "occu": 1 }],
        "abc": [0.856124999999999, 0.761976, 0.400518],
        "properties": { "magmom": -0.0 },
        "label": "In",
        "xyz": [0.89626439806199, 17.38820048368499, 7.704732324042]
      },
      {
        "species": [{ "element": "In", "occu": 1 }],
        "abc": [0.923704, 0.682831, 0.634913],
        "properties": { "magmom": 0.0 },
        "label": "In",
        "xyz": [2.2930237639740003, 18.437825775478, 12.213769953046999]
      },
      {
        "species": [{ "element": "In", "occu": 1 }],
        "abc": [0.304355, 0.738251, 0.598183],
        "properties": { "magmom": -0.0 },
        "label": "In",
        "xyz": [-4.1305328496480005, 12.886727883185001, 11.507197918177]
      },
      {
        "species": [{ "element": "In", "occu": 1 }],
        "abc": [0.183494, 0.508742, 0.137132],
        "properties": { "magmom": 0.0 },
        "label": "In",
        "xyz": [-3.0962432202240002, 7.269526493904, 2.637997176308]
      },
      {
        "species": [{ "element": "In", "occu": 1 }],
        "abc": [0.986386, 0.50392, 0.363261],
        "properties": { "magmom": 0.0 },
        "label": "In",
        "xyz": [4.592901667308, 15.987078231683, 6.988022432859]
      },
      {
        "species": [{ "element": "In", "occu": 1 }],
        "abc": [0.359838, 0.525747, 0.414639],
        "properties": { "magmom": -0.0 },
        "label": "In",
        "xyz": [-1.579393620942, 10.483529927393999, 7.976376857241]
      },
      {
        "species": [{ "element": "In", "occu": 1 }],
        "abc": [0.025972, 0.185513999999999, 0.913246999999999],
        "properties": { "magmom": -0.0 },
        "label": "In",
        "xyz": [-1.5187820857959908, 6.532232541368987, 17.56805856599298]
      },
      {
        "species": [{ "element": "In", "occu": 1 }],
        "abc": [0.013614, 0.49608, 0.6367389999999991],
        "properties": { "magmom": 0.0 },
        "label": "In",
        "xyz": [-4.592901667308, 8.003456768316996, 12.248896567140982]
      },
      {
        "species": [{ "element": "In", "occu": 1 }],
        "abc": [0.23802399999999901, 0.143875, 0.099482],
        "properties": { "magmom": -0.0 },
        "label": "In",
        "xyz": [0.8962643980619907, 4.128414016314991, 1.9137271759580001]
      },
      {
        "species": [{ "element": "In", "occu": 1 }],
        "abc": [0.695704, 0.569543, 0.247638],
        "properties": { "magmom": -0.0 },
        "label": "In",
        "xyz": [1.201007049718, 13.272129177267, 4.763792147322]
      },
      {
        "species": [{ "element": "In", "occu": 1 }],
        "abc": [0.640162, 0.474253, 0.585361],
        "properties": { "magmom": -0.0 },
        "label": "In",
        "xyz": [1.5793936209419996, 13.507005072606002, 11.260542142759]
      },
      {
        "species": [{ "element": "In", "occu": 1 }],
        "abc": [0.076296, 0.317169, 0.365087],
        "properties": { "magmom": 0.0 },
        "label": "In",
        "xyz": [-2.293023763974, 5.552709224522, 7.023149046953]
      },
      {
        "species": [{ "element": "In", "occu": 1 }],
        "abc": [0.491258, 0.816506, 0.362867999999999],
        "properties": { "magmom": 0.0 },
        "label": "In",
        "xyz": [-3.0962432202240002, 14.247088006095996, 6.980462323691981]
      },
      {
        "species": [{ "element": "Br", "occu": 1 }],
        "abc": [0.700382, 0.204852999999999, 0.576365],
        "properties": { "magmom": -0.0 },
        "label": "Br",
        "xyz": [4.717256698502009, 11.47081892950999, 11.087486819435]
      },
      {
        "species": [{ "element": "Br", "occu": 1 }],
        "abc": [0.204852999999999, 0.700382, 0.076365],
        "properties": { "magmom": -0.0 },
        "label": "Br",
        "xyz": [-4.717256698502009, 8.99689842950999, 1.469027319435]
      },
      {
        "species": [{ "element": "Br", "occu": 1 }],
        "abc": [0.297197999999999, 0.236834, 0.925716],
        "properties": { "magmom": -0.0 },
        "label": "Br",
        "xyz": [0.5746434282319908, 9.66499956025999, 17.807923709004]
      },
      {
        "species": [{ "element": "Br", "occu": 1 }],
        "abc": [0.51795, 0.264289, 0.747118],
        "properties": { "magmom": -0.001 },
        "label": "Br",
        "xyz": [2.414760894718001, 11.144590028171, 14.372248449441999]
      },
      {
        "species": [{ "element": "Br", "occu": 1 }],
        "abc": [0.945167, 0.371801999999999, 0.568009],
        "properties": { "magmom": -0.0 },
        "label": "Br",
        "xyz": [5.458227241870009, 15.34973705581199, 10.926743124271]
      },
      {
        "species": [{ "element": "Br", "occu": 1 }],
        "abc": [0.136041, 0.644587999999999, 0.751273],
        "properties": { "magmom": -0.001 },
        "label": "Br",
        "xyz": [-4.841183345985991, 11.149818938855992, 14.452177847887]
      },
      {
        "species": [{ "element": "Br", "occu": 1 }],
        "abc": [0.855738, 0.7645500000000001, 0.744340999999999],
        "properties": { "magmom": -0.001 },
        "label": "Br",
        "xyz": [0.8680767499440005, 19.110205205716998, 14.318827525378982]
      },
      {
        "species": [{ "element": "Br", "occu": 1 }],
        "abc": [0.497142, 0.791354, 0.912825],
        "properties": { "magmom": -0.0 },
        "label": "Br",
        "xyz": [-2.8007917352560003, 16.784730484937, 17.559940586175]
      },
      {
        "species": [{ "element": "Br", "occu": 1 }],
        "abc": [0.7645500000000001, 0.855738, 0.244341],
        "properties": { "magmom": -0.001 },
        "label": "Br",
        "xyz": [-0.8680767499440005, 16.636284705717, 4.700368025379]
      },
      {
        "species": [{ "element": "Br", "occu": 1 }],
        "abc": [0.031515, 0.838633, 0.5610400000000001],
        "properties": { "magmom": -0.001 },
        "label": "Br",
        "xyz": [-7.683471183284, 11.060917763996, 10.792681035760001]
      },
      {
        "species": [{ "element": "Br", "occu": 1 }],
        "abc": [0.984057, 0.636644, 0.247964],
        "properties": { "magmom": -0.001 },
        "label": "Br",
        "xyz": [3.307245996494, 16.658143049971, 4.770063382916]
      },
      {
        "species": [{ "element": "Br", "occu": 1 }],
        "abc": [0.054833, 0.628197999999999, 0.431990999999999],
        "properties": { "magmom": -0.0 },
        "label": "Br",
        "xyz": [-5.4582272418699915, 8.640797944187987, 8.310175875728982]
      },
      {
        "species": [{ "element": "Br", "occu": 1 }],
        "abc": [0.236834, 0.297197999999999, 0.425716],
        "properties": { "magmom": -0.0 },
        "label": "Br",
        "xyz": [-0.5746434282319908, 7.19107906025999, 8.189464209003999]
      },
      {
        "species": [{ "element": "Br", "occu": 1 }],
        "abc": [0.248103, 0.005327999999999, 0.586071],
        "properties": { "magmom": -0.0 },
        "label": "Br",
        "xyz": [2.3111301154500095, 5.312790614267991, 11.274200355249]
      },
      {
        "species": [{ "element": "Br", "occu": 1 }],
        "abc": [0.478605, 0.127683, 0.433766999999999],
        "properties": { "magmom": -0.0 },
        "label": "Br",
        "xyz": [3.340650406236, 7.9188885769829955, 8.34434064387298]
      },
      {
        "species": [{ "element": "Br", "occu": 1 }],
        "abc": [0.161366999999999, 0.968484999999999, 0.9389600000000001],
        "properties": { "magmom": -0.001 },
        "label": "Br",
        "xyz": [-7.683471183284, 15.403537736003983, 18.062697464240003]
      },
      {
        "species": [{ "element": "Br", "occu": 1 }],
        "abc": [0.005327999999999, 0.248103, 0.086071],
        "properties": { "magmom": -0.0 },
        "label": "Br",
        "xyz": [-2.3111301154500095, 2.8388701142679906, 1.6557408552489998]
      },
      {
        "species": [{ "element": "Br", "occu": 1 }],
        "abc": [0.994672, 0.751896999999999, 0.913929],
        "properties": { "magmom": -0.0 },
        "label": "Br",
        "xyz": [2.31113011545001, 21.15166488573199, 17.581178144751]
      },
      {
        "species": [{ "element": "Br", "occu": 1 }],
        "abc": [0.872317, 0.521394999999999, 0.066233],
        "properties": { "magmom": -0.0 },
        "label": "Br",
        "xyz": [3.3406504062360094, 13.597725923016991, 1.274118856127]
      },
      {
        "species": [{ "element": "Br", "occu": 1 }],
        "abc": [0.371801999999999, 0.945167, 0.068009],
        "properties": { "magmom": -0.0 },
        "label": "Br",
        "xyz": [-5.458227241870009, 12.87581655581199, 1.308283624271]
      },
      {
        "species": [{ "element": "Br", "occu": 1 }],
        "abc": [0.521394999999999, 0.872317, 0.566233],
        "properties": { "magmom": -0.0 },
        "label": "Br",
        "xyz": [-3.3406504062360094, 16.071646423016993, 10.892578356127]
      },
      {
        "species": [{ "element": "Br", "occu": 1 }],
        "abc": [0.838633, 0.031515, 0.061040000000000004],
        "properties": { "magmom": -0.001 },
        "label": "Br",
        "xyz": [7.683471183284, 8.586997263996, 1.17422153576]
      },
      {
        "species": [{ "element": "Br", "occu": 1 }],
        "abc": [0.702801999999999, 0.763166, 0.074284],
        "properties": { "magmom": -0.0 },
        "label": "Br",
        "xyz": [-0.574643428232009, 14.32553543973999, 1.428995290996]
      },
      {
        "species": [{ "element": "Br", "occu": 1 }],
        "abc": [0.561761, 0.661049, 0.436961999999999],
        "properties": { "magmom": -0.001 },
        "label": "Br",
        "xyz": [-0.9451858177440009, 13.804816824111995, 8.405802600077982]
      },
      {
        "species": [{ "element": "Br", "occu": 1 }],
        "abc": [0.144262, 0.23545000000000002, 0.255658999999999],
        "properties": { "magmom": -0.001 },
        "label": "Br",
        "xyz": [-0.8680767499440001, 4.8803297942829955, 4.918091474620981]
      },
      {
        "species": [{ "element": "Br", "occu": 1 }],
        "abc": [0.636644, 0.984057, 0.747964],
        "properties": { "magmom": -0.001 },
        "label": "Br",
        "xyz": [-3.307245996494, 19.132063549971, 14.388522882916]
      },
      {
        "species": [{ "element": "Br", "occu": 1 }],
        "abc": [0.338951, 0.438239, 0.063038],
        "properties": { "magmom": -0.001 },
        "label": "Br",
        "xyz": [-0.9451858177439996, 7.7117976758880005, 1.212656899922]
      },
      {
        "species": [{ "element": "Br", "occu": 1 }],
        "abc": [0.751896999999999, 0.994672, 0.413929],
        "properties": { "magmom": -0.0 },
        "label": "Br",
        "xyz": [-2.31113011545001, 18.67774438573199, 7.962718644751]
      },
      {
        "species": [{ "element": "Br", "occu": 1 }],
        "abc": [0.415831, 0.538524, 0.849062],
        "properties": { "magmom": -0.0 },
        "label": "Br",
        "xyz": [-1.1679929451339999, 13.287768891327001, 16.333336919978]
      },
      {
        "species": [{ "element": "Br", "occu": 1 }],
        "abc": [0.960071999999999, 0.083430999999999, 0.651029],
        "properties": { "magmom": -0.0 },
        "label": "Br",
        "xyz": [8.345304975958001, 13.156742136929982, 12.523792139651]
      },
      {
        "species": [{ "element": "Br", "occu": 1 }],
        "abc": [0.208646, 0.502858, 0.587175],
        "properties": { "magmom": -0.0 },
        "label": "Br",
        "xyz": [-2.800791735256, 9.679725015063, 11.295437913825]
      },
      {
        "species": [{ "element": "Br", "occu": 1 }],
        "abc": [0.644587999999999, 0.136041, 0.251272999999999],
        "properties": { "magmom": -0.001 },
        "label": "Br",
        "xyz": [4.841183345985991, 8.675898438855988, 4.833718347886982]
      },
      {
        "species": [{ "element": "Br", "occu": 1 }],
        "abc": [0.584168999999999, 0.461476, 0.150938],
        "properties": { "magmom": -0.0 },
        "label": "Br",
        "xyz": [1.1679929451339914, 10.702766108672991, 2.903582080022]
      },
      {
        "species": [{ "element": "Br", "occu": 1 }],
        "abc": [0.795146999999999, 0.299618, 0.923635],
        "properties": { "magmom": -0.0 },
        "label": "Br",
        "xyz": [4.717256698501991, 14.993636570489992, 17.767891680565]
      },
      {
        "species": [{ "element": "Br", "occu": 1 }],
        "abc": [0.363355999999999, 0.015943, 0.252036],
        "properties": { "magmom": -0.001 },
        "label": "Br",
        "xyz": [3.307245996493991, 4.858471450028991, 4.8483961170839995]
      },
      {
        "species": [{ "element": "Br", "occu": 1 }],
        "abc": [0.127683, 0.478605, 0.9337669999999991],
        "properties": { "magmom": -0.0 },
        "label": "Br",
        "xyz": [-3.340650406236, 10.392809076982996, 17.962800143872983]
      },
      {
        "species": [{ "element": "Br", "occu": 1 }],
        "abc": [0.461476, 0.584168999999999, 0.650938],
        "properties": { "magmom": -0.0 },
        "label": "Br",
        "xyz": [-1.1679929451339914, 13.176686608672991, 12.522041580022]
      },
      {
        "species": [{ "element": "Br", "occu": 1 }],
        "abc": [0.863958999999999, 0.355412, 0.24872699999999903],
        "properties": { "magmom": -0.001 },
        "label": "Br",
        "xyz": [4.841183345985991, 12.840716061143986, 4.784741152112981]
      },
      {
        "species": [{ "element": "Br", "occu": 1 }],
        "abc": [0.039928, 0.916569, 0.348971],
        "properties": { "magmom": -0.0 },
        "label": "Br",
        "xyz": [-8.345304975958, 10.83379286307, 6.713126860349]
      },
      {
        "species": [{ "element": "Br", "occu": 1 }],
        "abc": [0.083430999999999, 0.960071999999999, 0.151029],
        "properties": { "magmom": -0.0 },
        "label": "Br",
        "xyz": [-8.345304975958001, 10.682821636929981, 2.905332639651]
      },
      {
        "species": [{ "element": "Br", "occu": 1 }],
        "abc": [0.628197999999999, 0.054833, 0.9319909999999991],
        "properties": { "magmom": -0.0 },
        "label": "Br",
        "xyz": [5.4582272418699915, 11.114718444187986, 17.928635375728984]
      },
      {
        "species": [{ "element": "Br", "occu": 1 }],
        "abc": [0.502858, 0.208646, 0.087175],
        "properties": { "magmom": -0.0 },
        "label": "Br",
        "xyz": [2.800791735256, 7.205804515063, 1.6769784138250001]
      },
      {
        "species": [{ "element": "Br", "occu": 1 }],
        "abc": [0.23545000000000002, 0.144262, 0.755659],
        "properties": { "magmom": -0.001 },
        "label": "Br",
        "xyz": [0.8680767499440001, 7.354250294283, 14.536550974620999]
      },
      {
        "species": [{ "element": "Br", "occu": 1 }],
        "abc": [0.355412, 0.863958999999999, 0.748726999999999],
        "properties": { "magmom": -0.001 },
        "label": "Br",
        "xyz": [-4.841183345985991, 15.314636561143987, 14.403200652112982]
      },
      {
        "species": [{ "element": "Br", "occu": 1 }],
        "abc": [0.438239, 0.338951, 0.563037999999999],
        "properties": { "magmom": -0.001 },
        "label": "Br",
        "xyz": [0.9451858177439996, 10.185718175887995, 10.831116399921981]
      },
      {
        "species": [{ "element": "Br", "occu": 1 }],
        "abc": [0.299618, 0.795146999999999, 0.423635],
        "properties": { "magmom": -0.0 },
        "label": "Br",
        "xyz": [-4.717256698501991, 12.519716070489991, 8.149432180565]
      },
      {
        "species": [{ "element": "Br", "occu": 1 }],
        "abc": [0.791354, 0.497142, 0.412825],
        "properties": { "magmom": -0.0 },
        "label": "Br",
        "xyz": [2.8007917352560003, 14.310809984937, 7.941481086175]
      },
      {
        "species": [{ "element": "Br", "occu": 1 }],
        "abc": [0.763166, 0.702801999999999, 0.574284],
        "properties": { "magmom": -0.0 },
        "label": "Br",
        "xyz": [0.574643428232009, 16.799455939739993, 11.047454790996001]
      },
      {
        "species": [{ "element": "Br", "occu": 1 }],
        "abc": [0.015943, 0.363355999999999, 0.752035999999999],
        "properties": { "magmom": -0.001 },
        "label": "Br",
        "xyz": [-3.307245996493991, 7.3323919500289865, 14.466855617083981]
      },
      {
        "species": [{ "element": "Br", "occu": 1 }],
        "abc": [0.968484999999999, 0.161366999999999, 0.43896],
        "properties": { "magmom": -0.001 },
        "label": "Br",
        "xyz": [7.683471183284, 12.929617236003983, 8.444237964240001]
      },
      {
        "species": [{ "element": "Br", "occu": 1 }],
        "abc": [0.48205000000000003, 0.735711, 0.252882],
        "properties": { "magmom": -0.001 },
        "label": "Br",
        "xyz": [-2.4147608947179995, 12.845944971829, 4.864670550558]
      },
      {
        "species": [{ "element": "Br", "occu": 1 }],
        "abc": [0.661049, 0.561761, 0.936962],
        "properties": { "magmom": -0.001 },
        "label": "Br",
        "xyz": [0.9451858177440009, 16.278737324112, 18.024262100078]
      },
      {
        "species": [{ "element": "Br", "occu": 1 }],
        "abc": [0.916569, 0.039928, 0.848970999999999],
        "properties": { "magmom": -0.0 },
        "label": "Br",
        "xyz": [8.345304975958, 13.307713363069997, 16.331586360348982]
      },
      {
        "species": [{ "element": "Br", "occu": 1 }],
        "abc": [0.538524, 0.415831, 0.349062],
        "properties": { "magmom": -0.0 },
        "label": "Br",
        "xyz": [1.1679929451339999, 10.813848391327, 6.7148774199779995]
      },
      {
        "species": [{ "element": "Br", "occu": 1 }],
        "abc": [0.735711, 0.48205000000000003, 0.752881999999999],
        "properties": { "magmom": -0.001 },
        "label": "Br",
        "xyz": [2.4147608947179995, 15.319865471828997, 14.483130050557982]
      },
      {
        "species": [{ "element": "Br", "occu": 1 }],
        "abc": [0.264289, 0.51795, 0.24711799999999903],
        "properties": { "magmom": -0.001 },
        "label": "Br",
        "xyz": [-2.414760894718001, 8.670669528170997, 4.753788949441981]
      }
    ]
  },
  "task_ids": null,
  "uncorrected_energy_per_atom": null,
  "energy_per_atom": -3.146023259166666,
  "formation_energy_per_atom": -1.041482054027777,
  "energy_above_hull": 0.005122137395833001,
  "is_stable": false,
  "equilibrium_reaction_energy_per_atom": null,
  "decomposes_to": null,
  "xas": null,
  "grain_boundaries": null,
  "band_gap": 2.1443,
  "cbm": null,
  "vbm": null,
  "efermi": 1.899835669999999,
  "is_gap_direct": null,
  "is_metal": null,
  "es_source_calc_id": null,
  "bandstructure": null,
  "dos": null,
  "dos_energy_up": null,
  "dos_energy_down": null,
  "is_magnetic": null,
  "ordering": null,
  "total_magnetization": 0.1075023,
  "total_magnetization_normalized_vol": null,
  "total_magnetization_normalized_formula_units": null,
  "num_magnetic_sites": null,
  "num_unique_magnetic_sites": null,
  "types_of_magnetic_species": null,
  "bulk_modulus": null,
  "shear_modulus": null,
  "universal_anisotropy": null,
  "homogeneous_poisson": null,
  "e_total": null,
  "e_ionic": null,
  "e_electronic": null,
  "n": null,
  "e_ij_max": null,
  "weighted_surface_energy_EV_PER_ANG2": null,
  "weighted_surface_energy": null,
  "weighted_work_function": null,
  "surface_anisotropy": null,
  "shape_factor": null,
  "has_reconstructed": null,
  "possible_species": null,
  "has_props": null,
  "theoretical": null,
  "database_IDs": null,
  "fields_not_requested": [
    "builder_meta",
    "nsites",
    "elements",
    "nelements",
    "composition",
    "composition_reduced",
    "chemsys",
    "symmetry",
    "property_name",
    "deprecated",
    "deprecation_reasons",
    "last_updated",
    "origins",
    "warnings",
    "task_ids",
    "uncorrected_energy_per_atom",
    "equilibrium_reaction_energy_per_atom",
    "decomposes_to",
    "xas",
    "grain_boundaries",
    "cbm",
    "vbm",
    "is_gap_direct",
    "is_metal",
    "es_source_calc_id",
    "bandstructure",
    "dos",
    "dos_energy_up",
    "dos_energy_down",
    "is_magnetic",
    "ordering",
    "total_magnetization_normalized_vol",
    "total_magnetization_normalized_formula_units",
    "num_magnetic_sites",
    "num_unique_magnetic_sites",
    "types_of_magnetic_species",
    "bulk_modulus",
    "shear_modulus",
    "universal_anisotropy",
    "homogeneous_poisson",
    "e_total",
    "e_ionic",
    "e_electronic",
    "n",
    "e_ij_max",
    "weighted_surface_energy_EV_PER_ANG2",
    "weighted_surface_energy",
    "weighted_work_function",
    "surface_anisotropy",
    "shape_factor",
    "has_reconstructed",
    "possible_species",
    "has_props",
    "theoretical",
    "database_IDs"
  ]
}
