{"builder_meta": null, "nsites": null, "elements": null, "nelements": null, "composition": null, "composition_reduced": null, "formula_pretty": "In5Bi3", "formula_anonymous": "A3B5", "chemsys": null, "volume": 478.17937672235195, "density": 8.34146901723649, "density_atomic": 29.886211045146997, "symmetry": null, "property_name": null, "material_id": "mp-23180", "deprecated": null, "deprecation_reasons": null, "last_updated": null, "origins": null, "warnings": null, "structure": {"@module": "pymatgen.core.structure", "@class": "Structure", "charge": 0, "lattice": {"matrix": [[-4.212516, 4.212516, 6.736708], [4.212516, -4.212516, 6.736708], [4.212516, 4.212516, -6.736708]], "pbc": [true, true, true], "a": 8.99298708871396, "b": 8.99298708871396, "c": 8.99298708871396, "alpha": 124.13612909010847, "beta": 124.13612909010847, "gamma": 82.97386521588088, "volume": 478.17937672235195}, "properties": {}, "sites": [{"species": [{"element": "In", "occu": 1}], "abc": [0.5, 0.5, 0.0], "properties": {"magmom": -0.0}, "label": "In", "xyz": [0.0, 0.0, 6.736708]}, {"species": [{"element": "In", "occu": 1}], "abc": [0.0, 0.0, 0.0], "properties": {"magmom": -0.0}, "label": "In", "xyz": [0.0, 0.0, 0.0]}, {"species": [{"element": "In", "occu": 1}], "abc": [0.311975, 0.811975, 0.792403], "properties": {"magmom": -0.0}, "label": "In", "xyz": [5.444268315948, 1.2317523159479995, 2.233535327276001]}, {"species": [{"element": "In", "occu": 1}], "abc": [0.811975, 0.019572, 0.5], "properties": {"magmom": -0.0}, "label": "In", "xyz": [-1.231752315948, 5.444268315947999, 2.233535327276]}, {"species": [{"element": "In", "occu": 1}], "abc": [0.519571999999999, 0.311975, 0.5], "properties": {"magmom": -0.0}, "label": "In", "xyz": [1.2317523159480042, 2.980763684051996, 2.2335353272759937]}, {"species": [{"element": "In", "occu": 1}], "abc": [0.188025, 0.980428, 0.5], "properties": {"magmom": -0.0}, "label": "In", "xyz": [5.444268315947999, -1.231752315948, 4.503172672723999]}, {"species": [{"element": "In", "occu": 1}], "abc": [0.480427999999999, 0.688025, 0.5], "properties": {"magmom": -0.0}, "label": "In", "xyz": [2.980763684052004, 1.231752315947996, 4.503172672723993]}, {"species": [{"element": "In", "occu": 1}], "abc": [0.980428, 0.480427999999999, 0.792403], "properties": {"magmom": -0.0}, "label": "In", "xyz": [1.231752315947996, 5.444268315948004, 4.503172672723994]}, {"species": [{"element": "In", "occu": 1}], "abc": [0.688025, 0.188025, 0.207597], "properties": {"magmom": -0.0}, "label": "In", "xyz": [-1.231752315948, 2.980763684052, 4.503172672724]}, {"species": [{"element": "In", "occu": 1}], "abc": [0.019572, 0.519571999999999, 0.207597], "properties": {"magmom": -0.0}, "label": "In", "xyz": [2.9807636840519955, -1.2317523159479955, 2.2335353272759937]}, {"species": [{"element": "Bi", "occu": 1}], "abc": [0.75, 0.75, 0.0], "properties": {"magmom": 0.0}, "label": "Bi", "xyz": [0.0, 0.0, 10.105062]}, {"species": [{"element": "Bi", "occu": 1}], "abc": [0.25, 0.25, 0.0], "properties": {"magmom": 0.0}, "label": "Bi", "xyz": [0.0, 0.0, 3.368354]}, {"species": [{"element": "Bi", "occu": 1}], "abc": [0.350781, 0.850781, 0.201562], "properties": {"magmom": -0.0}, "label": "Bi", "xyz": [2.955341149992, -1.257174850008, 6.736708]}, {"species": [{"element": "Bi", "occu": 1}], "abc": [0.850781, 0.649219, 0.5], "properties": {"magmom": -0.0}, "label": "Bi", "xyz": [1.257174850008, 2.955341149992, 6.736708]}, {"species": [{"element": "Bi", "occu": 1}], "abc": [0.149219, 0.350781, 0.5], "properties": {"magmom": -0.0}, "label": "Bi", "xyz": [2.955341149992, 1.257174850008, 0.0]}, {"species": [{"element": "Bi", "occu": 1}], "abc": [0.649219, 0.149219, 0.798438], "properties": {"magmom": -0.0}, "label": "Bi", "xyz": [1.257174850008, 5.469690850008, 0.0]}]}, "task_ids": null, "uncorrected_energy_per_atom": null, "energy_per_atom": -36.049081079375, "formation_energy_per_atom": 0.0008905625000030001, "energy_above_hull": 0.05458110312500201, "is_stable": false, "equilibrium_reaction_energy_per_atom": null, "decomposes_to": null, "xas": null, "grain_boundaries": null, "band_gap": 0.0, "cbm": null, "vbm": null, "efermi": 6.44569483, "is_gap_direct": null, "is_metal": null, "es_source_calc_id": null, "bandstructure": null, "dos": null, "dos_energy_up": null, "dos_energy_down": null, "is_magnetic": null, "ordering": null, "total_magnetization": 0.0002042, "total_magnetization_normalized_vol": null, "total_magnetization_normalized_formula_units": null, "num_magnetic_sites": null, "num_unique_magnetic_sites": null, "types_of_magnetic_species": null, "bulk_modulus": null, "shear_modulus": null, "universal_anisotropy": null, "homogeneous_poisson": null, "e_total": null, "e_ionic": null, "e_electronic": null, "n": null, "e_ij_max": null, "weighted_surface_energy_EV_PER_ANG2": null, "weighted_surface_energy": null, "weighted_work_function": null, "surface_anisotropy": null, "shape_factor": null, "has_reconstructed": null, "possible_species": null, "has_props": null, "theoretical": null, "database_IDs": null, "fields_not_requested": ["builder_meta", "nsites", "elements", "nelements", "composition", "composition_reduced", "chemsys", "symmetry", "property_name", "deprecated", "deprecation_reasons", "last_updated", "origins", "warnings", "task_ids", "uncorrected_energy_per_atom", "equilibrium_reaction_energy_per_atom", "decomposes_to", "xas", "grain_boundaries", "cbm", "vbm", "is_gap_direct", "is_metal", "es_source_calc_id", "bandstructure", "dos", "dos_energy_up", "dos_energy_down", "is_magnetic", "ordering", "total_magnetization_normalized_vol", "total_magnetization_normalized_formula_units", "num_magnetic_sites", "num_unique_magnetic_sites", "types_of_magnetic_species", "bulk_modulus", "shear_modulus", "universal_anisotropy", "homogeneous_poisson", "e_total", "e_ionic", "e_electronic", "n", "e_ij_max", "weighted_surface_energy_EV_PER_ANG2", "weighted_surface_energy", "weighted_work_function", "surface_anisotropy", "shape_factor", "has_reconstructed", "possible_species", "has_props", "theoretical", "database_IDs"]}