{
  "builder_meta": null,
  "nsites": null,
  "elements": null,
  "nelements": null,
  "composition": null,
  "composition_reduced": null,
  "formula_pretty": "In5S8",
  "formula_anonymous": "A5B8",
  "chemsys": null,
  "volume": 310.78829052441137,
  "density": 4.437941827799621,
  "density_atomic": 23.906791578800874,
  "symmetry": null,
  "property_name": null,
  "material_id": "mp-1224137",
  "deprecated": null,
  "deprecation_reasons": null,
  "last_updated": null,
  "origins": null,
  "warnings": null,
  "structure": {
    "@module": "pymatgen.core.structure",
    "@class": "Structure",
    "charge": 0,
    "lattice": {
      "matrix": [
        [1.3740000000000002e-5, 5.37626978, 5.37623989],
        [5.37622563, 1.2120000000000001e-5, 5.37624155],
        [5.37621566, 5.37626243, 2.105e-5]
      ],
      "pbc": [true, true, true],
      "a": 7.603172502472718,
      "b": 7.603142457481788,
      "c": 7.6031501720998405,
      "alpha": 59.99998877062721,
      "beta": 59.999550096693646,
      "gamma": 59.99988386315484,
      "volume": 310.7882905244113
    },
    "properties": {},
    "sites": [
      {
        "species": [{ "element": "In", "occu": 1 }],
        "abc": [0.35352088, 0.88216218, 0.88215979],
        "properties": { "magmom": -0.005 },
        "label": "In",
        "xyz": [9.485389056929876, 6.643356851782317, 6.643348592422061]
      },
      {
        "species": [{ "element": "In", "occu": 1 }],
        "abc": [0.88215773, 0.35352352, 0.88215973],
        "properties": { "magmom": -0.005 },
        "label": "In",
        "xyz": [6.6433152849264, 9.485444443355405, 6.643337983886421]
      },
      {
        "species": [{ "element": "In", "occu": 1 }],
        "abc": [0.8821561800000001, 0.88215798, 0.35352644],
        "properties": { "magmom": -0.005 },
        "label": "In",
        "xyz": [6.643326845562992, 6.6433712209126075, 9.485385071597651]
      },
      {
        "species": [{ "element": "In", "occu": 1 }],
        "abc": [0.88216072, 0.8821560700000001, 0.88215646],
        "properties": { "magmom": -0.005 },
        "label": "In",
        "xyz": [9.485345568904531, 9.485449345050409, 9.485410338767311]
      },
      {
        "species": [{ "element": "In", "occu": 1 }],
        "abc": [0.49999974, 0.50000011, 0.5000005200000001],
        "properties": { "magmom": -0.001 },
        "label": "In",
        "xyz": [5.376230902013391, 5.376273562827654, 5.376250438575145]
      },
      {
        "species": [{ "element": "S", "occu": 1 }],
        "abc": [0.09777568, 0.63407354, 0.63407382],
        "properties": { "magmom": 0.02 },
        "label": "S",
        "xyz": [6.817841361170695, 3.9346233748868378, 3.9346113698453733]
      },
      {
        "species": [{ "element": "S", "occu": 1 }],
        "abc": [0.6340795100000001, 0.09777568, 0.63407345],
        "properties": { "magmom": 0.02 },
        "label": "S",
        "xyz": [3.9345884405393727, 6.817928959866934, 3.9346425757352805]
      },
      {
        "species": [{ "element": "S", "occu": 1 }],
        "abc": [0.63407848, 0.63407666, 0.09777401000000001],
        "properties": { "magmom": 0.02 },
        "label": "S",
        "xyz": [3.934602066818108, 3.934643391774898, 6.817909361086699]
      },
      {
        "species": [{ "element": "S", "occu": 1 }],
        "abc": [0.63407303, 0.634076, 0.63407749],
        "properties": { "magmom": 0.02 },
        "label": "S",
        "xyz": [6.8178816861228055, 6.817922341698854, 6.817887801448131]
      },
      {
        "species": [{ "element": "S", "occu": 1 }],
        "abc": [0.6332544, 0.12224713000000001, 0.1222496],
        "properties": { "magmom": 0.151 },
        "label": "S",
        "xyz": [1.314477068364134, 4.0617939069697755, 4.061760238826348]
      },
      {
        "species": [{ "element": "S", "occu": 1 }],
        "abc": [0.12224712, 0.63325206, 0.12224903000000001],
        "properties": { "magmom": 0.151 },
        "label": "S",
        "xyz": [4.061744784403537, 1.3144840390559438, 4.061748452918791]
      },
      {
        "species": [{ "element": "S", "occu": 1 }],
        "abc": [0.12224989, 0.12224919000000001, 0.63324849],
        "properties": { "magmom": 0.151 },
        "label": "S",
        "xyz": [4.061721356847582, 4.061759936516738, 1.314499239778671]
      },
      {
        "species": [{ "element": "S", "occu": 1 }],
        "abc": [0.12224763, 0.12225187, 0.12225216],
        "properties": { "magmom": 0.151 },
        "label": "S",
        "xyz": [1.3145092935526899, 1.3144974153326348, 1.314490741331127]
      }
    ]
  },
  "task_ids": null,
  "uncorrected_energy_per_atom": null,
  "energy_per_atom": -14.24893799,
  "formation_energy_per_atom": -0.6202499471153821,
  "energy_above_hull": 0.094148939122595,
  "is_stable": false,
  "equilibrium_reaction_energy_per_atom": null,
  "decomposes_to": null,
  "xas": null,
  "grain_boundaries": null,
  "band_gap": 0.0,
  "cbm": null,
  "vbm": null,
  "efermi": 3.69770222,
  "is_gap_direct": null,
  "is_metal": null,
  "es_source_calc_id": null,
  "bandstructure": null,
  "dos": null,
  "dos_energy_up": null,
  "dos_energy_down": null,
  "is_magnetic": null,
  "ordering": null,
  "total_magnetization": 0.9952569,
  "total_magnetization_normalized_vol": null,
  "total_magnetization_normalized_formula_units": null,
  "num_magnetic_sites": null,
  "num_unique_magnetic_sites": null,
  "types_of_magnetic_species": null,
  "bulk_modulus": null,
  "shear_modulus": null,
  "universal_anisotropy": null,
  "homogeneous_poisson": null,
  "e_total": null,
  "e_ionic": null,
  "e_electronic": null,
  "n": null,
  "e_ij_max": null,
  "weighted_surface_energy_EV_PER_ANG2": null,
  "weighted_surface_energy": null,
  "weighted_work_function": null,
  "surface_anisotropy": null,
  "shape_factor": null,
  "has_reconstructed": null,
  "possible_species": null,
  "has_props": null,
  "theoretical": null,
  "database_IDs": null,
  "fields_not_requested": [
    "builder_meta",
    "nsites",
    "elements",
    "nelements",
    "composition",
    "composition_reduced",
    "chemsys",
    "symmetry",
    "property_name",
    "deprecated",
    "deprecation_reasons",
    "last_updated",
    "origins",
    "warnings",
    "task_ids",
    "uncorrected_energy_per_atom",
    "equilibrium_reaction_energy_per_atom",
    "decomposes_to",
    "xas",
    "grain_boundaries",
    "cbm",
    "vbm",
    "is_gap_direct",
    "is_metal",
    "es_source_calc_id",
    "bandstructure",
    "dos",
    "dos_energy_up",
    "dos_energy_down",
    "is_magnetic",
    "ordering",
    "total_magnetization_normalized_vol",
    "total_magnetization_normalized_formula_units",
    "num_magnetic_sites",
    "num_unique_magnetic_sites",
    "types_of_magnetic_species",
    "bulk_modulus",
    "shear_modulus",
    "universal_anisotropy",
    "homogeneous_poisson",
    "e_total",
    "e_ionic",
    "e_electronic",
    "n",
    "e_ij_max",
    "weighted_surface_energy_EV_PER_ANG2",
    "weighted_surface_energy",
    "weighted_work_function",
    "surface_anisotropy",
    "shape_factor",
    "has_reconstructed",
    "possible_species",
    "has_props",
    "theoretical",
    "database_IDs"
  ]
}
