{"builder_meta": null, "nsites": null, "elements": null, "nelements": null, "composition": null, "composition_reduced": null, "formula_pretty": "In5S4", "formula_anonymous": "A4B5", "chemsys": null, "volume": 2052.839283276913, "density": 4.5450401224388, "density_atomic": 28.51165671217935, "symmetry": null, "property_name": null, "material_id": "mp-22846", "deprecated": null, "deprecation_reasons": null, "last_updated": null, "origins": null, "warnings": null, "structure": {"@module": "pymatgen.core.structure", "@class": "Structure", "charge": 0, "lattice": {"matrix": [[12.709203, 0.0, 0.0], [0.0, 12.709203, 0.0], [0.0, 0.0, 12.709203]], "pbc": [true, true, true], "a": 12.709203, "b": 12.709203, "c": 12.709203, "alpha": 90.0, "beta": 90.0, "gamma": 90.0, "volume": 2052.839283276913}, "properties": {}, "sites": [{"species": [{"element": "In", "occu": 1}], "abc": [0.269082, 0.269082, 0.269082], "properties": {"magmom": -0.029}, "label": "In", "xyz": [3.419817761646, 3.419817761646, 3.419817761646]}, {"species": [{"element": "In", "occu": 1}], "abc": [0.230917999999999, 0.730918, 0.769081999999999], "properties": {"magmom": -0.029}, "label": "In", "xyz": [2.9347837383539876, 9.289385238353999, 9.774419261645988]}, {"species": [{"element": "In", "occu": 1}], "abc": [0.769081999999999, 0.230917999999999, 0.730918], "properties": {"magmom": -0.03}, "label": "In", "xyz": [9.774419261645988, 2.9347837383539876, 9.289385238353999]}, {"species": [{"element": "In", "occu": 1}], "abc": [0.730918, 0.769081999999999, 0.230917999999999], "properties": {"magmom": -0.029}, "label": "In", "xyz": [9.289385238353999, 9.774419261645988, 2.9347837383539876]}, {"species": [{"element": "In", "occu": 1}], "abc": [0.730918, 0.730918, 0.730918], "properties": {"magmom": -0.029}, "label": "In", "xyz": [9.289385238353999, 9.289385238353999, 9.289385238353999]}, {"species": [{"element": "In", "occu": 1}], "abc": [0.769081999999999, 0.269082, 0.230917999999999], "properties": {"magmom": -0.029}, "label": "In", "xyz": [9.774419261645988, 3.419817761646, 2.9347837383539876]}, {"species": [{"element": "In", "occu": 1}], "abc": [0.230917999999999, 0.769081999999999, 0.269082], "properties": {"magmom": -0.03}, "label": "In", "xyz": [2.9347837383539876, 9.774419261645988, 3.419817761646]}, {"species": [{"element": "In", "occu": 1}], "abc": [0.269082, 0.230917999999999, 0.769081999999999], "properties": {"magmom": -0.029}, "label": "In", "xyz": [3.419817761646, 2.9347837383539876, 9.774419261645988]}, {"species": [{"element": "In", "occu": 1}], "abc": [0.40123000000000003, 0.40123000000000003, 0.40123000000000003], "properties": {"magmom": -0.0}, "label": "In", "xyz": [5.099313519690001, 5.099313519690001, 5.099313519690001]}, {"species": [{"element": "In", "occu": 1}], "abc": [0.09877000000000001, 0.59877, 0.9012300000000001], "properties": {"magmom": 0.0}, "label": "In", "xyz": [1.25528798031, 7.609889480310001, 11.453915019690001]}, {"species": [{"element": "In", "occu": 1}], "abc": [0.9012300000000001, 0.09877000000000001, 0.59877], "properties": {"magmom": 0.001}, "label": "In", "xyz": [11.453915019690001, 1.25528798031, 7.609889480310001]}, {"species": [{"element": "In", "occu": 1}], "abc": [0.59877, 0.9012300000000001, 0.09877000000000001], "properties": {"magmom": 0.001}, "label": "In", "xyz": [7.609889480310001, 11.453915019690001, 1.25528798031]}, {"species": [{"element": "In", "occu": 1}], "abc": [0.59877, 0.59877, 0.59877], "properties": {"magmom": -0.0}, "label": "In", "xyz": [7.609889480310001, 7.609889480310001, 7.609889480310001]}, {"species": [{"element": "In", "occu": 1}], "abc": [0.9012300000000001, 0.40123000000000003, 0.09877000000000001], "properties": {"magmom": 0.0}, "label": "In", "xyz": [11.453915019690001, 5.099313519690001, 1.25528798031]}, {"species": [{"element": "In", "occu": 1}], "abc": [0.09877000000000001, 0.9012300000000001, 0.40123000000000003], "properties": {"magmom": 0.001}, "label": "In", "xyz": [1.25528798031, 11.453915019690001, 5.099313519690001]}, {"species": [{"element": "In", "occu": 1}], "abc": [0.40123000000000003, 0.09877000000000001, 0.9012300000000001], "properties": {"magmom": 0.001}, "label": "In", "xyz": [5.099313519690001, 1.25528798031, 11.453915019690001]}, {"species": [{"element": "In", "occu": 1}], "abc": [0.268297, 0.026799, 0.06762], "properties": {"magmom": 0.007}, "label": "In", "xyz": [3.409841037291, 0.340593931197, 0.85939630686]}, {"species": [{"element": "In", "occu": 1}], "abc": [0.06762, 0.268297, 0.026799], "properties": {"magmom": 0.005}, "label": "In", "xyz": [0.85939630686, 3.409841037291, 0.340593931197]}, {"species": [{"element": "In", "occu": 1}], "abc": [0.026799, 0.06762, 0.268297], "properties": {"magmom": 0.005}, "label": "In", "xyz": [0.340593931197, 0.85939630686, 3.409841037291]}, {"species": [{"element": "In", "occu": 1}], "abc": [0.473201, 0.9323800000000001, 0.768297], "properties": {"magmom": 0.004}, "label": "In", "xyz": [6.014007568803, 11.849806693140001, 9.764442537291]}, {"species": [{"element": "In", "occu": 1}], "abc": [0.56762, 0.231703, 0.973201], "properties": {"magmom": 0.007}, "label": "In", "xyz": [7.21399780686, 2.944760462709, 12.368609068803]}, {"species": [{"element": "In", "occu": 1}], "abc": [0.973201, 0.56762, 0.231703], "properties": {"magmom": 0.006}, "label": "In", "xyz": [12.368609068803, 7.21399780686, 2.944760462709]}, {"species": [{"element": "In", "occu": 1}], "abc": [0.43238000000000004, 0.731703, 0.526799], "properties": {"magmom": 0.006}, "label": "In", "xyz": [5.49520519314, 9.299361962709, 6.695195431197001]}, {"species": [{"element": "In", "occu": 1}], "abc": [0.9323800000000001, 0.768297, 0.473201], "properties": {"magmom": 0.006}, "label": "In", "xyz": [11.849806693140001, 9.764442537291, 6.014007568803]}, {"species": [{"element": "In", "occu": 1}], "abc": [0.526799, 0.43238000000000004, 0.731703], "properties": {"magmom": 0.005}, "label": "In", "xyz": [6.695195431197001, 5.49520519314, 9.299361962709]}, {"species": [{"element": "In", "occu": 1}], "abc": [0.768297, 0.473201, 0.9323800000000001], "properties": {"magmom": 0.007}, "label": "In", "xyz": [9.764442537291, 6.014007568803, 11.849806693140001]}, {"species": [{"element": "In", "occu": 1}], "abc": [0.731703, 0.526799, 0.43238000000000004], "properties": {"magmom": 0.006}, "label": "In", "xyz": [9.299361962709, 6.695195431197001, 5.49520519314]}, {"species": [{"element": "In", "occu": 1}], "abc": [0.231703, 0.973201, 0.56762], "properties": {"magmom": 0.008}, "label": "In", "xyz": [2.944760462709, 12.368609068803, 7.21399780686]}, {"species": [{"element": "In", "occu": 1}], "abc": [0.731703, 0.973201, 0.9323800000000001], "properties": {"magmom": 0.007}, "label": "In", "xyz": [9.299361962709, 12.368609068803, 11.849806693140001]}, {"species": [{"element": "In", "occu": 1}], "abc": [0.9323800000000001, 0.731703, 0.973201], "properties": {"magmom": 0.005}, "label": "In", "xyz": [11.849806693140001, 9.299361962709, 12.368609068803]}, {"species": [{"element": "In", "occu": 1}], "abc": [0.973201, 0.9323800000000001, 0.731703], "properties": {"magmom": 0.005}, "label": "In", "xyz": [12.368609068803, 11.849806693140001, 9.299361962709]}, {"species": [{"element": "In", "occu": 1}], "abc": [0.526799, 0.06762, 0.231703], "properties": {"magmom": 0.004}, "label": "In", "xyz": [6.695195431197001, 0.85939630686, 2.944760462709]}, {"species": [{"element": "In", "occu": 1}], "abc": [0.43238000000000004, 0.768297, 0.026799], "properties": {"magmom": 0.007}, "label": "In", "xyz": [5.49520519314, 9.764442537291, 0.340593931197]}, {"species": [{"element": "In", "occu": 1}], "abc": [0.026799, 0.43238000000000004, 0.768297], "properties": {"magmom": 0.006}, "label": "In", "xyz": [0.340593931197, 5.49520519314, 9.764442537291]}, {"species": [{"element": "In", "occu": 1}], "abc": [0.56762, 0.268297, 0.473201], "properties": {"magmom": 0.006}, "label": "In", "xyz": [7.21399780686, 3.409841037291, 6.014007568803]}, {"species": [{"element": "In", "occu": 1}], "abc": [0.06762, 0.231703, 0.526799], "properties": {"magmom": 0.006}, "label": "In", "xyz": [0.85939630686, 2.944760462709, 6.695195431197001]}, {"species": [{"element": "In", "occu": 1}], "abc": [0.473201, 0.56762, 0.268297], "properties": {"magmom": 0.005}, "label": "In", "xyz": [6.014007568803, 7.21399780686, 3.409841037291]}, {"species": [{"element": "In", "occu": 1}], "abc": [0.231703, 0.526799, 0.06762], "properties": {"magmom": 0.007}, "label": "In", "xyz": [2.944760462709, 6.695195431197001, 0.85939630686]}, {"species": [{"element": "In", "occu": 1}], "abc": [0.268297, 0.473201, 0.56762], "properties": {"magmom": 0.006}, "label": "In", "xyz": [3.409841037291, 6.014007568803, 7.21399780686]}, {"species": [{"element": "In", "occu": 1}], "abc": [0.768297, 0.026799, 0.43238000000000004], "properties": {"magmom": 0.008}, "label": "In", "xyz": [9.764442537291, 0.340593931197, 5.49520519314]}, {"species": [{"element": "S", "occu": 1}], "abc": [0.324708, 0.073889, 0.256809], "properties": {"magmom": 0.002}, "label": "S", "xyz": [4.126779887724, 0.939070300467, 3.2638377132270002]}, {"species": [{"element": "S", "occu": 1}], "abc": [0.256809, 0.324708, 0.073889], "properties": {"magmom": -0.0}, "label": "S", "xyz": [3.2638377132270002, 4.126779887724, 0.939070300467]}, {"species": [{"element": "S", "occu": 1}], "abc": [0.073889, 0.256809, 0.324708], "properties": {"magmom": 0.001}, "label": "S", "xyz": [0.939070300467, 3.2638377132270002, 4.126779887724]}, {"species": [{"element": "S", "occu": 1}], "abc": [0.426110999999999, 0.743190999999999, 0.824708], "properties": {"magmom": 0.001}, "label": "S", "xyz": [5.415531199532988, 9.445365286772988, 10.481381387724001]}, {"species": [{"element": "S", "occu": 1}], "abc": [0.756809, 0.175292, 0.926110999999999], "properties": {"magmom": 0.0}, "label": "S", "xyz": [9.618439213227, 2.227821612276, 11.770132699532988]}, {"species": [{"element": "S", "occu": 1}], "abc": [0.926110999999999, 0.756809, 0.175292], "properties": {"magmom": 0.001}, "label": "S", "xyz": [11.770132699532988, 9.618439213227, 2.227821612276]}, {"species": [{"element": "S", "occu": 1}], "abc": [0.243191, 0.675292, 0.573889], "properties": {"magmom": -0.0}, "label": "S", "xyz": [3.090763786773, 8.582423112276, 7.293671800467]}, {"species": [{"element": "S", "occu": 1}], "abc": [0.743190999999999, 0.824708, 0.426110999999999], "properties": {"magmom": -0.0}, "label": "S", "xyz": [9.445365286772988, 10.481381387724001, 5.415531199532988]}, {"species": [{"element": "S", "occu": 1}], "abc": [0.573889, 0.243191, 0.675292], "properties": {"magmom": 0.001}, "label": "S", "xyz": [7.293671800467, 3.090763786773, 8.582423112276]}, {"species": [{"element": "S", "occu": 1}], "abc": [0.824708, 0.426110999999999, 0.743190999999999], "properties": {"magmom": 0.002}, "label": "S", "xyz": [10.481381387724001, 5.415531199532988, 9.445365286772988]}, {"species": [{"element": "S", "occu": 1}], "abc": [0.675292, 0.573889, 0.243191], "properties": {"magmom": 0.001}, "label": "S", "xyz": [8.582423112276, 7.293671800467, 3.090763786773]}, {"species": [{"element": "S", "occu": 1}], "abc": [0.175292, 0.926110999999999, 0.756809], "properties": {"magmom": 0.002}, "label": "S", "xyz": [2.227821612276, 11.770132699532988, 9.618439213227]}, {"species": [{"element": "S", "occu": 1}], "abc": [0.675292, 0.926110999999999, 0.743190999999999], "properties": {"magmom": 0.002}, "label": "S", "xyz": [8.582423112276, 11.770132699532988, 9.445365286772988]}, {"species": [{"element": "S", "occu": 1}], "abc": [0.743190999999999, 0.675292, 0.926110999999999], "properties": {"magmom": -0.0}, "label": "S", "xyz": [9.445365286772988, 8.582423112276, 11.770132699532988]}, {"species": [{"element": "S", "occu": 1}], "abc": [0.926110999999999, 0.743190999999999, 0.675292], "properties": {"magmom": 0.001}, "label": "S", "xyz": [11.770132699532988, 9.445365286772988, 8.582423112276]}, {"species": [{"element": "S", "occu": 1}], "abc": [0.573889, 0.256809, 0.175292], "properties": {"magmom": 0.001}, "label": "S", "xyz": [7.293671800467, 3.2638377132270002, 2.227821612276]}, {"species": [{"element": "S", "occu": 1}], "abc": [0.243191, 0.824708, 0.073889], "properties": {"magmom": 0.0}, "label": "S", "xyz": [3.090763786773, 10.481381387724001, 0.939070300467]}, {"species": [{"element": "S", "occu": 1}], "abc": [0.073889, 0.243191, 0.824708], "properties": {"magmom": 0.001}, "label": "S", "xyz": [0.939070300467, 3.090763786773, 10.481381387724001]}, {"species": [{"element": "S", "occu": 1}], "abc": [0.756809, 0.324708, 0.426110999999999], "properties": {"magmom": -0.0}, "label": "S", "xyz": [9.618439213227, 4.126779887724, 5.415531199532988]}, {"species": [{"element": "S", "occu": 1}], "abc": [0.256809, 0.175292, 0.573889], "properties": {"magmom": -0.0}, "label": "S", "xyz": [3.2638377132270002, 2.227821612276, 7.293671800467]}, {"species": [{"element": "S", "occu": 1}], "abc": [0.426110999999999, 0.756809, 0.324708], "properties": {"magmom": 0.001}, "label": "S", "xyz": [5.415531199532988, 9.618439213227, 4.126779887724]}, {"species": [{"element": "S", "occu": 1}], "abc": [0.175292, 0.573889, 0.256809], "properties": {"magmom": 0.002}, "label": "S", "xyz": [2.227821612276, 7.293671800467, 3.2638377132270002]}, {"species": [{"element": "S", "occu": 1}], "abc": [0.324708, 0.426110999999999, 0.756809], "properties": {"magmom": 0.001}, "label": "S", "xyz": [4.126779887724, 5.415531199532988, 9.618439213227]}, {"species": [{"element": "S", "occu": 1}], "abc": [0.824708, 0.073889, 0.243191], "properties": {"magmom": 0.002}, "label": "S", "xyz": [10.481381387724001, 0.939070300467, 3.090763786773]}, {"species": [{"element": "S", "occu": 1}], "abc": [0.075294, 0.075294, 0.075294], "properties": {"magmom": 0.009000000000000001}, "label": "S", "xyz": [0.9569267306820001, 0.9569267306820001, 0.9569267306820001]}, {"species": [{"element": "S", "occu": 1}], "abc": [0.424706, 0.924705999999999, 0.575294], "properties": {"magmom": 0.009000000000000001}, "label": "S", "xyz": [5.397674769318, 11.752276269317989, 7.311528230682]}, {"species": [{"element": "S", "occu": 1}], "abc": [0.575294, 0.424706, 0.924705999999999], "properties": {"magmom": 0.01}, "label": "S", "xyz": [7.311528230682, 5.397674769318, 11.752276269317989]}, {"species": [{"element": "S", "occu": 1}], "abc": [0.924705999999999, 0.575294, 0.424706], "properties": {"magmom": 0.009000000000000001}, "label": "S", "xyz": [11.752276269317989, 7.311528230682, 5.397674769318]}, {"species": [{"element": "S", "occu": 1}], "abc": [0.924705999999999, 0.924705999999999, 0.924705999999999], "properties": {"magmom": 0.009000000000000001}, "label": "S", "xyz": [11.752276269317989, 11.752276269317989, 11.752276269317989]}, {"species": [{"element": "S", "occu": 1}], "abc": [0.575294, 0.075294, 0.424706], "properties": {"magmom": 0.009000000000000001}, "label": "S", "xyz": [7.311528230682, 0.9569267306820001, 5.397674769318]}, {"species": [{"element": "S", "occu": 1}], "abc": [0.424706, 0.575294, 0.075294], "properties": {"magmom": 0.01}, "label": "S", "xyz": [5.397674769318, 7.311528230682, 0.9569267306820001]}, {"species": [{"element": "S", "occu": 1}], "abc": [0.075294, 0.424706, 0.575294], "properties": {"magmom": 0.009000000000000001}, "label": "S", "xyz": [0.9569267306820001, 5.397674769318, 7.311528230682]}]}, "task_ids": null, "uncorrected_energy_per_atom": null, "energy_per_atom": -16.642322794722222, "formation_energy_per_atom": -0.527550769305555, "energy_above_hull": 0.07945004749999901, "is_stable": false, "equilibrium_reaction_energy_per_atom": null, "decomposes_to": null, "xas": null, "grain_boundaries": null, "band_gap": 0.0, "cbm": null, "vbm": null, "efermi": 3.70359277, "is_gap_direct": null, "is_metal": null, "es_source_calc_id": null, "bandstructure": null, "dos": null, "dos_energy_up": null, "dos_energy_down": null, "is_magnetic": null, "ordering": null, "total_magnetization": 0.0034915999999990005, "total_magnetization_normalized_vol": null, "total_magnetization_normalized_formula_units": null, "num_magnetic_sites": null, "num_unique_magnetic_sites": null, "types_of_magnetic_species": null, "bulk_modulus": null, "shear_modulus": null, "universal_anisotropy": null, "homogeneous_poisson": null, "e_total": null, "e_ionic": null, "e_electronic": null, "n": null, "e_ij_max": null, "weighted_surface_energy_EV_PER_ANG2": null, "weighted_surface_energy": null, "weighted_work_function": null, "surface_anisotropy": null, "shape_factor": null, "has_reconstructed": null, "possible_species": null, "has_props": null, "theoretical": null, "database_IDs": null, "fields_not_requested": ["builder_meta", "nsites", "elements", "nelements", "composition", "composition_reduced", "chemsys", "symmetry", "property_name", "deprecated", "deprecation_reasons", "last_updated", "origins", "warnings", "task_ids", "uncorrected_energy_per_atom", "equilibrium_reaction_energy_per_atom", "decomposes_to", "xas", "grain_boundaries", "cbm", "vbm", "is_gap_direct", "is_metal", "es_source_calc_id", "bandstructure", "dos", "dos_energy_up", "dos_energy_down", "is_magnetic", "ordering", "total_magnetization_normalized_vol", "total_magnetization_normalized_formula_units", "num_magnetic_sites", "num_unique_magnetic_sites", "types_of_magnetic_species", "bulk_modulus", "shear_modulus", "universal_anisotropy", "homogeneous_poisson", "e_total", "e_ionic", "e_electronic", "n", "e_ij_max", "weighted_surface_energy_EV_PER_ANG2", "weighted_surface_energy", "weighted_work_function", "surface_anisotropy", "shape_factor", "has_reconstructed", "possible_species", "has_props", "theoretical", "database_IDs"]}