{"builder_meta": null, "nsites": null, "elements": null, "nelements": null, "composition": null, "composition_reduced": null, "formula_pretty": "In5Sb3", "formula_anonymous": "A3B5", "chemsys": null, "volume": 455.39456043823503, "density": 6.850589438270663, "density_atomic": 28.46216002738969, "symmetry": null, "property_name": null, "material_id": "mp-1188565", "deprecated": null, "deprecation_reasons": null, "last_updated": null, "origins": null, "warnings": null, "structure": {"@module": "pymatgen.core.structure", "@class": "Structure", "charge": 0, "lattice": {"matrix": [[-4.087111, 4.087111, 6.815457], [4.087111, -4.087111, 6.815457], [4.087111, 4.087111, -6.815457]], "pbc": [true, true, true], "a": 8.936409053500796, "b": 8.936409053500796, "c": 8.936409053500796, "alpha": 125.56688173553664, "beta": 125.56688173553664, "gamma": 80.60117300080368, "volume": 455.39456043823503}, "properties": {}, "sites": [{"species": [{"element": "In", "occu": 1}], "abc": [0.0, 0.0, 0.0], "properties": {"magmom": -0.0}, "label": "In", "xyz": [0.0, 0.0, 0.0]}, {"species": [{"element": "In", "occu": 1}], "abc": [0.5, 0.5, 0.0], "properties": {"magmom": -0.0}, "label": "In", "xyz": [0.0, 0.0, 6.815457]}, {"species": [{"element": "In", "occu": 1}], "abc": [0.992456, 0.492456, 0.802833], "properties": {"magmom": -0.0}, "label": "In", "xyz": [1.237712085463, 5.3248230854630005, 4.648680095103]}, {"species": [{"element": "In", "occu": 1}], "abc": [0.689623, 0.18962299999999901, 0.197166999999999], "properties": {"magmom": -0.0}, "label": "In", "xyz": [-1.237712085463008, 2.8493989145370002, 4.648680095103]}, {"species": [{"element": "In", "occu": 1}], "abc": [0.492456, 0.689623, 0.5], "properties": {"magmom": -0.0}, "label": "In", "xyz": [2.8493989145370002, 1.237712085463, 4.648680095103001]}, {"species": [{"element": "In", "occu": 1}], "abc": [0.18962299999999901, 0.992456, 0.5], "properties": {"magmom": -0.0}, "label": "In", "xyz": [5.324823085463004, -1.237712085463004, 4.648680095102994]}, {"species": [{"element": "In", "occu": 1}], "abc": [0.007543999999999, 0.507544, 0.197166999999999], "properties": {"magmom": -0.0}, "label": "In", "xyz": [2.8493989145370007, -1.2377120854630084, 2.1667769048970005]}, {"species": [{"element": "In", "occu": 1}], "abc": [0.310376999999999, 0.810377, 0.802833], "properties": {"magmom": -0.0}, "label": "In", "xyz": [5.324823085463004, 1.237712085462996, 2.1667769048969934]}, {"species": [{"element": "In", "occu": 1}], "abc": [0.507544, 0.310376999999999, 0.5], "properties": {"magmom": -0.0}, "label": "In", "xyz": [1.237712085462996, 2.8493989145370042, 2.1667769048969934]}, {"species": [{"element": "In", "occu": 1}], "abc": [0.810377, 0.007543999999999, 0.5], "properties": {"magmom": -0.0}, "label": "In", "xyz": [-1.2377120854630044, 5.324823085463004, 2.1667769048969934]}, {"species": [{"element": "Sb", "occu": 1}], "abc": [0.75, 0.75, 0.0], "properties": {"magmom": 0.0}, "label": "Sb", "xyz": [0.0, 0.0, 10.2231855]}, {"species": [{"element": "Sb", "occu": 1}], "abc": [0.25, 0.25, 0.0], "properties": {"magmom": 0.0}, "label": "Sb", "xyz": [0.0, 0.0, 3.4077285]}, {"species": [{"element": "Sb", "occu": 1}], "abc": [0.351232999999999, 0.851232999999999, 0.202465999999999], "properties": {"magmom": 0.0}, "label": "Sb", "xyz": [2.871056515725996, -1.2160544842740042, 6.815456999999993]}, {"species": [{"element": "Sb", "occu": 1}], "abc": [0.648767, 0.148766999999999, 0.797534], "properties": {"magmom": 0.0}, "label": "Sb", "xyz": [1.2160544842739958, 5.303165484274004, -6.217248937900877e-15]}, {"species": [{"element": "Sb", "occu": 1}], "abc": [0.851232999999999, 0.648767, 0.5], "properties": {"magmom": 0.0}, "label": "Sb", "xyz": [1.2160544842740042, 2.871056515725996, 6.815456999999994]}, {"species": [{"element": "Sb", "occu": 1}], "abc": [0.148766999999999, 0.351232999999999, 0.5], "properties": {"magmom": 0.0}, "label": "Sb", "xyz": [2.871056515726, 1.2160544842740002, -1.3322676295501878e-14]}]}, "task_ids": null, "uncorrected_energy_per_atom": null, "energy_per_atom": -23.808857360624998, "formation_energy_per_atom": -0.057369974374996004, "energy_above_hull": 0.12114628187499901, "is_stable": false, "equilibrium_reaction_energy_per_atom": null, "decomposes_to": null, "xas": null, "grain_boundaries": null, "band_gap": 0.0, "cbm": null, "vbm": null, "efermi": 6.97605329, "is_gap_direct": null, "is_metal": null, "es_source_calc_id": null, "bandstructure": null, "dos": null, "dos_energy_up": null, "dos_energy_down": null, "is_magnetic": null, "ordering": null, "total_magnetization": 0.0038547, "total_magnetization_normalized_vol": null, "total_magnetization_normalized_formula_units": null, "num_magnetic_sites": null, "num_unique_magnetic_sites": null, "types_of_magnetic_species": null, "bulk_modulus": null, "shear_modulus": null, "universal_anisotropy": null, "homogeneous_poisson": null, "e_total": null, "e_ionic": null, "e_electronic": null, "n": null, "e_ij_max": null, "weighted_surface_energy_EV_PER_ANG2": null, "weighted_surface_energy": null, "weighted_work_function": null, "surface_anisotropy": null, "shape_factor": null, "has_reconstructed": null, "possible_species": null, "has_props": null, "theoretical": null, "database_IDs": null, "fields_not_requested": ["builder_meta", "nsites", "elements", "nelements", "composition", "composition_reduced", "chemsys", "symmetry", "property_name", "deprecated", "deprecation_reasons", "last_updated", "origins", "warnings", "task_ids", "uncorrected_energy_per_atom", "equilibrium_reaction_energy_per_atom", "decomposes_to", "xas", "grain_boundaries", "cbm", "vbm", "is_gap_direct", "is_metal", "es_source_calc_id", "bandstructure", "dos", "dos_energy_up", "dos_energy_down", "is_magnetic", "ordering", "total_magnetization_normalized_vol", "total_magnetization_normalized_formula_units", "num_magnetic_sites", "num_unique_magnetic_sites", "types_of_magnetic_species", "bulk_modulus", "shear_modulus", "universal_anisotropy", "homogeneous_poisson", "e_total", "e_ionic", "e_electronic", "n", "e_ij_max", "weighted_surface_energy_EV_PER_ANG2", "weighted_surface_energy", "weighted_work_function", "surface_anisotropy", "shape_factor", "has_reconstructed", "possible_species", "has_props", "theoretical", "database_IDs"]}