{
  "builder_meta": null,
  "nsites": null,
  "elements": null,
  "nelements": null,
  "composition": null,
  "composition_reduced": null,
  "formula_pretty": "In6S7",
  "formula_anonymous": "A6B7",
  "chemsys": null,
  "volume": 609.3390456316978,
  "density": 4.9780986607042355,
  "density_atomic": 23.436117139680682,
  "symmetry": null,
  "property_name": null,
  "material_id": "mp-555853",
  "deprecated": null,
  "deprecation_reasons": null,
  "last_updated": null,
  "origins": null,
  "warnings": null,
  "structure": {
    "@module": "pymatgen.core.structure",
    "@class": "Structure",
    "charge": 0,
    "lattice": {
      "matrix": [
        [3.90708006, 0.0, 0.0],
        [0.0, 9.1606535, -0.00326589],
        [0.0, 3.60509161, 17.02344506]
      ],
      "pbc": [true, true, true],
      "a": 3.90708006,
      "b": 9.160654082165737,
      "c": 17.400987535979986,
      "alpha": 78.06343406473886,
      "beta": 90.0,
      "gamma": 90.0,
      "volume": 609.3390456316978
    },
    "properties": {},
    "sites": [
      {
        "species": [{ "element": "In", "occu": 1 }],
        "abc": [0.25, 0.18375029, 0.18830359],
        "properties": { "magmom": 0.0 },
        "label": "In",
        "xyz": [0.976770015, 2.362124429656395, 3.204975710731157]
      },
      {
        "species": [{ "element": "In", "occu": 1 }],
        "abc": [0.75, 0.06819311, 0.8775332],
        "properties": { "magmom": -0.0 },
        "label": "In",
        "xyz": [2.930310045, 3.788281028613837, 14.938415507329974]
      },
      {
        "species": [{ "element": "In", "occu": 1 }],
        "abc": [0.25, 0.97595995, 0.6033874],
        "properties": { "magmom": 0.0 },
        "label": "In",
        "xyz": [0.976770015, 11.11569778514704, 10.26854487595514]
      },
      {
        "species": [{ "element": "In", "occu": 1 }],
        "abc": [0.25, 0.67269724, 0.4685121],
        "properties": { "magmom": -0.0 },
        "label": "In",
        "xyz": [0.976770015, 7.851375366939822, 7.973493039106082]
      },
      {
        "species": [{ "element": "In", "occu": 1 }],
        "abc": [0.75, 0.02404005, 0.3966126],
        "properties": { "magmom": 0.0 },
        "label": "In",
        "xyz": [2.930310045, 1.650047324852961, 6.7516342940448615]
      },
      {
        "species": [{ "element": "In", "occu": 1 }],
        "abc": [0.75, 0.64510904, 0.046363470000000004],
        "properties": { "magmom": 0.0 },
        "label": "In",
        "xyz": [2.930310045, 6.076764941865127, 0.7871591291733127]
      },
      {
        "species": [{ "element": "In", "occu": 1 }],
        "abc": [0.75, 0.81624971, 0.81169641],
        "properties": { "magmom": 0.0 },
        "label": "In",
        "xyz": [2.930310045, 10.403620680343606, 13.815203459268844]
      },
      {
        "species": [{ "element": "In", "occu": 1 }],
        "abc": [0.25, 0.93180689, 0.1224668],
        "properties": { "magmom": -0.0 },
        "label": "In",
        "xyz": [0.976770015, 8.977464081386165, 2.081763662670026]
      },
      {
        "species": [{ "element": "In", "occu": 1 }],
        "abc": [0.75, 0.32730276, 0.5314879],
        "properties": { "magmom": -0.0 },
        "label": "In",
        "xyz": [2.930310045, 4.914369743060179, 9.046686130893917]
      },
      {
        "species": [{ "element": "In", "occu": 1 }],
        "abc": [0.25, 0.53190514, 0.27599106],
        "properties": { "magmom": 0.0 },
        "label": "In",
        "xyz": [0.976770015, 5.867571737249997, 4.69658150328349]
      },
      {
        "species": [{ "element": "In", "occu": 1 }],
        "abc": [0.25, 0.35489096000000003, 0.95363653],
        "properties": { "magmom": 0.0 },
        "label": "In",
        "xyz": [0.976770015, 6.688980168134874, 16.233020040826688]
      },
      {
        "species": [{ "element": "In", "occu": 1 }],
        "abc": [0.75, 0.46809486, 0.72400894],
        "properties": { "magmom": 0.0 },
        "label": "In",
        "xyz": [2.930310045, 6.898173372750003, 12.323597666716513]
      },
      {
        "species": [{ "element": "S", "occu": 1 }],
        "abc": [0.75, 0.75363239, 0.17466328],
        "properties": { "magmom": 0.0 },
        "label": "S",
        "xyz": [2.930310045, 7.533442316469946, 2.9709094705932197]
      },
      {
        "species": [{ "element": "S", "occu": 1 }],
        "abc": [0.75, 0.53616112, 0.41061752],
        "properties": { "magmom": 0.0 },
        "label": "S",
        "xyz": [2.930310045, 6.391900016762928, 6.988373749153255]
      },
      {
        "species": [{ "element": "S", "occu": 1 }],
        "abc": [0.75, 0.55744389, 0.91017315],
        "properties": { "magmom": 0.0 },
        "label": "S",
        "xyz": [2.930310045, 8.387807908694388, 15.492462063686228]
      },
      {
        "species": [{ "element": "S", "occu": 1 }],
        "abc": [0.25, 0.44255611, 0.08982685],
        "properties": { "magmom": 0.0 },
        "label": "S",
        "xyz": [0.976770015, 4.377937201305614, 1.527717106313773]
      },
      {
        "species": [{ "element": "S", "occu": 1 }],
        "abc": [0.75, 0.23950101000000001, 0.27200231],
        "properties": { "magmom": 0.0 },
        "label": "S",
        "xyz": [2.930310045, 3.1745790111916548, 4.62963419652454]
      },
      {
        "species": [{ "element": "S", "occu": 1 }],
        "abc": [0.25, 0.76049899, 0.72799769],
        "properties": { "magmom": 0.0 },
        "label": "S",
        "xyz": [0.976770015, 9.591166098808346, 12.39054497347546]
      },
      {
        "species": [{ "element": "S", "occu": 1 }],
        "abc": [0.75, 0.16587529, 0.00385718],
        "properties": { "magmom": 0.0 },
        "label": "S",
        "xyz": [2.930310045, 1.533431543158275, 0.0651207613656727]
      },
      {
        "species": [{ "element": "S", "occu": 1 }],
        "abc": [0.75, 0.11619209999999901, 0.65164822],
        "properties": { "magmom": 0.0 },
        "label": "S",
        "xyz": [2.930310045, 3.413647098130775, 11.092918200999325]
      },
      {
        "species": [{ "element": "S", "occu": 1 }],
        "abc": [0.25, 0.24636761000000001, 0.82533672],
        "properties": { "magmom": 0.0 },
        "label": "S",
        "xyz": [0.976770015, 5.232302793530055, 14.04926969940678]
      },
      {
        "species": [{ "element": "S", "occu": 1 }],
        "abc": [0.25, 0.16862972, 0.46775732000000003],
        "properties": { "magmom": -0.0 },
        "label": "S",
        "xyz": [0.976770015, 3.2310664245701055, 7.962290312316589]
      },
      {
        "species": [{ "element": "S", "occu": 1 }],
        "abc": [0.25, 0.8838079, 0.34835178],
        "properties": { "magmom": 0.0 },
        "label": "S",
        "xyz": [0.976770015, 9.352098011869217, 5.927260969000677]
      },
      {
        "species": [{ "element": "S", "occu": 1 }],
        "abc": [0.25, 0.46383888, 0.58938248],
        "properties": { "magmom": 0.0 },
        "label": "S",
        "xyz": [0.976770015, 6.3738450932370725, 10.031805420846746]
      },
      {
        "species": [{ "element": "S", "occu": 1 }],
        "abc": [0.75, 0.83137028, 0.53224268],
        "properties": { "magmom": -0.0 },
        "label": "S",
        "xyz": [2.930310045, 9.534678685429895, 9.05788885768341]
      },
      {
        "species": [{ "element": "S", "occu": 1 }],
        "abc": [0.25, 0.83412471, 0.99614282],
        "properties": { "magmom": 0.0 },
        "label": "S",
        "xyz": [0.976770015, 11.232313566841725, 16.955058408634326]
      }
    ]
  },
  "task_ids": null,
  "uncorrected_energy_per_atom": null,
  "energy_per_atom": -15.432614269615385,
  "formation_energy_per_atom": -0.685188434591347,
  "energy_above_hull": 0.020802454615385,
  "is_stable": false,
  "equilibrium_reaction_energy_per_atom": null,
  "decomposes_to": null,
  "xas": null,
  "grain_boundaries": null,
  "band_gap": 0.3186,
  "cbm": null,
  "vbm": null,
  "efermi": 5.5926162900000005,
  "is_gap_direct": null,
  "is_metal": null,
  "es_source_calc_id": null,
  "bandstructure": null,
  "dos": null,
  "dos_energy_up": null,
  "dos_energy_down": null,
  "is_magnetic": null,
  "ordering": null,
  "total_magnetization": 0.0,
  "total_magnetization_normalized_vol": null,
  "total_magnetization_normalized_formula_units": null,
  "num_magnetic_sites": null,
  "num_unique_magnetic_sites": null,
  "types_of_magnetic_species": null,
  "bulk_modulus": null,
  "shear_modulus": null,
  "universal_anisotropy": null,
  "homogeneous_poisson": null,
  "e_total": null,
  "e_ionic": null,
  "e_electronic": null,
  "n": null,
  "e_ij_max": null,
  "weighted_surface_energy_EV_PER_ANG2": null,
  "weighted_surface_energy": null,
  "weighted_work_function": null,
  "surface_anisotropy": null,
  "shape_factor": null,
  "has_reconstructed": null,
  "possible_species": null,
  "has_props": null,
  "theoretical": null,
  "database_IDs": null,
  "fields_not_requested": [
    "builder_meta",
    "nsites",
    "elements",
    "nelements",
    "composition",
    "composition_reduced",
    "chemsys",
    "symmetry",
    "property_name",
    "deprecated",
    "deprecation_reasons",
    "last_updated",
    "origins",
    "warnings",
    "task_ids",
    "uncorrected_energy_per_atom",
    "equilibrium_reaction_energy_per_atom",
    "decomposes_to",
    "xas",
    "grain_boundaries",
    "cbm",
    "vbm",
    "is_gap_direct",
    "is_metal",
    "es_source_calc_id",
    "bandstructure",
    "dos",
    "dos_energy_up",
    "dos_energy_down",
    "is_magnetic",
    "ordering",
    "total_magnetization_normalized_vol",
    "total_magnetization_normalized_formula_units",
    "num_magnetic_sites",
    "num_unique_magnetic_sites",
    "types_of_magnetic_species",
    "bulk_modulus",
    "shear_modulus",
    "universal_anisotropy",
    "homogeneous_poisson",
    "e_total",
    "e_ionic",
    "e_electronic",
    "n",
    "e_ij_max",
    "weighted_surface_energy_EV_PER_ANG2",
    "weighted_surface_energy",
    "weighted_work_function",
    "surface_anisotropy",
    "shape_factor",
    "has_reconstructed",
    "possible_species",
    "has_props",
    "theoretical",
    "database_IDs"
  ]
}
