{
  "builder_meta": null,
  "nsites": null,
  "elements": null,
  "nelements": null,
  "composition": null,
  "composition_reduced": null,
  "formula_pretty": "In7Pd3",
  "formula_anonymous": "A3B7",
  "chemsys": null,
  "volume": 430.96578721708926,
  "density": 8.653875456269272,
  "density_atomic": 21.54828936085446,
  "symmetry": null,
  "property_name": null,
  "material_id": "mp-568655",
  "deprecated": null,
  "deprecation_reasons": null,
  "last_updated": null,
  "origins": null,
  "warnings": null,
  "structure": {
    "@module": "pymatgen.core.structure",
    "@class": "Structure",
    "charge": 0,
    "lattice": {
      "matrix": [
        [7.7704352100000005, 2e-8, -2.74726247],
        [-3.88521557, 6.72939366, -2.74726247],
        [1e-8, 1e-8, 8.24178944]
      ],
      "pbc": [true, true, true],
      "a": 8.24179072968237,
      "b": 8.241789255719242,
      "c": 8.24178944,
      "alpha": 109.4712160725362,
      "beta": 109.47121240567817,
      "gamma": 109.4712181491221,
      "volume": 430.9657872170893
    },
    "properties": {},
    "sites": [
      {
        "species": [{ "element": "In", "occu": 1 }],
        "abc": [0.5, 0.25, 0.75],
        "properties": { "magmom": -0.0 },
        "label": "In",
        "xyz": [2.9139137200000005, 1.6823484325, 4.1208952275]
      },
      {
        "species": [{ "element": "In", "occu": 1 }],
        "abc": [0.32350845, 1.0, 1.0],
        "properties": { "magmom": 0.0 },
        "label": "In",
        "xyz": [-1.3714141093874757, 6.72939367647017, 4.6057643465871285]
      },
      {
        "species": [{ "element": "In", "occu": 1 }],
        "abc": [0.67649155, 0.0, 0.0],
        "properties": { "magmom": 0.0 },
        "label": "In",
        "xyz": [5.256633759387476, 1.3529831000000002e-8, -1.8584998465871285]
      },
      {
        "species": [{ "element": "In", "occu": 1 }],
        "abc": [0.25, 0.5, 0.75],
        "properties": { "magmom": -0.0 },
        "label": "In",
        "xyz": [1.0250000000334222e-6, 3.3646968425000003, 4.1208952275]
      },
      {
        "species": [{ "element": "In", "occu": 1 }],
        "abc": [0.75, 0.25, 0.5],
        "properties": { "magmom": -0.0 },
        "label": "In",
        "xyz": [4.85652252, 1.682348435, 1.37363225]
      },
      {
        "species": [{ "element": "In", "occu": 1 }],
        "abc": [-0.0, 0.67649155, 0.0],
        "properties": { "magmom": 0.0 },
        "label": "In",
        "xyz": [-2.6283155030334338, 4.552377947613573, -1.8584998465871285]
      },
      {
        "species": [{ "element": "In", "occu": 1 }],
        "abc": [1.0, 1.0, 0.32350845],
        "properties": { "magmom": 0.0 },
        "label": "In",
        "xyz": [3.885219643235085, 6.7293936832350845, -2.8282364130392317]
      },
      {
        "species": [{ "element": "In", "occu": 1 }],
        "abc": [0.32350845, 0.32350845, 0.32350845],
        "properties": { "magmom": 0.0 },
        "label": "In",
        "xyz": [1.2569013868810424, 2.1770157220916806, 0.8887632801350251]
      },
      {
        "species": [{ "element": "In", "occu": 1 }],
        "abc": [0.25, 0.75, 0.5],
        "properties": { "magmom": -0.0 },
        "label": "In",
        "xyz": [-0.9713028700000002, 5.047045255000001, 1.37363225]
      },
      {
        "species": [{ "element": "In", "occu": 1 }],
        "abc": [0.0, 0.32350845, 1.0],
        "properties": { "magmom": 0.0 },
        "label": "In",
        "xyz": [-1.2569000569665667, 2.177015722386427, 7.353026816587128]
      },
      {
        "species": [{ "element": "In", "occu": 1 }],
        "abc": [0.0, 0.0, 0.67649155],
        "properties": { "magmom": 0.0 },
        "label": "In",
        "xyz": [6.764915500000001e-9, 6.764915500000001e-9, 5.575500913039233]
      },
      {
        "species": [{ "element": "In", "occu": 1 }],
        "abc": [0.75, 0.5, 0.25],
        "properties": { "magmom": -0.0 },
        "label": "In",
        "xyz": [3.8852186250000003, 3.3646968475000003, -1.3736307275000001]
      },
      {
        "species": [{ "element": "In", "occu": 1 }],
        "abc": [0.67649155, 0.67649155, 0.67649155],
        "properties": { "magmom": 0.0 },
        "label": "In",
        "xyz": [2.628318263118958, 4.55237796790832, 1.8585012198649755]
      },
      {
        "species": [{ "element": "In", "occu": 1 }],
        "abc": [0.5, 0.75, 0.25],
        "properties": { "magmom": -0.0 },
        "label": "In",
        "xyz": [0.97130593, 5.047045257500001, -1.3736307275000001]
      },
      {
        "species": [{ "element": "Pd", "occu": 1 }],
        "abc": [0.0, 0.65163154, 0.65163154],
        "properties": { "magmom": 0.0 },
        "label": "Pd",
        "xyz": [-2.5317289985947626, 4.3850851604483525, 3.5804070710326332]
      },
      {
        "species": [{ "element": "Pd", "occu": 1 }],
        "abc": [0.65163154, 0.65163154, 0.0],
        "properties": { "magmom": 0.0 },
        "label": "Pd",
        "xyz": [2.531731657251446, 4.385085166964668, -3.5804057482206075]
      },
      {
        "species": [{ "element": "Pd", "occu": 1 }],
        "abc": [1.0, 0.34836846, 0.34836846],
        "properties": { "magmom": 0.0 },
        "label": "Pd",
        "xyz": [6.416948648594762, 2.344308529551648, -0.8331425710326337]
      },
      {
        "species": [{ "element": "Pd", "occu": 1 }],
        "abc": [0.65163154, 0.0, 0.65163154],
        "properties": { "magmom": 0.0 },
        "label": "Pd",
        "xyz": [5.0634606688788395, 1.9548946199999998e-8, 3.5804070710326332]
      },
      {
        "species": [{ "element": "Pd", "occu": 1 }],
        "abc": [0.34836846, 1.0, 0.34836846],
        "properties": { "magmom": 0.0 },
        "label": "Pd",
        "xyz": [-1.1782410188788386, 6.729393670451054, -0.8331425710326337]
      },
      {
        "species": [{ "element": "Pd", "occu": 1 }],
        "abc": [0.34836846, 0.34836846, 1.0],
        "properties": { "magmom": 0.0 },
        "label": "Pd",
        "xyz": [1.3534879927485546, 2.344308523035333, 6.327670248220608]
      }
    ]
  },
  "task_ids": null,
  "uncorrected_energy_per_atom": null,
  "energy_per_atom": -23.1375285895,
  "formation_energy_per_atom": -0.44437924049999805,
  "energy_above_hull": 0.0,
  "is_stable": true,
  "equilibrium_reaction_energy_per_atom": null,
  "decomposes_to": null,
  "xas": null,
  "grain_boundaries": null,
  "band_gap": 0.0,
  "cbm": null,
  "vbm": null,
  "efermi": 7.25970964,
  "is_gap_direct": null,
  "is_metal": null,
  "es_source_calc_id": null,
  "bandstructure": null,
  "dos": null,
  "dos_energy_up": null,
  "dos_energy_down": null,
  "is_magnetic": null,
  "ordering": null,
  "total_magnetization": 1e-7,
  "total_magnetization_normalized_vol": null,
  "total_magnetization_normalized_formula_units": null,
  "num_magnetic_sites": null,
  "num_unique_magnetic_sites": null,
  "types_of_magnetic_species": null,
  "bulk_modulus": null,
  "shear_modulus": null,
  "universal_anisotropy": null,
  "homogeneous_poisson": null,
  "e_total": null,
  "e_ionic": null,
  "e_electronic": null,
  "n": null,
  "e_ij_max": null,
  "weighted_surface_energy_EV_PER_ANG2": null,
  "weighted_surface_energy": null,
  "weighted_work_function": null,
  "surface_anisotropy": null,
  "shape_factor": null,
  "has_reconstructed": null,
  "possible_species": null,
  "has_props": null,
  "theoretical": null,
  "database_IDs": null,
  "fields_not_requested": [
    "builder_meta",
    "nsites",
    "elements",
    "nelements",
    "composition",
    "composition_reduced",
    "chemsys",
    "symmetry",
    "property_name",
    "deprecated",
    "deprecation_reasons",
    "last_updated",
    "origins",
    "warnings",
    "task_ids",
    "uncorrected_energy_per_atom",
    "equilibrium_reaction_energy_per_atom",
    "decomposes_to",
    "xas",
    "grain_boundaries",
    "cbm",
    "vbm",
    "is_gap_direct",
    "is_metal",
    "es_source_calc_id",
    "bandstructure",
    "dos",
    "dos_energy_up",
    "dos_energy_down",
    "is_magnetic",
    "ordering",
    "total_magnetization_normalized_vol",
    "total_magnetization_normalized_formula_units",
    "num_magnetic_sites",
    "num_unique_magnetic_sites",
    "types_of_magnetic_species",
    "bulk_modulus",
    "shear_modulus",
    "universal_anisotropy",
    "homogeneous_poisson",
    "e_total",
    "e_ionic",
    "e_electronic",
    "n",
    "e_ij_max",
    "weighted_surface_energy_EV_PER_ANG2",
    "weighted_surface_energy",
    "weighted_work_function",
    "surface_anisotropy",
    "shape_factor",
    "has_reconstructed",
    "possible_species",
    "has_props",
    "theoretical",
    "database_IDs"
  ]
}
