{"builder_meta": null, "nsites": null, "elements": null, "nelements": null, "composition": null, "composition_reduced": null, "formula_pretty": "InAg4", "formula_anonymous": "AB4", "chemsys": null, "volume": 96.30592973098223, "density": 9.419328775062283, "density_atomic": 19.261185946196445, "symmetry": null, "property_name": null, "material_id": "mp-1223819", "deprecated": null, "deprecation_reasons": null, "last_updated": null, "origins": null, "warnings": null, "structure": {"@module": "pymatgen.core.structure", "@class": "Structure", "charge": 0, "lattice": {"matrix": [[12.007098, -1.52369, 0.0], [12.007098, 1.52369, 0.0], [11.813743, 0.0, 2.632015]], "pbc": [true, true, true], "a": 12.103389343390718, "b": 12.103389343390718, "c": 12.103389055561008, "alpha": 14.464252477614409, "beta": 14.464252477614409, "gamma": 14.464255853028089, "volume": 96.30592973098223}, "properties": {}, "sites": [{"species": [{"element": "In", "occu": 1}], "abc": [0.0, 0.0, 0.0], "properties": {"magmom": 0.0}, "label": "In", "xyz": [0.0, 0.0, 0.0]}, {"species": [{"element": "Ag", "occu": 1}], "abc": [0.597337, 0.597337, 0.597337], "properties": {"magmom": 0.0}, "label": "Ag", "xyz": [21.401353598443, 0.0, 1.572199944055]}, {"species": [{"element": "Ag", "occu": 1}], "abc": [0.199445999999999, 0.199445999999999, 0.199445999999999], "properties": {"magmom": -0.0}, "label": "Ag", "xyz": [7.145739121793964, 0.0, 0.5249448636899974]}, {"species": [{"element": "Ag", "occu": 1}], "abc": [0.800554, 0.800554, 0.800554], "properties": {"magmom": -0.0}, "label": "Ag", "xyz": [28.682199878206, 0.0, 2.10707013631]}, {"species": [{"element": "Ag", "occu": 1}], "abc": [0.402663, 0.402663, 0.402663], "properties": {"magmom": 0.0}, "label": "Ag", "xyz": [14.426585401556999, 0.0, 1.059815055945]}]}, "task_ids": null, "uncorrected_energy_per_atom": null, "energy_per_atom": -21.540995042333336, "formation_energy_per_atom": 0.059424749666666006, "energy_above_hull": 0.09995672866666501, "is_stable": false, "equilibrium_reaction_energy_per_atom": null, "decomposes_to": null, "xas": null, "grain_boundaries": null, "band_gap": 0.0, "cbm": null, "vbm": null, "efermi": 4.29615569, "is_gap_direct": null, "is_metal": null, "es_source_calc_id": null, "bandstructure": null, "dos": null, "dos_energy_up": null, "dos_energy_down": null, "is_magnetic": null, "ordering": null, "total_magnetization": 0.0017919, "total_magnetization_normalized_vol": null, "total_magnetization_normalized_formula_units": null, "num_magnetic_sites": null, "num_unique_magnetic_sites": null, "types_of_magnetic_species": null, "bulk_modulus": null, "shear_modulus": null, "universal_anisotropy": null, "homogeneous_poisson": null, "e_total": null, "e_ionic": null, "e_electronic": null, "n": null, "e_ij_max": null, "weighted_surface_energy_EV_PER_ANG2": null, "weighted_surface_energy": null, "weighted_work_function": null, "surface_anisotropy": null, "shape_factor": null, "has_reconstructed": null, "possible_species": null, "has_props": null, "theoretical": null, "database_IDs": null, "fields_not_requested": ["builder_meta", "nsites", "elements", "nelements", "composition", "composition_reduced", "chemsys", "symmetry", "property_name", "deprecated", "deprecation_reasons", "last_updated", "origins", "warnings", "task_ids", "uncorrected_energy_per_atom", "equilibrium_reaction_energy_per_atom", "decomposes_to", "xas", "grain_boundaries", "cbm", "vbm", "is_gap_direct", "is_metal", "es_source_calc_id", "bandstructure", "dos", "dos_energy_up", "dos_energy_down", "is_magnetic", "ordering", "total_magnetization_normalized_vol", "total_magnetization_normalized_formula_units", "num_magnetic_sites", "num_unique_magnetic_sites", "types_of_magnetic_species", "bulk_modulus", "shear_modulus", "universal_anisotropy", "homogeneous_poisson", "e_total", "e_ionic", "e_electronic", "n", "e_ij_max", "weighted_surface_energy_EV_PER_ANG2", "weighted_surface_energy", "weighted_work_function", "surface_anisotropy", "shape_factor", "has_reconstructed", "possible_species", "has_props", "theoretical", "database_IDs"]}