{
  "builder_meta": null,
  "nsites": null,
  "elements": null,
  "nelements": null,
  "composition": null,
  "composition_reduced": null,
  "formula_pretty": "InBr2",
  "formula_anonymous": "AB2",
  "chemsys": null,
  "volume": 873.7802042419324,
  "density": 4.175212022338988,
  "density_atomic": 36.40750851008052,
  "symmetry": null,
  "property_name": null,
  "material_id": "mp-568108",
  "deprecated": null,
  "deprecation_reasons": null,
  "last_updated": null,
  "origins": null,
  "warnings": null,
  "structure": {
    "@module": "pymatgen.core.structure",
    "@class": "Structure",
    "charge": 0,
    "lattice": {
      "matrix": [
        [7.99673514, -0.0, 0.0],
        [0.0, 10.39436981, 0.0],
        [0.0, 0.0, 10.51214458]
      ],
      "pbc": [true, true, true],
      "a": 7.99673514,
      "b": 10.39436981,
      "c": 10.51214458,
      "alpha": 90.0,
      "beta": 90.0,
      "gamma": 90.0,
      "volume": 873.7802042419324
    },
    "properties": {},
    "sites": [
      {
        "species": [{ "element": "In", "occu": 1 }],
        "abc": [0.75, 0.0, 0.81851499],
        "properties": { "magmom": 0.0 },
        "label": "In",
        "xyz": [5.997551355000001, 0.0, 8.604347915777254]
      },
      {
        "species": [{ "element": "In", "occu": 1 }],
        "abc": [0.32628456, 0.75, 0.75],
        "properties": { "magmom": -0.0 },
        "label": "In",
        "xyz": [2.6092112065914383, 7.7957773575000004, 7.884108435]
      },
      {
        "species": [{ "element": "In", "occu": 1 }],
        "abc": [0.25, 0.0, 0.18148501],
        "properties": { "magmom": 0.0 },
        "label": "In",
        "xyz": [1.999183785, 0.0, 1.9077966642227457]
      },
      {
        "species": [{ "element": "In", "occu": 1 }],
        "abc": [0.67371544, 0.25, 0.25],
        "properties": { "magmom": -0.0 },
        "label": "In",
        "xyz": [5.387523933408562, 2.5985924525, 2.628036145]
      },
      {
        "species": [{ "element": "In", "occu": 1 }],
        "abc": [0.17371544, 0.25, 0.75],
        "properties": { "magmom": -0.0 },
        "label": "In",
        "xyz": [1.3891563634085615, 2.5985924525, 7.884108435]
      },
      {
        "species": [{ "element": "In", "occu": 1 }],
        "abc": [0.25, 0.5, 0.31851499],
        "properties": { "magmom": 0.0 },
        "label": "In",
        "xyz": [1.999183785, 5.197184905, 3.348275625777254]
      },
      {
        "species": [{ "element": "In", "occu": 1 }],
        "abc": [0.8262845600000001, 0.75, 0.25],
        "properties": { "magmom": -0.0 },
        "label": "In",
        "xyz": [6.607578776591439, 7.7957773575000004, 2.628036145]
      },
      {
        "species": [{ "element": "In", "occu": 1 }],
        "abc": [0.75, 0.5, 0.6814850100000001],
        "properties": { "magmom": 0.0 },
        "label": "In",
        "xyz": [5.997551355000001, 5.197184905, 7.163868954222746]
      },
      {
        "species": [{ "element": "Br", "occu": 1 }],
        "abc": [0.49733228, 0.45364864, 0.81929088],
        "properties": { "magmom": -0.0 },
        "label": "Br",
        "xyz": [3.9770345197323196, 4.715391727963558, 8.61250418363543]
      },
      {
        "species": [{ "element": "Br", "occu": 1 }],
        "abc": [0.50266772, 0.5463513600000001, 0.18070912],
        "properties": { "magmom": -0.0 },
        "label": "Br",
        "xyz": [4.019700620267681, 5.678978082036442, 1.8996403963645694]
      },
      {
        "species": [{ "element": "Br", "occu": 1 }],
        "abc": [-0.00266772, 0.04635136, 0.31929088],
        "properties": { "magmom": -0.0 },
        "label": "Br",
        "xyz": [-0.0213330502676808, 0.48179317703644164, 3.3564318936354303]
      },
      {
        "species": [{ "element": "Br", "occu": 1 }],
        "abc": [0.8433994300000001, 0.31089941, 0.54762544],
        "properties": { "magmom": 0.0 },
        "label": "Br",
        "xyz": [6.744441858936971, 3.231603441250812, 5.756717800966115]
      },
      {
        "species": [{ "element": "Br", "occu": 1 }],
        "abc": [0.50266772, 0.95364864, 0.31929088],
        "properties": { "magmom": -0.0 },
        "label": "Br",
        "xyz": [4.019700620267681, 9.91257663296356, 3.3564318936354303]
      },
      {
        "species": [{ "element": "Br", "occu": 1 }],
        "abc": [0.34339943, 0.31089941, 0.45237456000000004],
        "properties": { "magmom": 0.0 },
        "label": "Br",
        "xyz": [2.7460742889369705, 3.231603441250812, 4.755426779033884]
      },
      {
        "species": [{ "element": "Br", "occu": 1 }],
        "abc": [0.8433994300000001, 0.18910059, 0.95237456],
        "properties": { "magmom": 0.0 },
        "label": "Br",
        "xyz": [6.744441858936971, 1.9655814637491882, 10.011499069033883]
      },
      {
        "species": [{ "element": "Br", "occu": 1 }],
        "abc": [0.34339943, 0.18910059, 0.04762544],
        "properties": { "magmom": 0.0 },
        "label": "Br",
        "xyz": [2.7460742889369705, 1.9655814637491882, 0.5006455109661151]
      },
      {
        "species": [{ "element": "Br", "occu": 1 }],
        "abc": [0.65660057, 0.81089941, 0.95237456],
        "properties": { "magmom": 0.0 },
        "label": "Br",
        "xyz": [5.250660851063031, 8.428788346250812, 10.011499069033883]
      },
      {
        "species": [{ "element": "Br", "occu": 1 }],
        "abc": [-0.00266772, 0.45364864, 0.18070912],
        "properties": { "magmom": -0.0 },
        "label": "Br",
        "xyz": [-0.0213330502676808, 4.715391727963558, 1.8996403963645694]
      },
      {
        "species": [{ "element": "Br", "occu": 1 }],
        "abc": [0.15660057, 0.81089941, 0.04762544],
        "properties": { "magmom": 0.0 },
        "label": "Br",
        "xyz": [1.2522932810630298, 8.428788346250812, 0.5006455109661151]
      },
      {
        "species": [{ "element": "Br", "occu": 1 }],
        "abc": [0.49733228, 0.04635136, 0.6807091200000001],
        "properties": { "magmom": -0.0 },
        "label": "Br",
        "xyz": [3.9770345197323196, 0.48179317703644164, 7.15571268636457]
      },
      {
        "species": [{ "element": "Br", "occu": 1 }],
        "abc": [0.65660057, 0.68910059, 0.54762544],
        "properties": { "magmom": 0.0 },
        "label": "Br",
        "xyz": [5.250660851063031, 7.162766368749188, 5.756717800966115]
      },
      {
        "species": [{ "element": "Br", "occu": 1 }],
        "abc": [0.00266772, 0.5463513600000001, 0.81929088],
        "properties": { "magmom": -0.0 },
        "label": "Br",
        "xyz": [0.0213330502676808, 5.678978082036442, 8.61250418363543]
      },
      {
        "species": [{ "element": "Br", "occu": 1 }],
        "abc": [0.15660057, 0.68910059, 0.45237456000000004],
        "properties": { "magmom": 0.0 },
        "label": "Br",
        "xyz": [1.2522932810630298, 7.162766368749188, 4.755426779033884]
      },
      {
        "species": [{ "element": "Br", "occu": 1 }],
        "abc": [0.00266772, 0.95364864, 0.6807091200000001],
        "properties": { "magmom": -0.0 },
        "label": "Br",
        "xyz": [0.0213330502676808, 9.91257663296356, 7.15571268636457]
      }
    ]
  },
  "task_ids": null,
  "uncorrected_energy_per_atom": null,
  "energy_per_atom": -3.163414759999999,
  "formation_energy_per_atom": -1.152392488888888,
  "energy_above_hull": 0.0,
  "is_stable": true,
  "equilibrium_reaction_energy_per_atom": null,
  "decomposes_to": null,
  "xas": null,
  "grain_boundaries": null,
  "band_gap": 2.4137,
  "cbm": null,
  "vbm": null,
  "efermi": -0.01985566,
  "is_gap_direct": null,
  "is_metal": null,
  "es_source_calc_id": null,
  "bandstructure": null,
  "dos": null,
  "dos_energy_up": null,
  "dos_energy_down": null,
  "is_magnetic": null,
  "ordering": null,
  "total_magnetization": 0.0,
  "total_magnetization_normalized_vol": null,
  "total_magnetization_normalized_formula_units": null,
  "num_magnetic_sites": null,
  "num_unique_magnetic_sites": null,
  "types_of_magnetic_species": null,
  "bulk_modulus": null,
  "shear_modulus": null,
  "universal_anisotropy": null,
  "homogeneous_poisson": null,
  "e_total": null,
  "e_ionic": null,
  "e_electronic": null,
  "n": null,
  "e_ij_max": null,
  "weighted_surface_energy_EV_PER_ANG2": null,
  "weighted_surface_energy": null,
  "weighted_work_function": null,
  "surface_anisotropy": null,
  "shape_factor": null,
  "has_reconstructed": null,
  "possible_species": null,
  "has_props": null,
  "theoretical": null,
  "database_IDs": null,
  "fields_not_requested": [
    "builder_meta",
    "nsites",
    "elements",
    "nelements",
    "composition",
    "composition_reduced",
    "chemsys",
    "symmetry",
    "property_name",
    "deprecated",
    "deprecation_reasons",
    "last_updated",
    "origins",
    "warnings",
    "task_ids",
    "uncorrected_energy_per_atom",
    "equilibrium_reaction_energy_per_atom",
    "decomposes_to",
    "xas",
    "grain_boundaries",
    "cbm",
    "vbm",
    "is_gap_direct",
    "is_metal",
    "es_source_calc_id",
    "bandstructure",
    "dos",
    "dos_energy_up",
    "dos_energy_down",
    "is_magnetic",
    "ordering",
    "total_magnetization_normalized_vol",
    "total_magnetization_normalized_formula_units",
    "num_magnetic_sites",
    "num_unique_magnetic_sites",
    "types_of_magnetic_species",
    "bulk_modulus",
    "shear_modulus",
    "universal_anisotropy",
    "homogeneous_poisson",
    "e_total",
    "e_ionic",
    "e_electronic",
    "n",
    "e_ij_max",
    "weighted_surface_energy_EV_PER_ANG2",
    "weighted_surface_energy",
    "weighted_work_function",
    "surface_anisotropy",
    "shape_factor",
    "has_reconstructed",
    "possible_species",
    "has_props",
    "theoretical",
    "database_IDs"
  ]
}
