{"builder_meta": null, "nsites": null, "elements": null, "nelements": null, "composition": null, "composition_reduced": null, "formula_pretty": "InBr3", "formula_anonymous": "AB3", "chemsys": null, "volume": 263.1236339364951, "density": 4.47478553312914, "density_atomic": 32.890454242061885, "symmetry": null, "property_name": null, "material_id": "mp-570219", "deprecated": null, "deprecation_reasons": null, "last_updated": null, "origins": null, "warnings": null, "structure": {"@module": "pymatgen.core.structure", "@class": "Structure", "charge": 0, "lattice": {"matrix": [[6.82083502, -0.04329352, 1.0913669], [1.68235265, 5.67085989, 3.3770289], [0.00405443, 0.03435266, 6.8092445999999995]], "pbc": [true, true, true], "a": 6.907730916107545, "b": 6.811261742321172, "c": 6.809332461136029, "alpha": 59.99062333990255, "beta": 80.87746740718748, "gamma": 71.51821213667516, "volume": 263.1236339364951}, "properties": {}, "sites": [{"species": [{"element": "In", "occu": 1}], "abc": [0.0, 0.83340557, 0.33318986], "properties": {"magmom": 0.0}, "label": "In", "xyz": [1.40343296417834, 4.737572176991615, 5.083205950290729]}, {"species": [{"element": "In", "occu": 1}], "abc": [-0.0, 0.16659443000000002, 0.66681014], "properties": {"magmom": 0.0}, "label": "In", "xyz": [0.2829741158216597, 0.9676403730083851, 5.103067549709271]}, {"species": [{"element": "Br", "occu": 1}], "abc": [0.23756409, 0.77566594, -0.0], "properties": {"magmom": 0.0}, "label": "Br", "xyz": [2.9253291142401725, 4.38840788150345, 2.878715880580287]}, {"species": [{"element": "Br", "occu": 1}], "abc": [0.76394202, 0.9271234700000001, 0.64905179], "properties": {"magmom": 0.0}, "label": "Br", "xyz": [6.7731026449461655, 5.24681021544317, 8.384216182383256]}, {"species": [{"element": "Br", "occu": 1}], "abc": [0.76243591, 0.22433406, 0.0], "properties": {"magmom": 0.0}, "label": "Br", "xyz": [5.577858555759827, 1.23915848849655, 1.5896799194197129]}, {"species": [{"element": "Br", "occu": 1}], "abc": [0.23605798, 0.07287653, 0.35094821], "properties": {"magmom": 0.0}, "label": "Br", "xyz": [1.7341394550538345, 0.41510881455683063, 2.8934242176167446]}, {"species": [{"element": "Br", "occu": 1}], "abc": [0.76394202, 0.57617525, 0.35094821], "properties": {"magmom": 0.0}, "label": "Br", "xyz": [6.181475336918523, 3.246391380249751, 5.169193708684029]}, {"species": [{"element": "Br", "occu": 1}], "abc": [0.23605798, 0.42382475000000003, 0.64905179], "properties": {"magmom": 0.0}, "label": "Br", "xyz": [2.325766763081477, 2.415527649750249, 6.1084466913159705]}]}, "task_ids": null, "uncorrected_energy_per_atom": null, "energy_per_atom": -3.15653166375, "formation_energy_per_atom": -1.239028326666666, "energy_above_hull": 0.0, "is_stable": true, "equilibrium_reaction_energy_per_atom": null, "decomposes_to": null, "xas": null, "grain_boundaries": null, "band_gap": 2.489, "cbm": null, "vbm": null, "efermi": -0.3502847, "is_gap_direct": null, "is_metal": null, "es_source_calc_id": null, "bandstructure": null, "dos": null, "dos_energy_up": null, "dos_energy_down": null, "is_magnetic": null, "ordering": null, "total_magnetization": 0.0, "total_magnetization_normalized_vol": null, "total_magnetization_normalized_formula_units": null, "num_magnetic_sites": null, "num_unique_magnetic_sites": null, "types_of_magnetic_species": null, "bulk_modulus": null, "shear_modulus": null, "universal_anisotropy": null, "homogeneous_poisson": null, "e_total": null, "e_ionic": null, "e_electronic": null, "n": null, "e_ij_max": null, "weighted_surface_energy_EV_PER_ANG2": null, "weighted_surface_energy": null, "weighted_work_function": null, "surface_anisotropy": null, "shape_factor": null, "has_reconstructed": null, "possible_species": null, "has_props": null, "theoretical": null, "database_IDs": null, "fields_not_requested": ["builder_meta", "nsites", "elements", "nelements", "composition", "composition_reduced", "chemsys", "symmetry", "property_name", "deprecated", "deprecation_reasons", "last_updated", "origins", "warnings", "task_ids", "uncorrected_energy_per_atom", "equilibrium_reaction_energy_per_atom", "decomposes_to", "xas", "grain_boundaries", "cbm", "vbm", "is_gap_direct", "is_metal", "es_source_calc_id", "bandstructure", "dos", "dos_energy_up", "dos_energy_down", "is_magnetic", "ordering", "total_magnetization_normalized_vol", "total_magnetization_normalized_formula_units", "num_magnetic_sites", "num_unique_magnetic_sites", "types_of_magnetic_species", "bulk_modulus", "shear_modulus", "universal_anisotropy", "homogeneous_poisson", "e_total", "e_ionic", "e_electronic", "n", "e_ij_max", "weighted_surface_energy_EV_PER_ANG2", "weighted_surface_energy", "weighted_work_function", "surface_anisotropy", "shape_factor", "has_reconstructed", "possible_species", "has_props", "theoretical", "database_IDs"]}