{
  "builder_meta": null,
  "nsites": null,
  "elements": null,
  "nelements": null,
  "composition": null,
  "composition_reduced": null,
  "formula_pretty": "InCl3",
  "formula_anonymous": "AB3",
  "chemsys": null,
  "volume": 271.6275306819937,
  "density": 2.704240238176526,
  "density_atomic": 33.95344133524921,
  "symmetry": null,
  "property_name": null,
  "material_id": "mp-862983",
  "deprecated": null,
  "deprecation_reasons": null,
  "last_updated": null,
  "origins": null,
  "warnings": null,
  "structure": {
    "@module": "pymatgen.core.structure",
    "@class": "Structure",
    "charge": 0,
    "lattice": {
      "matrix": [
        [9.58923572, 6.207000000000001e-5, -0.00028633],
        [-4.79456668, 8.30327789, 0.00025889],
        [-0.00010219, 4.4720000000000006e-5, 3.41144674]
      ],
      "pbc": [true, true, true],
      "a": 9.589235724475724,
      "b": 9.588132948314449,
      "c": 3.411446741823666,
      "alpha": 89.99694428253206,
      "beta": 90.0034271167276,
      "gamma": 120.00308072049565,
      "volume": 271.6275306819937
    },
    "properties": {},
    "sites": [
      {
        "species": [{ "element": "In", "occu": 1 }],
        "abc": [0.66664301, 0.33329749000000003, 0.2500017],
        "properties": { "magmom": -0.0 },
        "label": "In",
        "xyz": [4.79455437622496, 2.7675142381171516, 0.8527628919535908]
      },
      {
        "species": [{ "element": "In", "occu": 1 }],
        "abc": [0.33335582, 0.66669849, 0.75000149],
        "properties": { "magmom": -0.0 },
        "label": "In",
        "xyz": [2.0528201314199703e-5, 5.535837062775766, 2.5586672898557787]
      },
      {
        "species": [{ "element": "Cl", "occu": 1 }],
        "abc": [0.78180682, 0.21818732000000002, 0.75000029],
        "properties": { "magmom": 0.0 },
        "label": "Cl",
        "xyz": [6.450739587483478, 1.811752016796641, 2.558418676088059]
      },
      {
        "species": [{ "element": "Cl", "occu": 1 }],
        "abc": [0.43637656, 0.21818925, 0.74999791],
        "properties": { "magmom": -0.0 },
        "label": "Cl",
        "xyz": [3.138318146252111, 1.811746601160297, 2.5585094643908217]
      },
      {
        "species": [{ "element": "Cl", "occu": 1 }],
        "abc": [0.78179961, 0.5636060900000001, 0.75000565],
        "properties": { "magmom": -0.0 },
        "label": "Cl",
        "xyz": [4.794537123257614, 4.679860052320811, 2.5585263889723895]
      },
      {
        "species": [{ "element": "Cl", "occu": 1 }],
        "abc": [0.21819352, 0.78180978, 0.24999965000000002],
        "properties": { "magmom": 0.0 },
        "label": "Cl",
        "xyz": [-1.6561555728938293, 6.491608583715899, 0.8530004183770037]
      },
      {
        "species": [{ "element": "Cl", "occu": 1 }],
        "abc": [0.56362431, 0.78181517, 0.25000599],
        "properties": { "magmom": 0.0 },
        "label": "Cl",
        "xyz": [1.6562358539996993, 6.491674779556386, 0.8529231411466517]
      },
      {
        "species": [{ "element": "Cl", "occu": 1 }],
        "abc": [0.21819834000000002, 0.43639341, 0.24999634],
        "properties": { "magmom": 0.0 },
        "label": "Cl",
        "xyz": [1.2465889141692514e-5, 3.6235204760019935, 0.8528997002641543]
      }
    ]
  },
  "task_ids": null,
  "uncorrected_energy_per_atom": null,
  "energy_per_atom": -11.407516725,
  "formation_energy_per_atom": -1.148539956875,
  "energy_above_hull": 0.0,
  "is_stable": true,
  "equilibrium_reaction_energy_per_atom": null,
  "decomposes_to": null,
  "xas": null,
  "grain_boundaries": null,
  "band_gap": 3.0122,
  "cbm": null,
  "vbm": null,
  "efermi": -1.23111244,
  "is_gap_direct": null,
  "is_metal": null,
  "es_source_calc_id": null,
  "bandstructure": null,
  "dos": null,
  "dos_energy_up": null,
  "dos_energy_down": null,
  "is_magnetic": null,
  "ordering": null,
  "total_magnetization": 0.0,
  "total_magnetization_normalized_vol": null,
  "total_magnetization_normalized_formula_units": null,
  "num_magnetic_sites": null,
  "num_unique_magnetic_sites": null,
  "types_of_magnetic_species": null,
  "bulk_modulus": null,
  "shear_modulus": null,
  "universal_anisotropy": null,
  "homogeneous_poisson": null,
  "e_total": null,
  "e_ionic": null,
  "e_electronic": null,
  "n": null,
  "e_ij_max": null,
  "weighted_surface_energy_EV_PER_ANG2": null,
  "weighted_surface_energy": null,
  "weighted_work_function": null,
  "surface_anisotropy": null,
  "shape_factor": null,
  "has_reconstructed": null,
  "possible_species": null,
  "has_props": null,
  "theoretical": null,
  "database_IDs": null,
  "fields_not_requested": [
    "builder_meta",
    "nsites",
    "elements",
    "nelements",
    "composition",
    "composition_reduced",
    "chemsys",
    "symmetry",
    "property_name",
    "deprecated",
    "deprecation_reasons",
    "last_updated",
    "origins",
    "warnings",
    "task_ids",
    "uncorrected_energy_per_atom",
    "equilibrium_reaction_energy_per_atom",
    "decomposes_to",
    "xas",
    "grain_boundaries",
    "cbm",
    "vbm",
    "is_gap_direct",
    "is_metal",
    "es_source_calc_id",
    "bandstructure",
    "dos",
    "dos_energy_up",
    "dos_energy_down",
    "is_magnetic",
    "ordering",
    "total_magnetization_normalized_vol",
    "total_magnetization_normalized_formula_units",
    "num_magnetic_sites",
    "num_unique_magnetic_sites",
    "types_of_magnetic_species",
    "bulk_modulus",
    "shear_modulus",
    "universal_anisotropy",
    "homogeneous_poisson",
    "e_total",
    "e_ionic",
    "e_electronic",
    "n",
    "e_ij_max",
    "weighted_surface_energy_EV_PER_ANG2",
    "weighted_surface_energy",
    "weighted_work_function",
    "surface_anisotropy",
    "shape_factor",
    "has_reconstructed",
    "possible_species",
    "has_props",
    "theoretical",
    "database_IDs"
  ]
}
