{
  "builder_meta": null,
  "nsites": null,
  "elements": null,
  "nelements": null,
  "composition": null,
  "composition_reduced": null,
  "formula_pretty": "InCl2",
  "formula_anonymous": "AB2",
  "chemsys": null,
  "volume": 760.5527453756646,
  "density": 3.243977062528516,
  "density_atomic": 31.689697723986026,
  "symmetry": null,
  "property_name": null,
  "material_id": "mp-1212122",
  "deprecated": null,
  "deprecation_reasons": null,
  "last_updated": null,
  "origins": null,
  "warnings": null,
  "structure": {
    "@module": "pymatgen.core.structure",
    "@class": "Structure",
    "charge": 0,
    "lattice": {
      "matrix": [
        [-7.71044929, -0.0, 0.0],
        [0.0, 0.0, -9.94255728],
        [-0.0, -9.92091095, 0.0]
      ],
      "pbc": [true, true, true],
      "a": 7.71044929,
      "b": 9.94255728,
      "c": 9.92091095,
      "alpha": 90.0,
      "beta": 90.0,
      "gamma": 90.0,
      "volume": 760.5527453756646
    },
    "properties": {},
    "sites": [
      {
        "species": [{ "element": "In", "occu": 1 }],
        "abc": [0.75, 0.81380982, -0.0],
        "properties": { "magmom": -0.0 },
        "label": "In",
        "xyz": [-5.7828369675, 0.0, -8.09135075037649]
      },
      {
        "species": [{ "element": "In", "occu": 1 }],
        "abc": [0.25, 0.18619018, -0.0],
        "properties": { "magmom": -0.0 },
        "label": "In",
        "xyz": [-1.9276123225, 0.0, -1.8512065296235107]
      },
      {
        "species": [{ "element": "In", "occu": 1 }],
        "abc": [0.75, 0.68619018, 0.5],
        "properties": { "magmom": -0.0 },
        "label": "In",
        "xyz": [-5.7828369675, -4.960455475, -6.822485169623511]
      },
      {
        "species": [{ "element": "In", "occu": 1 }],
        "abc": [0.25, 0.31380982, 0.5],
        "properties": { "magmom": -0.0 },
        "label": "In",
        "xyz": [-1.9276123225, -4.960455475, -3.12007211037649]
      },
      {
        "species": [{ "element": "In", "occu": 1 }],
        "abc": [0.31167595, 0.75, 0.75],
        "properties": { "magmom": -0.0 },
        "label": "In",
        "xyz": [-2.4031616073875752, -7.4406832125, -7.45691796]
      },
      {
        "species": [{ "element": "In", "occu": 1 }],
        "abc": [0.68832405, 0.25, 0.25],
        "properties": { "magmom": -0.0 },
        "label": "In",
        "xyz": [-5.307287682612424, -2.4802277375, -2.48563932]
      },
      {
        "species": [{ "element": "In", "occu": 1 }],
        "abc": [0.18832405, 0.75, 0.25],
        "properties": { "magmom": -0.0 },
        "label": "In",
        "xyz": [-1.4520630376124244, -2.4802277375, -7.45691796]
      },
      {
        "species": [{ "element": "In", "occu": 1 }],
        "abc": [0.81167595, 0.25, 0.75],
        "properties": { "magmom": -0.0 },
        "label": "In",
        "xyz": [-6.2583862523875755, -7.4406832125, -2.48563932]
      },
      {
        "species": [{ "element": "Cl", "occu": 1 }],
        "abc": [-0.0006205, 0.68058017, 0.95263279],
        "properties": { "magmom": 0.0 },
        "label": "Cl",
        "xyz": [0.004784333784444999, -9.45098507764005, -6.766707323857139]
      },
      {
        "species": [{ "element": "Cl", "occu": 1 }],
        "abc": [0.0006205, 0.31941983, 0.04736721],
        "properties": { "magmom": 0.0 },
        "label": "Cl",
        "xyz": [-0.004784333784444999, -0.4699258723599495, -3.175849956142863]
      },
      {
        "species": [{ "element": "Cl", "occu": 1 }],
        "abc": [0.5006205, 0.68058017, 0.04736721],
        "properties": { "magmom": 0.0 },
        "label": "Cl",
        "xyz": [-3.860008978784445, -0.4699258723599495, -6.766707323857139]
      },
      {
        "species": [{ "element": "Cl", "occu": 1 }],
        "abc": [0.5006205, 0.8194198300000001, 0.45263279],
        "properties": { "magmom": 0.0 },
        "label": "Cl",
        "xyz": [-3.860008978784445, -4.49052960264005, -8.147128596142863]
      },
      {
        "species": [{ "element": "Cl", "occu": 1 }],
        "abc": [0.4993795, 0.31941983, 0.95263279],
        "properties": { "magmom": 0.0 },
        "label": "Cl",
        "xyz": [-3.8504403112155545, -9.45098507764005, -3.175849956142863]
      },
      {
        "species": [{ "element": "Cl", "occu": 1 }],
        "abc": [0.4993795, 0.18058017, 0.54736721],
        "properties": { "magmom": 0.0 },
        "label": "Cl",
        "xyz": [-3.8504403112155545, -5.430381347359949, -1.7954286838571378]
      },
      {
        "species": [{ "element": "Cl", "occu": 1 }],
        "abc": [-0.0006205, 0.8194198300000001, 0.54736721],
        "properties": { "magmom": 0.0 },
        "label": "Cl",
        "xyz": [0.004784333784444999, -5.430381347359949, -8.147128596142863]
      },
      {
        "species": [{ "element": "Cl", "occu": 1 }],
        "abc": [0.0006205, 0.18058017, 0.45263279],
        "properties": { "magmom": 0.0 },
        "label": "Cl",
        "xyz": [-0.004784333784444999, -4.49052960264005, -1.7954286838571378]
      },
      {
        "species": [{ "element": "Cl", "occu": 1 }],
        "abc": [0.65998161, 0.9477692600000001, 0.81346662],
        "properties": { "magmom": 0.0 },
        "label": "Cl",
        "xyz": [-5.088754736237557, -8.070329897817489, -9.423250155773214]
      },
      {
        "species": [{ "element": "Cl", "occu": 1 }],
        "abc": [0.34001839, 0.05223074, 0.18653338],
        "properties": { "magmom": 0.0 },
        "label": "Cl",
        "xyz": [-2.621694553762443, -1.850581052182511, -0.5193071242267873]
      },
      {
        "species": [{ "element": "Cl", "occu": 1 }],
        "abc": [0.84001839, 0.9477692600000001, 0.18653338],
        "properties": { "magmom": 0.0 },
        "label": "Cl",
        "xyz": [-6.476919198762443, -1.850581052182511, -9.423250155773214]
      },
      {
        "species": [{ "element": "Cl", "occu": 1 }],
        "abc": [0.84001839, 0.55223074, 0.31346662000000003],
        "properties": { "magmom": 0.0 },
        "label": "Cl",
        "xyz": [-6.476919198762443, -3.109874422817489, -5.490585764226788]
      },
      {
        "species": [{ "element": "Cl", "occu": 1 }],
        "abc": [0.15998161, 0.05223074, 0.81346662],
        "properties": { "magmom": 0.0 },
        "label": "Cl",
        "xyz": [-1.2335300912375569, -8.070329897817489, -0.5193071242267873]
      },
      {
        "species": [{ "element": "Cl", "occu": 1 }],
        "abc": [0.15998161, 0.44776926, 0.68653338],
        "properties": { "magmom": 0.0 },
        "label": "Cl",
        "xyz": [-1.2335300912375569, -6.811036527182511, -4.451971515773213]
      },
      {
        "species": [{ "element": "Cl", "occu": 1 }],
        "abc": [0.65998161, 0.55223074, 0.68653338],
        "properties": { "magmom": 0.0 },
        "label": "Cl",
        "xyz": [-5.088754736237557, -6.811036527182511, -5.490585764226788]
      },
      {
        "species": [{ "element": "Cl", "occu": 1 }],
        "abc": [0.34001839, 0.44776926, 0.31346662000000003],
        "properties": { "magmom": 0.0 },
        "label": "Cl",
        "xyz": [-2.621694553762443, -3.109874422817489, -4.451971515773213]
      }
    ]
  },
  "task_ids": null,
  "uncorrected_energy_per_atom": null,
  "energy_per_atom": -12.770075725,
  "formation_energy_per_atom": -1.142252999999999,
  "energy_above_hull": 0.0,
  "is_stable": true,
  "equilibrium_reaction_energy_per_atom": null,
  "decomposes_to": null,
  "xas": null,
  "grain_boundaries": null,
  "band_gap": 3.0226,
  "cbm": null,
  "vbm": null,
  "efermi": 3.07591005,
  "is_gap_direct": null,
  "is_metal": null,
  "es_source_calc_id": null,
  "bandstructure": null,
  "dos": null,
  "dos_energy_up": null,
  "dos_energy_down": null,
  "is_magnetic": null,
  "ordering": null,
  "total_magnetization": 0.0,
  "total_magnetization_normalized_vol": null,
  "total_magnetization_normalized_formula_units": null,
  "num_magnetic_sites": null,
  "num_unique_magnetic_sites": null,
  "types_of_magnetic_species": null,
  "bulk_modulus": null,
  "shear_modulus": null,
  "universal_anisotropy": null,
  "homogeneous_poisson": null,
  "e_total": null,
  "e_ionic": null,
  "e_electronic": null,
  "n": null,
  "e_ij_max": null,
  "weighted_surface_energy_EV_PER_ANG2": null,
  "weighted_surface_energy": null,
  "weighted_work_function": null,
  "surface_anisotropy": null,
  "shape_factor": null,
  "has_reconstructed": null,
  "possible_species": null,
  "has_props": null,
  "theoretical": null,
  "database_IDs": null,
  "fields_not_requested": [
    "builder_meta",
    "nsites",
    "elements",
    "nelements",
    "composition",
    "composition_reduced",
    "chemsys",
    "symmetry",
    "property_name",
    "deprecated",
    "deprecation_reasons",
    "last_updated",
    "origins",
    "warnings",
    "task_ids",
    "uncorrected_energy_per_atom",
    "equilibrium_reaction_energy_per_atom",
    "decomposes_to",
    "xas",
    "grain_boundaries",
    "cbm",
    "vbm",
    "is_gap_direct",
    "is_metal",
    "es_source_calc_id",
    "bandstructure",
    "dos",
    "dos_energy_up",
    "dos_energy_down",
    "is_magnetic",
    "ordering",
    "total_magnetization_normalized_vol",
    "total_magnetization_normalized_formula_units",
    "num_magnetic_sites",
    "num_unique_magnetic_sites",
    "types_of_magnetic_species",
    "bulk_modulus",
    "shear_modulus",
    "universal_anisotropy",
    "homogeneous_poisson",
    "e_total",
    "e_ionic",
    "e_electronic",
    "n",
    "e_ij_max",
    "weighted_surface_energy_EV_PER_ANG2",
    "weighted_surface_energy",
    "weighted_work_function",
    "surface_anisotropy",
    "shape_factor",
    "has_reconstructed",
    "possible_species",
    "has_props",
    "theoretical",
    "database_IDs"
  ]
}
