{
  "builder_meta": null,
  "nsites": null,
  "elements": null,
  "nelements": null,
  "composition": null,
  "composition_reduced": null,
  "formula_pretty": "InCl",
  "formula_anonymous": "AB",
  "chemsys": null,
  "volume": 1875.7302000224524,
  "density": 4.257002267367651,
  "density_atomic": 29.30828437535082,
  "symmetry": null,
  "property_name": null,
  "material_id": "mp-23276",
  "deprecated": null,
  "deprecation_reasons": null,
  "last_updated": null,
  "origins": null,
  "warnings": null,
  "structure": {
    "@module": "pymatgen.core.structure",
    "@class": "Structure",
    "charge": 0,
    "lattice": {
      "matrix": [
        [12.3326609, -0.0, -0.0],
        [-0.0, 12.3326609, -0.0],
        [-0.0, 0.0, 12.3326609]
      ],
      "pbc": [true, true, true],
      "a": 12.3326609,
      "b": 12.3326609,
      "c": 12.3326609,
      "alpha": 90.0,
      "beta": 90.0,
      "gamma": 90.0,
      "volume": 1875.7302000224524
    },
    "properties": {},
    "sites": [
      {
        "species": [{ "element": "In", "occu": 1 }],
        "abc": [0.24836645000000002, 0.2181271, 0.97129643],
        "properties": { "magmom": -0.0 },
        "label": "In",
        "xyz": [3.063019206786805, 2.69008755740039, 11.978669504570588]
      },
      {
        "species": [{ "element": "In", "occu": 1 }],
        "abc": [0.97129643, 0.24836645000000002, 0.2181271],
        "properties": { "magmom": -0.0 },
        "label": "In",
        "xyz": [11.978669504570588, 3.063019206786805, 2.69008755740039]
      },
      {
        "species": [{ "element": "In", "occu": 1 }],
        "abc": [0.2181271, 0.97129643, 0.24836645000000002],
        "properties": { "magmom": -0.0 },
        "label": "In",
        "xyz": [2.69008755740039, 11.978669504570588, 3.063019206786805]
      },
      {
        "species": [{ "element": "In", "occu": 1 }],
        "abc": [0.2818729, 0.02870357, 0.74836645],
        "properties": { "magmom": -0.0 },
        "label": "In",
        "xyz": [3.47624289259961, 0.35399139542941305, 9.229349656786805]
      },
      {
        "species": [{ "element": "In", "occu": 1 }],
        "abc": [0.47129643, 0.25163355, 0.7818729],
        "properties": { "magmom": -0.0 },
        "label": "In",
        "xyz": [5.812339054570587, 3.103311243213195, 9.64257334259961]
      },
      {
        "species": [{ "element": "In", "occu": 1 }],
        "abc": [0.7818729, 0.47129643, 0.25163355],
        "properties": { "magmom": -0.0 },
        "label": "In",
        "xyz": [9.64257334259961, 5.812339054570587, 3.103311243213195]
      },
      {
        "species": [{ "element": "In", "occu": 1 }],
        "abc": [0.52870357, 0.75163355, 0.7181271],
        "properties": { "magmom": -0.0 },
        "label": "In",
        "xyz": [6.520321845429414, 9.269641693213195, 8.856418007400391]
      },
      {
        "species": [{ "element": "In", "occu": 1 }],
        "abc": [0.02870357, 0.74836645, 0.2818729],
        "properties": { "magmom": -0.0 },
        "label": "In",
        "xyz": [0.35399139542941305, 9.229349656786805, 3.47624289259961]
      },
      {
        "species": [{ "element": "In", "occu": 1 }],
        "abc": [0.7181271, 0.52870357, 0.75163355],
        "properties": { "magmom": -0.0 },
        "label": "In",
        "xyz": [8.856418007400391, 6.520321845429414, 9.269641693213195]
      },
      {
        "species": [{ "element": "In", "occu": 1 }],
        "abc": [0.74836645, 0.2818729, 0.02870357],
        "properties": { "magmom": -0.0 },
        "label": "In",
        "xyz": [9.229349656786805, 3.47624289259961, 0.35399139542941305]
      },
      {
        "species": [{ "element": "In", "occu": 1 }],
        "abc": [0.75163355, 0.7181271, 0.52870357],
        "properties": { "magmom": -0.0 },
        "label": "In",
        "xyz": [9.269641693213195, 8.856418007400391, 6.520321845429414]
      },
      {
        "species": [{ "element": "In", "occu": 1 }],
        "abc": [0.25163355, 0.7818729, 0.47129643],
        "properties": { "magmom": -0.0 },
        "label": "In",
        "xyz": [3.103311243213195, 9.64257334259961, 5.812339054570587]
      },
      {
        "species": [{ "element": "In", "occu": 1 }],
        "abc": [0.75097631, 0.77786565, 0.030354],
        "properties": { "magmom": -0.0 },
        "label": "In",
        "xyz": [9.261536175163279, 9.593153287208086, 0.3743455889586]
      },
      {
        "species": [{ "element": "In", "occu": 1 }],
        "abc": [0.030354, 0.75097631, 0.77786565],
        "properties": { "magmom": -0.0 },
        "label": "In",
        "xyz": [0.3743455889586, 9.261536175163279, 9.593153287208086]
      },
      {
        "species": [{ "element": "In", "occu": 1 }],
        "abc": [0.77786565, 0.030354, 0.75097631],
        "properties": { "magmom": -0.0 },
        "label": "In",
        "xyz": [9.593153287208086, 0.3743455889586, 9.261536175163279]
      },
      {
        "species": [{ "element": "In", "occu": 1 }],
        "abc": [0.72213435, 0.969646, 0.25097631],
        "properties": { "magmom": -0.0 },
        "label": "In",
        "xyz": [8.905838062791915, 11.958315311041401, 3.0952057251632787]
      },
      {
        "species": [{ "element": "In", "occu": 1 }],
        "abc": [0.530354, 0.74902369, 0.22213435],
        "properties": { "magmom": -0.0 },
        "label": "In",
        "xyz": [6.5406760389586, 9.237455174836722, 2.739507612791915]
      },
      {
        "species": [{ "element": "In", "occu": 1 }],
        "abc": [0.22213435, 0.530354, 0.74902369],
        "properties": { "magmom": -0.0 },
        "label": "In",
        "xyz": [2.739507612791915, 6.5406760389586, 9.237455174836722]
      },
      {
        "species": [{ "element": "In", "occu": 1 }],
        "abc": [0.46964599999999906, 0.24902369, 0.27786565],
        "properties": { "magmom": -0.0 },
        "label": "In",
        "xyz": [5.791984861041389, 3.071124724836721, 3.4268228372080856]
      },
      {
        "species": [{ "element": "In", "occu": 1 }],
        "abc": [0.969646, 0.25097631, 0.72213435],
        "properties": { "magmom": -0.0 },
        "label": "In",
        "xyz": [11.958315311041401, 3.0952057251632787, 8.905838062791915]
      },
      {
        "species": [{ "element": "In", "occu": 1 }],
        "abc": [0.27786565, 0.46964599999999906, 0.24902369],
        "properties": { "magmom": -0.0 },
        "label": "In",
        "xyz": [3.4268228372080856, 5.791984861041389, 3.071124724836721]
      },
      {
        "species": [{ "element": "In", "occu": 1 }],
        "abc": [0.25097631, 0.72213435, 0.969646],
        "properties": { "magmom": -0.0 },
        "label": "In",
        "xyz": [3.0952057251632787, 8.905838062791915, 11.958315311041401]
      },
      {
        "species": [{ "element": "In", "occu": 1 }],
        "abc": [0.24902369, 0.27786565, 0.46964599999999906],
        "properties": { "magmom": -0.0 },
        "label": "In",
        "xyz": [3.071124724836721, 3.4268228372080856, 5.791984861041389]
      },
      {
        "species": [{ "element": "In", "occu": 1 }],
        "abc": [0.74902369, 0.22213435, 0.530354],
        "properties": { "magmom": -0.0 },
        "label": "In",
        "xyz": [9.237455174836722, 2.739507612791915, 6.5406760389586]
      },
      {
        "species": [{ "element": "In", "occu": 1 }],
        "abc": [0.03037994, 0.03037994, 0.03037994],
        "properties": { "magmom": 0.0 },
        "label": "In",
        "xyz": [0.374665498182346, 0.374665498182346, 0.374665498182346]
      },
      {
        "species": [{ "element": "In", "occu": 1 }],
        "abc": [0.46962006, 0.96962006, 0.53037994],
        "properties": { "magmom": 0.0 },
        "label": "In",
        "xyz": [5.791664951817654, 11.957995401817655, 6.5409959481823465]
      },
      {
        "species": [{ "element": "In", "occu": 1 }],
        "abc": [0.53037994, 0.46962006, 0.96962006],
        "properties": { "magmom": 0.0 },
        "label": "In",
        "xyz": [6.5409959481823465, 5.791664951817654, 11.957995401817655]
      },
      {
        "species": [{ "element": "In", "occu": 1 }],
        "abc": [0.96962006, 0.53037994, 0.46962006],
        "properties": { "magmom": 0.0 },
        "label": "In",
        "xyz": [11.957995401817655, 6.5409959481823465, 5.791664951817654]
      },
      {
        "species": [{ "element": "In", "occu": 1 }],
        "abc": [0.46472519, 0.46472519, 0.46472519],
        "properties": { "magmom": 0.0 },
        "label": "In",
        "xyz": [5.731298179958071, 5.731298179958071, 5.731298179958071]
      },
      {
        "species": [{ "element": "In", "occu": 1 }],
        "abc": [0.035274810000000004, 0.53527481, 0.96472519],
        "properties": { "magmom": 0.0 },
        "label": "In",
        "xyz": [0.43503227004192907, 6.601362720041929, 11.897628629958072]
      },
      {
        "species": [{ "element": "In", "occu": 1 }],
        "abc": [0.96472519, 0.035274810000000004, 0.53527481],
        "properties": { "magmom": 0.0 },
        "label": "In",
        "xyz": [11.897628629958072, 0.43503227004192907, 6.601362720041929]
      },
      {
        "species": [{ "element": "In", "occu": 1 }],
        "abc": [0.53527481, 0.96472519, 0.035274810000000004],
        "properties": { "magmom": 0.0 },
        "label": "In",
        "xyz": [6.601362720041929, 11.897628629958072, 0.43503227004192907]
      },
      {
        "species": [{ "element": "Cl", "occu": 1 }],
        "abc": [0.94614019, 0.00142713, 0.30381398],
        "properties": { "magmom": 0.0 },
        "label": "Cl",
        "xyz": [11.668426127131571, 0.017600310350217, 3.746834792019382]
      },
      {
        "species": [{ "element": "Cl", "occu": 1 }],
        "abc": [0.30381398, 0.94614019, 0.00142713],
        "properties": { "magmom": 0.0 },
        "label": "Cl",
        "xyz": [3.746834792019382, 11.668426127131571, 0.017600310350217]
      },
      {
        "species": [{ "element": "Cl", "occu": 1 }],
        "abc": [0.00142713, 0.30381398, 0.94614019],
        "properties": { "magmom": 0.0 },
        "label": "Cl",
        "xyz": [0.017600310350217, 3.746834792019382, 11.668426127131571]
      },
      {
        "species": [{ "element": "Cl", "occu": 1 }],
        "abc": [0.49857287, 0.69618602, 0.44614019],
        "properties": { "magmom": 0.0 },
        "label": "Cl",
        "xyz": [6.148730139649783, 8.585826107980617, 5.502095677131571]
      },
      {
        "species": [{ "element": "Cl", "occu": 1 }],
        "abc": [0.80381398, 0.5538598100000001, 0.9985728700000001],
        "properties": { "magmom": 0.0 },
        "label": "Cl",
        "xyz": [9.913165242019383, 6.83056522286843, 12.315060589649784]
      },
      {
        "species": [{ "element": "Cl", "occu": 1 }],
        "abc": [0.9985728700000001, 0.80381398, 0.5538598100000001],
        "properties": { "magmom": 0.0 },
        "label": "Cl",
        "xyz": [12.315060589649784, 9.913165242019383, 6.83056522286843]
      },
      {
        "species": [{ "element": "Cl", "occu": 1 }],
        "abc": [0.19618602000000002, 0.05385981, 0.50142713],
        "properties": { "magmom": 0.0 },
        "label": "Cl",
        "xyz": [2.4194956579806184, 0.664234772868429, 6.183930760350218]
      },
      {
        "species": [{ "element": "Cl", "occu": 1 }],
        "abc": [0.69618602, 0.44614019, 0.49857287],
        "properties": { "magmom": 0.0 },
        "label": "Cl",
        "xyz": [8.585826107980617, 5.502095677131571, 6.148730139649783]
      },
      {
        "species": [{ "element": "Cl", "occu": 1 }],
        "abc": [0.50142713, 0.19618602000000002, 0.05385981],
        "properties": { "magmom": 0.0 },
        "label": "Cl",
        "xyz": [6.183930760350218, 2.4194956579806184, 0.664234772868429]
      },
      {
        "species": [{ "element": "Cl", "occu": 1 }],
        "abc": [0.44614019, 0.49857287, 0.69618602],
        "properties": { "magmom": 0.0 },
        "label": "Cl",
        "xyz": [5.502095677131571, 6.148730139649783, 8.585826107980617]
      },
      {
        "species": [{ "element": "Cl", "occu": 1 }],
        "abc": [0.05385981, 0.50142713, 0.19618602000000002],
        "properties": { "magmom": 0.0 },
        "label": "Cl",
        "xyz": [0.664234772868429, 6.183930760350218, 2.4194956579806184]
      },
      {
        "species": [{ "element": "Cl", "occu": 1 }],
        "abc": [0.5538598100000001, 0.9985728700000001, 0.80381398],
        "properties": { "magmom": 0.0 },
        "label": "Cl",
        "xyz": [6.83056522286843, 12.315060589649784, 9.913165242019383]
      },
      {
        "species": [{ "element": "Cl", "occu": 1 }],
        "abc": [0.05985115, 0.98419576, 0.8038205700000001],
        "properties": { "magmom": -0.0 },
        "label": "Cl",
        "xyz": [0.738123937425035, 12.137752567297785, 9.913246514254714]
      },
      {
        "species": [{ "element": "Cl", "occu": 1 }],
        "abc": [0.8038205700000001, 0.05985115, 0.98419576],
        "properties": { "magmom": -0.0 },
        "label": "Cl",
        "xyz": [9.913246514254714, 0.738123937425035, 12.137752567297785]
      },
      {
        "species": [{ "element": "Cl", "occu": 1 }],
        "abc": [0.98419576, 0.8038205700000001, 0.05985115],
        "properties": { "magmom": -0.0 },
        "label": "Cl",
        "xyz": [12.137752567297785, 9.913246514254714, 0.738123937425035]
      },
      {
        "species": [{ "element": "Cl", "occu": 1 }],
        "abc": [0.51580424, 0.19617943000000002, 0.55985115],
        "properties": { "magmom": -0.0 },
        "label": "Cl",
        "xyz": [6.361238782702217, 2.4194143857452874, 6.904454387425035]
      },
      {
        "species": [{ "element": "Cl", "occu": 1 }],
        "abc": [0.30382057, 0.44014885000000004, 0.01580424],
        "properties": { "magmom": -0.0 },
        "label": "Cl",
        "xyz": [3.7469160642547132, 5.428206512574966, 0.19490833270221603]
      },
      {
        "species": [{ "element": "Cl", "occu": 1 }],
        "abc": [0.01580424, 0.30382057, 0.44014885000000004],
        "properties": { "magmom": -0.0 },
        "label": "Cl",
        "xyz": [0.19490833270221603, 3.7469160642547132, 5.428206512574966]
      },
      {
        "species": [{ "element": "Cl", "occu": 1 }],
        "abc": [0.69617943, 0.94014885, 0.48419576000000003],
        "properties": { "magmom": -0.0 },
        "label": "Cl",
        "xyz": [8.585744835745288, 11.594536962574965, 5.971422117297784]
      },
      {
        "species": [{ "element": "Cl", "occu": 1 }],
        "abc": [0.19617943000000002, 0.55985115, 0.51580424],
        "properties": { "magmom": -0.0 },
        "label": "Cl",
        "xyz": [2.4194143857452874, 6.904454387425035, 6.361238782702217]
      },
      {
        "species": [{ "element": "Cl", "occu": 1 }],
        "abc": [0.48419576000000003, 0.69617943, 0.94014885],
        "properties": { "magmom": -0.0 },
        "label": "Cl",
        "xyz": [5.971422117297784, 8.585744835745288, 11.594536962574965]
      },
      {
        "species": [{ "element": "Cl", "occu": 1 }],
        "abc": [0.55985115, 0.51580424, 0.19617943000000002],
        "properties": { "magmom": -0.0 },
        "label": "Cl",
        "xyz": [6.904454387425035, 6.361238782702217, 2.4194143857452874]
      },
      {
        "species": [{ "element": "Cl", "occu": 1 }],
        "abc": [0.94014885, 0.48419576000000003, 0.69617943],
        "properties": { "magmom": -0.0 },
        "label": "Cl",
        "xyz": [11.594536962574965, 5.971422117297784, 8.585744835745288]
      },
      {
        "species": [{ "element": "Cl", "occu": 1 }],
        "abc": [0.44014885000000004, 0.01580424, 0.30382057],
        "properties": { "magmom": -0.0 },
        "label": "Cl",
        "xyz": [5.428206512574966, 0.19490833270221603, 3.7469160642547132]
      },
      {
        "species": [{ "element": "Cl", "occu": 1 }],
        "abc": [0.20500252, 0.20500252, 0.20500252],
        "properties": { "magmom": -0.0 },
        "label": "Cl",
        "xyz": [2.528226562805468, 2.528226562805468, 2.528226562805468]
      },
      {
        "species": [{ "element": "Cl", "occu": 1 }],
        "abc": [0.29499748, 0.79499748, 0.70500252],
        "properties": { "magmom": -0.0 },
        "label": "Cl",
        "xyz": [3.6381038871945317, 9.804434337194532, 8.694557012805468]
      },
      {
        "species": [{ "element": "Cl", "occu": 1 }],
        "abc": [0.70500252, 0.29499748, 0.79499748],
        "properties": { "magmom": -0.0 },
        "label": "Cl",
        "xyz": [8.694557012805468, 3.6381038871945317, 9.804434337194532]
      },
      {
        "species": [{ "element": "Cl", "occu": 1 }],
        "abc": [0.79499748, 0.70500252, 0.29499748],
        "properties": { "magmom": -0.0 },
        "label": "Cl",
        "xyz": [9.804434337194532, 8.694557012805468, 3.6381038871945317]
      },
      {
        "species": [{ "element": "Cl", "occu": 1 }],
        "abc": [0.8019219200000001, 0.8019219200000001, 0.8019219200000001],
        "properties": { "magmom": 0.0 },
        "label": "Cl",
        "xyz": [9.88983110763693, 9.88983110763693, 9.88983110763693]
      },
      {
        "species": [{ "element": "Cl", "occu": 1 }],
        "abc": [0.69807808, 0.19807808000000002, 0.30192192],
        "properties": { "magmom": 0.0 },
        "label": "Cl",
        "xyz": [8.609160242363073, 2.442829792363072, 3.723500657636928]
      },
      {
        "species": [{ "element": "Cl", "occu": 1 }],
        "abc": [0.30192192, 0.69807808, 0.19807808000000002],
        "properties": { "magmom": 0.0 },
        "label": "Cl",
        "xyz": [3.723500657636928, 8.609160242363073, 2.442829792363072]
      },
      {
        "species": [{ "element": "Cl", "occu": 1 }],
        "abc": [0.19807808000000002, 0.30192192, 0.69807808],
        "properties": { "magmom": 0.0 },
        "label": "Cl",
        "xyz": [2.442829792363072, 3.723500657636928, 8.609160242363073]
      }
    ]
  },
  "task_ids": null,
  "uncorrected_energy_per_atom": null,
  "energy_per_atom": -15.276190633125,
  "formation_energy_per_atom": -0.910675994374999,
  "energy_above_hull": 0.0,
  "is_stable": true,
  "equilibrium_reaction_energy_per_atom": null,
  "decomposes_to": null,
  "xas": null,
  "grain_boundaries": null,
  "band_gap": 2.2049,
  "cbm": null,
  "vbm": null,
  "efermi": 2.73114401,
  "is_gap_direct": null,
  "is_metal": null,
  "es_source_calc_id": null,
  "bandstructure": null,
  "dos": null,
  "dos_energy_up": null,
  "dos_energy_down": null,
  "is_magnetic": null,
  "ordering": null,
  "total_magnetization": 0.0,
  "total_magnetization_normalized_vol": null,
  "total_magnetization_normalized_formula_units": null,
  "num_magnetic_sites": null,
  "num_unique_magnetic_sites": null,
  "types_of_magnetic_species": null,
  "bulk_modulus": null,
  "shear_modulus": null,
  "universal_anisotropy": null,
  "homogeneous_poisson": null,
  "e_total": null,
  "e_ionic": null,
  "e_electronic": null,
  "n": null,
  "e_ij_max": null,
  "weighted_surface_energy_EV_PER_ANG2": null,
  "weighted_surface_energy": null,
  "weighted_work_function": null,
  "surface_anisotropy": null,
  "shape_factor": null,
  "has_reconstructed": null,
  "possible_species": null,
  "has_props": null,
  "theoretical": null,
  "database_IDs": null,
  "fields_not_requested": [
    "builder_meta",
    "nsites",
    "elements",
    "nelements",
    "composition",
    "composition_reduced",
    "chemsys",
    "symmetry",
    "property_name",
    "deprecated",
    "deprecation_reasons",
    "last_updated",
    "origins",
    "warnings",
    "task_ids",
    "uncorrected_energy_per_atom",
    "equilibrium_reaction_energy_per_atom",
    "decomposes_to",
    "xas",
    "grain_boundaries",
    "cbm",
    "vbm",
    "is_gap_direct",
    "is_metal",
    "es_source_calc_id",
    "bandstructure",
    "dos",
    "dos_energy_up",
    "dos_energy_down",
    "is_magnetic",
    "ordering",
    "total_magnetization_normalized_vol",
    "total_magnetization_normalized_formula_units",
    "num_magnetic_sites",
    "num_unique_magnetic_sites",
    "types_of_magnetic_species",
    "bulk_modulus",
    "shear_modulus",
    "universal_anisotropy",
    "homogeneous_poisson",
    "e_total",
    "e_ionic",
    "e_electronic",
    "n",
    "e_ij_max",
    "weighted_surface_energy_EV_PER_ANG2",
    "weighted_surface_energy",
    "weighted_work_function",
    "surface_anisotropy",
    "shape_factor",
    "has_reconstructed",
    "possible_species",
    "has_props",
    "theoretical",
    "database_IDs"
  ]
}
