{
  "builder_meta": null,
  "nsites": null,
  "elements": null,
  "nelements": null,
  "composition": null,
  "composition_reduced": null,
  "formula_pretty": "InF3",
  "formula_anonymous": "AB3",
  "chemsys": null,
  "volume": 115.11001891853095,
  "density": 4.957041087807601,
  "density_atomic": 14.38875236481637,
  "symmetry": null,
  "property_name": null,
  "material_id": "mp-6949",
  "deprecated": null,
  "deprecation_reasons": null,
  "last_updated": null,
  "origins": null,
  "warnings": null,
  "structure": {
    "@module": "pymatgen.core.structure",
    "@class": "Structure",
    "charge": 0,
    "lattice": {
      "matrix": [
        [4.71939176, 0.09218011, 3.29099405],
        [1.76619646, 4.37740962, 3.29099405],
        [0.13375828, 0.09218011, 5.75199163]
      ],
      "pbc": [true, true, true],
      "a": 5.754285150578733,
      "b": 5.754285946468117,
      "c": 5.754285026112125,
      "alpha": 53.77103331599926,
      "beta": 53.771024514776315,
      "gamma": 53.77103159327572,
      "volume": 115.11001891853095
    },
    "properties": {},
    "sites": [
      {
        "species": [{ "element": "In", "occu": 1 }],
        "abc": [0.5, 0.5, 0.5],
        "properties": { "magmom": -0.0 },
        "label": "In",
        "xyz": [3.30967325, 2.28088492, 6.166989865]
      },
      {
        "species": [{ "element": "In", "occu": 1 }],
        "abc": [0.0, -0.0, 0.0],
        "properties": { "magmom": -0.0 },
        "label": "In",
        "xyz": [0.0, 0.0, 0.0]
      },
      {
        "species": [{ "element": "F", "occu": 1 }],
        "abc": [0.39570922000000003, 0.75, 0.10429078],
        "properties": { "magmom": 0.0 },
        "label": "F",
        "xyz": [3.2061039325766854, 3.32914727, 4.370401919696312]
      },
      {
        "species": [{ "element": "F", "occu": 1 }],
        "abc": [0.75, 0.10429078, 0.39570922000000003],
        "properties": { "magmom": 0.0 },
        "label": "F",
        "xyz": [3.77667121109398, 0.5621350655769177, 5.0875819953036885]
      },
      {
        "species": [{ "element": "F", "occu": 1 }],
        "abc": [0.89570922, 0.60429078, 0.25],
        "properties": { "magmom": 0.0 },
        "label": "F",
        "xyz": [5.327938518670665, 2.7508398755769177, 6.3744889825]
      },
      {
        "species": [{ "element": "F", "occu": 1 }],
        "abc": [0.25, 0.89570922, 0.60429078],
        "properties": { "magmom": 0.0 },
        "label": "F",
        "xyz": [2.8426752889060194, 3.999634774423082, 7.246397734696313]
      },
      {
        "species": [{ "element": "F", "occu": 1 }],
        "abc": [0.60429078, 0.25, 0.89570922],
        "properties": { "magmom": 0.0 },
        "label": "F",
        "xyz": [3.413242567423314, 1.23262257, 7.963577810303688]
      },
      {
        "species": [{ "element": "F", "occu": 1 }],
        "abc": [0.10429078, 0.39570922000000003, 0.75],
        "properties": { "magmom": 0.0 },
        "label": "F",
        "xyz": [1.291407981329334, 1.8109299644230825, 5.9594907475]
      }
    ]
  },
  "task_ids": null,
  "uncorrected_energy_per_atom": null,
  "energy_per_atom": -10.75229777625,
  "formation_energy_per_atom": -2.763129218749999,
  "energy_above_hull": 0.0,
  "is_stable": true,
  "equilibrium_reaction_energy_per_atom": null,
  "decomposes_to": null,
  "xas": null,
  "grain_boundaries": null,
  "band_gap": 4.0226,
  "cbm": null,
  "vbm": null,
  "efermi": -1.7436485400000001,
  "is_gap_direct": null,
  "is_metal": null,
  "es_source_calc_id": null,
  "bandstructure": null,
  "dos": null,
  "dos_energy_up": null,
  "dos_energy_down": null,
  "is_magnetic": null,
  "ordering": null,
  "total_magnetization": 0.0,
  "total_magnetization_normalized_vol": null,
  "total_magnetization_normalized_formula_units": null,
  "num_magnetic_sites": null,
  "num_unique_magnetic_sites": null,
  "types_of_magnetic_species": null,
  "bulk_modulus": null,
  "shear_modulus": null,
  "universal_anisotropy": null,
  "homogeneous_poisson": null,
  "e_total": null,
  "e_ionic": null,
  "e_electronic": null,
  "n": null,
  "e_ij_max": null,
  "weighted_surface_energy_EV_PER_ANG2": null,
  "weighted_surface_energy": null,
  "weighted_work_function": null,
  "surface_anisotropy": null,
  "shape_factor": null,
  "has_reconstructed": null,
  "possible_species": null,
  "has_props": null,
  "theoretical": null,
  "database_IDs": null,
  "fields_not_requested": [
    "builder_meta",
    "nsites",
    "elements",
    "nelements",
    "composition",
    "composition_reduced",
    "chemsys",
    "symmetry",
    "property_name",
    "deprecated",
    "deprecation_reasons",
    "last_updated",
    "origins",
    "warnings",
    "task_ids",
    "uncorrected_energy_per_atom",
    "equilibrium_reaction_energy_per_atom",
    "decomposes_to",
    "xas",
    "grain_boundaries",
    "cbm",
    "vbm",
    "is_gap_direct",
    "is_metal",
    "es_source_calc_id",
    "bandstructure",
    "dos",
    "dos_energy_up",
    "dos_energy_down",
    "is_magnetic",
    "ordering",
    "total_magnetization_normalized_vol",
    "total_magnetization_normalized_formula_units",
    "num_magnetic_sites",
    "num_unique_magnetic_sites",
    "types_of_magnetic_species",
    "bulk_modulus",
    "shear_modulus",
    "universal_anisotropy",
    "homogeneous_poisson",
    "e_total",
    "e_ionic",
    "e_electronic",
    "n",
    "e_ij_max",
    "weighted_surface_energy_EV_PER_ANG2",
    "weighted_surface_energy",
    "weighted_work_function",
    "surface_anisotropy",
    "shape_factor",
    "has_reconstructed",
    "possible_species",
    "has_props",
    "theoretical",
    "database_IDs"
  ]
}
