{"builder_meta": null, "nsites": null, "elements": null, "nelements": null, "composition": null, "composition_reduced": null, "formula_pretty": "InI2", "formula_anonymous": "AB2", "chemsys": null, "volume": 1072.3719431102218, "density": 4.566471092825289, "density_atomic": 44.68216429625924, "symmetry": null, "property_name": null, "material_id": "mp-29312", "deprecated": null, "deprecation_reasons": null, "last_updated": null, "origins": null, "warnings": null, "structure": {"@module": "pymatgen.core.structure", "@class": "Structure", "charge": 0, "lattice": {"matrix": [[8.50177124, -0.0, 0.0], [0.0, 11.11268285, 0.0], [0.0, 0.0, 11.35055527]], "pbc": [true, true, true], "a": 8.50177124, "b": 11.11268285, "c": 11.35055527, "alpha": 90.0, "beta": 90.0, "gamma": 90.0, "volume": 1072.3719431102218}, "properties": {}, "sites": [{"species": [{"element": "In", "occu": 1}], "abc": [0.25, 0.0, 0.67826472], "properties": {"magmom": 0.0}, "label": "In", "xyz": [2.12544281, 0.0, 7.698681192051074]}, {"species": [{"element": "In", "occu": 1}], "abc": [0.25, 0.5, 0.8217352800000001], "properties": {"magmom": 0.0}, "label": "In", "xyz": [2.12544281, 5.556341425, 9.327151712948925]}, {"species": [{"element": "In", "occu": 1}], "abc": [0.75, 0.0, 0.32173528], "properties": {"magmom": 0.0}, "label": "In", "xyz": [6.37632843, 0.0, 3.6518740779489254]}, {"species": [{"element": "In", "occu": 1}], "abc": [0.75, 0.5, 0.17826472000000002], "properties": {"magmom": 0.0}, "label": "In", "xyz": [6.37632843, 5.556341425, 2.023403557051074]}, {"species": [{"element": "In", "occu": 1}], "abc": [0.65139877, 0.25, 0.75], "properties": {"magmom": 0.0}, "label": "In", "xyz": [5.538043328557375, 2.7781707125, 8.512916452499999]}, {"species": [{"element": "In", "occu": 1}], "abc": [0.84860123, 0.75, 0.75], "properties": {"magmom": 0.0}, "label": "In", "xyz": [7.214613531442625, 8.3345121375, 8.512916452499999]}, {"species": [{"element": "In", "occu": 1}], "abc": [0.34860123, 0.75, 0.25], "properties": {"magmom": 0.0}, "label": "In", "xyz": [2.963727911442625, 8.3345121375, 2.8376388175]}, {"species": [{"element": "In", "occu": 1}], "abc": [0.15139877000000002, 0.25, 0.25], "properties": {"magmom": 0.0}, "label": "In", "xyz": [1.2871577085573749, 2.7781707125, 2.8376388175]}, {"species": [{"element": "I", "occu": 1}], "abc": [0.50899322, 0.95387857, 0.816234799999999], "properties": {"magmom": -0.0}, "label": "I", "xyz": [4.3273439191509935, 10.600150025821526, 9.264718210697385]}, {"species": [{"element": "I", "occu": 1}], "abc": [0.50899322, 0.54612143, 0.6837652], "properties": {"magmom": -0.0}, "label": "I", "xyz": [4.3273439191509935, 6.068874249178476, 7.761114694302603]}, {"species": [{"element": "I", "occu": 1}], "abc": [0.99100678, 0.45387857000000004, 0.6837652], "properties": {"magmom": -0.0}, "label": "I", "xyz": [8.425312940849008, 5.043808600821525, 7.761114694302603]}, {"species": [{"element": "I", "occu": 1}], "abc": [0.99100678, 0.04612143, 0.816234799999999], "properties": {"magmom": -0.0}, "label": "I", "xyz": [8.425312940849008, 0.5125328241784755, 9.264718210697385]}, {"species": [{"element": "I", "occu": 1}], "abc": [0.49100678000000003, 0.04612143, 0.1837652], "properties": {"magmom": -0.0}, "label": "I", "xyz": [4.1744273208490075, 0.5125328241784755, 2.085837059302604]}, {"species": [{"element": "I", "occu": 1}], "abc": [0.49100678000000003, 0.45387857000000004, 0.3162348], "properties": {"magmom": -0.0}, "label": "I", "xyz": [4.1744273208490075, 5.043808600821525, 3.5894405756973957]}, {"species": [{"element": "I", "occu": 1}], "abc": [0.00899322, 0.54612143, 0.3162348], "properties": {"magmom": -0.0}, "label": "I", "xyz": [0.0764582991509928, 6.068874249178476, 3.5894405756973957]}, {"species": [{"element": "I", "occu": 1}], "abc": [0.00899322, 0.95387857, 0.1837652], "properties": {"magmom": -0.0}, "label": "I", "xyz": [0.0764582991509928, 10.600150025821526, 2.085837059302604]}, {"species": [{"element": "I", "occu": 1}], "abc": [0.34296764, 0.19415148000000002, 0.54672535], "properties": {"magmom": 0.0}, "label": "I", "xyz": [2.915832418002674, 2.1575438220981185, 6.205636302685094]}, {"species": [{"element": "I", "occu": 1}], "abc": [0.34296764, 0.30584852, 0.95327465], "properties": {"magmom": 0.0}, "label": "I", "xyz": [2.915832418002674, 3.3987976029018823, 10.820196602314905]}, {"species": [{"element": "I", "occu": 1}], "abc": [0.15703236, 0.69415148, 0.95327465], "properties": {"magmom": 0.0}, "label": "I", "xyz": [1.3350532019973265, 7.713885247098119, 10.820196602314905]}, {"species": [{"element": "I", "occu": 1}], "abc": [0.15703236, 0.8058485200000001, 0.54672535], "properties": {"magmom": 0.0}, "label": "I", "xyz": [1.3350532019973265, 8.955139027901883, 6.205636302685094]}, {"species": [{"element": "I", "occu": 1}], "abc": [0.65703236, 0.8058485200000001, 0.45327465], "properties": {"magmom": 0.0}, "label": "I", "xyz": [5.585938821997327, 8.955139027901883, 5.144918967314905]}, {"species": [{"element": "I", "occu": 1}], "abc": [0.65703236, 0.69415148, 0.04672535], "properties": {"magmom": 0.0}, "label": "I", "xyz": [5.585938821997327, 7.713885247098119, 0.5303586676850944]}, {"species": [{"element": "I", "occu": 1}], "abc": [0.84296764, 0.30584852, 0.04672535], "properties": {"magmom": 0.0}, "label": "I", "xyz": [7.166718038002673, 3.3987976029018823, 0.5303586676850944]}, {"species": [{"element": "I", "occu": 1}], "abc": [0.84296764, 0.19415148000000002, 0.45327465], "properties": {"magmom": 0.0}, "label": "I", "xyz": [7.166718038002673, 2.1575438220981185, 5.144918967314905]}]}, "task_ids": null, "uncorrected_energy_per_atom": null, "energy_per_atom": -2.699471808333333, "formation_energy_per_atom": -0.763738817222221, "energy_above_hull": 0.0, "is_stable": true, "equilibrium_reaction_energy_per_atom": null, "decomposes_to": null, "xas": null, "grain_boundaries": null, "band_gap": 1.888599999999999, "cbm": null, "vbm": null, "efermi": 1.54184846, "is_gap_direct": null, "is_metal": null, "es_source_calc_id": null, "bandstructure": null, "dos": null, "dos_energy_up": null, "dos_energy_down": null, "is_magnetic": null, "ordering": null, "total_magnetization": 0.0, "total_magnetization_normalized_vol": null, "total_magnetization_normalized_formula_units": null, "num_magnetic_sites": null, "num_unique_magnetic_sites": null, "types_of_magnetic_species": null, "bulk_modulus": null, "shear_modulus": null, "universal_anisotropy": null, "homogeneous_poisson": null, "e_total": null, "e_ionic": null, "e_electronic": null, "n": null, "e_ij_max": null, "weighted_surface_energy_EV_PER_ANG2": null, "weighted_surface_energy": null, "weighted_work_function": null, "surface_anisotropy": null, "shape_factor": null, "has_reconstructed": null, "possible_species": null, "has_props": null, "theoretical": null, "database_IDs": null, "fields_not_requested": ["builder_meta", "nsites", "elements", "nelements", "composition", "composition_reduced", "chemsys", "symmetry", "property_name", "deprecated", "deprecation_reasons", "last_updated", "origins", "warnings", "task_ids", "uncorrected_energy_per_atom", "equilibrium_reaction_energy_per_atom", "decomposes_to", "xas", "grain_boundaries", "cbm", "vbm", "is_gap_direct", "is_metal", "es_source_calc_id", "bandstructure", "dos", "dos_energy_up", "dos_energy_down", "is_magnetic", "ordering", "total_magnetization_normalized_vol", "total_magnetization_normalized_formula_units", "num_magnetic_sites", "num_unique_magnetic_sites", "types_of_magnetic_species", "bulk_modulus", "shear_modulus", "universal_anisotropy", "homogeneous_poisson", "e_total", "e_ionic", "e_electronic", "n", "e_ij_max", "weighted_surface_energy_EV_PER_ANG2", "weighted_surface_energy", "weighted_work_function", "surface_anisotropy", "shape_factor", "has_reconstructed", "possible_species", "has_props", "theoretical", "database_IDs"]}