{
  "builder_meta": null,
  "nsites": null,
  "elements": null,
  "nelements": null,
  "composition": null,
  "composition_reduced": null,
  "formula_pretty": "InI3",
  "formula_anonymous": "AB3",
  "chemsys": null,
  "volume": 749.4843069014399,
  "density": 4.39154900218926,
  "density_atomic": 46.842769181339996,
  "symmetry": null,
  "property_name": null,
  "material_id": "mp-567789",
  "deprecated": null,
  "deprecation_reasons": null,
  "last_updated": null,
  "origins": null,
  "warnings": null,
  "structure": {
    "@module": "pymatgen.core.structure",
    "@class": "Structure",
    "charge": 0,
    "lattice": {
      "matrix": [
        [6.31336591, 0.0, 0.0],
        [0.0, 9.55681376, -3.03167944],
        [0.0, 0.014983690000000001, 12.41715911]
      ],
      "pbc": [true, true, true],
      "a": 6.31336591,
      "b": 10.026154271217058,
      "c": 12.41716815034821,
      "alpha": 107.5312949275182,
      "beta": 90.0,
      "gamma": 90.0,
      "volume": 749.4843069014399
    },
    "properties": {},
    "sites": [
      {
        "species": [{ "element": "In", "occu": 1 }],
        "abc": [0.99878856, 0.79460408, 0.94969148],
        "properties": { "magmom": -0.0 },
        "label": "In",
        "xyz": [6.30571764600199, 7.608113088228103, 9.383485360295268]
      },
      {
        "species": [{ "element": "In", "occu": 1 }],
        "abc": [0.00121144, 0.20539592, 0.05030852],
        "properties": { "magmom": -0.0 },
        "label": "In",
        "xyz": [0.0076482639980104, 1.9636843617718982, 0.0019943097047323555]
      },
      {
        "species": [{ "element": "In", "occu": 1 }],
        "abc": [0.5012114400000001, 0.79460408, 0.44969148000000003],
        "properties": { "magmom": -0.0 },
        "label": "In",
        "xyz": [3.1643312189980106, 7.600621243228103, 3.174905805295268]
      },
      {
        "species": [{ "element": "In", "occu": 1 }],
        "abc": [0.49878856, 0.20539592, 0.55030852],
        "properties": { "magmom": -0.0 },
        "label": "In",
        "xyz": [3.1490346910019893, 1.971176206771898, 6.210573864704732]
      },
      {
        "species": [{ "element": "I", "occu": 1 }],
        "abc": [0.76269051, 0.33426197, 0.71740969],
        "properties": { "magmom": -0.0 },
        "label": "I",
        "xyz": [4.815144265714514, 3.2052288387386634, 7.894815125762879]
      },
      {
        "species": [{ "element": "I", "occu": 1 }],
        "abc": [0.26818654000000003, 0.99932463, 0.6201097],
        "properties": { "magmom": -0.0 },
        "label": "I",
        "xyz": [1.6931597591568515, 9.559650906201703, 4.6703688758977595]
      },
      {
        "species": [{ "element": "I", "occu": 1 }],
        "abc": [0.76451174, 0.66414858, 0.55319875],
        "properties": { "magmom": 0.0 },
        "label": "I",
        "xyz": [4.826642357110783, 6.355433246606848, 4.855671303111917]
      },
      {
        "species": [{ "element": "I", "occu": 1 }],
        "abc": [0.26269051, 0.66573803, 0.78259031],
        "properties": { "magmom": -0.0 },
        "label": "I",
        "xyz": [1.658461310714514, 6.374060456261336, 7.699244099237122]
      },
      {
        "species": [{ "element": "I", "occu": 1 }],
        "abc": [0.73730949, 0.33426197, 0.21740969000000002],
        "properties": { "magmom": -0.0 },
        "label": "I",
        "xyz": [4.654904599285486, 3.1977369937386637, 1.686235570762879]
      },
      {
        "species": [{ "element": "I", "occu": 1 }],
        "abc": [0.73181346, 0.00067537, 0.379890299999999],
        "properties": { "magmom": -0.0 },
        "label": "I",
        "xyz": [4.620206150843149, 0.012146543798298187, 4.715110794102228]
      },
      {
        "species": [{ "element": "I", "occu": 1 }],
        "abc": [0.26451174, 0.33585142, 0.94680125],
        "properties": { "magmom": 0.0 },
        "label": "I",
        "xyz": [1.6699594021107833, 3.223856048393152, 10.738387921888084]
      },
      {
        "species": [{ "element": "I", "occu": 1 }],
        "abc": [0.76818654, 0.00067537, 0.8798903],
        "properties": { "magmom": -0.0 },
        "label": "I",
        "xyz": [4.849842714156851, 0.0196383887982982, 10.923690349102241]
      },
      {
        "species": [{ "element": "I", "occu": 1 }],
        "abc": [0.73548826, 0.66414858, 0.05319875],
        "properties": { "magmom": 0.0 },
        "label": "I",
        "xyz": [4.643406507889217, 6.347941401606848, -1.3529082518880826]
      },
      {
        "species": [{ "element": "I", "occu": 1 }],
        "abc": [0.23730949, 0.66573803, 0.28259031],
        "properties": { "magmom": -0.0 },
        "label": "I",
        "xyz": [1.4982216442854859, 6.366568611261337, 1.4906645442371214]
      },
      {
        "species": [{ "element": "I", "occu": 1 }],
        "abc": [0.23548826, 0.33585142, 0.44680125],
        "properties": { "magmom": 0.0 },
        "label": "I",
        "xyz": [1.4867235528892166, 3.216364203393152, 4.529808366888082]
      },
      {
        "species": [{ "element": "I", "occu": 1 }],
        "abc": [0.23181346, 0.99932463, 0.1201097],
        "properties": { "magmom": -0.0 },
        "label": "I",
        "xyz": [1.4635231958431485, 9.552159061201703, -1.5382106791022403]
      }
    ]
  },
  "task_ids": null,
  "uncorrected_energy_per_atom": null,
  "energy_per_atom": -2.613816165625,
  "formation_energy_per_atom": -0.7810132685416661,
  "energy_above_hull": 0.0,
  "is_stable": true,
  "equilibrium_reaction_energy_per_atom": null,
  "decomposes_to": null,
  "xas": null,
  "grain_boundaries": null,
  "band_gap": 2.2833,
  "cbm": null,
  "vbm": null,
  "efermi": 0.22863577000000002,
  "is_gap_direct": null,
  "is_metal": null,
  "es_source_calc_id": null,
  "bandstructure": null,
  "dos": null,
  "dos_energy_up": null,
  "dos_energy_down": null,
  "is_magnetic": null,
  "ordering": null,
  "total_magnetization": 0.0,
  "total_magnetization_normalized_vol": null,
  "total_magnetization_normalized_formula_units": null,
  "num_magnetic_sites": null,
  "num_unique_magnetic_sites": null,
  "types_of_magnetic_species": null,
  "bulk_modulus": null,
  "shear_modulus": null,
  "universal_anisotropy": null,
  "homogeneous_poisson": null,
  "e_total": null,
  "e_ionic": null,
  "e_electronic": null,
  "n": null,
  "e_ij_max": null,
  "weighted_surface_energy_EV_PER_ANG2": null,
  "weighted_surface_energy": null,
  "weighted_work_function": null,
  "surface_anisotropy": null,
  "shape_factor": null,
  "has_reconstructed": null,
  "possible_species": null,
  "has_props": null,
  "theoretical": null,
  "database_IDs": null,
  "fields_not_requested": [
    "builder_meta",
    "nsites",
    "elements",
    "nelements",
    "composition",
    "composition_reduced",
    "chemsys",
    "symmetry",
    "property_name",
    "deprecated",
    "deprecation_reasons",
    "last_updated",
    "origins",
    "warnings",
    "task_ids",
    "uncorrected_energy_per_atom",
    "equilibrium_reaction_energy_per_atom",
    "decomposes_to",
    "xas",
    "grain_boundaries",
    "cbm",
    "vbm",
    "is_gap_direct",
    "is_metal",
    "es_source_calc_id",
    "bandstructure",
    "dos",
    "dos_energy_up",
    "dos_energy_down",
    "is_magnetic",
    "ordering",
    "total_magnetization_normalized_vol",
    "total_magnetization_normalized_formula_units",
    "num_magnetic_sites",
    "num_unique_magnetic_sites",
    "types_of_magnetic_species",
    "bulk_modulus",
    "shear_modulus",
    "universal_anisotropy",
    "homogeneous_poisson",
    "e_total",
    "e_ionic",
    "e_electronic",
    "n",
    "e_ij_max",
    "weighted_surface_energy_EV_PER_ANG2",
    "weighted_surface_energy",
    "weighted_work_function",
    "surface_anisotropy",
    "shape_factor",
    "has_reconstructed",
    "possible_species",
    "has_props",
    "theoretical",
    "database_IDs"
  ]
}
