{
  "builder_meta": null,
  "nsites": null,
  "elements": null,
  "nelements": null,
  "composition": null,
  "composition_reduced": null,
  "formula_pretty": "InI4",
  "formula_anonymous": "AB4",
  "chemsys": null,
  "volume": 2132.2967825592764,
  "density": 2.908354325666624,
  "density_atomic": 71.07655941864255,
  "symmetry": null,
  "property_name": null,
  "material_id": "mp-675332",
  "deprecated": null,
  "deprecation_reasons": null,
  "last_updated": null,
  "origins": null,
  "warnings": null,
  "structure": {
    "@module": "pymatgen.core.structure",
    "@class": "Structure",
    "charge": 0,
    "lattice": {
      "matrix": [
        [0.0, 10.215804, 10.215804],
        [10.215804, 0.0, 10.215804],
        [10.215804, 10.215804, 0.0]
      ],
      "pbc": [true, true, true],
      "a": 14.447328567345314,
      "b": 14.447328567345314,
      "c": 14.447328567345314,
      "alpha": 59.99999999999999,
      "beta": 59.99999999999999,
      "gamma": 59.99999999999999,
      "volume": 2132.2967825592764
    },
    "properties": {},
    "sites": [
      {
        "species": [{ "element": "In", "occu": 1 }],
        "abc": [0.75, 0.25, 0.25],
        "properties": { "magmom": -0.01 },
        "label": "In",
        "xyz": [5.107902, 10.215804, 10.215804]
      },
      {
        "species": [{ "element": "In", "occu": 1 }],
        "abc": [0.25, 0.25, 0.75],
        "properties": { "magmom": -0.01 },
        "label": "In",
        "xyz": [10.215804, 10.215804, 5.107902]
      },
      {
        "species": [{ "element": "In", "occu": 1 }],
        "abc": [0.25, 0.75, 0.25],
        "properties": { "magmom": -0.01 },
        "label": "In",
        "xyz": [10.215804, 5.107902, 10.215804]
      },
      {
        "species": [{ "element": "In", "occu": 1 }],
        "abc": [0.75, 0.25, 0.75],
        "properties": { "magmom": -0.01 },
        "label": "In",
        "xyz": [10.215804, 15.323706000000001, 10.215804]
      },
      {
        "species": [{ "element": "In", "occu": 1 }],
        "abc": [0.25, 0.75, 0.75],
        "properties": { "magmom": -0.01 },
        "label": "In",
        "xyz": [15.323706000000001, 10.215804, 10.215804]
      },
      {
        "species": [{ "element": "In", "occu": 1 }],
        "abc": [0.75, 0.75, 0.25],
        "properties": { "magmom": -0.01 },
        "label": "In",
        "xyz": [10.215804, 10.215804, 15.323706000000001]
      },
      {
        "species": [{ "element": "I", "occu": 1 }],
        "abc": [0.783072, 0.561981, 0.216927999999999],
        "properties": { "magmom": 0.146 },
        "label": "I",
        "xyz": [7.957181677835989, 10.215803999999991, 13.740797817612]
      },
      {
        "species": [{ "element": "I", "occu": 1 }],
        "abc": [0.438019, 0.561981, 0.783072],
        "properties": { "magmom": 0.156 },
        "label": "I",
        "xyz": [13.740797817612, 12.474426322164, 10.215803999999999]
      },
      {
        "species": [{ "element": "I", "occu": 1 }],
        "abc": [0.216927999999999, 0.783072, 0.561981],
        "properties": { "magmom": 0.17 },
        "label": "I",
        "xyz": [13.740797817612, 7.957181677835989, 10.215803999999991]
      },
      {
        "species": [{ "element": "I", "occu": 1 }],
        "abc": [0.561981, 0.783072, 0.438019],
        "properties": { "magmom": 0.132 },
        "label": "I",
        "xyz": [12.474426322164, 10.215803999999999, 13.740797817612]
      },
      {
        "species": [{ "element": "I", "occu": 1 }],
        "abc": [0.561981, 0.216927999999999, 0.783072],
        "properties": { "magmom": 0.165 },
        "label": "I",
        "xyz": [10.215803999999991, 13.740797817612, 7.957181677835989]
      },
      {
        "species": [{ "element": "I", "occu": 1 }],
        "abc": [0.216927999999999, 0.561981, 0.438019],
        "properties": { "magmom": 0.179 },
        "label": "I",
        "xyz": [10.215803999999999, 6.69081018238799, 7.957181677835989]
      },
      {
        "species": [{ "element": "I", "occu": 1 }],
        "abc": [0.783072, 0.438019, 0.561981],
        "properties": { "magmom": 0.179 },
        "label": "I",
        "xyz": [10.215803999999999, 13.740797817612, 12.474426322164]
      },
      {
        "species": [{ "element": "I", "occu": 1 }],
        "abc": [0.438019, 0.783072, 0.216927999999999],
        "properties": { "magmom": 0.165 },
        "label": "I",
        "xyz": [10.215803999999991, 6.69081018238799, 12.474426322164]
      },
      {
        "species": [{ "element": "I", "occu": 1 }],
        "abc": [0.438019, 0.216927999999999, 0.561981],
        "properties": { "magmom": 0.132 },
        "label": "I",
        "xyz": [7.957181677835989, 10.215803999999999, 6.69081018238799]
      },
      {
        "species": [{ "element": "I", "occu": 1 }],
        "abc": [0.783072, 0.216927999999999, 0.438019],
        "properties": { "magmom": 0.17 },
        "label": "I",
        "xyz": [6.69081018238799, 12.474426322164, 10.215803999999991]
      },
      {
        "species": [{ "element": "I", "occu": 1 }],
        "abc": [0.561981, 0.438019, 0.216927999999999],
        "properties": { "magmom": 0.156 },
        "label": "I",
        "xyz": [6.69081018238799, 7.957181677835989, 10.215803999999999]
      },
      {
        "species": [{ "element": "I", "occu": 1 }],
        "abc": [0.216927999999999, 0.438019, 0.783072],
        "properties": { "magmom": 0.146 },
        "label": "I",
        "xyz": [12.474426322164, 10.215803999999991, 6.69081018238799]
      },
      {
        "species": [{ "element": "I", "occu": 1 }],
        "abc": [0.716928, 0.061980999999999, 0.283072],
        "properties": { "magmom": 0.179 },
        "label": "I",
        "xyz": [3.52499381761199, 10.215804, 7.957181677835989]
      },
      {
        "species": [{ "element": "I", "occu": 1 }],
        "abc": [0.061980999999999, 0.283072, 0.716928],
        "properties": { "magmom": 0.132 },
        "label": "I",
        "xyz": [10.215804, 7.957181677835989, 3.52499381761199]
      },
      {
        "species": [{ "element": "I", "occu": 1 }],
        "abc": [0.283072, 0.061980999999999, 0.938018999999999],
        "properties": { "magmom": 0.146 },
        "label": "I",
        "xyz": [10.21580399999998, 12.47442632216399, 3.52499381761199]
      },
      {
        "species": [{ "element": "I", "occu": 1 }],
        "abc": [0.938018999999999, 0.283072, 0.061980999999999],
        "properties": { "magmom": 0.165 },
        "label": "I",
        "xyz": [3.52499381761199, 10.21580399999998, 12.47442632216399]
      },
      {
        "species": [{ "element": "I", "occu": 1 }],
        "abc": [0.283072, 0.716928, 0.061980999999999],
        "properties": { "magmom": 0.17 },
        "label": "I",
        "xyz": [7.957181677835989, 3.52499381761199, 10.215804]
      },
      {
        "species": [{ "element": "I", "occu": 1 }],
        "abc": [0.938018999999999, 0.061980999999999, 0.716928],
        "properties": { "magmom": 0.156 },
        "label": "I",
        "xyz": [7.957181677835989, 16.90661418238799, 10.21580399999998]
      },
      {
        "species": [{ "element": "I", "occu": 1 }],
        "abc": [0.061980999999999, 0.938018999999999, 0.283072],
        "properties": { "magmom": 0.156 },
        "label": "I",
        "xyz": [12.47442632216399, 3.52499381761199, 10.21580399999998]
      },
      {
        "species": [{ "element": "I", "occu": 1 }],
        "abc": [0.716928, 0.283072, 0.938018999999999],
        "properties": { "magmom": 0.17 },
        "label": "I",
        "xyz": [12.47442632216399, 16.90661418238799, 10.215804]
      },
      {
        "species": [{ "element": "I", "occu": 1 }],
        "abc": [0.061980999999999, 0.716928, 0.938018999999999],
        "properties": { "magmom": 0.165 },
        "label": "I",
        "xyz": [16.90661418238799, 10.21580399999998, 7.957181677835989]
      },
      {
        "species": [{ "element": "I", "occu": 1 }],
        "abc": [0.938018999999999, 0.716928, 0.283072],
        "properties": { "magmom": 0.132 },
        "label": "I",
        "xyz": [10.215804, 12.47442632216399, 16.90661418238799]
      },
      {
        "species": [{ "element": "I", "occu": 1 }],
        "abc": [0.716928, 0.938018999999999, 0.061980999999999],
        "properties": { "magmom": 0.146 },
        "label": "I",
        "xyz": [10.21580399999998, 7.957181677835989, 16.90661418238799]
      },
      {
        "species": [{ "element": "I", "occu": 1 }],
        "abc": [0.283072, 0.938018999999999, 0.716928],
        "properties": { "magmom": 0.179 },
        "label": "I",
        "xyz": [16.90661418238799, 10.215804, 12.47442632216399]
      }
    ]
  },
  "task_ids": null,
  "uncorrected_energy_per_atom": null,
  "energy_per_atom": -2.304183876,
  "formation_energy_per_atom": -0.5331390353333331,
  "energy_above_hull": 0.091671579499999,
  "is_stable": false,
  "equilibrium_reaction_energy_per_atom": null,
  "decomposes_to": null,
  "xas": null,
  "grain_boundaries": null,
  "band_gap": 0.0,
  "cbm": null,
  "vbm": null,
  "efermi": -1.69987334,
  "is_gap_direct": null,
  "is_metal": null,
  "es_source_calc_id": null,
  "bandstructure": null,
  "dos": null,
  "dos_energy_up": null,
  "dos_energy_down": null,
  "is_magnetic": null,
  "ordering": null,
  "total_magnetization": 6.0454783,
  "total_magnetization_normalized_vol": null,
  "total_magnetization_normalized_formula_units": null,
  "num_magnetic_sites": null,
  "num_unique_magnetic_sites": null,
  "types_of_magnetic_species": null,
  "bulk_modulus": null,
  "shear_modulus": null,
  "universal_anisotropy": null,
  "homogeneous_poisson": null,
  "e_total": null,
  "e_ionic": null,
  "e_electronic": null,
  "n": null,
  "e_ij_max": null,
  "weighted_surface_energy_EV_PER_ANG2": null,
  "weighted_surface_energy": null,
  "weighted_work_function": null,
  "surface_anisotropy": null,
  "shape_factor": null,
  "has_reconstructed": null,
  "possible_species": null,
  "has_props": null,
  "theoretical": null,
  "database_IDs": null,
  "fields_not_requested": [
    "builder_meta",
    "nsites",
    "elements",
    "nelements",
    "composition",
    "composition_reduced",
    "chemsys",
    "symmetry",
    "property_name",
    "deprecated",
    "deprecation_reasons",
    "last_updated",
    "origins",
    "warnings",
    "task_ids",
    "uncorrected_energy_per_atom",
    "equilibrium_reaction_energy_per_atom",
    "decomposes_to",
    "xas",
    "grain_boundaries",
    "cbm",
    "vbm",
    "is_gap_direct",
    "is_metal",
    "es_source_calc_id",
    "bandstructure",
    "dos",
    "dos_energy_up",
    "dos_energy_down",
    "is_magnetic",
    "ordering",
    "total_magnetization_normalized_vol",
    "total_magnetization_normalized_formula_units",
    "num_magnetic_sites",
    "num_unique_magnetic_sites",
    "types_of_magnetic_species",
    "bulk_modulus",
    "shear_modulus",
    "universal_anisotropy",
    "homogeneous_poisson",
    "e_total",
    "e_ionic",
    "e_electronic",
    "n",
    "e_ij_max",
    "weighted_surface_energy_EV_PER_ANG2",
    "weighted_surface_energy",
    "weighted_work_function",
    "surface_anisotropy",
    "shape_factor",
    "has_reconstructed",
    "possible_species",
    "has_props",
    "theoretical",
    "database_IDs"
  ]
}
