{"builder_meta": null, "nsites": null, "elements": null, "nelements": null, "composition": null, "composition_reduced": null, "formula_pretty": "InNi", "formula_anonymous": "AB", "chemsys": null, "volume": 102.22209893929593, "density": 8.455777992923798, "density_atomic": 17.037016489882657, "symmetry": null, "property_name": null, "material_id": "mp-19876", "deprecated": null, "deprecation_reasons": null, "last_updated": null, "origins": null, "warnings": null, "structure": {"@module": "pymatgen.core.structure", "@class": "Structure", "charge": 0, "lattice": {"matrix": [[5.22118912, 1.83e-05, 0.0], [-2.61057884, 4.52163279, 0.0], [0.0, 0.0, 4.32991331]], "pbc": [true, true, true], "a": 5.22118912003207, "b": 5.221138282736718, "c": 4.32991331, "alpha": 90.0, "beta": 90.0, "gamma": 119.99992207717317, "volume": 102.22209893929593}, "properties": {}, "sites": [{"species": [{"element": "In", "occu": 1}], "abc": [0.6666660600000001, 0.33333103000000003, 0.5], "properties": {"magmom": 0.0}, "label": "In", "xyz": [2.6106026455118623, 1.507212715161372, 2.164956655]}, {"species": [{"element": "In", "occu": 1}], "abc": [0.33333394, 0.66666897, 0.5], "properties": {"magmom": 0.0}, "label": "In", "xyz": [7.634488137897577e-06, 3.0144383748386283, 2.164956655]}, {"species": [{"element": "In", "occu": 1}], "abc": [0.0, 0.0, -0.0], "properties": {"magmom": 0.0}, "label": "In", "xyz": [0.0, 0.0, 0.0]}, {"species": [{"element": "Ni", "occu": 1}], "abc": [0.0, 0.5, -0.0], "properties": {"magmom": -0.0}, "label": "Ni", "xyz": [-1.30528942, 2.260816395, 0.0]}, {"species": [{"element": "Ni", "occu": 1}], "abc": [0.5, 0.5, 0.0], "properties": {"magmom": -0.0}, "label": "Ni", "xyz": [1.30530514, 2.260825545, 0.0]}, {"species": [{"element": "Ni", "occu": 1}], "abc": [0.5, 0.0, -0.0], "properties": {"magmom": -0.0}, "label": "Ni", "xyz": [2.61059456, 9.15e-06, 0.0]}]}, "task_ids": null, "uncorrected_energy_per_atom": null, "energy_per_atom": -17.49335957, "formation_energy_per_atom": -0.21320580000000103, "energy_above_hull": 0.0, "is_stable": true, "equilibrium_reaction_energy_per_atom": null, "decomposes_to": null, "xas": null, "grain_boundaries": null, "band_gap": 0.0, "cbm": null, "vbm": null, "efermi": 7.72437644, "is_gap_direct": null, "is_metal": null, "es_source_calc_id": null, "bandstructure": null, "dos": null, "dos_energy_up": null, "dos_energy_down": null, "is_magnetic": null, "ordering": null, "total_magnetization": 6e-07, "total_magnetization_normalized_vol": null, "total_magnetization_normalized_formula_units": null, "num_magnetic_sites": null, "num_unique_magnetic_sites": null, "types_of_magnetic_species": null, "bulk_modulus": null, "shear_modulus": null, "universal_anisotropy": null, "homogeneous_poisson": null, "e_total": null, "e_ionic": null, "e_electronic": null, "n": null, "e_ij_max": null, "weighted_surface_energy_EV_PER_ANG2": null, "weighted_surface_energy": null, "weighted_work_function": null, "surface_anisotropy": null, "shape_factor": null, "has_reconstructed": null, "possible_species": null, "has_props": null, "theoretical": null, "database_IDs": null, "fields_not_requested": ["builder_meta", "nsites", "elements", "nelements", "composition", "composition_reduced", "chemsys", "symmetry", "property_name", "deprecated", "deprecation_reasons", "last_updated", "origins", "warnings", "task_ids", "uncorrected_energy_per_atom", "equilibrium_reaction_energy_per_atom", "decomposes_to", "xas", "grain_boundaries", "cbm", "vbm", "is_gap_direct", "is_metal", "es_source_calc_id", "bandstructure", "dos", "dos_energy_up", "dos_energy_down", "is_magnetic", "ordering", "total_magnetization_normalized_vol", "total_magnetization_normalized_formula_units", "num_magnetic_sites", "num_unique_magnetic_sites", "types_of_magnetic_species", "bulk_modulus", "shear_modulus", "universal_anisotropy", "homogeneous_poisson", "e_total", "e_ionic", "e_electronic", "n", "e_ij_max", "weighted_surface_energy_EV_PER_ANG2", "weighted_surface_energy", "weighted_work_function", "surface_anisotropy", "shape_factor", "has_reconstructed", "possible_species", "has_props", "theoretical", "database_IDs"]}