{
  "builder_meta": null,
  "nsites": null,
  "elements": null,
  "nelements": null,
  "composition": null,
  "composition_reduced": null,
  "formula_pretty": "InNi3",
  "formula_anonymous": "AB3",
  "chemsys": null,
  "volume": 101.39965585121315,
  "density": 9.527602859173626,
  "density_atomic": 12.674956981401644,
  "symmetry": null,
  "property_name": null,
  "material_id": "mp-22469",
  "deprecated": null,
  "deprecation_reasons": null,
  "last_updated": null,
  "origins": null,
  "warnings": null,
  "structure": {
    "@module": "pymatgen.core.structure",
    "@class": "Structure",
    "charge": 0,
    "lattice": {
      "matrix": [
        [2.6459794800000003, -4.58271053, 0.0],
        [2.64597928, 4.58271101, 0.0],
        [0.0, 0.0, 4.18116765]
      ],
      "pbc": [true, true, true],
      "a": 5.291733478771768,
      "b": 5.291733794453812,
      "c": 4.18116765,
      "alpha": 90.0,
      "beta": 90.0,
      "gamma": 119.99718539328691,
      "volume": 101.39965585121315
    },
    "properties": {},
    "sites": [
      {
        "species": [{ "element": "In", "occu": 1 }],
        "abc": [0.33327284, 0.66662593, 0.25],
        "properties": { "magmom": 0.03 },
        "label": "In",
        "xyz": [2.645711494172054, 1.5276610357314837, 1.0452919125]
      },
      {
        "species": [{ "element": "In", "occu": 1 }],
        "abc": [0.66672716, 0.33337407, 0.75],
        "properties": { "magmom": 0.03 },
        "label": "In",
        "xyz": [2.6462472658279466, -1.527660555731484, 3.1358757375]
      },
      {
        "species": [{ "element": "Ni", "occu": 1 }],
        "abc": [0.84436325, 0.15576972, 0.25],
        "properties": { "magmom": -0.339 },
        "label": "Ni",
        "xyz": [2.646331284737512, -3.155624746051405, 1.0452919125]
      },
      {
        "species": [{ "element": "Ni", "occu": 1 }],
        "abc": [0.84431523, 0.68853535, 0.25],
        "properties": { "magmom": -0.339 },
        "label": "Ni",
        "xyz": [4.055891042879028, -0.7138937659411684, 1.0452919125]
      },
      {
        "species": [{ "element": "Ni", "occu": 1 }],
        "abc": [0.31133291, 0.15568616, 0.25],
        "properties": { "magmom": -0.339 },
        "label": "Ni",
        "xyz": [1.2357228448514517, -0.7132839254559209, 1.0452919125]
      },
      {
        "species": [{ "element": "Ni", "occu": 1 }],
        "abc": [0.15563675, 0.84423028, 0.75],
        "properties": { "magmom": -0.339 },
        "label": "Ni",
        "xyz": [2.6456274752624886, 3.155625226051405, 3.1358757375]
      },
      {
        "species": [{ "element": "Ni", "occu": 1 }],
        "abc": [0.15568477, 0.31146465, 0.75],
        "properties": { "magmom": -0.339 },
        "label": "Ni",
        "xyz": [1.2360677171209717, 0.7138942459411683, 3.1358757375]
      },
      {
        "species": [{ "element": "Ni", "occu": 1 }],
        "abc": [0.68866709, 0.84431384, 0.75],
        "properties": { "magmom": -0.339 },
        "label": "Ni",
        "xyz": [4.056235915148549, 0.7132844054559202, 3.1358757375]
      }
    ]
  },
  "task_ids": null,
  "uncorrected_energy_per_atom": null,
  "energy_per_atom": -14.67851082,
  "formation_energy_per_atom": -0.047575354999999,
  "energy_above_hull": 0.059027544999999,
  "is_stable": false,
  "equilibrium_reaction_energy_per_atom": null,
  "decomposes_to": null,
  "xas": null,
  "grain_boundaries": null,
  "band_gap": 0.0,
  "cbm": null,
  "vbm": null,
  "efermi": 8.69695882,
  "is_gap_direct": null,
  "is_metal": null,
  "es_source_calc_id": null,
  "bandstructure": null,
  "dos": null,
  "dos_energy_up": null,
  "dos_energy_down": null,
  "is_magnetic": null,
  "ordering": null,
  "total_magnetization": 1.769483199999999,
  "total_magnetization_normalized_vol": null,
  "total_magnetization_normalized_formula_units": null,
  "num_magnetic_sites": null,
  "num_unique_magnetic_sites": null,
  "types_of_magnetic_species": null,
  "bulk_modulus": null,
  "shear_modulus": null,
  "universal_anisotropy": null,
  "homogeneous_poisson": null,
  "e_total": null,
  "e_ionic": null,
  "e_electronic": null,
  "n": null,
  "e_ij_max": null,
  "weighted_surface_energy_EV_PER_ANG2": null,
  "weighted_surface_energy": null,
  "weighted_work_function": null,
  "surface_anisotropy": null,
  "shape_factor": null,
  "has_reconstructed": null,
  "possible_species": null,
  "has_props": null,
  "theoretical": null,
  "database_IDs": null,
  "fields_not_requested": [
    "builder_meta",
    "nsites",
    "elements",
    "nelements",
    "composition",
    "composition_reduced",
    "chemsys",
    "symmetry",
    "property_name",
    "deprecated",
    "deprecation_reasons",
    "last_updated",
    "origins",
    "warnings",
    "task_ids",
    "uncorrected_energy_per_atom",
    "equilibrium_reaction_energy_per_atom",
    "decomposes_to",
    "xas",
    "grain_boundaries",
    "cbm",
    "vbm",
    "is_gap_direct",
    "is_metal",
    "es_source_calc_id",
    "bandstructure",
    "dos",
    "dos_energy_up",
    "dos_energy_down",
    "is_magnetic",
    "ordering",
    "total_magnetization_normalized_vol",
    "total_magnetization_normalized_formula_units",
    "num_magnetic_sites",
    "num_unique_magnetic_sites",
    "types_of_magnetic_species",
    "bulk_modulus",
    "shear_modulus",
    "universal_anisotropy",
    "homogeneous_poisson",
    "e_total",
    "e_ionic",
    "e_electronic",
    "n",
    "e_ij_max",
    "weighted_surface_energy_EV_PER_ANG2",
    "weighted_surface_energy",
    "weighted_work_function",
    "surface_anisotropy",
    "shape_factor",
    "has_reconstructed",
    "possible_species",
    "has_props",
    "theoretical",
    "database_IDs"
  ]
}
