{
  "builder_meta": null,
  "nsites": null,
  "elements": null,
  "nelements": null,
  "composition": null,
  "composition_reduced": null,
  "formula_pretty": "InO2",
  "formula_anonymous": "AB2",
  "chemsys": null,
  "volume": 77.9370477955776,
  "density": 6.256203921725467,
  "density_atomic": 12.989507965929599,
  "symmetry": null,
  "property_name": null,
  "material_id": "mp-1181008",
  "deprecated": null,
  "deprecation_reasons": null,
  "last_updated": null,
  "origins": null,
  "warnings": null,
  "structure": {
    "@module": "pymatgen.core.structure",
    "@class": "Structure",
    "charge": 0,
    "lattice": {
      "matrix": [
        [3.394972, 0.0, 0.0],
        [0.0, 4.364299, 0.0],
        [0.0, 0.0, 5.260091]
      ],
      "pbc": [true, true, true],
      "a": 3.394972,
      "b": 4.364299,
      "c": 5.260091,
      "alpha": 90.0,
      "beta": 90.0,
      "gamma": 90.0,
      "volume": 77.9370477955776
    },
    "properties": {},
    "sites": [
      {
        "species": [{ "element": "In", "occu": 1 }],
        "abc": [0.5, 0.5, 0.0],
        "properties": { "magmom": -0.015 },
        "label": "In",
        "xyz": [1.697486, 2.1821495, 0.0]
      },
      {
        "species": [{ "element": "In", "occu": 1 }],
        "abc": [0.0, 0.0, 0.5],
        "properties": { "magmom": -0.015 },
        "label": "In",
        "xyz": [0.0, 0.0, 2.6300455]
      },
      {
        "species": [{ "element": "O", "occu": 1 }],
        "abc": [0.5, 0.289521, 0.377166],
        "properties": { "magmom": 0.427 },
        "label": "O",
        "xyz": [1.697486, 1.263556210779, 1.983927482106]
      },
      {
        "species": [{ "element": "O", "occu": 1 }],
        "abc": [0.0, 0.210479, 0.877166],
        "properties": { "magmom": 0.427 },
        "label": "O",
        "xyz": [0.0, 0.918593289221, 4.6139729821060005]
      },
      {
        "species": [{ "element": "O", "occu": 1 }],
        "abc": [0.5, 0.710479, 0.622834],
        "properties": { "magmom": 0.427 },
        "label": "O",
        "xyz": [1.697486, 3.100742789221, 3.276163517894]
      },
      {
        "species": [{ "element": "O", "occu": 1 }],
        "abc": [0.0, 0.789520999999999, 0.122834],
        "properties": { "magmom": 0.427 },
        "label": "O",
        "xyz": [0.0, 3.445705710778996, 0.646118017894]
      }
    ]
  },
  "task_ids": null,
  "uncorrected_energy_per_atom": null,
  "energy_per_atom": -5.649866471666666,
  "formation_energy_per_atom": -1.431501220555554,
  "energy_above_hull": 0.230221602500001,
  "is_stable": false,
  "equilibrium_reaction_energy_per_atom": null,
  "decomposes_to": null,
  "xas": null,
  "grain_boundaries": null,
  "band_gap": 0.06970000000000001,
  "cbm": null,
  "vbm": null,
  "efermi": 4.39737718,
  "is_gap_direct": null,
  "is_metal": null,
  "es_source_calc_id": null,
  "bandstructure": null,
  "dos": null,
  "dos_energy_up": null,
  "dos_energy_down": null,
  "is_magnetic": null,
  "ordering": null,
  "total_magnetization": 2.0000927,
  "total_magnetization_normalized_vol": null,
  "total_magnetization_normalized_formula_units": null,
  "num_magnetic_sites": null,
  "num_unique_magnetic_sites": null,
  "types_of_magnetic_species": null,
  "bulk_modulus": null,
  "shear_modulus": null,
  "universal_anisotropy": null,
  "homogeneous_poisson": null,
  "e_total": null,
  "e_ionic": null,
  "e_electronic": null,
  "n": null,
  "e_ij_max": null,
  "weighted_surface_energy_EV_PER_ANG2": null,
  "weighted_surface_energy": null,
  "weighted_work_function": null,
  "surface_anisotropy": null,
  "shape_factor": null,
  "has_reconstructed": null,
  "possible_species": null,
  "has_props": null,
  "theoretical": null,
  "database_IDs": null,
  "fields_not_requested": [
    "builder_meta",
    "nsites",
    "elements",
    "nelements",
    "composition",
    "composition_reduced",
    "chemsys",
    "symmetry",
    "property_name",
    "deprecated",
    "deprecation_reasons",
    "last_updated",
    "origins",
    "warnings",
    "task_ids",
    "uncorrected_energy_per_atom",
    "equilibrium_reaction_energy_per_atom",
    "decomposes_to",
    "xas",
    "grain_boundaries",
    "cbm",
    "vbm",
    "is_gap_direct",
    "is_metal",
    "es_source_calc_id",
    "bandstructure",
    "dos",
    "dos_energy_up",
    "dos_energy_down",
    "is_magnetic",
    "ordering",
    "total_magnetization_normalized_vol",
    "total_magnetization_normalized_formula_units",
    "num_magnetic_sites",
    "num_unique_magnetic_sites",
    "types_of_magnetic_species",
    "bulk_modulus",
    "shear_modulus",
    "universal_anisotropy",
    "homogeneous_poisson",
    "e_total",
    "e_ionic",
    "e_electronic",
    "n",
    "e_ij_max",
    "weighted_surface_energy_EV_PER_ANG2",
    "weighted_surface_energy",
    "weighted_work_function",
    "surface_anisotropy",
    "shape_factor",
    "has_reconstructed",
    "possible_species",
    "has_props",
    "theoretical",
    "database_IDs"
  ]
}
