{
  "builder_meta": null,
  "nsites": null,
  "elements": null,
  "nelements": null,
  "composition": null,
  "composition_reduced": null,
  "formula_pretty": "InO3",
  "formula_anonymous": "AB3",
  "chemsys": null,
  "volume": 238.71015666375246,
  "density": 4.53039224730085,
  "density_atomic": 14.919384791484529,
  "symmetry": null,
  "property_name": null,
  "material_id": "mp-1181272",
  "deprecated": null,
  "deprecation_reasons": null,
  "last_updated": null,
  "origins": null,
  "warnings": null,
  "structure": {
    "@module": "pymatgen.core.structure",
    "@class": "Structure",
    "charge": 0,
    "lattice": {
      "matrix": [
        [-3.442102, 3.956264, 4.382298],
        [3.442102, -3.956264, 4.382298],
        [3.442102, 3.956264, -4.382298]
      ],
      "pbc": [true, true, true],
      "a": 6.834078341437417,
      "b": 6.834078341437417,
      "c": 6.834078341437417,
      "alpha": 119.51414651797779,
      "beta": 109.25324671617882,
      "gamma": 100.23101184120242,
      "volume": 238.71015666375246
    },
    "properties": {},
    "sites": [
      {
        "species": [{ "element": "In", "occu": 1 }],
        "abc": [0.500503, 0.492052, 0.500394999999999],
        "properties": { "magmom": -0.002 },
        "label": "In",
        "xyz": [1.6933214262879968, 2.0131291113439964, 2.156791783680004]
      },
      {
        "species": [{ "element": "In", "occu": 1 }],
        "abc": [0.9916569999999991, 0.492052, 0.9915489999999991],
        "properties": { "magmom": -0.002 },
        "label": "In",
        "xyz": [1.693321426288, 5.899398888655993, 2.15679178368]
      },
      {
        "species": [{ "element": "In", "occu": 1 }],
        "abc": [0.008343, 0.999892, 0.500394999999999],
        "properties": { "magmom": -0.002 },
        "label": "In",
        "xyz": [5.135423426287997, -1.9431348886560036, 2.2255062163200043]
      },
      {
        "species": [{ "element": "In", "occu": 1 }],
        "abc": [0.499496999999999, 0.999892, 0.9915489999999991],
        "properties": { "magmom": -0.002 },
        "label": "In",
        "xyz": [5.135423426288, 1.943134888655993, 2.2255062163200003]
      },
      {
        "species": [{ "element": "O", "occu": 1 }],
        "abc": [0.148597999999999, 0.244248, 0.09565000000000001],
        "properties": { "magmom": 0.15 },
        "label": "O",
        "xyz": [0.6584741126000033, -3.885780586188048e-15, 1.3024014364079954]
      },
      {
        "species": [{ "element": "O", "occu": 1 }],
        "abc": [0.850414, 0.745887, 0.895473],
        "properties": { "magmom": 0.14 },
        "label": "O",
        "xyz": [2.722516808492, 3.956264, 3.071237142744]
      },
      {
        "species": [{ "element": "O", "occu": 1 }],
        "abc": [0.149586, 0.045058999999999, 0.895473],
        "properties": { "magmom": 0.14 },
        "label": "O",
        "xyz": [2.7225168084919966, 3.9562640000000036, -3.071237142744004]
      },
      {
        "species": [{ "element": "O", "occu": 1 }],
        "abc": [0.851402, 0.947052, 0.09565000000000001],
        "properties": { "magmom": 0.151 },
        "label": "O",
        "xyz": [0.6584741126000002, 2.220446049250313e-16, 7.462194563592]
      },
      {
        "species": [{ "element": "O", "occu": 1 }],
        "abc": [0.419195999999999, 0.162014, 0.58121],
        "properties": { "magmom": 0.02 },
        "label": "O",
        "xyz": [1.1153374268560032, 3.3169000874879964, -4.440892098500626e-15]
      },
      {
        "species": [{ "element": "O", "occu": 1 }],
        "abc": [0.585733, 0.8390900000000001, 0.424823],
        "properties": { "magmom": 0.10400000000000001 },
        "label": "O",
        "xyz": [2.3343647343600007, 0.6783647630239993, 4.3822980000000005]
      },
      {
        "species": [{ "element": "O", "occu": 1 }],
        "abc": [0.580804, 0.162014, 0.742818],
        "properties": { "magmom": 0.02 },
        "label": "O",
        "xyz": [1.1153374268560001, 4.595627912512, 0.0]
      },
      {
        "species": [{ "element": "O", "occu": 1 }],
        "abc": [0.414267, 0.8390900000000001, 0.253357],
        "properties": { "magmom": 0.10400000000000001 },
        "label": "O",
        "xyz": [2.3343647343600007, -0.6783647630240006, 4.3822980000000005]
      },
      {
        "species": [{ "element": "O", "occu": 1 }],
        "abc": [0.98101, 0.6538700000000001, 0.31583],
        "properties": { "magmom": 0.056 },
        "label": "O",
        "xyz": [-0.03893017361999962, 2.5437590640799996, 5.7804701769]
      },
      {
        "species": [{ "element": "O", "occu": 1 }],
        "abc": [0.01899, 0.33482, 0.67286],
        "properties": { "magmom": 0.056 },
        "label": "O",
        "xyz": [3.4031718263800004, 1.4125049359200001, -1.3981721769]
      },
      {
        "species": [{ "element": "O", "occu": 1 }],
        "abc": [0.661959, 0.33482, 0.31583],
        "properties": { "magmom": 0.056 },
        "label": "O",
        "xyz": [-0.038926731517999524, 2.5437551078159997, 2.9841214408019994]
      },
      {
        "species": [{ "element": "O", "occu": 1 }],
        "abc": [0.338041, 0.6538700000000001, 0.67286],
        "properties": { "magmom": 0.056 },
        "label": "O",
        "xyz": [3.4031683842780005, 1.4125088921839997, 1.3981765591979998]
      }
    ]
  },
  "task_ids": null,
  "uncorrected_energy_per_atom": null,
  "energy_per_atom": -5.048721056875,
  "formation_energy_per_atom": -0.647956867291666,
  "energy_above_hull": 0.5983352499999991,
  "is_stable": false,
  "equilibrium_reaction_energy_per_atom": null,
  "decomposes_to": null,
  "xas": null,
  "grain_boundaries": null,
  "band_gap": 0.0,
  "cbm": null,
  "vbm": null,
  "efermi": 2.44609254,
  "is_gap_direct": null,
  "is_metal": null,
  "es_source_calc_id": null,
  "bandstructure": null,
  "dos": null,
  "dos_energy_up": null,
  "dos_energy_down": null,
  "is_magnetic": null,
  "ordering": null,
  "total_magnetization": 1.2167022,
  "total_magnetization_normalized_vol": null,
  "total_magnetization_normalized_formula_units": null,
  "num_magnetic_sites": null,
  "num_unique_magnetic_sites": null,
  "types_of_magnetic_species": null,
  "bulk_modulus": null,
  "shear_modulus": null,
  "universal_anisotropy": null,
  "homogeneous_poisson": null,
  "e_total": null,
  "e_ionic": null,
  "e_electronic": null,
  "n": null,
  "e_ij_max": null,
  "weighted_surface_energy_EV_PER_ANG2": null,
  "weighted_surface_energy": null,
  "weighted_work_function": null,
  "surface_anisotropy": null,
  "shape_factor": null,
  "has_reconstructed": null,
  "possible_species": null,
  "has_props": null,
  "theoretical": null,
  "database_IDs": null,
  "fields_not_requested": [
    "builder_meta",
    "nsites",
    "elements",
    "nelements",
    "composition",
    "composition_reduced",
    "chemsys",
    "symmetry",
    "property_name",
    "deprecated",
    "deprecation_reasons",
    "last_updated",
    "origins",
    "warnings",
    "task_ids",
    "uncorrected_energy_per_atom",
    "equilibrium_reaction_energy_per_atom",
    "decomposes_to",
    "xas",
    "grain_boundaries",
    "cbm",
    "vbm",
    "is_gap_direct",
    "is_metal",
    "es_source_calc_id",
    "bandstructure",
    "dos",
    "dos_energy_up",
    "dos_energy_down",
    "is_magnetic",
    "ordering",
    "total_magnetization_normalized_vol",
    "total_magnetization_normalized_formula_units",
    "num_magnetic_sites",
    "num_unique_magnetic_sites",
    "types_of_magnetic_species",
    "bulk_modulus",
    "shear_modulus",
    "universal_anisotropy",
    "homogeneous_poisson",
    "e_total",
    "e_ionic",
    "e_electronic",
    "n",
    "e_ij_max",
    "weighted_surface_energy_EV_PER_ANG2",
    "weighted_surface_energy",
    "weighted_work_function",
    "surface_anisotropy",
    "shape_factor",
    "has_reconstructed",
    "possible_species",
    "has_props",
    "theoretical",
    "database_IDs"
  ]
}
