{
  "builder_meta": null,
  "nsites": null,
  "elements": null,
  "nelements": null,
  "composition": null,
  "composition_reduced": null,
  "formula_pretty": "InP3",
  "formula_anonymous": "AB3",
  "chemsys": null,
  "volume": 163.37011543707584,
  "density": 4.223039191074772,
  "density_atomic": 20.42126442963448,
  "symmetry": null,
  "property_name": null,
  "material_id": "mp-20050",
  "deprecated": null,
  "deprecation_reasons": null,
  "last_updated": null,
  "origins": null,
  "warnings": null,
  "structure": {
    "@module": "pymatgen.core.structure",
    "@class": "Structure",
    "charge": 0,
    "lattice": {
      "matrix": [
        [5.46838191, 0.03389019, 0.33597556],
        [0.31803566, 5.4592319, 0.33597556],
        [0.03569985, 0.033890199999999, 5.47857762]
      ],
      "pbc": [true, true, true],
      "a": 5.478798119616272,
      "b": 5.478799065116968,
      "c": 5.478798751853451,
      "alpha": 86.1087904291616,
      "beta": 86.10878846912841,
      "gamma": 86.108793876638,
      "volume": 163.37011543707584
    },
    "properties": {},
    "sites": [
      {
        "species": [{ "element": "In", "occu": 1 }],
        "abc": [0.27059977, 0.27059977, 0.27059977],
        "properties": { "magmom": -0.0 },
        "label": "In",
        "xyz": [1.5754636347649935, 1.4956082544611733, 1.66433166242239]
      },
      {
        "species": [{ "element": "In", "occu": 1 }],
        "abc": [0.72940023, 0.72940023, 0.72940023],
        "properties": { "magmom": -0.0 },
        "label": "In",
        "xyz": [4.246653785235007, 4.031404035538825, 4.486197077577611]
      },
      {
        "species": [{ "element": "P", "occu": 1 }],
        "abc": [0.79891024, 0.24488149, 0.79891024],
        "properties": { "magmom": 0.0 },
        "label": "P",
        "xyz": [4.475148326155156, 1.3910152895697239, 4.727580272262948]
      },
      {
        "species": [{ "element": "P", "occu": 1 }],
        "abc": [0.79891024, 0.79891024, 0.24488149],
        "properties": { "magmom": 0.0 },
        "label": "P",
        "xyz": [4.6315704820496935, 4.396810569943599, 1.8784308812137227]
      },
      {
        "species": [{ "element": "P", "occu": 1 }],
        "abc": [0.24488149, 0.79891024, 0.79891024],
        "properties": { "magmom": 0.0 },
        "label": "P",
        "xyz": [1.6217084312004681, 4.396810575483887, 4.727580272262948]
      },
      {
        "species": [{ "element": "P", "occu": 1 }],
        "abc": [0.75511851, 0.20108976, 0.20108976],
        "properties": { "magmom": 0.0 },
        "label": "P",
        "xyz": [4.2004089887995315, 1.1302017145161127, 1.4229484677370525]
      },
      {
        "species": [{ "element": "P", "occu": 1 }],
        "abc": [0.20108976, 0.75511851, 0.20108976],
        "properties": { "magmom": 0.0 },
        "label": "P",
        "xyz": [1.3469690938448442, 4.135997000430275, 1.4229484677370525]
      },
      {
        "species": [{ "element": "P", "occu": 1 }],
        "abc": [0.20108976, 0.20108976, 0.75511851],
        "properties": { "magmom": 0.0 },
        "label": "P",
        "xyz": [1.1905469379503066, 1.1302017200563996, 4.272097858786277]
      }
    ]
  },
  "task_ids": null,
  "uncorrected_energy_per_atom": null,
  "energy_per_atom": -12.52010171375,
  "formation_energy_per_atom": -0.12389688473214201,
  "energy_above_hull": 0.055239914761905005,
  "is_stable": false,
  "equilibrium_reaction_energy_per_atom": null,
  "decomposes_to": null,
  "xas": null,
  "grain_boundaries": null,
  "band_gap": 0.0,
  "cbm": null,
  "vbm": null,
  "efermi": 6.31849356,
  "is_gap_direct": null,
  "is_metal": null,
  "es_source_calc_id": null,
  "bandstructure": null,
  "dos": null,
  "dos_energy_up": null,
  "dos_energy_down": null,
  "is_magnetic": null,
  "ordering": null,
  "total_magnetization": 1e-7,
  "total_magnetization_normalized_vol": null,
  "total_magnetization_normalized_formula_units": null,
  "num_magnetic_sites": null,
  "num_unique_magnetic_sites": null,
  "types_of_magnetic_species": null,
  "bulk_modulus": null,
  "shear_modulus": null,
  "universal_anisotropy": null,
  "homogeneous_poisson": null,
  "e_total": null,
  "e_ionic": null,
  "e_electronic": null,
  "n": null,
  "e_ij_max": null,
  "weighted_surface_energy_EV_PER_ANG2": null,
  "weighted_surface_energy": null,
  "weighted_work_function": null,
  "surface_anisotropy": null,
  "shape_factor": null,
  "has_reconstructed": null,
  "possible_species": null,
  "has_props": null,
  "theoretical": null,
  "database_IDs": null,
  "fields_not_requested": [
    "builder_meta",
    "nsites",
    "elements",
    "nelements",
    "composition",
    "composition_reduced",
    "chemsys",
    "symmetry",
    "property_name",
    "deprecated",
    "deprecation_reasons",
    "last_updated",
    "origins",
    "warnings",
    "task_ids",
    "uncorrected_energy_per_atom",
    "equilibrium_reaction_energy_per_atom",
    "decomposes_to",
    "xas",
    "grain_boundaries",
    "cbm",
    "vbm",
    "is_gap_direct",
    "is_metal",
    "es_source_calc_id",
    "bandstructure",
    "dos",
    "dos_energy_up",
    "dos_energy_down",
    "is_magnetic",
    "ordering",
    "total_magnetization_normalized_vol",
    "total_magnetization_normalized_formula_units",
    "num_magnetic_sites",
    "num_unique_magnetic_sites",
    "types_of_magnetic_species",
    "bulk_modulus",
    "shear_modulus",
    "universal_anisotropy",
    "homogeneous_poisson",
    "e_total",
    "e_ionic",
    "e_electronic",
    "n",
    "e_ij_max",
    "weighted_surface_energy_EV_PER_ANG2",
    "weighted_surface_energy",
    "weighted_work_function",
    "surface_anisotropy",
    "shape_factor",
    "has_reconstructed",
    "possible_species",
    "has_props",
    "theoretical",
    "database_IDs"
  ]
}
