{
  "builder_meta": null,
  "nsites": null,
  "elements": null,
  "nelements": null,
  "composition": null,
  "composition_reduced": null,
  "formula_pretty": "InPd3",
  "formula_anonymous": "AB3",
  "chemsys": null,
  "volume": 128.49057035332513,
  "density": 11.219554477336656,
  "density_atomic": 16.06132129416564,
  "symmetry": null,
  "property_name": null,
  "material_id": "mp-1078721",
  "deprecated": null,
  "deprecation_reasons": null,
  "last_updated": null,
  "origins": null,
  "warnings": null,
  "structure": {
    "@module": "pymatgen.core.structure",
    "@class": "Structure",
    "charge": 0,
    "lattice": {
      "matrix": [
        [4.08968924, 0.0, -0.0],
        [0.0, 4.08968924, -0.0],
        [-2.04484513, -2.04484513, 7.68228897]
      ],
      "pbc": [true, true, true],
      "a": 4.08968924,
      "b": 4.08968924,
      "c": 8.208553284833638,
      "alpha": 104.42494235337679,
      "beta": 104.42494235337679,
      "gamma": 90.0,
      "volume": 128.49057035332513
    },
    "properties": {},
    "sites": [
      {
        "species": [{ "element": "In", "occu": 1 }],
        "abc": [0.8749669, 0.8749669, 0.7499348100000001],
        "properties": { "magmom": 0.0 },
        "label": "In",
        "xyz": [2.044842172240181, 2.044842172240181, 5.761215919082046]
      },
      {
        "species": [{ "element": "In", "occu": 1 }],
        "abc": [0.1250331, 0.1250331, 0.25006519],
        "properties": { "magmom": 0.0 },
        "label": "In",
        "xyz": [1.937759819270468e-6, 1.937759819270468e-6, 1.9210730509179543]
      },
      {
        "species": [{ "element": "Pd", "occu": 1 }],
        "abc": [0.5, -0.0, -0.0],
        "properties": { "magmom": -0.0 },
        "label": "Pd",
        "xyz": [2.04484462, 0.0, 0.0]
      },
      {
        "species": [{ "element": "Pd", "occu": 1 }],
        "abc": [-0.0, 0.5, -0.0],
        "properties": { "magmom": -0.0 },
        "label": "Pd",
        "xyz": [0.0, 2.04484462, 0.0]
      },
      {
        "species": [{ "element": "Pd", "occu": 1 }],
        "abc": [0.25, 0.75, 0.5],
        "properties": { "magmom": -0.0 },
        "label": "Pd",
        "xyz": [-2.5500000000455714e-7, 2.0448443650000003, 3.841144485]
      },
      {
        "species": [{ "element": "Pd", "occu": 1 }],
        "abc": [0.75, 0.25, 0.5],
        "properties": { "magmom": -0.0 },
        "label": "Pd",
        "xyz": [2.0448443650000003, -2.5500000000455714e-7, 3.841144485]
      },
      {
        "species": [{ "element": "Pd", "occu": 1 }],
        "abc": [0.62607943, 0.62607943, 0.25215986],
        "properties": { "magmom": -0.0 },
        "label": "Pd",
        "xyz": [2.0448424465538517, 2.0448424465538517, 1.9371649111547444]
      },
      {
        "species": [{ "element": "Pd", "occu": 1 }],
        "abc": [0.37392057, 0.37392057, 0.74784014],
        "properties": { "magmom": -0.0 },
        "label": "Pd",
        "xyz": [
          1.6634461486031427e-6, 1.6634461486031427e-6, 5.7451240588452555
        ]
      }
    ]
  },
  "task_ids": null,
  "uncorrected_energy_per_atom": null,
  "energy_per_atom": -23.35721151625,
  "formation_energy_per_atom": -0.492223713749996,
  "energy_above_hull": 0.0,
  "is_stable": true,
  "equilibrium_reaction_energy_per_atom": null,
  "decomposes_to": null,
  "xas": null,
  "grain_boundaries": null,
  "band_gap": 0.0,
  "cbm": null,
  "vbm": null,
  "efermi": 5.90008113,
  "is_gap_direct": null,
  "is_metal": null,
  "es_source_calc_id": null,
  "bandstructure": null,
  "dos": null,
  "dos_energy_up": null,
  "dos_energy_down": null,
  "is_magnetic": null,
  "ordering": null,
  "total_magnetization": 0.0,
  "total_magnetization_normalized_vol": null,
  "total_magnetization_normalized_formula_units": null,
  "num_magnetic_sites": null,
  "num_unique_magnetic_sites": null,
  "types_of_magnetic_species": null,
  "bulk_modulus": null,
  "shear_modulus": null,
  "universal_anisotropy": null,
  "homogeneous_poisson": null,
  "e_total": null,
  "e_ionic": null,
  "e_electronic": null,
  "n": null,
  "e_ij_max": null,
  "weighted_surface_energy_EV_PER_ANG2": null,
  "weighted_surface_energy": null,
  "weighted_work_function": null,
  "surface_anisotropy": null,
  "shape_factor": null,
  "has_reconstructed": null,
  "possible_species": null,
  "has_props": null,
  "theoretical": null,
  "database_IDs": null,
  "fields_not_requested": [
    "builder_meta",
    "nsites",
    "elements",
    "nelements",
    "composition",
    "composition_reduced",
    "chemsys",
    "symmetry",
    "property_name",
    "deprecated",
    "deprecation_reasons",
    "last_updated",
    "origins",
    "warnings",
    "task_ids",
    "uncorrected_energy_per_atom",
    "equilibrium_reaction_energy_per_atom",
    "decomposes_to",
    "xas",
    "grain_boundaries",
    "cbm",
    "vbm",
    "is_gap_direct",
    "is_metal",
    "es_source_calc_id",
    "bandstructure",
    "dos",
    "dos_energy_up",
    "dos_energy_down",
    "is_magnetic",
    "ordering",
    "total_magnetization_normalized_vol",
    "total_magnetization_normalized_formula_units",
    "num_magnetic_sites",
    "num_unique_magnetic_sites",
    "types_of_magnetic_species",
    "bulk_modulus",
    "shear_modulus",
    "universal_anisotropy",
    "homogeneous_poisson",
    "e_total",
    "e_ionic",
    "e_electronic",
    "n",
    "e_ij_max",
    "weighted_surface_energy_EV_PER_ANG2",
    "weighted_surface_energy",
    "weighted_work_function",
    "surface_anisotropy",
    "shape_factor",
    "has_reconstructed",
    "possible_species",
    "has_props",
    "theoretical",
    "database_IDs"
  ]
}
