{
  "builder_meta": null,
  "nsites": null,
  "elements": null,
  "nelements": null,
  "composition": null,
  "composition_reduced": null,
  "formula_pretty": "InPd2",
  "formula_anonymous": "AB2",
  "chemsys": null,
  "volume": 199.34507454235225,
  "density": 10.917529028156194,
  "density_atomic": 16.61208954519602,
  "symmetry": null,
  "property_name": null,
  "material_id": "mp-22646",
  "deprecated": null,
  "deprecation_reasons": null,
  "last_updated": null,
  "origins": null,
  "warnings": null,
  "structure": {
    "@module": "pymatgen.core.structure",
    "@class": "Structure",
    "charge": 0,
    "lattice": {
      "matrix": [
        [4.22059205, -0.0, 0.0],
        [-0.0, 5.68637337, 0.0],
        [0.0, 0.0, 8.30609245]
      ],
      "pbc": [true, true, true],
      "a": 4.22059205,
      "b": 5.68637337,
      "c": 8.30609245,
      "alpha": 90.0,
      "beta": 90.0,
      "gamma": 90.0,
      "volume": 199.34507454235225
    },
    "properties": {},
    "sites": [
      {
        "species": [{ "element": "In", "occu": 1 }],
        "abc": [0.25, 0.32464315, 0.09950312],
        "properties": { "magmom": -0.0 },
        "label": "In",
        "xyz": [1.0551480125, 1.8460421629129156, 0.8264821137834439]
      },
      {
        "species": [{ "element": "In", "occu": 1 }],
        "abc": [0.75, 0.67535685, 0.90049688],
        "properties": { "magmom": -0.0 },
        "label": "In",
        "xyz": [3.1654440374999995, 3.8403312070870848, 7.479610336216556]
      },
      {
        "species": [{ "element": "In", "occu": 1 }],
        "abc": [0.25, 0.82464315, 0.40049688],
        "properties": { "magmom": -0.0 },
        "label": "In",
        "xyz": [1.0551480125, 4.689228847912916, 3.326564111216556]
      },
      {
        "species": [{ "element": "In", "occu": 1 }],
        "abc": [0.75, 0.17535685, 0.5995031200000001],
        "properties": { "magmom": -0.0 },
        "label": "In",
        "xyz": [3.1654440374999995, 0.9971445220870846, 4.979528338783444]
      },
      {
        "species": [{ "element": "Pd", "occu": 1 }],
        "abc": [0.25, 0.42845056000000004, 0.7689688100000001],
        "properties": { "magmom": -0.0 },
        "label": "Pd",
        "xyz": [1.0551480125, 2.4363298547455874, 6.3871260270264845]
      },
      {
        "species": [{ "element": "Pd", "occu": 1 }],
        "abc": [0.75, 0.57154944, 0.23103119],
        "properties": { "magmom": -0.0 },
        "label": "Pd",
        "xyz": [3.1654440374999995, 3.2500435152544127, 1.9189664229735153]
      },
      {
        "species": [{ "element": "Pd", "occu": 1 }],
        "abc": [0.25, 0.92845056, 0.73103119],
        "properties": { "magmom": -0.0 },
        "label": "Pd",
        "xyz": [1.0551480125, 5.279516539745588, 6.072012647973516]
      },
      {
        "species": [{ "element": "Pd", "occu": 1 }],
        "abc": [0.75, 0.07154944, 0.26896881],
        "properties": { "magmom": -0.0 },
        "label": "Pd",
        "xyz": [3.1654440374999995, 0.4068568302544128, 2.2340798020264843]
      },
      {
        "species": [{ "element": "Pd", "occu": 1 }],
        "abc": [0.75, 0.15533703000000001, 0.92729024],
        "properties": { "magmom": -0.0 },
        "label": "Pd",
        "xyz": [3.1654440374999995, 0.8833043507668912, 7.702158461422688]
      },
      {
        "species": [{ "element": "Pd", "occu": 1 }],
        "abc": [0.25, 0.84466297, 0.07270976],
        "properties": { "magmom": -0.0 },
        "label": "Pd",
        "xyz": [1.0551480125, 4.803069019233109, 0.603933988577312]
      },
      {
        "species": [{ "element": "Pd", "occu": 1 }],
        "abc": [0.75, 0.65533703, 0.57270976],
        "properties": { "magmom": -0.0 },
        "label": "Pd",
        "xyz": [3.1654440374999995, 3.726491035766891, 4.756980213577311]
      },
      {
        "species": [{ "element": "Pd", "occu": 1 }],
        "abc": [0.25, 0.34466297, 0.42729024],
        "properties": { "magmom": -0.0 },
        "label": "Pd",
        "xyz": [1.0551480125, 1.959882334233109, 3.5491122364226877]
      }
    ]
  },
  "task_ids": null,
  "uncorrected_energy_per_atom": null,
  "energy_per_atom": -23.385057041666666,
  "formation_energy_per_atom": -0.5518911749999941,
  "energy_above_hull": 0.0,
  "is_stable": true,
  "equilibrium_reaction_energy_per_atom": null,
  "decomposes_to": null,
  "xas": null,
  "grain_boundaries": null,
  "band_gap": 0.0,
  "cbm": null,
  "vbm": null,
  "efermi": 6.58581729,
  "is_gap_direct": null,
  "is_metal": null,
  "es_source_calc_id": null,
  "bandstructure": null,
  "dos": null,
  "dos_energy_up": null,
  "dos_energy_down": null,
  "is_magnetic": null,
  "ordering": null,
  "total_magnetization": 0.0,
  "total_magnetization_normalized_vol": null,
  "total_magnetization_normalized_formula_units": null,
  "num_magnetic_sites": null,
  "num_unique_magnetic_sites": null,
  "types_of_magnetic_species": null,
  "bulk_modulus": null,
  "shear_modulus": null,
  "universal_anisotropy": null,
  "homogeneous_poisson": null,
  "e_total": null,
  "e_ionic": null,
  "e_electronic": null,
  "n": null,
  "e_ij_max": null,
  "weighted_surface_energy_EV_PER_ANG2": null,
  "weighted_surface_energy": null,
  "weighted_work_function": null,
  "surface_anisotropy": null,
  "shape_factor": null,
  "has_reconstructed": null,
  "possible_species": null,
  "has_props": null,
  "theoretical": null,
  "database_IDs": null,
  "fields_not_requested": [
    "builder_meta",
    "nsites",
    "elements",
    "nelements",
    "composition",
    "composition_reduced",
    "chemsys",
    "symmetry",
    "property_name",
    "deprecated",
    "deprecation_reasons",
    "last_updated",
    "origins",
    "warnings",
    "task_ids",
    "uncorrected_energy_per_atom",
    "equilibrium_reaction_energy_per_atom",
    "decomposes_to",
    "xas",
    "grain_boundaries",
    "cbm",
    "vbm",
    "is_gap_direct",
    "is_metal",
    "es_source_calc_id",
    "bandstructure",
    "dos",
    "dos_energy_up",
    "dos_energy_down",
    "is_magnetic",
    "ordering",
    "total_magnetization_normalized_vol",
    "total_magnetization_normalized_formula_units",
    "num_magnetic_sites",
    "num_unique_magnetic_sites",
    "types_of_magnetic_species",
    "bulk_modulus",
    "shear_modulus",
    "universal_anisotropy",
    "homogeneous_poisson",
    "e_total",
    "e_ionic",
    "e_electronic",
    "n",
    "e_ij_max",
    "weighted_surface_energy_EV_PER_ANG2",
    "weighted_surface_energy",
    "weighted_work_function",
    "surface_anisotropy",
    "shape_factor",
    "has_reconstructed",
    "possible_species",
    "has_props",
    "theoretical",
    "database_IDs"
  ]
}
