{
  "builder_meta": null,
  "nsites": null,
  "elements": null,
  "nelements": null,
  "composition": null,
  "composition_reduced": null,
  "formula_pretty": "InPt",
  "formula_anonymous": "AB",
  "chemsys": null,
  "volume": 189.11780782653025,
  "density": 13.605391891214655,
  "density_atomic": 18.911780782653025,
  "symmetry": null,
  "property_name": null,
  "material_id": "mp-510438",
  "deprecated": null,
  "deprecation_reasons": null,
  "last_updated": null,
  "origins": null,
  "warnings": null,
  "structure": {
    "@module": "pymatgen.core.structure",
    "@class": "Structure",
    "charge": 0,
    "lattice": {
      "matrix": [
        [4.22956541, 0.00038198, 1.38030318],
        [1.383836979999999, 6.18711614, 2.93093302],
        [-0.01428229, -0.0254495, 7.21212663]
      ],
      "pbc": [true, true, true],
      "a": 4.449096601794043,
      "b": 6.984681759736111,
      "c": 7.212185673428898,
      "alpha": 65.41130035781073,
      "beta": 72.03969358782705,
      "gamma": 71.42112361947393,
      "volume": 189.11780782653025
    },
    "properties": {},
    "sites": [
      {
        "species": [{ "element": "In", "occu": 1 }],
        "abc": [0.5, 0.5, 0.5],
        "properties": { "magmom": -0.0 },
        "label": "In",
        "xyz": [2.7995600499999997, 3.08102431, 5.761681415]
      },
      {
        "species": [{ "element": "In", "occu": 1 }],
        "abc": [0.85145959, 0.45413393, 0.84360492],
        "properties": { "magmom": 0.0 },
        "label": "In",
        "xyz": [4.217702745970646, 2.7886352851472784, 8.590494019388885]
      },
      {
        "species": [{ "element": "In", "occu": 1 }],
        "abc": [0.14854041, 0.54586607, 0.15639508],
        "properties": { "magmom": 0.0 },
        "label": "In",
        "xyz": [1.381417354029353, 3.3734133348527213, 2.932868810611115]
      },
      {
        "species": [{ "element": "In", "occu": 1 }],
        "abc": [0.62889236, 0.98581082, 0.75653845],
        "properties": { "magmom": -0.0 },
        "label": "In",
        "xyz": [4.01333773893034, 6.080312734429033, 9.213658710060905]
      },
      {
        "species": [{ "element": "In", "occu": 1 }],
        "abc": [0.37110764, 0.014189180000000001, 0.24346155],
        "properties": { "magmom": -0.0 },
        "label": "In",
        "xyz": [1.5857823610696593, 0.08173588557096739, 2.309704119939095]
      },
      {
        "species": [{ "element": "Pt", "occu": 1 }],
        "abc": [0.0, -0.0, 0.0],
        "properties": { "magmom": 0.0 },
        "label": "Pt",
        "xyz": [0.0, 0.0, 0.0]
      },
      {
        "species": [{ "element": "Pt", "occu": 1 }],
        "abc": [0.74029619, 0.25794675, 0.26105217000000003],
        "properties": { "magmom": -0.0 },
        "label": "Pt",
        "xyz": [3.4843589871025338, 1.5895856313237862, 3.6605991392518566]
      },
      {
        "species": [{ "element": "Pt", "occu": 1 }],
        "abc": [0.25970381, 0.74205325, 0.73894783],
        "properties": { "magmom": -0.0 },
        "label": "Pt",
        "xyz": [2.1147611128974657, 4.572462988676214, 7.862763690748143]
      },
      {
        "species": [{ "element": "Pt", "occu": 1 }],
        "abc": [0.8915300700000001, 0.77625853, 0.44055004000000003],
        "properties": { "magmom": 0.0 },
        "label": "Pt",
        "xyz": [4.838707942470526, 4.7919304481888325, 6.683046223651848]
      },
      {
        "species": [{ "element": "Pt", "occu": 1 }],
        "abc": [0.10846993, 0.22374147, 0.55944996],
        "properties": { "magmom": 0.0 },
        "label": "Pt",
        "xyz": [0.7604121575294733, 1.3701181718111672, 4.840316606348152]
      }
    ]
  },
  "task_ids": null,
  "uncorrected_energy_per_atom": null,
  "energy_per_atom": -37.604624533,
  "formation_energy_per_atom": -0.5714708929999971,
  "energy_above_hull": 0.020134795125002002,
  "is_stable": false,
  "equilibrium_reaction_energy_per_atom": null,
  "decomposes_to": null,
  "xas": null,
  "grain_boundaries": null,
  "band_gap": 0.0,
  "cbm": null,
  "vbm": null,
  "efermi": 8.29167277,
  "is_gap_direct": null,
  "is_metal": null,
  "es_source_calc_id": null,
  "bandstructure": null,
  "dos": null,
  "dos_energy_up": null,
  "dos_energy_down": null,
  "is_magnetic": null,
  "ordering": null,
  "total_magnetization": 0.0,
  "total_magnetization_normalized_vol": null,
  "total_magnetization_normalized_formula_units": null,
  "num_magnetic_sites": null,
  "num_unique_magnetic_sites": null,
  "types_of_magnetic_species": null,
  "bulk_modulus": null,
  "shear_modulus": null,
  "universal_anisotropy": null,
  "homogeneous_poisson": null,
  "e_total": null,
  "e_ionic": null,
  "e_electronic": null,
  "n": null,
  "e_ij_max": null,
  "weighted_surface_energy_EV_PER_ANG2": null,
  "weighted_surface_energy": null,
  "weighted_work_function": null,
  "surface_anisotropy": null,
  "shape_factor": null,
  "has_reconstructed": null,
  "possible_species": null,
  "has_props": null,
  "theoretical": null,
  "database_IDs": null,
  "fields_not_requested": [
    "builder_meta",
    "nsites",
    "elements",
    "nelements",
    "composition",
    "composition_reduced",
    "chemsys",
    "symmetry",
    "property_name",
    "deprecated",
    "deprecation_reasons",
    "last_updated",
    "origins",
    "warnings",
    "task_ids",
    "uncorrected_energy_per_atom",
    "equilibrium_reaction_energy_per_atom",
    "decomposes_to",
    "xas",
    "grain_boundaries",
    "cbm",
    "vbm",
    "is_gap_direct",
    "is_metal",
    "es_source_calc_id",
    "bandstructure",
    "dos",
    "dos_energy_up",
    "dos_energy_down",
    "is_magnetic",
    "ordering",
    "total_magnetization_normalized_vol",
    "total_magnetization_normalized_formula_units",
    "num_magnetic_sites",
    "num_unique_magnetic_sites",
    "types_of_magnetic_species",
    "bulk_modulus",
    "shear_modulus",
    "universal_anisotropy",
    "homogeneous_poisson",
    "e_total",
    "e_ionic",
    "e_electronic",
    "n",
    "e_ij_max",
    "weighted_surface_energy_EV_PER_ANG2",
    "weighted_surface_energy",
    "weighted_work_function",
    "surface_anisotropy",
    "shape_factor",
    "has_reconstructed",
    "possible_species",
    "has_props",
    "theoretical",
    "database_IDs"
  ]
}
