{"builder_meta": null, "nsites": null, "elements": null, "nelements": null, "composition": null, "composition_reduced": null, "formula_pretty": "InPt2", "formula_anonymous": "AB2", "chemsys": null, "volume": 400.8409660496546, "density": 16.735794035227254, "density_atomic": 16.701706918735606, "symmetry": null, "property_name": null, "material_id": "mp-1223755", "deprecated": null, "deprecation_reasons": null, "last_updated": null, "origins": null, "warnings": null, "structure": {"@module": "pymatgen.core.structure", "@class": "Structure", "charge": 0, "lattice": {"matrix": [[4.10887781, 0.0, 0.0], [0.0, 5.7026823, -0.01796097], [0.0, 0.86110094, 17.10412408]], "pbc": [true, true, true], "a": 4.10887781, "b": 5.702710584553334, "c": 17.125786270209748, "alpha": 87.29835423609144, "beta": 90.0, "gamma": 90.0, "volume": 400.8409660496545}, "properties": {}, "sites": [{"species": [{"element": "In", "occu": 1}], "abc": [0.5, 0.70849603, 0.238390699999999], "properties": {"magmom": -0.0}, "label": "In", "xyz": [2.054438905, 4.245606225758527, 4.06473883637809]}, {"species": [{"element": "In", "occu": 1}], "abc": [0.5, 0.726090599999999, 0.57539583], "properties": {"magmom": 0.0}, "label": "In", "xyz": [2.054438905, 4.636137902901455, 9.828600379950705]}, {"species": [{"element": "In", "occu": 1}], "abc": [0.5, 0.75853446, 0.91617908], "properties": {"magmom": 0.0}, "label": "In", "xyz": [2.054438905, 5.114603705978393, 15.65681664914022]}, {"species": [{"element": "In", "occu": 1}], "abc": [0.5, 0.24146554, 0.08382092000000001], "properties": {"magmom": 0.0}, "label": "In", "xyz": [2.054438905, 1.449179534021607, 1.42934646085978]}, {"species": [{"element": "In", "occu": 1}], "abc": [0.5, 0.273909399999999, 0.42460417], "properties": {"magmom": 0.0}, "label": "In", "xyz": [2.054438905, 1.9276453370985345, 7.257562730049295]}, {"species": [{"element": "In", "occu": 1}], "abc": [0.5, 0.29150397, 0.761609299999999], "properties": {"magmom": -0.0}, "label": "In", "xyz": [2.054438905, 2.3181770142414724, 13.021424273621875]}, {"species": [{"element": "In", "occu": 1}], "abc": [0.0, 0.99124267, 0.33082359], "properties": {"magmom": 0.0}, "label": "In", "xyz": [0.0, 5.937614533536916, 5.640644052092457]}, {"species": [{"element": "In", "occu": 1}], "abc": [0.0, 0.00875733, 0.66917641], "properties": {"magmom": 0.0}, "label": "In", "xyz": [0.0, 0.6261687064630844, 11.445519057907543]}, {"species": [{"element": "Pt", "occu": 1}], "abc": [0.0, 0.9814230500000001, 0.16767076], "properties": {"magmom": 0.0}, "label": "Pt", "xyz": [0.0, 5.74112530509353, 2.850234173669542]}, {"species": [{"element": "Pt", "occu": 1}], "abc": [0.0, -0.0, 0.5], "properties": {"magmom": -0.0}, "label": "Pt", "xyz": [0.0, 0.43055047, 8.55206204]}, {"species": [{"element": "Pt", "occu": 1}], "abc": [0.0, 0.018576950000000002, 0.83232924], "properties": {"magmom": 0.0}, "label": "Pt", "xyz": [0.0, 0.8226579349064707, 14.235928936330454]}, {"species": [{"element": "Pt", "occu": 1}], "abc": [0.0, 0.5, 0.0], "properties": {"magmom": 0.0}, "label": "Pt", "xyz": [0.0, 2.85134115, -0.008980485]}, {"species": [{"element": "Pt", "occu": 1}], "abc": [0.0, 0.49142366, 0.33290598], "properties": {"magmom": -0.0}, "label": "Pt", "xyz": [0.0, 3.089098659992839, 5.685238743279447]}, {"species": [{"element": "Pt", "occu": 1}], "abc": [0.0, 0.50857634, 0.6670940200000001], "properties": {"magmom": -0.0}, "label": "Pt", "xyz": [0.0, 3.474684580007161, 11.40092436672055]}, {"species": [{"element": "Pt", "occu": 1}], "abc": [0.0, 0.47670625, 0.16472135000000002], "properties": {"magmom": 0.0}, "label": "Pt", "xyz": [0.0, 2.860346003497444, 2.8088523023700454]}, {"species": [{"element": "Pt", "occu": 1}], "abc": [0.0, 0.5, 0.5], "properties": {"magmom": 0.0}, "label": "Pt", "xyz": [0.0, 3.28189162, 8.543081554999999]}, {"species": [{"element": "Pt", "occu": 1}], "abc": [0.0, 0.52329375, 0.83527865], "properties": {"magmom": 0.0}, "label": "Pt", "xyz": [0.0, 3.7034372365025563, 14.277310807629952]}, {"species": [{"element": "Pt", "occu": 1}], "abc": [0.5, 0.22114144, 0.25490254], "properties": {"magmom": -0.0}, "label": "Pt", "xyz": [2.054438905, 1.4805961924868996, 4.355912757697566]}, {"species": [{"element": "Pt", "occu": 1}], "abc": [0.5, 0.231979699999999, 0.59052659], "properties": {"magmom": -0.0}, "label": "Pt", "xyz": [2.054438905, 1.831409530893299, 10.096273487466977]}, {"species": [{"element": "Pt", "occu": 1}], "abc": [0.5, 0.25453856, 0.9206481200000001], "properties": {"magmom": 0.0}, "label": "Pt", "xyz": [2.054438905, 2.244323502320721, 15.742307919058726]}, {"species": [{"element": "Pt", "occu": 1}], "abc": [0.5, 0.74546144, 0.07935188], "properties": {"magmom": 0.0}, "label": "Pt", "xyz": [2.054438905, 4.31945973767928, 1.3438551909412735]}, {"species": [{"element": "Pt", "occu": 1}], "abc": [0.5, 0.7680203, 0.40947341], "properties": {"magmom": -0.0}, "label": "Pt", "xyz": [2.054438905, 4.732373709106696, 6.989889622533021]}, {"species": [{"element": "Pt", "occu": 1}], "abc": [0.5, 0.77885856, 0.74509746], "properties": {"magmom": -0.0}, "label": "Pt", "xyz": [2.054438905, 5.0831870475131, 12.73025035230243]}, {"species": [{"element": "Pt", "occu": 1}], "abc": [0.0, -0.0, 0.0], "properties": {"magmom": 0.0}, "label": "Pt", "xyz": [0.0, 0.0, 0.0]}]}, "task_ids": null, "uncorrected_energy_per_atom": null, "energy_per_atom": -42.34282824541666, "formation_energy_per_atom": -0.49148685208333104, "energy_above_hull": 0.028406739583338003, "is_stable": false, "equilibrium_reaction_energy_per_atom": null, "decomposes_to": null, "xas": null, "grain_boundaries": null, "band_gap": 0.0, "cbm": null, "vbm": null, "efermi": 8.42950583, "is_gap_direct": null, "is_metal": null, "es_source_calc_id": null, "bandstructure": null, "dos": null, "dos_energy_up": null, "dos_energy_down": null, "is_magnetic": null, "ordering": null, "total_magnetization": 1e-07, "total_magnetization_normalized_vol": null, "total_magnetization_normalized_formula_units": null, "num_magnetic_sites": null, "num_unique_magnetic_sites": null, "types_of_magnetic_species": null, "bulk_modulus": null, "shear_modulus": null, "universal_anisotropy": null, "homogeneous_poisson": null, "e_total": null, "e_ionic": null, "e_electronic": null, "n": null, "e_ij_max": null, "weighted_surface_energy_EV_PER_ANG2": null, "weighted_surface_energy": null, "weighted_work_function": null, "surface_anisotropy": null, "shape_factor": null, "has_reconstructed": null, "possible_species": null, "has_props": null, "theoretical": null, "database_IDs": null, "fields_not_requested": ["builder_meta", "nsites", "elements", "nelements", "composition", "composition_reduced", "chemsys", "symmetry", "property_name", "deprecated", "deprecation_reasons", "last_updated", "origins", "warnings", "task_ids", "uncorrected_energy_per_atom", "equilibrium_reaction_energy_per_atom", "decomposes_to", "xas", "grain_boundaries", "cbm", "vbm", "is_gap_direct", "is_metal", "es_source_calc_id", "bandstructure", "dos", "dos_energy_up", "dos_energy_down", "is_magnetic", "ordering", "total_magnetization_normalized_vol", "total_magnetization_normalized_formula_units", "num_magnetic_sites", "num_unique_magnetic_sites", "types_of_magnetic_species", "bulk_modulus", "shear_modulus", "universal_anisotropy", "homogeneous_poisson", "e_total", "e_ionic", "e_electronic", "n", "e_ij_max", "weighted_surface_energy_EV_PER_ANG2", "weighted_surface_energy", "weighted_work_function", "surface_anisotropy", "shape_factor", "has_reconstructed", "possible_species", "has_props", "theoretical", "database_IDs"]}