{"builder_meta": null, "nsites": null, "elements": null, "nelements": null, "composition": null, "composition_reduced": null, "formula_pretty": "InRu3", "formula_anonymous": "AB3", "chemsys": null, "volume": 124.35315582686614, "density": 11.16420118680567, "density_atomic": 15.544144478358268, "symmetry": null, "property_name": null, "material_id": "mp-1095082", "deprecated": null, "deprecation_reasons": null, "last_updated": null, "origins": null, "warnings": null, "structure": {"@module": "pymatgen.core.structure", "@class": "Structure", "charge": 0, "lattice": {"matrix": [[0.0, 0.0, -4.533002], [-2.814104, -4.874171, 0.0], [-2.814104, 4.874171, 0.0]], "pbc": [true, true, true], "a": 4.533002, "b": 5.628207908389401, "c": 5.628207908389401, "alpha": 119.9999989231193, "beta": 90.0, "gamma": 90.0, "volume": 124.35315582686616}, "properties": {}, "sites": [{"species": [{"element": "In", "occu": 1}], "abc": [0.75, 0.333333, 0.666667], "properties": {"magmom": -0.013000000000000001}, "label": "In", "xyz": [-2.814104, 1.6247269161139999, -3.3997515]}, {"species": [{"element": "In", "occu": 1}], "abc": [0.25, 0.666667, 0.333333], "properties": {"magmom": -0.013000000000000001}, "label": "In", "xyz": [-2.814104, -1.6247269161139999, -1.1332505]}, {"species": [{"element": "Ru", "occu": 1}], "abc": [0.75, 0.834758, 0.165242], "properties": {"magmom": 0.395}, "label": "Ru", "xyz": [-2.814104, -3.263335471236, -3.3997515]}, {"species": [{"element": "Ru", "occu": 1}], "abc": [0.75, 0.330485, 0.165242], "properties": {"magmom": 0.395}, "label": "Ru", "xyz": [-1.395027333608, -0.8054226385529997, -3.3997515]}, {"species": [{"element": "Ru", "occu": 1}], "abc": [0.75, 0.834758, 0.669515], "properties": {"magmom": 0.395}, "label": "Ru", "xyz": [-4.233180666392, -0.8054226385530003, -3.3997515]}, {"species": [{"element": "Ru", "occu": 1}], "abc": [0.25, 0.165242, 0.834758], "properties": {"magmom": 0.389}, "label": "Ru", "xyz": [-2.814104, 3.263335471236, -1.1332505]}, {"species": [{"element": "Ru", "occu": 1}], "abc": [0.25, 0.669515, 0.834758], "properties": {"magmom": 0.391}, "label": "Ru", "xyz": [-4.233180666392, 0.8054226385530003, -1.1332505]}, {"species": [{"element": "Ru", "occu": 1}], "abc": [0.25, 0.165242, 0.330485], "properties": {"magmom": 0.391}, "label": "Ru", "xyz": [-1.395027333608, 0.8054226385529997, -1.1332505]}]}, "task_ids": null, "uncorrected_energy_per_atom": null, "energy_per_atom": -24.435238364166665, "formation_energy_per_atom": 0.277810702083336, "energy_above_hull": 0.35646835125000104, "is_stable": false, "equilibrium_reaction_energy_per_atom": null, "decomposes_to": null, "xas": null, "grain_boundaries": null, "band_gap": 0.0, "cbm": null, "vbm": null, "efermi": 8.6409038, "is_gap_direct": null, "is_metal": null, "es_source_calc_id": null, "bandstructure": null, "dos": null, "dos_energy_up": null, "dos_energy_down": null, "is_magnetic": null, "ordering": null, "total_magnetization": 2.3967992, "total_magnetization_normalized_vol": null, "total_magnetization_normalized_formula_units": null, "num_magnetic_sites": null, "num_unique_magnetic_sites": null, "types_of_magnetic_species": null, "bulk_modulus": null, "shear_modulus": null, "universal_anisotropy": null, "homogeneous_poisson": null, "e_total": null, "e_ionic": null, "e_electronic": null, "n": null, "e_ij_max": null, "weighted_surface_energy_EV_PER_ANG2": null, "weighted_surface_energy": null, "weighted_work_function": null, "surface_anisotropy": null, "shape_factor": null, "has_reconstructed": null, "possible_species": null, "has_props": null, "theoretical": null, "database_IDs": null, "fields_not_requested": ["builder_meta", "nsites", "elements", "nelements", "composition", "composition_reduced", "chemsys", "symmetry", "property_name", "deprecated", "deprecation_reasons", "last_updated", "origins", "warnings", "task_ids", "uncorrected_energy_per_atom", "equilibrium_reaction_energy_per_atom", "decomposes_to", "xas", "grain_boundaries", "cbm", "vbm", "is_gap_direct", "is_metal", "es_source_calc_id", "bandstructure", "dos", "dos_energy_up", "dos_energy_down", "is_magnetic", "ordering", "total_magnetization_normalized_vol", "total_magnetization_normalized_formula_units", "num_magnetic_sites", "num_unique_magnetic_sites", "types_of_magnetic_species", "bulk_modulus", "shear_modulus", "universal_anisotropy", "homogeneous_poisson", "e_total", "e_ionic", "e_electronic", "n", "e_ij_max", "weighted_surface_energy_EV_PER_ANG2", "weighted_surface_energy", "weighted_work_function", "surface_anisotropy", "shape_factor", "has_reconstructed", "possible_species", "has_props", "theoretical", "database_IDs"]}