{
  "builder_meta": null,
  "nsites": null,
  "elements": null,
  "nelements": null,
  "composition": null,
  "composition_reduced": null,
  "formula_pretty": "InS",
  "formula_anonymous": "AB",
  "chemsys": null,
  "volume": 198.27912350889554,
  "density": 4.920436511985393,
  "density_atomic": 24.784890438611942,
  "symmetry": null,
  "property_name": null,
  "material_id": "mp-19795",
  "deprecated": null,
  "deprecation_reasons": null,
  "last_updated": null,
  "origins": null,
  "warnings": null,
  "structure": {
    "@module": "pymatgen.core.structure",
    "@class": "Structure",
    "charge": 0,
    "lattice": {
      "matrix": [
        [3.95493252, 0.0, 0.0],
        [0.0, 4.70697081, -0.0],
        [0.0, 0.0, 10.65114771]
      ],
      "pbc": [true, true, true],
      "a": 3.95493252,
      "b": 4.70697081,
      "c": 10.65114771,
      "alpha": 90.0,
      "beta": 90.0,
      "gamma": 90.0,
      "volume": 198.27912350889554
    },
    "properties": {},
    "sites": [
      {
        "species": [{ "element": "In", "occu": 1 }],
        "abc": [0.5, 0.37425088, 0.61934339],
        "properties": { "magmom": 0.0 },
        "label": "In",
        "xyz": [1.97746626, 1.7615879677768127, 6.5967179301021375]
      },
      {
        "species": [{ "element": "In", "occu": 1 }],
        "abc": [0.5, 0.62574912, 0.38065661],
        "properties": { "magmom": 0.0 },
        "label": "In",
        "xyz": [1.97746626, 2.945382842223187, 4.0544297798978635]
      },
      {
        "species": [{ "element": "In", "occu": 1 }],
        "abc": [0.0, 0.8742508800000001, 0.8806566100000001],
        "properties": { "magmom": 0.0 },
        "label": "In",
        "xyz": [0.0, 4.115073372776813, 9.380003634897864]
      },
      {
        "species": [{ "element": "In", "occu": 1 }],
        "abc": [-0.0, 0.12574912, 0.11934339000000001],
        "properties": { "magmom": 0.0 },
        "label": "In",
        "xyz": [0.0, 0.5918974372231871, 1.271144075102137]
      },
      {
        "species": [{ "element": "S", "occu": 1 }],
        "abc": [0.5, 0.53870943, 0.845021399999999],
        "properties": { "magmom": -0.0 },
        "label": "S",
        "xyz": [1.97746626, 2.535689562081738, 9.000447749510984]
      },
      {
        "species": [{ "element": "S", "occu": 1 }],
        "abc": [0.5, 0.46129057, 0.1549786],
        "properties": { "magmom": -0.0 },
        "label": "S",
        "xyz": [1.97746626, 2.1712812479182615, 1.650699960489006]
      },
      {
        "species": [{ "element": "S", "occu": 1 }],
        "abc": [-0.0, 0.03870943, 0.6549786],
        "properties": { "magmom": -0.0 },
        "label": "S",
        "xyz": [0.0, 0.1822041570817383, 6.976273815489006]
      },
      {
        "species": [{ "element": "S", "occu": 1 }],
        "abc": [-0.0, 0.9612905700000001, 0.3450214],
        "properties": { "magmom": -0.0 },
        "label": "S",
        "xyz": [0.0, 4.524766652918261, 3.674873894510994]
      }
    ]
  },
  "task_ids": null,
  "uncorrected_energy_per_atom": null,
  "energy_per_atom": -15.98967065,
  "formation_energy_per_atom": -0.6828759189062491,
  "energy_above_hull": 0.0,
  "is_stable": true,
  "equilibrium_reaction_energy_per_atom": null,
  "decomposes_to": null,
  "xas": null,
  "grain_boundaries": null,
  "band_gap": 1.3508,
  "cbm": null,
  "vbm": null,
  "efermi": 4.57303829,
  "is_gap_direct": null,
  "is_metal": null,
  "es_source_calc_id": null,
  "bandstructure": null,
  "dos": null,
  "dos_energy_up": null,
  "dos_energy_down": null,
  "is_magnetic": null,
  "ordering": null,
  "total_magnetization": 0.0,
  "total_magnetization_normalized_vol": null,
  "total_magnetization_normalized_formula_units": null,
  "num_magnetic_sites": null,
  "num_unique_magnetic_sites": null,
  "types_of_magnetic_species": null,
  "bulk_modulus": null,
  "shear_modulus": null,
  "universal_anisotropy": null,
  "homogeneous_poisson": null,
  "e_total": null,
  "e_ionic": null,
  "e_electronic": null,
  "n": null,
  "e_ij_max": null,
  "weighted_surface_energy_EV_PER_ANG2": null,
  "weighted_surface_energy": null,
  "weighted_work_function": null,
  "surface_anisotropy": null,
  "shape_factor": null,
  "has_reconstructed": null,
  "possible_species": null,
  "has_props": null,
  "theoretical": null,
  "database_IDs": null,
  "fields_not_requested": [
    "builder_meta",
    "nsites",
    "elements",
    "nelements",
    "composition",
    "composition_reduced",
    "chemsys",
    "symmetry",
    "property_name",
    "deprecated",
    "deprecation_reasons",
    "last_updated",
    "origins",
    "warnings",
    "task_ids",
    "uncorrected_energy_per_atom",
    "equilibrium_reaction_energy_per_atom",
    "decomposes_to",
    "xas",
    "grain_boundaries",
    "cbm",
    "vbm",
    "is_gap_direct",
    "is_metal",
    "es_source_calc_id",
    "bandstructure",
    "dos",
    "dos_energy_up",
    "dos_energy_down",
    "is_magnetic",
    "ordering",
    "total_magnetization_normalized_vol",
    "total_magnetization_normalized_formula_units",
    "num_magnetic_sites",
    "num_unique_magnetic_sites",
    "types_of_magnetic_species",
    "bulk_modulus",
    "shear_modulus",
    "universal_anisotropy",
    "homogeneous_poisson",
    "e_total",
    "e_ionic",
    "e_electronic",
    "n",
    "e_ij_max",
    "weighted_surface_energy_EV_PER_ANG2",
    "weighted_surface_energy",
    "weighted_work_function",
    "surface_anisotropy",
    "shape_factor",
    "has_reconstructed",
    "possible_species",
    "has_props",
    "theoretical",
    "database_IDs"
  ]
}
