{
  "builder_meta": null,
  "nsites": null,
  "elements": null,
  "nelements": null,
  "composition": null,
  "composition_reduced": null,
  "formula_pretty": "InSe",
  "formula_anonymous": "AB",
  "chemsys": null,
  "volume": 246.56121587528438,
  "density": 5.220219864755624,
  "density_atomic": 30.820151984410547,
  "symmetry": null,
  "property_name": null,
  "material_id": "mp-20485",
  "deprecated": null,
  "deprecation_reasons": null,
  "last_updated": null,
  "origins": null,
  "warnings": null,
  "structure": {
    "@module": "pymatgen.core.structure",
    "@class": "Structure",
    "charge": 0,
    "lattice": {
      "matrix": [
        [4.04173413, 1e-8, -0.0],
        [-2.02086656, 3.50024481, 0.0],
        [-0.0, 0.0, 17.4284434]
      ],
      "pbc": [true, true, true],
      "a": 4.04173413,
      "b": 4.041734204924684,
      "c": 17.4284434,
      "alpha": 90.0,
      "beta": 90.0,
      "gamma": 119.99999097863095,
      "volume": 246.56121587528438
    },
    "properties": {},
    "sites": [
      {
        "species": [{ "element": "In", "occu": 1 }],
        "abc": [0.333333, 0.666667, 0.33030396],
        "properties": { "magmom": -0.0 },
        "label": "In",
        "xyz": [-1.6842002299455316e-6, 2.3334977100816, 5.756683871655864]
      },
      {
        "species": [{ "element": "In", "occu": 1 }],
        "abc": [0.666667, 0.333333, 0.8303039600000001],
        "properties": { "magmom": -0.0 },
        "label": "In",
        "xyz": [2.02086925420023, 1.1667471099184001, 14.470905571655864]
      },
      {
        "species": [{ "element": "In", "occu": 1 }],
        "abc": [0.666667, 0.333333, 0.66969604],
        "properties": { "magmom": -0.0 },
        "label": "In",
        "xyz": [2.02086925420023, 1.1667471099184001, 11.671759528344136]
      },
      {
        "species": [{ "element": "In", "occu": 1 }],
        "abc": [0.333333, 0.666667, 0.16969604],
        "properties": { "magmom": -0.0 },
        "label": "In",
        "xyz": [-1.6842002299455316e-6, 2.3334977100816, 2.957537828344136]
      },
      {
        "species": [{ "element": "Se", "occu": 1 }],
        "abc": [0.333333, 0.666667, 0.59732476],
        "properties": { "magmom": 0.0 },
        "label": "Se",
        "xyz": [-1.6842002299455316e-6, 2.3334977100816, 10.410440771078584]
      },
      {
        "species": [{ "element": "Se", "occu": 1 }],
        "abc": [0.666667, 0.333333, 0.09732476],
        "properties": { "magmom": 0.0 },
        "label": "Se",
        "xyz": [2.02086925420023, 1.1667471099184001, 1.6962190710785838]
      },
      {
        "species": [{ "element": "Se", "occu": 1 }],
        "abc": [0.666667, 0.333333, 0.40267524],
        "properties": { "magmom": 0.0 },
        "label": "Se",
        "xyz": [2.02086925420023, 1.1667471099184001, 7.0180026289214155]
      },
      {
        "species": [{ "element": "Se", "occu": 1 }],
        "abc": [0.333333, 0.666667, 0.90267524],
        "properties": { "magmom": 0.0 },
        "label": "Se",
        "xyz": [-1.6842002299455316e-6, 2.3334977100816, 15.732224328921415]
      }
    ]
  },
  "task_ids": null,
  "uncorrected_energy_per_atom": null,
  "energy_per_atom": -19.1218018175,
  "formation_energy_per_atom": -0.676726512031248,
  "energy_above_hull": 0.0,
  "is_stable": true,
  "equilibrium_reaction_energy_per_atom": null,
  "decomposes_to": null,
  "xas": null,
  "grain_boundaries": null,
  "band_gap": 0.459,
  "cbm": null,
  "vbm": null,
  "efermi": 3.36411748,
  "is_gap_direct": null,
  "is_metal": null,
  "es_source_calc_id": null,
  "bandstructure": null,
  "dos": null,
  "dos_energy_up": null,
  "dos_energy_down": null,
  "is_magnetic": null,
  "ordering": null,
  "total_magnetization": 0.0,
  "total_magnetization_normalized_vol": null,
  "total_magnetization_normalized_formula_units": null,
  "num_magnetic_sites": null,
  "num_unique_magnetic_sites": null,
  "types_of_magnetic_species": null,
  "bulk_modulus": null,
  "shear_modulus": null,
  "universal_anisotropy": null,
  "homogeneous_poisson": null,
  "e_total": null,
  "e_ionic": null,
  "e_electronic": null,
  "n": null,
  "e_ij_max": null,
  "weighted_surface_energy_EV_PER_ANG2": null,
  "weighted_surface_energy": null,
  "weighted_work_function": null,
  "surface_anisotropy": null,
  "shape_factor": null,
  "has_reconstructed": null,
  "possible_species": null,
  "has_props": null,
  "theoretical": null,
  "database_IDs": null,
  "fields_not_requested": [
    "builder_meta",
    "nsites",
    "elements",
    "nelements",
    "composition",
    "composition_reduced",
    "chemsys",
    "symmetry",
    "property_name",
    "deprecated",
    "deprecation_reasons",
    "last_updated",
    "origins",
    "warnings",
    "task_ids",
    "uncorrected_energy_per_atom",
    "equilibrium_reaction_energy_per_atom",
    "decomposes_to",
    "xas",
    "grain_boundaries",
    "cbm",
    "vbm",
    "is_gap_direct",
    "is_metal",
    "es_source_calc_id",
    "bandstructure",
    "dos",
    "dos_energy_up",
    "dos_energy_down",
    "is_magnetic",
    "ordering",
    "total_magnetization_normalized_vol",
    "total_magnetization_normalized_formula_units",
    "num_magnetic_sites",
    "num_unique_magnetic_sites",
    "types_of_magnetic_species",
    "bulk_modulus",
    "shear_modulus",
    "universal_anisotropy",
    "homogeneous_poisson",
    "e_total",
    "e_ionic",
    "e_electronic",
    "n",
    "e_ij_max",
    "weighted_surface_energy_EV_PER_ANG2",
    "weighted_surface_energy",
    "weighted_work_function",
    "surface_anisotropy",
    "shape_factor",
    "has_reconstructed",
    "possible_species",
    "has_props",
    "theoretical",
    "database_IDs"
  ]
}
