{"builder_meta": null, "nsites": null, "elements": null, "nelements": null, "composition": null, "composition_reduced": null, "formula_pretty": "InSn3", "formula_anonymous": "AB3", "chemsys": null, "volume": 215.42501045588438, "density": 7.260322751589547, "density_atomic": 26.928126306985547, "symmetry": null, "property_name": null, "material_id": "mp-1184812", "deprecated": null, "deprecation_reasons": null, "last_updated": null, "origins": null, "warnings": null, "structure": {"@module": "pymatgen.core.structure", "@class": "Structure", "charge": 0, "lattice": {"matrix": [[3.31252669, -5.73746457, -0.0], [3.31252669, 5.73746457, -0.0], [0.0, 0.0, 5.6674373]], "pbc": [true, true, true], "a": 6.62505341593316, "b": 6.62505341593316, "c": 5.6674373, "alpha": 90.0, "beta": 90.0, "gamma": 120.00000035883768, "volume": 215.42501045588438}, "properties": {}, "sites": [{"species": [{"element": "In", "occu": 1}], "abc": [0.333333, 0.666667, 0.75], "properties": {"magmom": -0.0}, "label": "In", "xyz": [3.31252669, 1.9124920149763802, 4.250577975]}, {"species": [{"element": "In", "occu": 1}], "abc": [0.666667, 0.333333, 0.25], "properties": {"magmom": -0.0}, "label": "In", "xyz": [3.31252669, -1.9124920149763802, 1.416859325]}, {"species": [{"element": "Sn", "occu": 1}], "abc": [0.16513133, 0.33026067000000003, 0.25], "properties": {"magmom": 0.0}, "label": "Sn", "xyz": [1.6409992220124803, 0.947423737717484, 1.416859325]}, {"species": [{"element": "Sn", "occu": 1}], "abc": [0.66973933, 0.83486867, 0.25], "properties": {"magmom": 0.0}, "label": "Sn", "xyz": [4.9840541579875195, 0.9474237377174841, 1.416859325]}, {"species": [{"element": "Sn", "occu": 1}], "abc": [0.16513133, 0.83486867, 0.25], "properties": {"magmom": 0.0}, "label": "Sn", "xyz": [3.31252669, 3.8425942594560443, 1.416859325]}, {"species": [{"element": "Sn", "occu": 1}], "abc": [0.83486867, 0.66973933, 0.75], "properties": {"magmom": 0.0}, "label": "Sn", "xyz": [4.9840541579875195, -0.9474237377174841, 4.250577975]}, {"species": [{"element": "Sn", "occu": 1}], "abc": [0.33026067000000003, 0.16513133, 0.75], "properties": {"magmom": 0.0}, "label": "Sn", "xyz": [1.6409992220124803, -0.947423737717484, 4.250577975]}, {"species": [{"element": "Sn", "occu": 1}], "abc": [0.83486867, 0.16513133, 0.75], "properties": {"magmom": 0.0}, "label": "Sn", "xyz": [3.31252669, -3.8425942594560443, 4.250577975]}]}, "task_ids": null, "uncorrected_energy_per_atom": null, "energy_per_atom": -24.026844205, "formation_energy_per_atom": 0.177441224999999, "energy_above_hull": 0.177441224999999, "is_stable": false, "equilibrium_reaction_energy_per_atom": null, "decomposes_to": null, "xas": null, "grain_boundaries": null, "band_gap": 0.0, "cbm": null, "vbm": null, "efermi": 7.85873868, "is_gap_direct": null, "is_metal": null, "es_source_calc_id": null, "bandstructure": null, "dos": null, "dos_energy_up": null, "dos_energy_down": null, "is_magnetic": null, "ordering": null, "total_magnetization": 5e-07, "total_magnetization_normalized_vol": null, "total_magnetization_normalized_formula_units": null, "num_magnetic_sites": null, "num_unique_magnetic_sites": null, "types_of_magnetic_species": null, "bulk_modulus": null, "shear_modulus": null, "universal_anisotropy": null, "homogeneous_poisson": null, "e_total": null, "e_ionic": null, "e_electronic": null, "n": null, "e_ij_max": null, "weighted_surface_energy_EV_PER_ANG2": null, "weighted_surface_energy": null, "weighted_work_function": null, "surface_anisotropy": null, "shape_factor": null, "has_reconstructed": null, "possible_species": null, "has_props": null, "theoretical": null, "database_IDs": null, "fields_not_requested": ["builder_meta", "nsites", "elements", "nelements", "composition", "composition_reduced", "chemsys", "symmetry", "property_name", "deprecated", "deprecation_reasons", "last_updated", "origins", "warnings", "task_ids", "uncorrected_energy_per_atom", "equilibrium_reaction_energy_per_atom", "decomposes_to", "xas", "grain_boundaries", "cbm", "vbm", "is_gap_direct", "is_metal", "es_source_calc_id", "bandstructure", "dos", "dos_energy_up", "dos_energy_down", "is_magnetic", "ordering", "total_magnetization_normalized_vol", "total_magnetization_normalized_formula_units", "num_magnetic_sites", "num_unique_magnetic_sites", "types_of_magnetic_species", "bulk_modulus", "shear_modulus", "universal_anisotropy", "homogeneous_poisson", "e_total", "e_ionic", "e_electronic", "n", "e_ij_max", "weighted_surface_energy_EV_PER_ANG2", "weighted_surface_energy", "weighted_work_function", "surface_anisotropy", "shape_factor", "has_reconstructed", "possible_species", "has_props", "theoretical", "database_IDs"]}