{
  "builder_meta": null,
  "nsites": null,
  "elements": null,
  "nelements": null,
  "composition": null,
  "composition_reduced": null,
  "formula_pretty": "IO2",
  "formula_anonymous": "AB2",
  "chemsys": null,
  "volume": 392.7472417848188,
  "density": 5.374756272178859,
  "density_atomic": 16.364468407700784,
  "symmetry": null,
  "property_name": null,
  "material_id": "mp-23170",
  "deprecated": null,
  "deprecation_reasons": null,
  "last_updated": null,
  "origins": null,
  "warnings": null,
  "structure": {
    "@module": "pymatgen.core.structure",
    "@class": "Structure",
    "charge": 0,
    "lattice": {
      "matrix": [
        [6.76690215, 0.0, 0.0],
        [0.0, 6.99858405, -3.50550799],
        [0.0, -0.01190514, 8.29898986]
      ],
      "pbc": [true, true, true],
      "a": 6.76690215,
      "b": 7.8274366795821635,
      "c": 8.298998399128731,
      "alpha": 116.68794002922685,
      "beta": 90.0,
      "gamma": 90.0,
      "volume": 392.7472417848188
    },
    "properties": {},
    "sites": [
      {
        "species": [{ "element": "I", "occu": 1 }],
        "abc": [0.12623781, 0.85976197, 0.68525461],
        "properties": { "magmom": 0.0 },
        "label": "I",
        "xyz": [0.8542389079002916, 6.008958357970882, 2.6730186045751148]
      },
      {
        "species": [{ "element": "I", "occu": 1 }],
        "abc": [0.62623781, 0.14023803, 0.81474539],
        "properties": { "magmom": 0.0 },
        "label": "I",
        "xyz": [4.237689982900291, 0.971767982029117, 6.269958195424886]
      },
      {
        "species": [{ "element": "I", "occu": 1 }],
        "abc": [0.87376219, 0.14023803, 0.31474539],
        "properties": { "magmom": 0.0 },
        "label": "I",
        "xyz": [5.9126632420997085, 0.977720552029117, 2.1204632654248856]
      },
      {
        "species": [{ "element": "I", "occu": 1 }],
        "abc": [0.37376219, 0.85976197, 0.18525461000000001],
        "properties": { "magmom": 0.0 },
        "label": "I",
        "xyz": [2.5292121670997085, 6.014910927970883, -1.4764763254248856]
      },
      {
        "species": [{ "element": "I", "occu": 1 }],
        "abc": [0.25406259999999903, 0.31763152, 0.14276132],
        "properties": { "magmom": -0.0 },
        "label": "I",
        "xyz": [1.7192167541745833, 2.221271296148071, 0.07131491584437044]
      },
      {
        "species": [{ "element": "I", "occu": 1 }],
        "abc": [0.754062599999999, 0.68236848, 0.35723868000000003],
        "properties": { "magmom": -0.0 },
        "label": "I",
        "xyz": [5.1026678291745835, 4.771360183851929, 0.5726720241556302]
      },
      {
        "species": [{ "element": "I", "occu": 1 }],
        "abc": [0.7459374, 0.68236848, 0.85723868],
        "properties": { "magmom": -0.0 },
        "label": "I",
        "xyz": [5.04768539582541, 4.765407613851929, 4.722166954155631]
      },
      {
        "species": [{ "element": "I", "occu": 1 }],
        "abc": [0.2459374, 0.31763152, 0.64276132],
        "properties": { "magmom": -0.0 },
        "label": "I",
        "xyz": [1.66423432082541, 2.2153187261480713, 4.2208098458443715]
      },
      {
        "species": [{ "element": "O", "occu": 1 }],
        "abc": [0.25945184, 0.058731610000000004, 0.50851749],
        "properties": { "magmom": 0.0 },
        "label": "O",
        "xyz": [1.755685213917456, 0.4049841370659219, 4.014297365022088]
      },
      {
        "species": [{ "element": "O", "occu": 1 }],
        "abc": [0.75945184, 0.9412683900000001, 0.99148251],
        "properties": { "magmom": 0.0 },
        "label": "O",
        "xyz": [5.139136288917456, 6.575742202934078, 4.928679434977914]
      },
      {
        "species": [{ "element": "O", "occu": 1 }],
        "abc": [0.74054816, 0.9412683900000001, 0.49148251],
        "properties": { "magmom": 0.0 },
        "label": "O",
        "xyz": [5.011216936082544, 6.581694772934078, 0.7791845049779123]
      },
      {
        "species": [{ "element": "O", "occu": 1 }],
        "abc": [0.24054816, 0.058731610000000004, 0.00851749],
        "properties": { "magmom": 0.0 },
        "label": "O",
        "xyz": [1.627765861082544, 0.41093670706592195, -0.13519756497791252]
      },
      {
        "species": [{ "element": "O", "occu": 1 }],
        "abc": [0.34693631, 0.31806579, 0.34485039],
        "properties": { "magmom": 0.0 },
        "label": "O",
        "xyz": [2.3476840620520667, 2.221904672572645, 1.7469277216363834]
      },
      {
        "species": [{ "element": "O", "occu": 1 }],
        "abc": [0.84693631, 0.68193421, 0.15514961],
        "properties": { "magmom": 0.0 },
        "label": "O",
        "xyz": [5.731135137052067, 4.770726807427355, -1.102940781636383]
      },
      {
        "species": [{ "element": "O", "occu": 1 }],
        "abc": [0.65306369, 0.68193421, 0.65514961],
        "properties": { "magmom": 0.0 },
        "label": "O",
        "xyz": [4.419218087947933, 4.764774237427355, 3.0465541483636174]
      },
      {
        "species": [{ "element": "O", "occu": 1 }],
        "abc": [0.15306369, 0.31806579, 0.8448503900000001],
        "properties": { "magmom": 0.0 },
        "label": "O",
        "xyz": [1.0357670129479335, 2.2159521025726447, 5.896422651636385]
      },
      {
        "species": [{ "element": "O", "occu": 1 }],
        "abc": [0.044014450000000004, 0.69068953, 0.44315806],
        "properties": { "magmom": -0.0 },
        "label": "O",
        "xyz": [0.2978414763360675, 4.828572869413567, 1.2565465802929277]
      },
      {
        "species": [{ "element": "O", "occu": 1 }],
        "abc": [0.54401445, 0.30931047, 0.05684194],
        "properties": { "magmom": -0.0 },
        "label": "O",
        "xyz": [3.681292551336068, 2.164058610586432, -0.612559640292927]
      },
      {
        "species": [{ "element": "O", "occu": 1 }],
        "abc": [0.9559855500000001, 0.30931047, 0.55684194],
        "properties": { "magmom": -0.0 },
        "label": "O",
        "xyz": [6.469060673663933, 2.1581060405864316, 3.536935289707073]
      },
      {
        "species": [{ "element": "O", "occu": 1 }],
        "abc": [0.45598555, 0.69068953, 0.94315806],
        "properties": { "magmom": -0.0 },
        "label": "O",
        "xyz": [3.0856095986639325, 4.822620299413567, 5.406041510292928]
      },
      {
        "species": [{ "element": "O", "occu": 1 }],
        "abc": [0.04816281, 0.6916058700000001, 0.7841094200000001],
        "properties": { "magmom": 0.0 },
        "label": "O",
        "xyz": [0.3259130225390415, 4.830926878247955, 4.082886222494581]
      },
      {
        "species": [{ "element": "O", "occu": 1 }],
        "abc": [0.54816281, 0.30839413, 0.71589058],
        "properties": { "magmom": 0.0 },
        "label": "O",
        "xyz": [3.7093640975390416, 2.149799461752045, 4.860090577505421]
      },
      {
        "species": [{ "element": "O", "occu": 1 }],
        "abc": [0.95183719, 0.30839413, 0.21589058],
        "properties": { "magmom": 0.0 },
        "label": "O",
        "xyz": [6.440989127460958, 2.155752031752045, 0.7105956475054205]
      },
      {
        "species": [{ "element": "O", "occu": 1 }],
        "abc": [0.45183719, 0.6916058700000001, 0.28410942],
        "properties": { "magmom": 0.0 },
        "label": "O",
        "xyz": [3.0575380524609583, 4.836879448247955, -0.06660870750542003]
      }
    ]
  },
  "task_ids": null,
  "uncorrected_energy_per_atom": null,
  "energy_per_atom": -4.5031186012500015,
  "formation_energy_per_atom": -0.696473726249999,
  "energy_above_hull": 0.009557534749997001,
  "is_stable": false,
  "equilibrium_reaction_energy_per_atom": null,
  "decomposes_to": null,
  "xas": null,
  "grain_boundaries": null,
  "band_gap": 1.4625,
  "cbm": null,
  "vbm": null,
  "efermi": 3.78774499,
  "is_gap_direct": null,
  "is_metal": null,
  "es_source_calc_id": null,
  "bandstructure": null,
  "dos": null,
  "dos_energy_up": null,
  "dos_energy_down": null,
  "is_magnetic": null,
  "ordering": null,
  "total_magnetization": 0.0,
  "total_magnetization_normalized_vol": null,
  "total_magnetization_normalized_formula_units": null,
  "num_magnetic_sites": null,
  "num_unique_magnetic_sites": null,
  "types_of_magnetic_species": null,
  "bulk_modulus": null,
  "shear_modulus": null,
  "universal_anisotropy": null,
  "homogeneous_poisson": null,
  "e_total": null,
  "e_ionic": null,
  "e_electronic": null,
  "n": null,
  "e_ij_max": null,
  "weighted_surface_energy_EV_PER_ANG2": null,
  "weighted_surface_energy": null,
  "weighted_work_function": null,
  "surface_anisotropy": null,
  "shape_factor": null,
  "has_reconstructed": null,
  "possible_species": null,
  "has_props": null,
  "theoretical": null,
  "database_IDs": null,
  "fields_not_requested": [
    "builder_meta",
    "nsites",
    "elements",
    "nelements",
    "composition",
    "composition_reduced",
    "chemsys",
    "symmetry",
    "property_name",
    "deprecated",
    "deprecation_reasons",
    "last_updated",
    "origins",
    "warnings",
    "task_ids",
    "uncorrected_energy_per_atom",
    "equilibrium_reaction_energy_per_atom",
    "decomposes_to",
    "xas",
    "grain_boundaries",
    "cbm",
    "vbm",
    "is_gap_direct",
    "is_metal",
    "es_source_calc_id",
    "bandstructure",
    "dos",
    "dos_energy_up",
    "dos_energy_down",
    "is_magnetic",
    "ordering",
    "total_magnetization_normalized_vol",
    "total_magnetization_normalized_formula_units",
    "num_magnetic_sites",
    "num_unique_magnetic_sites",
    "types_of_magnetic_species",
    "bulk_modulus",
    "shear_modulus",
    "universal_anisotropy",
    "homogeneous_poisson",
    "e_total",
    "e_ionic",
    "e_electronic",
    "n",
    "e_ij_max",
    "weighted_surface_energy_EV_PER_ANG2",
    "weighted_surface_energy",
    "weighted_work_function",
    "surface_anisotropy",
    "shape_factor",
    "has_reconstructed",
    "possible_species",
    "has_props",
    "theoretical",
    "database_IDs"
  ]
}
