{
  "builder_meta": null,
  "nsites": null,
  "elements": null,
  "nelements": null,
  "composition": null,
  "composition_reduced": null,
  "formula_pretty": "IO3",
  "formula_anonymous": "AB3",
  "chemsys": null,
  "volume": 219.74208980886777,
  "density": 5.286792651153303,
  "density_atomic": 13.733880613054236,
  "symmetry": null,
  "property_name": null,
  "material_id": "mp-23315",
  "deprecated": null,
  "deprecation_reasons": null,
  "last_updated": null,
  "origins": null,
  "warnings": null,
  "structure": {
    "@module": "pymatgen.core.structure",
    "@class": "Structure",
    "charge": 0,
    "lattice": {
      "matrix": [
        [5.06514654, 0.02359472, -0.53923835],
        [-1.90199757, 6.39747284, -0.87476926],
        [0.0254992, -0.01306596, 6.77142117]
      ],
      "pbc": [true, true, true],
      "a": 5.093824121482461,
      "b": 6.7313055756713736,
      "c": 6.771481786879112,
      "alpha": 97.6344350154486,
      "beta": 95.86153439316278,
      "gamma": 105.23684346562376,
      "volume": 219.74208980886777
    },
    "properties": {},
    "sites": [
      {
        "species": [{ "element": "I", "occu": 1 }],
        "abc": [0.002008299999999, 0.17073818000000002, 0.67086135],
        "properties": { "magmom": -0.0 },
        "label": "I",
        "xyz": [-0.2974648419340258, 1.0835748070125613, 4.392245283774128]
      },
      {
        "species": [{ "element": "I", "occu": 1 }],
        "abc": [0.997991699999999, 0.82926182, 0.32913865000000003],
        "properties": { "magmom": -0.0 },
        "label": "I",
        "xyz": [3.486113011934016, 5.324426792987439, 0.9651682762258729]
      },
      {
        "species": [{ "element": "I", "occu": 1 }],
        "abc": [0.79855294, 0.6580857, 0.77919342],
        "properties": { "magmom": -0.0 },
        "label": "I",
        "xyz": [2.812979067651342, 4.218746115108882, 4.269963309153871]
      },
      {
        "species": [{ "element": "I", "occu": 1 }],
        "abc": [0.20144706, 0.3419143, 0.22080658],
        "properties": { "magmom": -0.0 },
        "label": "I",
        "xyz": [0.3756691023486575, 2.1892554848911185, 1.0874502508461295]
      },
      {
        "species": [{ "element": "O", "occu": 1 }],
        "abc": [0.21849616, 0.9836788, 0.5831003100000001],
        "properties": { "magmom": 0.0 },
        "label": "O",
        "xyz": [-0.7493710270084776, 6.29059499667362, 2.9701042986141393]
      },
      {
        "species": [{ "element": "O", "occu": 1 }],
        "abc": [0.7815038400000001, 0.0163212, 0.41689969],
        "properties": { "magmom": 0.0 },
        "label": "O",
        "xyz": [3.9380191970084777, 0.1174066033263804, 2.387309261385861]
      },
      {
        "species": [{ "element": "O", "occu": 1 }],
        "abc": [0.7995145, 0.95519645, 0.80067931],
        "properties": { "magmom": 0.0 },
        "label": "O",
        "xyz": [2.253293458443755, 6.119246022665569, 4.1550314586127906]
      },
      {
        "species": [{ "element": "O", "occu": 1 }],
        "abc": [0.200485499999999, 0.04480355, 0.19932069],
        "properties": { "magmom": 0.0 },
        "label": "O",
        "xyz": [0.9353547115562393, 0.2887555773344296, 1.2023821013872098]
      },
      {
        "species": [{ "element": "O", "occu": 1 }],
        "abc": [0.85078036, 0.30283196, 0.14944471],
        "properties": { "magmom": -0.0 },
        "label": "O",
        "xyz": [3.737152265264849, 1.9554805249565939, 0.2882715859461551]
      },
      {
        "species": [{ "element": "O", "occu": 1 }],
        "abc": [0.14921964000000001, 0.69716804, 0.85055529],
        "properties": { "magmom": -0.0 },
        "label": "O",
        "xyz": [-0.5485040952648491, 4.452521075043405, 5.069141974053844]
      },
      {
        "species": [{ "element": "O", "occu": 1 }],
        "abc": [0.79195339, 0.6350108, 0.48191796000000003],
        "properties": { "magmom": 0.0 },
        "label": "O",
        "xyz": [2.815859497121646, 4.07485354380813, 2.280729909638699]
      },
      {
        "species": [{ "element": "O", "occu": 1 }],
        "abc": [0.20804661, 0.364989199999999, 0.51808204],
        "properties": { "magmom": 0.0 },
        "label": "O",
        "xyz": [0.37278867287835515, 2.3331480561918623, 3.076683650361302]
      },
      {
        "species": [{ "element": "O", "occu": 1 }],
        "abc": [0.25763097, 0.29083991, 0.8912990900000001],
        "properties": { "magmom": 0.0 },
        "label": "O",
        "xyz": [0.7744892279690531, 1.8550734773555462, 5.64201921480687]
      },
      {
        "species": [{ "element": "O", "occu": 1 }],
        "abc": [0.74236903, 0.70916009, 0.10870091],
        "properties": { "magmom": 0.0 },
        "label": "O",
        "xyz": [2.4141589420309466, 4.552928122644453, -0.2846056548068693]
      },
      {
        "species": [{ "element": "O", "occu": 1 }],
        "abc": [0.25154871, 0.6870005100000001, 0.2974264],
        "properties": { "magmom": 0.0 },
        "label": "O",
        "xyz": [-0.024958087251917414, 4.3971161637246166, 1.2773877823995365]
      },
      {
        "species": [{ "element": "O", "occu": 1 }],
        "abc": [0.74845129, 0.31299949, 0.7025736],
        "properties": { "magmom": 0.0 },
        "label": "O",
        "xyz": [3.213606257251917, 2.0108854362753847, 4.080025777600463]
      }
    ]
  },
  "task_ids": null,
  "uncorrected_energy_per_atom": null,
  "energy_per_atom": -4.701315240625,
  "formation_energy_per_atom": -0.609341333124999,
  "energy_above_hull": 0.052562974062498005,
  "is_stable": false,
  "equilibrium_reaction_energy_per_atom": null,
  "decomposes_to": null,
  "xas": null,
  "grain_boundaries": null,
  "band_gap": 1.9182000000000001,
  "cbm": null,
  "vbm": null,
  "efermi": 2.13259231,
  "is_gap_direct": null,
  "is_metal": null,
  "es_source_calc_id": null,
  "bandstructure": null,
  "dos": null,
  "dos_energy_up": null,
  "dos_energy_down": null,
  "is_magnetic": null,
  "ordering": null,
  "total_magnetization": 0.0,
  "total_magnetization_normalized_vol": null,
  "total_magnetization_normalized_formula_units": null,
  "num_magnetic_sites": null,
  "num_unique_magnetic_sites": null,
  "types_of_magnetic_species": null,
  "bulk_modulus": null,
  "shear_modulus": null,
  "universal_anisotropy": null,
  "homogeneous_poisson": null,
  "e_total": null,
  "e_ionic": null,
  "e_electronic": null,
  "n": null,
  "e_ij_max": null,
  "weighted_surface_energy_EV_PER_ANG2": null,
  "weighted_surface_energy": null,
  "weighted_work_function": null,
  "surface_anisotropy": null,
  "shape_factor": null,
  "has_reconstructed": null,
  "possible_species": null,
  "has_props": null,
  "theoretical": null,
  "database_IDs": null,
  "fields_not_requested": [
    "builder_meta",
    "nsites",
    "elements",
    "nelements",
    "composition",
    "composition_reduced",
    "chemsys",
    "symmetry",
    "property_name",
    "deprecated",
    "deprecation_reasons",
    "last_updated",
    "origins",
    "warnings",
    "task_ids",
    "uncorrected_energy_per_atom",
    "equilibrium_reaction_energy_per_atom",
    "decomposes_to",
    "xas",
    "grain_boundaries",
    "cbm",
    "vbm",
    "is_gap_direct",
    "is_metal",
    "es_source_calc_id",
    "bandstructure",
    "dos",
    "dos_energy_up",
    "dos_energy_down",
    "is_magnetic",
    "ordering",
    "total_magnetization_normalized_vol",
    "total_magnetization_normalized_formula_units",
    "num_magnetic_sites",
    "num_unique_magnetic_sites",
    "types_of_magnetic_species",
    "bulk_modulus",
    "shear_modulus",
    "universal_anisotropy",
    "homogeneous_poisson",
    "e_total",
    "e_ionic",
    "e_electronic",
    "n",
    "e_ij_max",
    "weighted_surface_energy_EV_PER_ANG2",
    "weighted_surface_energy",
    "weighted_work_function",
    "surface_anisotropy",
    "shape_factor",
    "has_reconstructed",
    "possible_species",
    "has_props",
    "theoretical",
    "database_IDs"
  ]
}
