{
  "builder_meta": null,
  "nsites": null,
  "elements": null,
  "nelements": null,
  "composition": null,
  "composition_reduced": null,
  "formula_pretty": "Ir2S3",
  "formula_anonymous": "A2B3",
  "chemsys": null,
  "volume": 317.5501599488466,
  "density": 10.053255601186986,
  "density_atomic": 15.877507997442331,
  "symmetry": null,
  "property_name": null,
  "material_id": "mp-1188655",
  "deprecated": null,
  "deprecation_reasons": null,
  "last_updated": null,
  "origins": null,
  "warnings": null,
  "structure": {
    "@module": "pymatgen.core.structure",
    "@class": "Structure",
    "charge": 0,
    "lattice": {
      "matrix": [
        [0.0, 6.04035176, -0.0],
        [0.0, 0.0, 6.17499299],
        [8.51360774, 0.0, 0.0]
      ],
      "pbc": [true, true, true],
      "a": 6.04035176,
      "b": 6.17499299,
      "c": 8.51360774,
      "alpha": 90.0,
      "beta": 90.0,
      "gamma": 90.0,
      "volume": 317.5501599488466
    },
    "properties": {},
    "sites": [
      {
        "species": [{ "element": "Ir", "occu": 1 }],
        "abc": [0.74920613, 0.5296348200000001, 0.10797451],
        "properties": { "magmom": 0.0 },
        "label": "Ir",
        "xyz": [0.9192526240587073, 4.525468565948289, 3.270491300759912]
      },
      {
        "species": [{ "element": "Ir", "occu": 1 }],
        "abc": [0.75079387, 0.02963482, 0.39202549000000003],
        "properties": { "magmom": 0.0 },
        "label": "Ir",
        "xyz": [3.3375512459412926, 4.535059074051711, 0.18299480575991178]
      },
      {
        "species": [{ "element": "Ir", "occu": 1 }],
        "abc": [0.75079387, 0.47036518, 0.60797451],
        "properties": { "magmom": 0.0 },
        "label": "Ir",
        "xyz": [5.176056494058707, 4.535059074051711, 2.904501689240088]
      },
      {
        "species": [{ "element": "Ir", "occu": 1 }],
        "abc": [0.74920613, 0.97036518, 0.89202549],
        "properties": { "magmom": 0.0 },
        "label": "Ir",
        "xyz": [7.594355115941292, 4.525468565948289, 5.991998184240089]
      },
      {
        "species": [{ "element": "Ir", "occu": 1 }],
        "abc": [0.25079387000000003, 0.47036518, 0.89202549],
        "properties": { "magmom": 0.0 },
        "label": "Ir",
        "xyz": [7.594355115941292, 1.5148831940517113, 2.904501689240088]
      },
      {
        "species": [{ "element": "Ir", "occu": 1 }],
        "abc": [0.24920613, 0.97036518, 0.60797451],
        "properties": { "magmom": 0.0 },
        "label": "Ir",
        "xyz": [5.176056494058707, 1.505292685948289, 5.991998184240089]
      },
      {
        "species": [{ "element": "Ir", "occu": 1 }],
        "abc": [0.24920613, 0.5296348200000001, 0.39202549000000003],
        "properties": { "magmom": 0.0 },
        "label": "Ir",
        "xyz": [3.3375512459412926, 1.505292685948289, 3.270491300759912]
      },
      {
        "species": [{ "element": "Ir", "occu": 1 }],
        "abc": [0.25079387000000003, 0.02963482, 0.10797451],
        "properties": { "magmom": 0.0 },
        "label": "Ir",
        "xyz": [0.9192526240587073, 1.5148831940517113, 0.18299480575991178]
      },
      {
        "species": [{ "element": "S", "occu": 1 }],
        "abc": [0.60940142, 0.8910678, 0.15008206],
        "properties": { "magmom": -0.0 },
        "label": "S",
        "xyz": [1.2777397876511443, 3.6809989398434992, 5.502337418614721]
      },
      {
        "species": [{ "element": "S", "occu": 1 }],
        "abc": [0.89059858, 0.391067799999999, 0.34991794],
        "properties": { "magmom": -0.0 },
        "label": "S",
        "xyz": [2.9790640823488554, 5.379528700156501, 2.4148409236147157]
      },
      {
        "species": [{ "element": "S", "occu": 1 }],
        "abc": [0.89059858, 0.10893219999999901, 0.65008206],
        "properties": { "magmom": -0.0 },
        "label": "S",
        "xyz": [5.534543657651144, 5.379528700156501, 0.6726555713852719]
      },
      {
        "species": [{ "element": "S", "occu": 1 }],
        "abc": [0.60940142, 0.608932199999999, 0.84991794],
        "properties": { "magmom": -0.0 },
        "label": "S",
        "xyz": [7.235867952348855, 3.6809989398434992, 3.760152066385272]
      },
      {
        "species": [{ "element": "S", "occu": 1 }],
        "abc": [0.39059858000000003, 0.10893219999999901, 0.84991794],
        "properties": { "magmom": -0.0 },
        "label": "S",
        "xyz": [7.235867952348855, 2.359352820156501, 0.6726555713852719]
      },
      {
        "species": [{ "element": "S", "occu": 1 }],
        "abc": [0.10940142, 0.608932199999999, 0.65008206],
        "properties": { "magmom": -0.0 },
        "label": "S",
        "xyz": [5.534543657651144, 0.6608230598434992, 3.760152066385272]
      },
      {
        "species": [{ "element": "S", "occu": 1 }],
        "abc": [0.10940142, 0.8910678, 0.34991794],
        "properties": { "magmom": -0.0 },
        "label": "S",
        "xyz": [2.9790640823488554, 0.6608230598434992, 5.502337418614721]
      },
      {
        "species": [{ "element": "S", "occu": 1 }],
        "abc": [0.39059858000000003, 0.391067799999999, 0.15008206],
        "properties": { "magmom": -0.0 },
        "label": "S",
        "xyz": [1.2777397876511443, 2.359352820156501, 2.4148409236147157]
      },
      {
        "species": [{ "element": "S", "occu": 1 }],
        "abc": [0.04472453, 0.75, 0.0],
        "properties": { "magmom": -0.0 },
        "label": "S",
        "xyz": [0.0, 0.2701518935006728, 4.6312447425]
      },
      {
        "species": [{ "element": "S", "occu": 1 }],
        "abc": [0.45527547, 0.25, 0.5],
        "properties": { "magmom": -0.0 },
        "label": "S",
        "xyz": [4.25680387, 2.7500239864993272, 1.5437482475]
      },
      {
        "species": [{ "element": "S", "occu": 1 }],
        "abc": [0.95527547, 0.25, 0.0],
        "properties": { "magmom": -0.0 },
        "label": "S",
        "xyz": [0.0, 5.770199866499327, 1.5437482475]
      },
      {
        "species": [{ "element": "S", "occu": 1 }],
        "abc": [0.54472453, 0.75, 0.5],
        "properties": { "magmom": -0.0 },
        "label": "S",
        "xyz": [4.25680387, 3.290327773500673, 4.6312447425]
      }
    ]
  },
  "task_ids": null,
  "uncorrected_energy_per_atom": null,
  "energy_per_atom": -26.2522462905,
  "formation_energy_per_atom": -0.48750546118749805,
  "energy_above_hull": 0.0,
  "is_stable": true,
  "equilibrium_reaction_energy_per_atom": null,
  "decomposes_to": null,
  "xas": null,
  "grain_boundaries": null,
  "band_gap": 0.7821,
  "cbm": null,
  "vbm": null,
  "efermi": 7.81278112,
  "is_gap_direct": null,
  "is_metal": null,
  "es_source_calc_id": null,
  "bandstructure": null,
  "dos": null,
  "dos_energy_up": null,
  "dos_energy_down": null,
  "is_magnetic": null,
  "ordering": null,
  "total_magnetization": 0.0,
  "total_magnetization_normalized_vol": null,
  "total_magnetization_normalized_formula_units": null,
  "num_magnetic_sites": null,
  "num_unique_magnetic_sites": null,
  "types_of_magnetic_species": null,
  "bulk_modulus": null,
  "shear_modulus": null,
  "universal_anisotropy": null,
  "homogeneous_poisson": null,
  "e_total": null,
  "e_ionic": null,
  "e_electronic": null,
  "n": null,
  "e_ij_max": null,
  "weighted_surface_energy_EV_PER_ANG2": null,
  "weighted_surface_energy": null,
  "weighted_work_function": null,
  "surface_anisotropy": null,
  "shape_factor": null,
  "has_reconstructed": null,
  "possible_species": null,
  "has_props": null,
  "theoretical": null,
  "database_IDs": null,
  "fields_not_requested": [
    "builder_meta",
    "nsites",
    "elements",
    "nelements",
    "composition",
    "composition_reduced",
    "chemsys",
    "symmetry",
    "property_name",
    "deprecated",
    "deprecation_reasons",
    "last_updated",
    "origins",
    "warnings",
    "task_ids",
    "uncorrected_energy_per_atom",
    "equilibrium_reaction_energy_per_atom",
    "decomposes_to",
    "xas",
    "grain_boundaries",
    "cbm",
    "vbm",
    "is_gap_direct",
    "is_metal",
    "es_source_calc_id",
    "bandstructure",
    "dos",
    "dos_energy_up",
    "dos_energy_down",
    "is_magnetic",
    "ordering",
    "total_magnetization_normalized_vol",
    "total_magnetization_normalized_formula_units",
    "num_magnetic_sites",
    "num_unique_magnetic_sites",
    "types_of_magnetic_species",
    "bulk_modulus",
    "shear_modulus",
    "universal_anisotropy",
    "homogeneous_poisson",
    "e_total",
    "e_ionic",
    "e_electronic",
    "n",
    "e_ij_max",
    "weighted_surface_energy_EV_PER_ANG2",
    "weighted_surface_energy",
    "weighted_work_function",
    "surface_anisotropy",
    "shape_factor",
    "has_reconstructed",
    "possible_species",
    "has_props",
    "theoretical",
    "database_IDs"
  ]
}
