{
  "builder_meta": null,
  "nsites": null,
  "elements": null,
  "nelements": null,
  "composition": null,
  "composition_reduced": null,
  "formula_pretty": "Ir3Ru",
  "formula_anonymous": "AB3",
  "chemsys": null,
  "volume": 56.41324546321916,
  "density": 19.94890007682603,
  "density_atomic": 14.10331136580479,
  "symmetry": null,
  "property_name": null,
  "material_id": "mp-974358",
  "deprecated": null,
  "deprecation_reasons": null,
  "last_updated": null,
  "origins": null,
  "warnings": null,
  "structure": {
    "@module": "pymatgen.core.structure",
    "@class": "Structure",
    "charge": 0,
    "lattice": {
      "matrix": [
        [-1.9170482500000001, 1.9170482500000001, 3.83755848],
        [1.9170482500000001, -1.9170482500000001, 3.83755848],
        [1.9170482500000001, 1.9170482500000001, -3.83755848]
      ],
      "pbc": [true, true, true],
      "a": 4.698617144764621,
      "b": 4.698617144764621,
      "c": 4.698617144764621,
      "alpha": 131.84114788858014,
      "beta": 131.84114788858014,
      "gamma": 70.48003252085782,
      "volume": 56.41324546321918
    },
    "properties": {},
    "sites": [
      {
        "species": [{ "element": "Ir", "occu": 1 }],
        "abc": [0.749999, 0.25, 0.499998],
        "properties": { "magmom": -0.0 },
        "label": "Ir",
        "xyz": [-1.9170482499220043e-6, 1.9170424988552501, 1.9187830775584798]
      },
      {
        "species": [{ "element": "Ir", "occu": 1 }],
        "abc": [0.25, 0.749999, 0.499998],
        "properties": { "magmom": -0.0 },
        "label": "Ir",
        "xyz": [1.9170424988552501, -1.9170482499220043e-6, 1.9187830775584798]
      },
      {
        "species": [{ "element": "Ir", "occu": 1 }],
        "abc": [0.499998999999999, 0.499998999999999, 0.0],
        "properties": { "magmom": -0.0 },
        "label": "Ir",
        "xyz": [0.0, 0.0, 3.837550804883033]
      },
      {
        "species": [{ "element": "Ru", "occu": 1 }],
        "abc": [0.0, 0.0, 0.0],
        "properties": { "magmom": -0.0 },
        "label": "Ru",
        "xyz": [0.0, 0.0, 0.0]
      }
    ]
  },
  "task_ids": null,
  "uncorrected_energy_per_atom": null,
  "energy_per_atom": -45.666668755,
  "formation_energy_per_atom": -0.041019843750007,
  "energy_above_hull": 0.0,
  "is_stable": true,
  "equilibrium_reaction_energy_per_atom": null,
  "decomposes_to": null,
  "xas": null,
  "grain_boundaries": null,
  "band_gap": 0.0,
  "cbm": null,
  "vbm": null,
  "efermi": 9.68436355,
  "is_gap_direct": null,
  "is_metal": null,
  "es_source_calc_id": null,
  "bandstructure": null,
  "dos": null,
  "dos_energy_up": null,
  "dos_energy_down": null,
  "is_magnetic": null,
  "ordering": null,
  "total_magnetization": 3.3900000000000004e-5,
  "total_magnetization_normalized_vol": null,
  "total_magnetization_normalized_formula_units": null,
  "num_magnetic_sites": null,
  "num_unique_magnetic_sites": null,
  "types_of_magnetic_species": null,
  "bulk_modulus": null,
  "shear_modulus": null,
  "universal_anisotropy": null,
  "homogeneous_poisson": null,
  "e_total": null,
  "e_ionic": null,
  "e_electronic": null,
  "n": null,
  "e_ij_max": null,
  "weighted_surface_energy_EV_PER_ANG2": null,
  "weighted_surface_energy": null,
  "weighted_work_function": null,
  "surface_anisotropy": null,
  "shape_factor": null,
  "has_reconstructed": null,
  "possible_species": null,
  "has_props": null,
  "theoretical": null,
  "database_IDs": null,
  "fields_not_requested": [
    "builder_meta",
    "nsites",
    "elements",
    "nelements",
    "composition",
    "composition_reduced",
    "chemsys",
    "symmetry",
    "property_name",
    "deprecated",
    "deprecation_reasons",
    "last_updated",
    "origins",
    "warnings",
    "task_ids",
    "uncorrected_energy_per_atom",
    "equilibrium_reaction_energy_per_atom",
    "decomposes_to",
    "xas",
    "grain_boundaries",
    "cbm",
    "vbm",
    "is_gap_direct",
    "is_metal",
    "es_source_calc_id",
    "bandstructure",
    "dos",
    "dos_energy_up",
    "dos_energy_down",
    "is_magnetic",
    "ordering",
    "total_magnetization_normalized_vol",
    "total_magnetization_normalized_formula_units",
    "num_magnetic_sites",
    "num_unique_magnetic_sites",
    "types_of_magnetic_species",
    "bulk_modulus",
    "shear_modulus",
    "universal_anisotropy",
    "homogeneous_poisson",
    "e_total",
    "e_ionic",
    "e_electronic",
    "n",
    "e_ij_max",
    "weighted_surface_energy_EV_PER_ANG2",
    "weighted_surface_energy",
    "weighted_work_function",
    "surface_anisotropy",
    "shape_factor",
    "has_reconstructed",
    "possible_species",
    "has_props",
    "theoretical",
    "database_IDs"
  ]
}
