{
  "builder_meta": null,
  "nsites": null,
  "elements": null,
  "nelements": null,
  "composition": null,
  "composition_reduced": null,
  "formula_pretty": "Ir3Se8",
  "formula_anonymous": "A3B8",
  "chemsys": null,
  "volume": 218.5141173078456,
  "density": 9.182385356169405,
  "density_atomic": 19.86491975525869,
  "symmetry": null,
  "property_name": null,
  "material_id": "mp-9888",
  "deprecated": null,
  "deprecation_reasons": null,
  "last_updated": null,
  "origins": null,
  "warnings": null,
  "structure": {
    "@module": "pymatgen.core.structure",
    "@class": "Structure",
    "charge": 0,
    "lattice": {
      "matrix": [
        [6.02316586, 0.00318663, -0.0303649],
        [-0.03050123, 6.02313062, -0.030366050000000002],
        [0.0034758, 0.00333087, 6.02322037]
      ],
      "pbc": [true, true, true],
      "a": 6.023243242542368,
      "b": 6.0232843937179075,
      "c": 6.0232222938775495,
      "alpha": 90.25733763309482,
      "beta": 90.25576543094203,
      "gamma": 90.25836841951431,
      "volume": 218.5141173078456
    },
    "properties": {},
    "sites": [
      {
        "species": [{ "element": "Ir", "occu": 1 }],
        "abc": [0.5, -0.0, 0.5],
        "properties": { "magmom": 0.0 },
        "label": "Ir",
        "xyz": [3.01332083, 0.0032587500000000004, 2.9964277349999997]
      },
      {
        "species": [{ "element": "Ir", "occu": 1 }],
        "abc": [0.0, 0.5, 0.5],
        "properties": { "magmom": 0.0 },
        "label": "Ir",
        "xyz": [-0.013512715, 3.013230745, 2.99642716]
      },
      {
        "species": [{ "element": "Ir", "occu": 1 }],
        "abc": [0.5, 0.5, -0.0],
        "properties": { "magmom": 0.0 },
        "label": "Ir",
        "xyz": [2.996332315, 3.013158625, -0.030365475000000003]
      },
      {
        "species": [{ "element": "Se", "occu": 1 }],
        "abc": [0.38419769, 0.11611564, 0.87972052],
        "properties": { "magmom": 0.0 },
        "label": "Se",
        "xyz": [2.313602472640042, 0.703534197318234, 5.283558458203889]
      },
      {
        "species": [{ "element": "Se", "occu": 1 }],
        "abc": [0.11611238, 0.87972251, 0.38419946],
        "properties": { "magmom": 0.0 },
        "label": "Se",
        "xyz": [0.6738669050087275, 5.300333312733066, 2.2838785750827526]
      },
      {
        "species": [{ "element": "Se", "occu": 1 }],
        "abc": [0.87973968, 0.38418612, 0.11612289],
        "properties": { "magmom": 0.0 },
        "label": "Se",
        "xyz": [5.287503476995459, 2.317193378258087, 0.6610543341328112]
      },
      {
        "species": [{ "element": "Se", "occu": 1 }],
        "abc": [0.37384736, 0.37385481, 0.37385341],
        "properties": { "magmom": 0.0 },
        "label": "Se",
        "xyz": [2.2416410637391913, 2.2542129238658455, 2.229097142951097]
      },
      {
        "species": [{ "element": "Se", "occu": 1 }],
        "abc": [0.62615264, 0.62614519, 0.6261465900000001],
        "properties": { "magmom": 0.0 },
        "label": "Se",
        "xyz": [3.754499366260809, 3.775435196134154, 3.733392277048903]
      },
      {
        "species": [{ "element": "Se", "occu": 1 }],
        "abc": [0.12026032, 0.61581388, 0.88387711],
        "properties": { "magmom": 0.0 },
        "label": "Se",
        "xyz": [0.7086369530045408, 3.712454741741913, 5.3014350858671895]
      },
      {
        "species": [{ "element": "Se", "occu": 1 }],
        "abc": [0.88388762, 0.12027749, 0.6158005400000001],
        "properties": { "magmom": 0.0 },
        "label": "Se",
        "xyz": [5.322273524991273, 0.7293148072669342, 3.678610844917247]
      },
      {
        "species": [{ "element": "Se", "occu": 1 }],
        "abc": [0.61580231, 0.88388436, 0.12027948000000001],
        "properties": { "magmom": 0.0 },
        "label": "Se",
        "xyz": [3.6825379573599575, 5.326113922681766, 0.6789309617961107]
      }
    ]
  },
  "task_ids": null,
  "uncorrected_energy_per_atom": null,
  "energy_per_atom": -25.049888093636365,
  "formation_energy_per_atom": -0.361656984772728,
  "energy_above_hull": 0.0,
  "is_stable": true,
  "equilibrium_reaction_energy_per_atom": null,
  "decomposes_to": null,
  "xas": null,
  "grain_boundaries": null,
  "band_gap": 0.0,
  "cbm": null,
  "vbm": null,
  "efermi": 5.94941744,
  "is_gap_direct": null,
  "is_metal": null,
  "es_source_calc_id": null,
  "bandstructure": null,
  "dos": null,
  "dos_energy_up": null,
  "dos_energy_down": null,
  "is_magnetic": null,
  "ordering": null,
  "total_magnetization": 1.1e-6,
  "total_magnetization_normalized_vol": null,
  "total_magnetization_normalized_formula_units": null,
  "num_magnetic_sites": null,
  "num_unique_magnetic_sites": null,
  "types_of_magnetic_species": null,
  "bulk_modulus": null,
  "shear_modulus": null,
  "universal_anisotropy": null,
  "homogeneous_poisson": null,
  "e_total": null,
  "e_ionic": null,
  "e_electronic": null,
  "n": null,
  "e_ij_max": null,
  "weighted_surface_energy_EV_PER_ANG2": null,
  "weighted_surface_energy": null,
  "weighted_work_function": null,
  "surface_anisotropy": null,
  "shape_factor": null,
  "has_reconstructed": null,
  "possible_species": null,
  "has_props": null,
  "theoretical": null,
  "database_IDs": null,
  "fields_not_requested": [
    "builder_meta",
    "nsites",
    "elements",
    "nelements",
    "composition",
    "composition_reduced",
    "chemsys",
    "symmetry",
    "property_name",
    "deprecated",
    "deprecation_reasons",
    "last_updated",
    "origins",
    "warnings",
    "task_ids",
    "uncorrected_energy_per_atom",
    "equilibrium_reaction_energy_per_atom",
    "decomposes_to",
    "xas",
    "grain_boundaries",
    "cbm",
    "vbm",
    "is_gap_direct",
    "is_metal",
    "es_source_calc_id",
    "bandstructure",
    "dos",
    "dos_energy_up",
    "dos_energy_down",
    "is_magnetic",
    "ordering",
    "total_magnetization_normalized_vol",
    "total_magnetization_normalized_formula_units",
    "num_magnetic_sites",
    "num_unique_magnetic_sites",
    "types_of_magnetic_species",
    "bulk_modulus",
    "shear_modulus",
    "universal_anisotropy",
    "homogeneous_poisson",
    "e_total",
    "e_ionic",
    "e_electronic",
    "n",
    "e_ij_max",
    "weighted_surface_energy_EV_PER_ANG2",
    "weighted_surface_energy",
    "weighted_work_function",
    "surface_anisotropy",
    "shape_factor",
    "has_reconstructed",
    "possible_species",
    "has_props",
    "theoretical",
    "database_IDs"
  ]
}
