{
  "builder_meta": null,
  "nsites": null,
  "elements": null,
  "nelements": null,
  "composition": null,
  "composition_reduced": null,
  "formula_pretty": "Ir3S8",
  "formula_anonymous": "A3B8",
  "chemsys": null,
  "volume": 184.01641821623707,
  "density": 7.518421497762374,
  "density_atomic": 16.728765292385187,
  "symmetry": null,
  "property_name": null,
  "material_id": "mp-1101826",
  "deprecated": null,
  "deprecation_reasons": null,
  "last_updated": null,
  "origins": null,
  "warnings": null,
  "structure": {
    "@module": "pymatgen.core.structure",
    "@class": "Structure",
    "charge": 0,
    "lattice": {
      "matrix": [
        [-3.99615762, -2.30723068, -3.32641327],
        [4.0270000000000006e-5, -4.61438986, 3.32641326],
        [-3.99619789, 2.3071602, 3.32641327]
      ],
      "pbc": [true, true, true],
      "a": 5.688375372410775,
      "b": 5.688375775034234,
      "c": 5.688375076182704,
      "alpha": 89.25853630455939,
      "beta": 90.741484538434,
      "gamma": 90.74145768897938,
      "volume": 184.01641821623707
    },
    "properties": {},
    "sites": [
      {
        "species": [{ "element": "Ir", "occu": 1 }],
        "abc": [0.5, 0.5, 0.0],
        "properties": { "magmom": 0.0 },
        "label": "Ir",
        "xyz": [-1.998058675, -3.46081027, -5.00000019165725e-9]
      },
      {
        "species": [{ "element": "Ir", "occu": 1 }],
        "abc": [0.0, 0.5, 0.5],
        "properties": { "magmom": 0.0 },
        "label": "Ir",
        "xyz": [-1.99807881, -1.15361483, 3.3264132650000002]
      },
      {
        "species": [{ "element": "Ir", "occu": 1 }],
        "abc": [0.5, 0.0, 0.5],
        "properties": { "magmom": 0.0 },
        "label": "Ir",
        "xyz": [-3.9961777549999997, -3.523999999988092e-5, 0.0]
      },
      {
        "species": [{ "element": "S", "occu": 1 }],
        "abc": [0.11046559, 0.11031845, 0.39610039],
        "properties": { "magmom": 0.0 },
        "label": "S",
        "xyz": [-2.0243290094484916, 0.14994511962925983, 1.3171041439964433]
      },
      {
        "species": [{ "element": "S", "occu": 1 }],
        "abc": [0.60389961, 0.88953441, 0.11031845],
        "properties": { "magmom": 0.0 },
        "label": "S",
        "xyz": [-2.854096563783908, -5.2434719322914285, 1.317104136204283]
      },
      {
        "species": [{ "element": "S", "occu": 1 }],
        "abc": [0.88968155, 0.39610039, 0.88953441],
        "properties": { "magmom": 0.0 },
        "label": "S",
        "xyz": [-7.110047286767601, -1.8281638034655172, 1.3171041411386237]
      },
      {
        "species": [{ "element": "S", "occu": 1 }],
        "abc": [0.88953441, 0.88968155, 0.60389961],
        "properties": { "magmom": 0.0 },
        "label": "S",
        "xyz": [-5.967986230551508, -4.76440545962926, 2.009309116003557]
      },
      {
        "species": [{ "element": "S", "occu": 1 }],
        "abc": [0.39610039, 0.11046559, 0.88968155],
        "properties": { "magmom": 0.0 },
        "label": "S",
        "xyz": [-5.138218676216092, 0.6290115922914277, 2.009309123795717]
      },
      {
        "species": [{ "element": "S", "occu": 1 }],
        "abc": [0.11031845, 0.60389961, 0.11046559],
        "properties": { "magmom": 0.0 },
        "label": "S",
        "xyz": [-0.8822679532323994, -2.7862965365344827, 2.0093091188613763]
      },
      {
        "species": [{ "element": "S", "occu": 1 }],
        "abc": [0.37225261, 0.62774739, 0.62774739],
        "properties": { "magmom": 0.0 },
        "label": "S",
        "xyz": [-3.99615762, -2.3072300396976617, 2.938028468634122]
      },
      {
        "species": [{ "element": "S", "occu": 1 }],
        "abc": [0.62774739, 0.37225261, 0.37225261],
        "properties": { "magmom": 0.0 },
        "label": "S",
        "xyz": [-3.99615762, -2.3072303003023378, 0.38838479136587756]
      }
    ]
  },
  "task_ids": null,
  "uncorrected_energy_per_atom": null,
  "energy_per_atom": -20.54455343727273,
  "formation_energy_per_atom": -0.42109407295454604,
  "energy_above_hull": 0.0,
  "is_stable": true,
  "equilibrium_reaction_energy_per_atom": null,
  "decomposes_to": null,
  "xas": null,
  "grain_boundaries": null,
  "band_gap": 0.0,
  "cbm": null,
  "vbm": null,
  "efermi": 7.56760746,
  "is_gap_direct": null,
  "is_metal": null,
  "es_source_calc_id": null,
  "bandstructure": null,
  "dos": null,
  "dos_energy_up": null,
  "dos_energy_down": null,
  "is_magnetic": null,
  "ordering": null,
  "total_magnetization": 0.0001058,
  "total_magnetization_normalized_vol": null,
  "total_magnetization_normalized_formula_units": null,
  "num_magnetic_sites": null,
  "num_unique_magnetic_sites": null,
  "types_of_magnetic_species": null,
  "bulk_modulus": null,
  "shear_modulus": null,
  "universal_anisotropy": null,
  "homogeneous_poisson": null,
  "e_total": null,
  "e_ionic": null,
  "e_electronic": null,
  "n": null,
  "e_ij_max": null,
  "weighted_surface_energy_EV_PER_ANG2": null,
  "weighted_surface_energy": null,
  "weighted_work_function": null,
  "surface_anisotropy": null,
  "shape_factor": null,
  "has_reconstructed": null,
  "possible_species": null,
  "has_props": null,
  "theoretical": null,
  "database_IDs": null,
  "fields_not_requested": [
    "builder_meta",
    "nsites",
    "elements",
    "nelements",
    "composition",
    "composition_reduced",
    "chemsys",
    "symmetry",
    "property_name",
    "deprecated",
    "deprecation_reasons",
    "last_updated",
    "origins",
    "warnings",
    "task_ids",
    "uncorrected_energy_per_atom",
    "equilibrium_reaction_energy_per_atom",
    "decomposes_to",
    "xas",
    "grain_boundaries",
    "cbm",
    "vbm",
    "is_gap_direct",
    "is_metal",
    "es_source_calc_id",
    "bandstructure",
    "dos",
    "dos_energy_up",
    "dos_energy_down",
    "is_magnetic",
    "ordering",
    "total_magnetization_normalized_vol",
    "total_magnetization_normalized_formula_units",
    "num_magnetic_sites",
    "num_unique_magnetic_sites",
    "types_of_magnetic_species",
    "bulk_modulus",
    "shear_modulus",
    "universal_anisotropy",
    "homogeneous_poisson",
    "e_total",
    "e_ionic",
    "e_electronic",
    "n",
    "e_ij_max",
    "weighted_surface_energy_EV_PER_ANG2",
    "weighted_surface_energy",
    "weighted_work_function",
    "surface_anisotropy",
    "shape_factor",
    "has_reconstructed",
    "possible_species",
    "has_props",
    "theoretical",
    "database_IDs"
  ]
}
