{"builder_meta": null, "nsites": null, "elements": null, "nelements": null, "composition": null, "composition_reduced": null, "formula_pretty": "Ir3W", "formula_anonymous": "AB3", "chemsys": null, "volume": 116.14632935461397, "density": 21.74541412225068, "density_atomic": 14.518291169326746, "symmetry": null, "property_name": null, "material_id": "mp-30745", "deprecated": null, "deprecation_reasons": null, "last_updated": null, "origins": null, "warnings": null, "structure": {"@module": "pymatgen.core.structure", "@class": "Structure", "charge": 0, "lattice": {"matrix": [[5.51517354, 0.0, 0.0], [-2.75758626, 4.7762789, -0.0], [0.0, 0.0, 4.40916781]], "pbc": [true, true, true], "a": 5.51517354, "b": 5.515171992959603, "c": 4.40916781, "alpha": 90.0, "beta": 90.0, "gamma": 120.00000316116277, "volume": 116.14632935461397}, "properties": {}, "sites": [{"species": [{"element": "Ir", "occu": 1}], "abc": [0.66754759, 0.83377329, 0.75], "properties": {"magmom": -0.0}, "label": "Ir", "xyz": [1.3824390365997727, 3.9823337724105814, 3.3068758574999997]}, {"species": [{"element": "Ir", "occu": 1}], "abc": [0.33245241000000003, 0.16622671, 0.25], "properties": {"magmom": -0.0}, "label": "Ir", "xyz": [1.375148243400227, 0.793945127589419, 1.1022919525]}, {"species": [{"element": "Ir", "occu": 1}], "abc": [0.83377329, 0.16622671, 0.25], "properties": {"magmom": -0.0}, "label": "Ir", "xyz": [4.140019895825742, 0.793945127589419, 1.1022919525]}, {"species": [{"element": "Ir", "occu": 1}], "abc": [0.16622671, 0.33245241000000003, 0.75], "properties": {"magmom": -0.0}, "label": "Ir", "xyz": [2.9547133667540137e-06, 1.5878854311371493, 3.3068758574999997]}, {"species": [{"element": "Ir", "occu": 1}], "abc": [0.16622671, 0.83377329, 0.75], "properties": {"magmom": -0.0}, "label": "Ir", "xyz": [-1.382432615825742, 3.9823337724105814, 3.3068758574999997]}, {"species": [{"element": "Ir", "occu": 1}], "abc": [0.83377329, 0.66754759, 0.25], "properties": {"magmom": -0.0}, "label": "Ir", "xyz": [2.7575843252866337, 3.1883934688628512, 1.1022919525]}, {"species": [{"element": "W", "occu": 1}], "abc": [0.666667, 0.333333, 0.75], "properties": {"magmom": 0.0}, "label": "W", "xyz": [2.7575896975866, 1.5920913745737, 3.3068758574999997]}, {"species": [{"element": "W", "occu": 1}], "abc": [0.333333, 0.666667, 0.25], "properties": {"magmom": 0.0}, "label": "W", "xyz": [-2.417586600023114e-06, 3.1841875254263003, 1.1022919525]}]}, "task_ids": null, "uncorrected_energy_per_atom": null, "energy_per_atom": -52.48224108875, "formation_energy_per_atom": -0.37077740625000605, "energy_above_hull": 0.0, "is_stable": true, "equilibrium_reaction_energy_per_atom": null, "decomposes_to": null, "xas": null, "grain_boundaries": null, "band_gap": 0.0, "cbm": null, "vbm": null, "efermi": 9.64665298, "is_gap_direct": null, "is_metal": null, "es_source_calc_id": null, "bandstructure": null, "dos": null, "dos_energy_up": null, "dos_energy_down": null, "is_magnetic": null, "ordering": null, "total_magnetization": 1e-07, "total_magnetization_normalized_vol": null, "total_magnetization_normalized_formula_units": null, "num_magnetic_sites": null, "num_unique_magnetic_sites": null, "types_of_magnetic_species": null, "bulk_modulus": null, "shear_modulus": null, "universal_anisotropy": null, "homogeneous_poisson": null, "e_total": null, "e_ionic": null, "e_electronic": null, "n": null, "e_ij_max": null, "weighted_surface_energy_EV_PER_ANG2": null, "weighted_surface_energy": null, "weighted_work_function": null, "surface_anisotropy": null, "shape_factor": null, "has_reconstructed": null, "possible_species": null, "has_props": null, "theoretical": null, "database_IDs": null, "fields_not_requested": ["builder_meta", "nsites", "elements", "nelements", "composition", "composition_reduced", "chemsys", "symmetry", "property_name", "deprecated", "deprecation_reasons", "last_updated", "origins", "warnings", "task_ids", "uncorrected_energy_per_atom", "equilibrium_reaction_energy_per_atom", "decomposes_to", "xas", "grain_boundaries", "cbm", "vbm", "is_gap_direct", "is_metal", "es_source_calc_id", "bandstructure", "dos", "dos_energy_up", "dos_energy_down", "is_magnetic", "ordering", "total_magnetization_normalized_vol", "total_magnetization_normalized_formula_units", "num_magnetic_sites", "num_unique_magnetic_sites", "types_of_magnetic_species", "bulk_modulus", "shear_modulus", "universal_anisotropy", "homogeneous_poisson", "e_total", "e_ionic", "e_electronic", "n", "e_ij_max", "weighted_surface_energy_EV_PER_ANG2", "weighted_surface_energy", "weighted_work_function", "surface_anisotropy", "shape_factor", "has_reconstructed", "possible_species", "has_props", "theoretical", "database_IDs"]}