{"builder_meta": null, "nsites": null, "elements": null, "nelements": null, "composition": null, "composition_reduced": null, "formula_pretty": "Ir4C5", "formula_anonymous": "A4B5", "chemsys": null, "volume": 383.20732863296143, "density": 14.367747493817387, "density_atomic": 10.644648017582263, "symmetry": null, "property_name": null, "material_id": "mp-1197234", "deprecated": null, "deprecation_reasons": null, "last_updated": null, "origins": null, "warnings": null, "structure": {"@module": "pymatgen.core.structure", "@class": "Structure", "charge": 0, "lattice": {"matrix": [[5.042396, 0.0, 0.0], [0.0, 5.042396, 0.0], [0.0, 0.0, 15.071619]], "pbc": [true, true, true], "a": 5.042396, "b": 5.042396, "c": 15.071619, "alpha": 90.0, "beta": 90.0, "gamma": 90.0, "volume": 383.20732863296143}, "properties": {}, "sites": [{"species": [{"element": "Ir", "occu": 1}], "abc": [0.0, 0.0, 0.5], "properties": {"magmom": -0.0}, "label": "Ir", "xyz": [0.0, 0.0, 7.5358095]}, {"species": [{"element": "Ir", "occu": 1}], "abc": [0.0, 0.0, 0.0], "properties": {"magmom": -0.0}, "label": "Ir", "xyz": [0.0, 0.0, 0.0]}, {"species": [{"element": "Ir", "occu": 1}], "abc": [0.0, 0.0, 0.25], "properties": {"magmom": 0.0}, "label": "Ir", "xyz": [0.0, 0.0, 3.76790475]}, {"species": [{"element": "Ir", "occu": 1}], "abc": [0.0, 0.0, 0.75], "properties": {"magmom": 0.0}, "label": "Ir", "xyz": [0.0, 0.0, 11.30371425]}, {"species": [{"element": "Ir", "occu": 1}], "abc": [0.5, 0.5, 0.364747999999999], "properties": {"magmom": -0.0}, "label": "Ir", "xyz": [2.521198, 2.521198, 5.497342887011985]}, {"species": [{"element": "Ir", "occu": 1}], "abc": [0.5, 0.5, 0.864748], "properties": {"magmom": -0.0}, "label": "Ir", "xyz": [2.521198, 2.521198, 13.033152387011999]}, {"species": [{"element": "Ir", "occu": 1}], "abc": [0.5, 0.5, 0.635251999999999], "properties": {"magmom": -0.0}, "label": "Ir", "xyz": [2.521198, 2.521198, 9.574276112987986]}, {"species": [{"element": "Ir", "occu": 1}], "abc": [0.5, 0.5, 0.135251999999999], "properties": {"magmom": -0.0}, "label": "Ir", "xyz": [2.521198, 2.521198, 2.038466612987985]}, {"species": [{"element": "Ir", "occu": 1}], "abc": [0.5, 0.0, 0.439886], "properties": {"magmom": -0.0}, "label": "Ir", "xyz": [2.521198, 0.0, 6.629794195434]}, {"species": [{"element": "Ir", "occu": 1}], "abc": [0.5, 0.0, 0.939886], "properties": {"magmom": -0.0}, "label": "Ir", "xyz": [2.521198, 0.0, 14.165603695434]}, {"species": [{"element": "Ir", "occu": 1}], "abc": [0.0, 0.5, 0.560114], "properties": {"magmom": -0.0}, "label": "Ir", "xyz": [0.0, 2.521198, 8.441824804566]}, {"species": [{"element": "Ir", "occu": 1}], "abc": [0.0, 0.5, 0.060113999999999], "properties": {"magmom": -0.0}, "label": "Ir", "xyz": [0.0, 2.521198, 0.906015304565985]}, {"species": [{"element": "Ir", "occu": 1}], "abc": [0.5, 0.0, 0.173531], "properties": {"magmom": 0.0}, "label": "Ir", "xyz": [2.521198, 0.0, 2.615393116689]}, {"species": [{"element": "Ir", "occu": 1}], "abc": [0.5, 0.0, 0.673531], "properties": {"magmom": 0.0}, "label": "Ir", "xyz": [2.521198, 0.0, 10.151202616689]}, {"species": [{"element": "Ir", "occu": 1}], "abc": [0.0, 0.5, 0.826469], "properties": {"magmom": 0.0}, "label": "Ir", "xyz": [0.0, 2.521198, 12.456225883311]}, {"species": [{"element": "Ir", "occu": 1}], "abc": [0.0, 0.5, 0.326469], "properties": {"magmom": 0.0}, "label": "Ir", "xyz": [0.0, 2.521198, 4.920416383311]}, {"species": [{"element": "C", "occu": 1}], "abc": [0.322279, 0.322279, 0.25], "properties": {"magmom": -0.0}, "label": "C", "xyz": [1.625058340484, 1.625058340484, 3.76790475]}, {"species": [{"element": "C", "occu": 1}], "abc": [0.677721, 0.677721, 0.25], "properties": {"magmom": -0.0}, "label": "C", "xyz": [3.4173376595160003, 3.4173376595160003, 3.76790475]}, {"species": [{"element": "C", "occu": 1}], "abc": [0.322279, 0.677721, 0.75], "properties": {"magmom": -0.0}, "label": "C", "xyz": [1.625058340484, 3.4173376595160003, 11.30371425]}, {"species": [{"element": "C", "occu": 1}], "abc": [0.677721, 0.322279, 0.75], "properties": {"magmom": -0.0}, "label": "C", "xyz": [3.4173376595160003, 1.625058340484, 11.30371425]}, {"species": [{"element": "C", "occu": 1}], "abc": [0.189618999999999, 0.333642999999999, 0.445658], "properties": {"magmom": 0.0}, "label": "C", "xyz": [0.9561340871239951, 1.682360128627995, 6.716787580302]}, {"species": [{"element": "C", "occu": 1}], "abc": [0.810381, 0.666357, 0.445658], "properties": {"magmom": 0.0}, "label": "C", "xyz": [4.086261912876, 3.3600358713719998, 6.716787580302]}, {"species": [{"element": "C", "occu": 1}], "abc": [0.189618999999999, 0.666357, 0.945658], "properties": {"magmom": 0.0}, "label": "C", "xyz": [0.9561340871239951, 3.3600358713719998, 14.252597080302]}, {"species": [{"element": "C", "occu": 1}], "abc": [0.810381, 0.333642999999999, 0.945658], "properties": {"magmom": 0.0}, "label": "C", "xyz": [4.086261912876, 1.682360128627995, 14.252597080302]}, {"species": [{"element": "C", "occu": 1}], "abc": [0.333642999999999, 0.810381, 0.554342], "properties": {"magmom": 0.0}, "label": "C", "xyz": [1.682360128627995, 4.086261912876, 8.354831419698]}, {"species": [{"element": "C", "occu": 1}], "abc": [0.666357, 0.189618999999999, 0.554342], "properties": {"magmom": 0.0}, "label": "C", "xyz": [3.3600358713719998, 0.9561340871239951, 8.354831419698]}, {"species": [{"element": "C", "occu": 1}], "abc": [0.666357, 0.810381, 0.054341999999999], "properties": {"magmom": 0.0}, "label": "C", "xyz": [3.3600358713719998, 4.086261912876, 0.819021919697985]}, {"species": [{"element": "C", "occu": 1}], "abc": [0.333642999999999, 0.189618999999999, 0.054341999999999], "properties": {"magmom": 0.0}, "label": "C", "xyz": [1.682360128627995, 0.9561340871239951, 0.819021919697985]}, {"species": [{"element": "C", "occu": 1}], "abc": [0.229910999999999, 0.839669, 0.353168], "properties": {"magmom": -0.0}, "label": "C", "xyz": [1.159302306755995, 4.233943606924, 5.3228135389919995]}, {"species": [{"element": "C", "occu": 1}], "abc": [0.770088999999999, 0.160331, 0.353168], "properties": {"magmom": -0.0}, "label": "C", "xyz": [3.8830936932439952, 0.808452393076, 5.3228135389919995]}, {"species": [{"element": "C", "occu": 1}], "abc": [0.229910999999999, 0.160331, 0.853167999999999], "properties": {"magmom": -0.0}, "label": "C", "xyz": [1.159302306755995, 0.808452393076, 12.858623038991986]}, {"species": [{"element": "C", "occu": 1}], "abc": [0.770088999999999, 0.839669, 0.853167999999999], "properties": {"magmom": -0.0}, "label": "C", "xyz": [3.8830936932439952, 4.233943606924, 12.858623038991986]}, {"species": [{"element": "C", "occu": 1}], "abc": [0.839669, 0.770088999999999, 0.646832], "properties": {"magmom": -0.0}, "label": "C", "xyz": [4.233943606924, 3.8830936932439952, 9.748805461007999]}, {"species": [{"element": "C", "occu": 1}], "abc": [0.160331, 0.229910999999999, 0.646832], "properties": {"magmom": -0.0}, "label": "C", "xyz": [0.808452393076, 1.159302306755995, 9.748805461007999]}, {"species": [{"element": "C", "occu": 1}], "abc": [0.160331, 0.770088999999999, 0.146832], "properties": {"magmom": -0.0}, "label": "C", "xyz": [0.808452393076, 3.8830936932439952, 2.2129959610079997]}, {"species": [{"element": "C", "occu": 1}], "abc": [0.839669, 0.229910999999999, 0.146832], "properties": {"magmom": -0.0}, "label": "C", "xyz": [4.233943606924, 1.159302306755995, 2.2129959610079997]}]}, "task_ids": null, "uncorrected_energy_per_atom": null, "energy_per_atom": -8.022538237777777, "formation_energy_per_atom": 1.032691115833333, "energy_above_hull": 1.032691115833333, "is_stable": false, "equilibrium_reaction_energy_per_atom": null, "decomposes_to": null, "xas": null, "grain_boundaries": null, "band_gap": 0.5691, "cbm": null, "vbm": null, "efermi": 8.71604757, "is_gap_direct": null, "is_metal": null, "es_source_calc_id": null, "bandstructure": null, "dos": null, "dos_energy_up": null, "dos_energy_down": null, "is_magnetic": null, "ordering": null, "total_magnetization": 0.001145599999999, "total_magnetization_normalized_vol": null, "total_magnetization_normalized_formula_units": null, "num_magnetic_sites": null, "num_unique_magnetic_sites": null, "types_of_magnetic_species": null, "bulk_modulus": null, "shear_modulus": null, "universal_anisotropy": null, "homogeneous_poisson": null, "e_total": null, "e_ionic": null, "e_electronic": null, "n": null, "e_ij_max": null, "weighted_surface_energy_EV_PER_ANG2": null, "weighted_surface_energy": null, "weighted_work_function": null, "surface_anisotropy": null, "shape_factor": null, "has_reconstructed": null, "possible_species": null, "has_props": null, "theoretical": null, "database_IDs": null, "fields_not_requested": ["builder_meta", "nsites", "elements", "nelements", "composition", "composition_reduced", "chemsys", "symmetry", "property_name", "deprecated", "deprecation_reasons", "last_updated", "origins", "warnings", "task_ids", "uncorrected_energy_per_atom", "equilibrium_reaction_energy_per_atom", "decomposes_to", "xas", "grain_boundaries", "cbm", "vbm", "is_gap_direct", "is_metal", "es_source_calc_id", "bandstructure", "dos", "dos_energy_up", "dos_energy_down", "is_magnetic", "ordering", "total_magnetization_normalized_vol", "total_magnetization_normalized_formula_units", "num_magnetic_sites", "num_unique_magnetic_sites", "types_of_magnetic_species", "bulk_modulus", "shear_modulus", "universal_anisotropy", "homogeneous_poisson", "e_total", "e_ionic", "e_electronic", "n", "e_ij_max", "weighted_surface_energy_EV_PER_ANG2", "weighted_surface_energy", "weighted_work_function", "surface_anisotropy", "shape_factor", "has_reconstructed", "possible_species", "has_props", "theoretical", "database_IDs"]}