{"builder_meta": null, "nsites": null, "elements": null, "nelements": null, "composition": null, "composition_reduced": null, "formula_pretty": "IrBr3", "formula_anonymous": "AB3", "chemsys": null, "volume": 220.1187053301764, "density": 6.516801717706128, "density_atomic": 27.51483816627205, "symmetry": null, "property_name": null, "material_id": "mp-27397", "deprecated": null, "deprecation_reasons": null, "last_updated": null, "origins": null, "warnings": null, "structure": {"@module": "pymatgen.core.structure", "@class": "Structure", "charge": 0, "lattice": {"matrix": [[6.05591741, -1e-08, 2.09801273], [3.0279582, 5.54877918, 1.04900535], [-0.09694096, -1e-08, 6.51699288]], "pbc": [true, true, true], "a": 6.409039950880566, "b": 6.407643363489992, "c": 6.517713843649199, "alpha": 80.98662968229642, "beta": 71.7440802252183, "gamma": 59.9927982432647, "volume": 220.1187053301764}, "properties": {}, "sites": [{"species": [{"element": "Ir", "occu": 1}], "abc": [0.833355, 0.33329001, 0.0], "properties": {"magmom": -0.0}, "label": "Ir", "xyz": [6.055917271968132, 1.849352660056442, 2.0980124022007036]}, {"species": [{"element": "Ir", "occu": 1}], "abc": [0.166645, 0.66670999, -0.0], "properties": {"magmom": -0.0}, "label": "Ir", "xyz": [3.0279583380318678, 3.6994265099435584, 1.0490056777992964]}, {"species": [{"element": "Br", "occu": 1}], "abc": [0.5716083200000001, 0.35229206, 0.77505265], "properties": {"magmom": -0.0}, "label": "Br", "xyz": [4.4532040607192, 1.9547908343407014, 6.619810389311567]}, {"species": [{"element": "Br", "occu": 1}], "abc": [0.07609962, 0.35229206, 0.22494735000000002], "properties": {"magmom": -0.0}, "label": "Br", "xyz": [1.5057720334658204, 1.9547908447968414, 1.9951945055355518]}, {"species": [{"element": "Br", "occu": 1}], "abc": [0.780073999999999, -0.0, 0.2253015], "properties": {"magmom": -0.0}, "label": "Br", "xyz": [4.702222773988895, -1.0053754999999992e-08, 3.104893453695338]}, {"species": [{"element": "Br", "occu": 1}], "abc": [0.219925999999999, 0.0, 0.7746985], "properties": {"magmom": -0.0}, "label": "Br", "xyz": [1.256753676011094, -9.94624499999999e-09, 5.510112156304658]}, {"species": [{"element": "Br", "occu": 1}], "abc": [0.92390038, 0.64770894, 0.77505265], "properties": {"magmom": -0.0}, "label": "Br", "xyz": [7.48116564449238, 3.593993863982339, 7.668817503469798]}, {"species": [{"element": "Br", "occu": 1}], "abc": [0.42839168, 0.64770894, 0.22494735000000002], "properties": {"magmom": -0.0}, "label": "Br", "xyz": [4.533733617239001, 3.593993874438479, 3.0442016196937836]}]}, "task_ids": null, "uncorrected_energy_per_atom": null, "energy_per_atom": -4.145793127499999, "formation_energy_per_atom": -0.708474681249999, "energy_above_hull": 0.0, "is_stable": true, "equilibrium_reaction_energy_per_atom": null, "decomposes_to": null, "xas": null, "grain_boundaries": null, "band_gap": 1.5604, "cbm": null, "vbm": null, "efermi": 1.37217708, "is_gap_direct": null, "is_metal": null, "es_source_calc_id": null, "bandstructure": null, "dos": null, "dos_energy_up": null, "dos_energy_down": null, "is_magnetic": null, "ordering": null, "total_magnetization": 2e-07, "total_magnetization_normalized_vol": null, "total_magnetization_normalized_formula_units": null, "num_magnetic_sites": null, "num_unique_magnetic_sites": null, "types_of_magnetic_species": null, "bulk_modulus": null, "shear_modulus": null, "universal_anisotropy": null, "homogeneous_poisson": null, "e_total": null, "e_ionic": null, "e_electronic": null, "n": null, "e_ij_max": null, "weighted_surface_energy_EV_PER_ANG2": null, "weighted_surface_energy": null, "weighted_work_function": null, "surface_anisotropy": null, "shape_factor": null, "has_reconstructed": null, "possible_species": null, "has_props": null, "theoretical": null, "database_IDs": null, "fields_not_requested": ["builder_meta", "nsites", "elements", "nelements", "composition", "composition_reduced", "chemsys", "symmetry", "property_name", "deprecated", "deprecation_reasons", "last_updated", "origins", "warnings", "task_ids", "uncorrected_energy_per_atom", "equilibrium_reaction_energy_per_atom", "decomposes_to", "xas", "grain_boundaries", "cbm", "vbm", "is_gap_direct", "is_metal", "es_source_calc_id", "bandstructure", "dos", "dos_energy_up", "dos_energy_down", "is_magnetic", "ordering", "total_magnetization_normalized_vol", "total_magnetization_normalized_formula_units", "num_magnetic_sites", "num_unique_magnetic_sites", "types_of_magnetic_species", "bulk_modulus", "shear_modulus", "universal_anisotropy", "homogeneous_poisson", "e_total", "e_ionic", "e_electronic", "n", "e_ij_max", "weighted_surface_energy_EV_PER_ANG2", "weighted_surface_energy", "weighted_work_function", "surface_anisotropy", "shape_factor", "has_reconstructed", "possible_species", "has_props", "theoretical", "database_IDs"]}