{
  "builder_meta": null,
  "nsites": null,
  "elements": null,
  "nelements": null,
  "composition": null,
  "composition_reduced": null,
  "formula_pretty": "IrC2",
  "formula_anonymous": "AB2",
  "chemsys": null,
  "volume": 242.5983163216012,
  "density": 11.840883855865581,
  "density_atomic": 10.108263180066716,
  "symmetry": null,
  "property_name": null,
  "material_id": "mp-1191686",
  "deprecated": null,
  "deprecation_reasons": null,
  "last_updated": null,
  "origins": null,
  "warnings": null,
  "structure": {
    "@module": "pymatgen.core.structure",
    "@class": "Structure",
    "charge": 0,
    "lattice": {
      "matrix": [
        [3.146, -4.097695, 0.0],
        [3.146, 4.097695, 0.0],
        [0.0, 0.0, 9.409346]
      ],
      "pbc": [true, true, true],
      "a": 5.16608365331273,
      "b": 5.16608365331273,
      "c": 9.409346,
      "alpha": 90.0,
      "beta": 90.0,
      "gamma": 104.96959036969955,
      "volume": 242.5983163216012
    },
    "properties": {},
    "sites": [
      {
        "species": [{ "element": "Ir", "occu": 1 }],
        "abc": [0.744278, 0.255722, 0.5],
        "properties": { "magmom": 0.0 },
        "label": "Ir",
        "xyz": [3.146, -2.00195347842, 4.704673]
      },
      {
        "species": [{ "element": "Ir", "occu": 1 }],
        "abc": [0.244278, 0.755722, 0.0],
        "properties": { "magmom": 0.0 },
        "label": "Ir",
        "xyz": [3.146, 2.09574152158, 0.0]
      },
      {
        "species": [{ "element": "Ir", "occu": 1 }],
        "abc": [0.255722, 0.744278, 0.5],
        "properties": { "magmom": 0.0 },
        "label": "Ir",
        "xyz": [3.146, 2.00195347842, 4.704673]
      },
      {
        "species": [{ "element": "Ir", "occu": 1 }],
        "abc": [0.755722, 0.244278, 0.0],
        "properties": { "magmom": 0.0 },
        "label": "Ir",
        "xyz": [3.146, -2.09574152158, 0.0]
      },
      {
        "species": [{ "element": "Ir", "occu": 1 }],
        "abc": [0.30371000000000004, 0.30371000000000004, 0.706112],
        "properties": { "magmom": 0.0 },
        "label": "Ir",
        "xyz": [1.9109433200000001, 0.0, 6.644052122751999]
      },
      {
        "species": [{ "element": "Ir", "occu": 1 }],
        "abc": [0.6962900000000001, 0.6962900000000001, 0.293888],
        "properties": { "magmom": 0.0 },
        "label": "Ir",
        "xyz": [4.38105668, 0.0, 2.765293877248]
      },
      {
        "species": [{ "element": "Ir", "occu": 1 }],
        "abc": [0.19629000000000002, 0.19629000000000002, 0.206112],
        "properties": { "magmom": 0.0 },
        "label": "Ir",
        "xyz": [1.23505668, 0.0, 1.9393791227519999]
      },
      {
        "species": [{ "element": "Ir", "occu": 1 }],
        "abc": [0.80371, 0.80371, 0.793887999999999],
        "properties": { "magmom": 0.0 },
        "label": "Ir",
        "xyz": [5.05694332, 0.0, 7.46996687724799]
      },
      {
        "species": [{ "element": "C", "occu": 1 }],
        "abc": [0.671821999999999, 0.836951, 0.515678],
        "properties": { "magmom": -0.0 },
        "label": "C",
        "xyz": [4.746599857999996, 0.676648277655004, 4.852192726587999]
      },
      {
        "species": [{ "element": "C", "occu": 1 }],
        "abc": [0.163049, 0.328177999999999, 0.484322],
        "properties": { "magmom": -0.0 },
        "label": "C",
        "xyz": [1.5454001419999968, 0.6766482776549961, 4.557153273411999]
      },
      {
        "species": [{ "element": "C", "occu": 1 }],
        "abc": [0.663049, 0.828178, 0.015678],
        "properties": { "magmom": -0.0 },
        "label": "C",
        "xyz": [4.691400142, 0.6766482776549996, 0.147519726588]
      },
      {
        "species": [{ "element": "C", "occu": 1 }],
        "abc": [0.171822, 0.336951, 0.984321999999999],
        "properties": { "magmom": -0.0 },
        "label": "C",
        "xyz": [1.600599858, 0.6766482776549999, 9.261826273411991]
      },
      {
        "species": [{ "element": "C", "occu": 1 }],
        "abc": [0.328177999999999, 0.163049, 0.484322],
        "properties": { "magmom": -0.0 },
        "label": "C",
        "xyz": [1.5454001419999968, -0.6766482776549961, 4.557153273411999]
      },
      {
        "species": [{ "element": "C", "occu": 1 }],
        "abc": [0.836951, 0.671821999999999, 0.515678],
        "properties": { "magmom": -0.0 },
        "label": "C",
        "xyz": [4.746599857999996, -0.676648277655004, 4.852192726587999]
      },
      {
        "species": [{ "element": "C", "occu": 1 }],
        "abc": [0.336951, 0.171822, 0.984321999999999],
        "properties": { "magmom": -0.0 },
        "label": "C",
        "xyz": [1.600599858, -0.6766482776549999, 9.261826273411991]
      },
      {
        "species": [{ "element": "C", "occu": 1 }],
        "abc": [0.828178, 0.663049, 0.015678],
        "properties": { "magmom": -0.0 },
        "label": "C",
        "xyz": [4.691400142, -0.6766482776549996, 0.147519726588]
      },
      {
        "species": [{ "element": "C", "occu": 1 }],
        "abc": [0.6209479999999991, 0.273491, 0.216521],
        "properties": { "magmom": -0.0 },
        "label": "C",
        "xyz": [2.8139050939999968, -1.4237728116149961, 2.0373210052659996]
      },
      {
        "species": [{ "element": "C", "occu": 1 }],
        "abc": [0.726509, 0.379052, 0.783478999999999],
        "properties": { "magmom": -0.0 },
        "label": "C",
        "xyz": [3.478094906, -1.423772811615, 7.37202499473399]
      },
      {
        "species": [{ "element": "C", "occu": 1 }],
        "abc": [0.226509, 0.879052, 0.716521],
        "properties": { "magmom": -0.0 },
        "label": "C",
        "xyz": [3.4780949059999995, 2.6739221883849997, 6.741994005265999]
      },
      {
        "species": [{ "element": "C", "occu": 1 }],
        "abc": [0.120948, 0.773490999999999, 0.283479],
        "properties": { "magmom": -0.0 },
        "label": "C",
        "xyz": [2.8139050939999968, 2.6739221883849957, 2.6673519947339996]
      },
      {
        "species": [{ "element": "C", "occu": 1 }],
        "abc": [0.379052, 0.726509, 0.783478999999999],
        "properties": { "magmom": -0.0 },
        "label": "C",
        "xyz": [3.478094906, 1.423772811615, 7.37202499473399]
      },
      {
        "species": [{ "element": "C", "occu": 1 }],
        "abc": [0.273491, 0.6209479999999991, 0.216521],
        "properties": { "magmom": -0.0 },
        "label": "C",
        "xyz": [2.8139050939999968, 1.4237728116149961, 2.0373210052659996]
      },
      {
        "species": [{ "element": "C", "occu": 1 }],
        "abc": [0.773490999999999, 0.120948, 0.283479],
        "properties": { "magmom": -0.0 },
        "label": "C",
        "xyz": [2.8139050939999968, -2.6739221883849957, 2.6673519947339996]
      },
      {
        "species": [{ "element": "C", "occu": 1 }],
        "abc": [0.879052, 0.226509, 0.716521],
        "properties": { "magmom": -0.0 },
        "label": "C",
        "xyz": [3.4780949059999995, -2.6739221883849997, 6.741994005265999]
      }
    ]
  },
  "task_ids": null,
  "uncorrected_energy_per_atom": null,
  "energy_per_atom": -7.923480417499999,
  "formation_energy_per_atom": 1.175107970833333,
  "energy_above_hull": 1.175107970833333,
  "is_stable": false,
  "equilibrium_reaction_energy_per_atom": null,
  "decomposes_to": null,
  "xas": null,
  "grain_boundaries": null,
  "band_gap": 0.0,
  "cbm": null,
  "vbm": null,
  "efermi": 7.70781,
  "is_gap_direct": null,
  "is_metal": null,
  "es_source_calc_id": null,
  "bandstructure": null,
  "dos": null,
  "dos_energy_up": null,
  "dos_energy_down": null,
  "is_magnetic": null,
  "ordering": null,
  "total_magnetization": 0.0025088,
  "total_magnetization_normalized_vol": null,
  "total_magnetization_normalized_formula_units": null,
  "num_magnetic_sites": null,
  "num_unique_magnetic_sites": null,
  "types_of_magnetic_species": null,
  "bulk_modulus": null,
  "shear_modulus": null,
  "universal_anisotropy": null,
  "homogeneous_poisson": null,
  "e_total": null,
  "e_ionic": null,
  "e_electronic": null,
  "n": null,
  "e_ij_max": null,
  "weighted_surface_energy_EV_PER_ANG2": null,
  "weighted_surface_energy": null,
  "weighted_work_function": null,
  "surface_anisotropy": null,
  "shape_factor": null,
  "has_reconstructed": null,
  "possible_species": null,
  "has_props": null,
  "theoretical": null,
  "database_IDs": null,
  "fields_not_requested": [
    "builder_meta",
    "nsites",
    "elements",
    "nelements",
    "composition",
    "composition_reduced",
    "chemsys",
    "symmetry",
    "property_name",
    "deprecated",
    "deprecation_reasons",
    "last_updated",
    "origins",
    "warnings",
    "task_ids",
    "uncorrected_energy_per_atom",
    "equilibrium_reaction_energy_per_atom",
    "decomposes_to",
    "xas",
    "grain_boundaries",
    "cbm",
    "vbm",
    "is_gap_direct",
    "is_metal",
    "es_source_calc_id",
    "bandstructure",
    "dos",
    "dos_energy_up",
    "dos_energy_down",
    "is_magnetic",
    "ordering",
    "total_magnetization_normalized_vol",
    "total_magnetization_normalized_formula_units",
    "num_magnetic_sites",
    "num_unique_magnetic_sites",
    "types_of_magnetic_species",
    "bulk_modulus",
    "shear_modulus",
    "universal_anisotropy",
    "homogeneous_poisson",
    "e_total",
    "e_ionic",
    "e_electronic",
    "n",
    "e_ij_max",
    "weighted_surface_energy_EV_PER_ANG2",
    "weighted_surface_energy",
    "weighted_work_function",
    "surface_anisotropy",
    "shape_factor",
    "has_reconstructed",
    "possible_species",
    "has_props",
    "theoretical",
    "database_IDs"
  ]
}
