{
  "builder_meta": null,
  "nsites": null,
  "elements": null,
  "nelements": null,
  "composition": null,
  "composition_reduced": null,
  "formula_pretty": "IrC3",
  "formula_anonymous": "AB3",
  "chemsys": null,
  "volume": 154.15756135349528,
  "density": 9.834523694810548,
  "density_atomic": 9.634847584593455,
  "symmetry": null,
  "property_name": null,
  "material_id": "mp-1184780",
  "deprecated": null,
  "deprecation_reasons": null,
  "last_updated": null,
  "origins": null,
  "warnings": null,
  "structure": {
    "@module": "pymatgen.core.structure",
    "@class": "Structure",
    "charge": 0,
    "lattice": {
      "matrix": [
        [2.606977, 0.0, 0.0],
        [0.0, 4.338807, 0.0],
        [0.0, 0.0, 13.62879]
      ],
      "pbc": [true, true, true],
      "a": 2.606977,
      "b": 4.338807,
      "c": 13.62879,
      "alpha": 90.0,
      "beta": 90.0,
      "gamma": 90.0,
      "volume": 154.15756135349528
    },
    "properties": {},
    "sites": [
      {
        "species": [{ "element": "Ir", "occu": 1 }],
        "abc": [0.25, 0.02324, 0.161742],
        "properties": { "magmom": -0.0 },
        "label": "Ir",
        "xyz": [0.65174425, 0.10083387468, 2.20434775218]
      },
      {
        "species": [{ "element": "Ir", "occu": 1 }],
        "abc": [0.75, 0.52324, 0.338258],
        "properties": { "magmom": -0.0 },
        "label": "Ir",
        "xyz": [1.95523275, 2.27023737468, 4.61004724782]
      },
      {
        "species": [{ "element": "Ir", "occu": 1 }],
        "abc": [0.25, 0.47676, 0.661741999999999],
        "properties": { "magmom": -0.0 },
        "label": "Ir",
        "xyz": [0.65174425, 2.0685696253200003, 9.018742752179987]
      },
      {
        "species": [{ "element": "Ir", "occu": 1 }],
        "abc": [0.75, 0.9767600000000001, 0.838258],
        "properties": { "magmom": -0.0 },
        "label": "Ir",
        "xyz": [1.95523275, 4.237973125320001, 11.42444224782]
      },
      {
        "species": [{ "element": "C", "occu": 1 }],
        "abc": [0.25, 0.895272, 0.303811999999999],
        "properties": { "magmom": -0.0 },
        "label": "C",
        "xyz": [0.65174425, 3.884412420504, 4.140589947479987]
      },
      {
        "species": [{ "element": "C", "occu": 1 }],
        "abc": [0.75, 0.395271999999999, 0.196188],
        "properties": { "magmom": -0.0 },
        "label": "C",
        "xyz": [1.95523275, 1.7150089205039958, 2.67380505252]
      },
      {
        "species": [{ "element": "C", "occu": 1 }],
        "abc": [0.25, 0.604727999999999, 0.803812],
        "properties": { "magmom": -0.0 },
        "label": "C",
        "xyz": [0.65174425, 2.623798079495996, 10.95498494748]
      },
      {
        "species": [{ "element": "C", "occu": 1 }],
        "abc": [0.75, 0.104728, 0.696187999999999],
        "properties": { "magmom": -0.0 },
        "label": "C",
        "xyz": [1.95523275, 0.45439457949600004, 9.488200052519987]
      },
      {
        "species": [{ "element": "C", "occu": 1 }],
        "abc": [0.25, 0.46651000000000004, 0.9774259999999991],
        "properties": { "magmom": -0.0 },
        "label": "C",
        "xyz": [0.65174425, 2.02409685357, 13.321133694539988]
      },
      {
        "species": [{ "element": "C", "occu": 1 }],
        "abc": [0.75, 0.9665100000000001, 0.522574],
        "properties": { "magmom": -0.0 },
        "label": "C",
        "xyz": [1.95523275, 4.19350035357, 7.12205130546]
      },
      {
        "species": [{ "element": "C", "occu": 1 }],
        "abc": [0.25, 0.033490000000000006, 0.477425999999999],
        "properties": { "magmom": -0.0 },
        "label": "C",
        "xyz": [0.65174425, 0.14530664643000002, 6.506738694539987]
      },
      {
        "species": [{ "element": "C", "occu": 1 }],
        "abc": [0.75, 0.53349, 0.022574],
        "properties": { "magmom": -0.0 },
        "label": "C",
        "xyz": [1.95523275, 2.31471014643, 0.30765630546]
      },
      {
        "species": [{ "element": "C", "occu": 1 }],
        "abc": [0.25, 0.153532, 0.373857],
        "properties": { "magmom": -0.0 },
        "label": "C",
        "xyz": [0.65174425, 0.666145716324, 5.09521854303]
      },
      {
        "species": [{ "element": "C", "occu": 1 }],
        "abc": [0.75, 0.653532, 0.126143],
        "properties": { "magmom": -0.0 },
        "label": "C",
        "xyz": [1.95523275, 2.835549216324, 1.71917645697]
      },
      {
        "species": [{ "element": "C", "occu": 1 }],
        "abc": [0.25, 0.346468, 0.873857],
        "properties": { "magmom": -0.0 },
        "label": "C",
        "xyz": [0.65174425, 1.503257783676, 11.90961354303]
      },
      {
        "species": [{ "element": "C", "occu": 1 }],
        "abc": [0.75, 0.846468, 0.626143],
        "properties": { "magmom": -0.0 },
        "label": "C",
        "xyz": [1.95523275, 3.672661283676, 8.53357145697]
      }
    ]
  },
  "task_ids": null,
  "uncorrected_energy_per_atom": null,
  "energy_per_atom": -8.394627025625,
  "formation_energy_per_atom": 0.736480638749998,
  "energy_above_hull": 0.736480638749998,
  "is_stable": false,
  "equilibrium_reaction_energy_per_atom": null,
  "decomposes_to": null,
  "xas": null,
  "grain_boundaries": null,
  "band_gap": 0.0,
  "cbm": null,
  "vbm": null,
  "efermi": 7.25468229,
  "is_gap_direct": null,
  "is_metal": null,
  "es_source_calc_id": null,
  "bandstructure": null,
  "dos": null,
  "dos_energy_up": null,
  "dos_energy_down": null,
  "is_magnetic": null,
  "ordering": null,
  "total_magnetization": 0.0020629,
  "total_magnetization_normalized_vol": null,
  "total_magnetization_normalized_formula_units": null,
  "num_magnetic_sites": null,
  "num_unique_magnetic_sites": null,
  "types_of_magnetic_species": null,
  "bulk_modulus": null,
  "shear_modulus": null,
  "universal_anisotropy": null,
  "homogeneous_poisson": null,
  "e_total": null,
  "e_ionic": null,
  "e_electronic": null,
  "n": null,
  "e_ij_max": null,
  "weighted_surface_energy_EV_PER_ANG2": null,
  "weighted_surface_energy": null,
  "weighted_work_function": null,
  "surface_anisotropy": null,
  "shape_factor": null,
  "has_reconstructed": null,
  "possible_species": null,
  "has_props": null,
  "theoretical": null,
  "database_IDs": null,
  "fields_not_requested": [
    "builder_meta",
    "nsites",
    "elements",
    "nelements",
    "composition",
    "composition_reduced",
    "chemsys",
    "symmetry",
    "property_name",
    "deprecated",
    "deprecation_reasons",
    "last_updated",
    "origins",
    "warnings",
    "task_ids",
    "uncorrected_energy_per_atom",
    "equilibrium_reaction_energy_per_atom",
    "decomposes_to",
    "xas",
    "grain_boundaries",
    "cbm",
    "vbm",
    "is_gap_direct",
    "is_metal",
    "es_source_calc_id",
    "bandstructure",
    "dos",
    "dos_energy_up",
    "dos_energy_down",
    "is_magnetic",
    "ordering",
    "total_magnetization_normalized_vol",
    "total_magnetization_normalized_formula_units",
    "num_magnetic_sites",
    "num_unique_magnetic_sites",
    "types_of_magnetic_species",
    "bulk_modulus",
    "shear_modulus",
    "universal_anisotropy",
    "homogeneous_poisson",
    "e_total",
    "e_ionic",
    "e_electronic",
    "n",
    "e_ij_max",
    "weighted_surface_energy_EV_PER_ANG2",
    "weighted_surface_energy",
    "weighted_work_function",
    "surface_anisotropy",
    "shape_factor",
    "has_reconstructed",
    "possible_species",
    "has_props",
    "theoretical",
    "database_IDs"
  ]
}
