{"builder_meta": null, "nsites": null, "elements": null, "nelements": null, "composition": null, "composition_reduced": null, "formula_pretty": "IrC4", "formula_anonymous": "AB4", "chemsys": null, "volume": 94.39818346800763, "density": 8.452721638837764, "density_atomic": 9.439818346800763, "symmetry": null, "property_name": null, "material_id": "mp-1080042", "deprecated": null, "deprecation_reasons": null, "last_updated": null, "origins": null, "warnings": null, "structure": {"@module": "pymatgen.core.structure", "@class": "Structure", "charge": 0, "lattice": {"matrix": [[2.163039, -4.451329, 0.0], [2.163039, 4.451329, 0.0], [0.0, 0.0, 4.902071]], "pbc": [true, true, true], "a": 4.949047138769442, "b": 4.949047138769442, "c": 4.902071, "alpha": 90.0, "beta": 90.0, "gamma": 128.1668872947971, "volume": 94.39818346800763}, "properties": {}, "sites": [{"species": [{"element": "Ir", "occu": 1}], "abc": [0.5, 0.5, 0.5], "properties": {"magmom": 0.0}, "label": "Ir", "xyz": [2.163039, 0.0, 2.4510355]}, {"species": [{"element": "Ir", "occu": 1}], "abc": [0.0, 0.0, 0.0], "properties": {"magmom": 0.0}, "label": "Ir", "xyz": [0.0, 0.0, 0.0]}, {"species": [{"element": "C", "occu": 1}], "abc": [0.182529, 0.649195, 0.623815], "properties": {"magmom": -0.0}, "label": "C", "xyz": [1.799051449236, 2.0772838991139997, 3.057985420865]}, {"species": [{"element": "C", "occu": 1}], "abc": [0.850804999999999, 0.317471, 0.123816], "properties": {"magmom": -0.0}, "label": "C", "xyz": [2.5270265507639977, -2.374045100885996, 0.606954822936]}, {"species": [{"element": "C", "occu": 1}], "abc": [0.149195, 0.682528999999999, 0.123816], "properties": {"magmom": -0.0}, "label": "C", "xyz": [1.799051449235998, 2.374045100885996, 0.606954822936]}, {"species": [{"element": "C", "occu": 1}], "abc": [0.817471, 0.350805, 0.623815], "properties": {"magmom": -0.0}, "label": "C", "xyz": [2.527026550764, -2.077283899114, 3.057985420865]}, {"species": [{"element": "C", "occu": 1}], "abc": [0.317471, 0.850804999999999, 0.876184], "properties": {"magmom": -0.0}, "label": "C", "xyz": [2.5270265507639977, 2.374045100885996, 4.295116177064]}, {"species": [{"element": "C", "occu": 1}], "abc": [0.649195, 0.182529, 0.376185], "properties": {"magmom": -0.0}, "label": "C", "xyz": [1.799051449236, -2.0772838991139997, 1.8440855791350002]}, {"species": [{"element": "C", "occu": 1}], "abc": [0.350805, 0.817471, 0.376183999999999], "properties": {"magmom": -0.0}, "label": "C", "xyz": [2.527026550764, 2.077283899114, 1.8440806770639953]}, {"species": [{"element": "C", "occu": 1}], "abc": [0.682528999999999, 0.149195, 0.876185], "properties": {"magmom": -0.0}, "label": "C", "xyz": [1.799051449235998, -2.374045100885996, 4.295121079135]}]}, "task_ids": null, "uncorrected_energy_per_atom": null, "energy_per_atom": -8.571970111, "formation_energy_per_atom": 0.578649118999999, "energy_above_hull": 0.578649118999999, "is_stable": false, "equilibrium_reaction_energy_per_atom": null, "decomposes_to": null, "xas": null, "grain_boundaries": null, "band_gap": 0.0, "cbm": null, "vbm": null, "efermi": 6.4736952500000005, "is_gap_direct": null, "is_metal": null, "es_source_calc_id": null, "bandstructure": null, "dos": null, "dos_energy_up": null, "dos_energy_down": null, "is_magnetic": null, "ordering": null, "total_magnetization": 7.88e-05, "total_magnetization_normalized_vol": null, "total_magnetization_normalized_formula_units": null, "num_magnetic_sites": null, "num_unique_magnetic_sites": null, "types_of_magnetic_species": null, "bulk_modulus": null, "shear_modulus": null, "universal_anisotropy": null, "homogeneous_poisson": null, "e_total": null, "e_ionic": null, "e_electronic": null, "n": null, "e_ij_max": null, "weighted_surface_energy_EV_PER_ANG2": null, "weighted_surface_energy": null, "weighted_work_function": null, "surface_anisotropy": null, "shape_factor": null, "has_reconstructed": null, "possible_species": null, "has_props": null, "theoretical": null, "database_IDs": null, "fields_not_requested": ["builder_meta", "nsites", "elements", "nelements", "composition", "composition_reduced", "chemsys", "symmetry", "property_name", "deprecated", "deprecation_reasons", "last_updated", "origins", "warnings", "task_ids", "uncorrected_energy_per_atom", "equilibrium_reaction_energy_per_atom", "decomposes_to", "xas", "grain_boundaries", "cbm", "vbm", "is_gap_direct", "is_metal", "es_source_calc_id", "bandstructure", "dos", "dos_energy_up", "dos_energy_down", "is_magnetic", "ordering", "total_magnetization_normalized_vol", "total_magnetization_normalized_formula_units", "num_magnetic_sites", "num_unique_magnetic_sites", "types_of_magnetic_species", "bulk_modulus", "shear_modulus", "universal_anisotropy", "homogeneous_poisson", "e_total", "e_ionic", "e_electronic", "n", "e_ij_max", "weighted_surface_energy_EV_PER_ANG2", "weighted_surface_energy", "weighted_work_function", "surface_anisotropy", "shape_factor", "has_reconstructed", "possible_species", "has_props", "theoretical", "database_IDs"]}