{
  "builder_meta": null,
  "nsites": null,
  "elements": null,
  "nelements": null,
  "composition": null,
  "composition_reduced": null,
  "formula_pretty": "IrCl3",
  "formula_anonymous": "AB3",
  "chemsys": null,
  "volume": 371.0700866400312,
  "density": 5.344511780386393,
  "density_atomic": 23.19188041500195,
  "symmetry": null,
  "property_name": null,
  "material_id": "mp-568208",
  "deprecated": null,
  "deprecation_reasons": null,
  "last_updated": null,
  "origins": null,
  "warnings": null,
  "structure": {
    "@module": "pymatgen.core.structure",
    "@class": "Structure",
    "charge": 0,
    "lattice": {
      "matrix": [
        [5.99411143, 0.03094828, -1.16109543],
        [-2.23589056, 5.56157313, -1.16109746],
        [0.0482818, 0.07184457, 11.07809283]
      ],
      "pbc": [true, true, true],
      "a": 6.1056098981885905,
      "b": 6.1056080441061376,
      "c": 11.07843100463902,
      "alpha": 100.71080692742144,
      "beta": 100.71077222700922,
      "gamma": 108.5863768025007,
      "volume": 371.0700866400312
    },
    "properties": {},
    "sites": [
      {
        "species": [{ "element": "Ir", "occu": 1 }],
        "abc": [0.7913971200000001, 0.04161347, 0.0831214],
        "properties": { "magmom": -0.0 },
        "label": "Ir",
        "xyz": [4.65469260872976, 0.26190055749981267, -0.046378288306385906]
      },
      {
        "species": [{ "element": "Ir", "occu": 1 }],
        "abc": [0.20860288, 0.9583865300000001, 0.9168786],
        "properties": { "magmom": -0.0 },
        "label": "Ir",
        "xyz": [-0.8481899387297586, 5.402465422500188, 8.802278228306385]
      },
      {
        "species": [{ "element": "Ir", "occu": 1 }],
        "abc": [0.04161347, 0.7913971200000001, 0.5831214],
        "properties": { "magmom": -0.0 },
        "label": "Ir",
        "xyz": [-1.4918874228397052, 4.444594929313515, 5.492666604632804]
      },
      {
        "species": [{ "element": "Ir", "occu": 1 }],
        "abc": [0.9583865300000001, 0.20860288, 0.4168786],
        "properties": { "magmom": -0.0 },
        "label": "Ir",
        "xyz": [5.298390092839706, 1.2197710506864847, 3.2632333353671954]
      },
      {
        "species": [{ "element": "Cl", "occu": 1 }],
        "abc": [0.65280335, 0.90358701, 0.25052936],
        "properties": { "magmom": 0.0 },
        "label": "Cl",
        "xyz": [1.9047503644333132, 5.063567550435354, 0.9682679381468033]
      },
      {
        "species": [{ "element": "Cl", "occu": 1 }],
        "abc": [0.81405531, 0.03954602, 0.57489893],
        "properties": { "magmom": -0.0 },
        "label": "Cl",
        "xyz": [4.818874820678096, 0.2864350603191195, 5.37767103082433]
      },
      {
        "species": [{ "element": "Cl", "occu": 1 }],
        "abc": [0.18594469, 0.96045398, 0.42510107],
        "properties": { "magmom": -0.0 },
        "label": "Cl",
        "xyz": [-1.0123721506780965, 5.377930919680881, 3.3782289091756703]
      },
      {
        "species": [{ "element": "Cl", "occu": 1 }],
        "abc": [0.26091969, 0.53489807, 0.57380242],
        "properties": { "magmom": 0.0 },
        "label": "Cl",
        "xyz": [0.3957123645477935, 3.024174337154352, 5.432615024746729]
      },
      {
        "species": [{ "element": "Cl", "occu": 1 }],
        "abc": [0.03954502, 0.8140543100000001, 0.07489893],
        "properties": { "magmom": -0.0 },
        "label": "Cl",
        "xyz": [-1.5794828355162613, 4.534027508627567, -0.16137463423663934]
      },
      {
        "species": [{ "element": "Cl", "occu": 1 }],
        "abc": [0.09641299, 0.34719565, 0.24947064],
        "properties": { "magmom": 0.0 },
        "label": "Cl",
        "xyz": [-0.18633637940223627, 1.9518609249614667, 2.2485862388598266]
      },
      {
        "species": [{ "element": "Cl", "occu": 1 }],
        "abc": [0.34719665, 0.09641299, 0.74947064],
        "properties": { "magmom": 0.0 },
        "label": "Cl",
        "xyz": [1.9017523055666872, 0.6007984295646456, 7.787632001853194]
      },
      {
        "species": [{ "element": "Cl", "occu": 1 }],
        "abc": [0.90358701, 0.65280435, 0.75052936],
        "properties": { "magmom": 0.0 },
        "label": "Cl",
        "xyz": [3.992839049402236, 3.712505055038534, 6.507313701140174]
      },
      {
        "species": [{ "element": "Cl", "occu": 1 }],
        "abc": [0.9604549800000001, 0.18594569, 0.92510107],
        "properties": { "magmom": -0.0 },
        "label": "Cl",
        "xyz": [5.3859855055162615, 1.130338471372434, 8.91727457423664]
      },
      {
        "species": [{ "element": "Cl", "occu": 1 }],
        "abc": [0.73908031, 0.46510193, 0.42619758],
        "properties": { "magmom": 0.0 },
        "label": "Cl",
        "xyz": [3.4107903054522066, 2.640191642845648, 3.3232849152532697]
      },
      {
        "species": [{ "element": "Cl", "occu": 1 }],
        "abc": [0.53489807, 0.26092069, 0.07380342000000001],
        "properties": { "magmom": 0.0 },
        "label": "Cl",
        "xyz": [2.62641188955601, 1.472986048781309, -0.10642091708178891]
      },
      {
        "species": [{ "element": "Cl", "occu": 1 }],
        "abc": [0.46510193, 0.73907931, 0.92619658],
        "properties": { "magmom": 0.0 },
        "label": "Cl",
        "xyz": [1.1800907804439902, 4.191379931218692, 8.862320857081789]
      }
    ]
  },
  "task_ids": null,
  "uncorrected_energy_per_atom": null,
  "energy_per_atom": -18.328934545625,
  "formation_energy_per_atom": -0.624767009999999,
  "energy_above_hull": 0.0,
  "is_stable": true,
  "equilibrium_reaction_energy_per_atom": null,
  "decomposes_to": null,
  "xas": null,
  "grain_boundaries": null,
  "band_gap": 1.9582000000000002,
  "cbm": null,
  "vbm": null,
  "efermi": 2.03031683,
  "is_gap_direct": null,
  "is_metal": null,
  "es_source_calc_id": null,
  "bandstructure": null,
  "dos": null,
  "dos_energy_up": null,
  "dos_energy_down": null,
  "is_magnetic": null,
  "ordering": null,
  "total_magnetization": 0.0,
  "total_magnetization_normalized_vol": null,
  "total_magnetization_normalized_formula_units": null,
  "num_magnetic_sites": null,
  "num_unique_magnetic_sites": null,
  "types_of_magnetic_species": null,
  "bulk_modulus": null,
  "shear_modulus": null,
  "universal_anisotropy": null,
  "homogeneous_poisson": null,
  "e_total": null,
  "e_ionic": null,
  "e_electronic": null,
  "n": null,
  "e_ij_max": null,
  "weighted_surface_energy_EV_PER_ANG2": null,
  "weighted_surface_energy": null,
  "weighted_work_function": null,
  "surface_anisotropy": null,
  "shape_factor": null,
  "has_reconstructed": null,
  "possible_species": null,
  "has_props": null,
  "theoretical": null,
  "database_IDs": null,
  "fields_not_requested": [
    "builder_meta",
    "nsites",
    "elements",
    "nelements",
    "composition",
    "composition_reduced",
    "chemsys",
    "symmetry",
    "property_name",
    "deprecated",
    "deprecation_reasons",
    "last_updated",
    "origins",
    "warnings",
    "task_ids",
    "uncorrected_energy_per_atom",
    "equilibrium_reaction_energy_per_atom",
    "decomposes_to",
    "xas",
    "grain_boundaries",
    "cbm",
    "vbm",
    "is_gap_direct",
    "is_metal",
    "es_source_calc_id",
    "bandstructure",
    "dos",
    "dos_energy_up",
    "dos_energy_down",
    "is_magnetic",
    "ordering",
    "total_magnetization_normalized_vol",
    "total_magnetization_normalized_formula_units",
    "num_magnetic_sites",
    "num_unique_magnetic_sites",
    "types_of_magnetic_species",
    "bulk_modulus",
    "shear_modulus",
    "universal_anisotropy",
    "homogeneous_poisson",
    "e_total",
    "e_ionic",
    "e_electronic",
    "n",
    "e_ij_max",
    "weighted_surface_energy_EV_PER_ANG2",
    "weighted_surface_energy",
    "weighted_work_function",
    "surface_anisotropy",
    "shape_factor",
    "has_reconstructed",
    "possible_species",
    "has_props",
    "theoretical",
    "database_IDs"
  ]
}
