{"builder_meta": null, "nsites": null, "elements": null, "nelements": null, "composition": null, "composition_reduced": null, "formula_pretty": "IrF3", "formula_anonymous": "AB3", "chemsys": null, "volume": 97.35761479811586, "density": 8.501165743894461, "density_atomic": 12.169701849764483, "symmetry": null, "property_name": null, "material_id": "mp-2437", "deprecated": null, "deprecation_reasons": null, "last_updated": null, "origins": null, "warnings": null, "structure": {"@module": "pymatgen.core.structure", "@class": "Structure", "charge": 0, "lattice": {"matrix": [[4.39152718, -0.01459613, 3.13221981], [1.6053805300000001, 4.08760114, 3.13221981], [-0.02149095, -0.01459614, 5.39405723]], "pbc": [true, true, true], "a": 5.394119479381798, "b": 5.394120008304303, "c": 5.394119789988916, "alpha": 54.73001630738653, "beta": 54.7300140046085, "gamma": 54.73001047339662, "volume": 97.35761479811586}, "properties": {}, "sites": [{"species": [{"element": "Ir", "occu": 1}], "abc": [0.5, 0.5, 0.5], "properties": {"magmom": -0.0}, "label": "Ir", "xyz": [2.9877083800000004, 2.029204435, 5.829248424999999]}, {"species": [{"element": "Ir", "occu": 1}], "abc": [-0.0, -0.0, 0.0], "properties": {"magmom": -0.0}, "label": "Ir", "xyz": [0.0, 0.0, 0.0]}, {"species": [{"element": "F", "occu": 1}], "abc": [0.42087196, 0.75, 0.07912804], "properties": {"magmom": 0.0}, "label": "F", "xyz": [3.0506055123886346, 3.0584027892087198, 4.094249524343256]}, {"species": [{"element": "F", "occu": 1}], "abc": [0.75, 0.07912804, 0.42087196], "properties": {"magmom": 0.0}, "label": "F", "xyz": [3.411631061544299, 0.3063536629597312, 4.8672187106567435]}, {"species": [{"element": "F", "occu": 1}], "abc": [0.92087196, 0.5791280400000001, 0.25], "properties": {"magmom": 0.0}, "label": "F", "xyz": [4.9683823839329335, 2.350154234668451, 6.0468440225]}, {"species": [{"element": "F", "occu": 1}], "abc": [0.25, 0.92087196, 0.5791280400000001], "properties": {"magmom": 0.0}, "label": "F", "xyz": [2.563785698455701, 3.7520552070402697, 6.791278139343257]}, {"species": [{"element": "F", "occu": 1}], "abc": [0.5791280400000001, 0.25, 0.92087196], "properties": {"magmom": 0.0}, "label": "F", "xyz": [2.9248112476113652, 1.0000060807912805, 7.564247325656743]}, {"species": [{"element": "F", "occu": 1}], "abc": [0.07912804, 0.42087196, 0.75], "properties": {"magmom": 0.0}, "label": "F", "xyz": [1.0070343760670661, 1.708254635331549, 5.611652827499999]}]}, "task_ids": null, "uncorrected_energy_per_atom": null, "energy_per_atom": -16.92002784625, "formation_energy_per_atom": -1.485668521250001, "energy_above_hull": 0.0, "is_stable": true, "equilibrium_reaction_energy_per_atom": null, "decomposes_to": null, "xas": null, "grain_boundaries": null, "band_gap": 1.141099999999999, "cbm": null, "vbm": null, "efermi": 2.27501168, "is_gap_direct": null, "is_metal": null, "es_source_calc_id": null, "bandstructure": null, "dos": null, "dos_energy_up": null, "dos_energy_down": null, "is_magnetic": null, "ordering": null, "total_magnetization": 0.0, "total_magnetization_normalized_vol": null, "total_magnetization_normalized_formula_units": null, "num_magnetic_sites": null, "num_unique_magnetic_sites": null, "types_of_magnetic_species": null, "bulk_modulus": null, "shear_modulus": null, "universal_anisotropy": null, "homogeneous_poisson": null, "e_total": null, "e_ionic": null, "e_electronic": null, "n": null, "e_ij_max": null, "weighted_surface_energy_EV_PER_ANG2": null, "weighted_surface_energy": null, "weighted_work_function": null, "surface_anisotropy": null, "shape_factor": null, "has_reconstructed": null, "possible_species": null, "has_props": null, "theoretical": null, "database_IDs": null, "fields_not_requested": ["builder_meta", "nsites", "elements", "nelements", "composition", "composition_reduced", "chemsys", "symmetry", "property_name", "deprecated", "deprecation_reasons", "last_updated", "origins", "warnings", "task_ids", "uncorrected_energy_per_atom", "equilibrium_reaction_energy_per_atom", "decomposes_to", "xas", "grain_boundaries", "cbm", "vbm", "is_gap_direct", "is_metal", "es_source_calc_id", "bandstructure", "dos", "dos_energy_up", "dos_energy_down", "is_magnetic", "ordering", "total_magnetization_normalized_vol", "total_magnetization_normalized_formula_units", "num_magnetic_sites", "num_unique_magnetic_sites", "types_of_magnetic_species", "bulk_modulus", "shear_modulus", "universal_anisotropy", "homogeneous_poisson", "e_total", "e_ionic", "e_electronic", "n", "e_ij_max", "weighted_surface_energy_EV_PER_ANG2", "weighted_surface_energy", "weighted_work_function", "surface_anisotropy", "shape_factor", "has_reconstructed", "possible_species", "has_props", "theoretical", "database_IDs"]}