{"builder_meta": null, "nsites": null, "elements": null, "nelements": null, "composition": null, "composition_reduced": null, "formula_pretty": "IrF4", "formula_anonymous": "AB4", "chemsys": null, "volume": 127.17834545466121, "density": 7.003931353862454, "density_atomic": 12.717834545466122, "symmetry": null, "property_name": null, "material_id": "mp-13841", "deprecated": null, "deprecation_reasons": null, "last_updated": null, "origins": null, "warnings": null, "structure": {"@module": "pymatgen.core.structure", "@class": "Structure", "charge": 0, "lattice": {"matrix": [[5.22714907, -0.00915672, -1.4086359], [-2.92391237, 4.31861569, -1.4512653100000001], [-0.016147830000000002, 0.025314220000000002, 5.6317448599999995]], "pbc": [true, true, true], "a": 5.413633377343892, "b": 5.413490188904252, "c": 5.63182490231047, "alpha": 105.24487335646207, "beta": 105.24659936923662, "gamma": 116.9430191851076, "volume": 127.17834545466118}, "properties": {}, "sites": [{"species": [{"element": "Ir", "occu": 1}], "abc": [0.74392476, 0.24402829999999903, 0.50000977], "properties": {"magmom": 0.6970000000000001}, "label": "Ir", "xyz": [3.1670141796196063, 1.0597098917755647, 1.4138585218641264]}, {"species": [{"element": "Ir", "occu": 1}], "abc": [0.99404717, 0.99399219, 4.322e-05], "properties": {"magmom": 0.6970000000000001}, "label": "Ir", "xyz": [2.289685982268029, 4.283569149949567, -2.842553509700483]}, {"species": [{"element": "F", "occu": 1}], "abc": [0.97740019, 0.7279666100000001, 0.16059639], "properties": {"magmom": 0.11}, "label": "F", "xyz": [2.9779126350460237, 3.138923616222, -1.5288357903150653]}, {"species": [{"element": "F", "occu": 1}], "abc": [0.56749777, 0.81695858, 0.8394192500000001], "properties": {"magmom": 0.11}, "label": "F", "xyz": [0.5641253434952122, 3.5441829670543403, 2.742373667719752]}, {"species": [{"element": "F", "occu": 1}], "abc": [0.0449865, 0.29377532, 0.33788458], "properties": {"magmom": 0.025}, "label": "F", "xyz": [-0.6292782532686149, 1.2768440620952184, 1.4131642169227594]}, {"species": [{"element": "F", "occu": 1}], "abc": [0.95596196, 0.7073712600000001, 0.66214744], "properties": {"magmom": 0.025}, "label": "F", "xyz": [2.917971848576836, 3.062872892061295, 1.3558597349628032]}, {"species": [{"element": "F", "occu": 1}], "abc": [0.04372998, 0.29495734, 0.83774402], "properties": {"magmom": 0.025}, "label": "F", "xyz": [-0.6473740387786537, 1.2946138096481632, 4.2282996034245794]}, {"species": [{"element": "F", "occu": 1}], "abc": [0.45742091, 0.20593786, 0.16205079], "properties": {"magmom": 0.025}, "label": "F", "xyz": [1.78624625939144, 0.889280187515242, -0.030581283828866268]}, {"species": [{"element": "F", "occu": 1}], "abc": [0.56698268, 0.81756206, 0.33949111], "properties": {"magmom": 0.11}, "label": "F", "xyz": [0.567741123260634, 3.5341385908656955, -0.07324430041815644]}, {"species": [{"element": "F", "occu": 1}], "abc": [0.47805207, 0.22745248, 0.66061442], "properties": {"magmom": 0.111}, "label": "F", "xyz": [1.8231308239031887, 0.9946253986700532, 2.7169166625080994]}]}, "task_ids": null, "uncorrected_energy_per_atom": null, "energy_per_atom": -14.479874903999999, "formation_energy_per_atom": -1.507181853999998, "energy_above_hull": 0.000970868833329, "is_stable": false, "equilibrium_reaction_energy_per_atom": null, "decomposes_to": null, "xas": null, "grain_boundaries": null, "band_gap": 0.0, "cbm": null, "vbm": null, "efermi": 0.08034496, "is_gap_direct": null, "is_metal": null, "es_source_calc_id": null, "bandstructure": null, "dos": null, "dos_energy_up": null, "dos_energy_down": null, "is_magnetic": null, "ordering": null, "total_magnetization": 1.9995292, "total_magnetization_normalized_vol": null, "total_magnetization_normalized_formula_units": null, "num_magnetic_sites": null, "num_unique_magnetic_sites": null, "types_of_magnetic_species": null, "bulk_modulus": null, "shear_modulus": null, "universal_anisotropy": null, "homogeneous_poisson": null, "e_total": null, "e_ionic": null, "e_electronic": null, "n": null, "e_ij_max": null, "weighted_surface_energy_EV_PER_ANG2": null, "weighted_surface_energy": null, "weighted_work_function": null, "surface_anisotropy": null, "shape_factor": null, "has_reconstructed": null, "possible_species": null, "has_props": null, "theoretical": null, "database_IDs": null, "fields_not_requested": ["builder_meta", "nsites", "elements", "nelements", "composition", "composition_reduced", "chemsys", "symmetry", "property_name", "deprecated", "deprecation_reasons", "last_updated", "origins", "warnings", "task_ids", "uncorrected_energy_per_atom", "equilibrium_reaction_energy_per_atom", "decomposes_to", "xas", "grain_boundaries", "cbm", "vbm", "is_gap_direct", "is_metal", "es_source_calc_id", "bandstructure", "dos", "dos_energy_up", "dos_energy_down", "is_magnetic", "ordering", "total_magnetization_normalized_vol", "total_magnetization_normalized_formula_units", "num_magnetic_sites", "num_unique_magnetic_sites", "types_of_magnetic_species", "bulk_modulus", "shear_modulus", "universal_anisotropy", "homogeneous_poisson", "e_total", "e_ionic", "e_electronic", "n", "e_ij_max", "weighted_surface_energy_EV_PER_ANG2", "weighted_surface_energy", "weighted_work_function", "surface_anisotropy", "shape_factor", "has_reconstructed", "possible_species", "has_props", "theoretical", "database_IDs"]}