{"builder_meta": null, "nsites": null, "elements": null, "nelements": null, "composition": null, "composition_reduced": null, "formula_pretty": "IrI", "formula_anonymous": "AB", "chemsys": null, "volume": 105.49904128699306, "density": 10.04584802783706, "density_atomic": 26.374760321748266, "symmetry": null, "property_name": null, "material_id": "mp-1184756", "deprecated": null, "deprecation_reasons": null, "last_updated": null, "origins": null, "warnings": null, "structure": {"@module": "pymatgen.core.structure", "@class": "Structure", "charge": 0, "lattice": {"matrix": [[2.010132, -3.48165, 0.0], [2.010132, 3.48165, 0.0], [0.0, 0.0, 7.537179]], "pbc": [true, true, true], "a": 4.020263347086108, "b": 4.020263347086108, "c": 7.537179, "alpha": 90.0, "beta": 90.0, "gamma": 119.99998925532168, "volume": 105.49904128699306}, "properties": {}, "sites": [{"species": [{"element": "Ir", "occu": 1}], "abc": [0.666667, 0.333333, 0.860116999999999], "properties": {"magmom": 0.0}, "label": "Ir", "xyz": [2.010132, -1.1605523211, 6.482855789942993]}, {"species": [{"element": "Ir", "occu": 1}], "abc": [0.333333, 0.666667, 0.360116999999999], "properties": {"magmom": 0.0}, "label": "Ir", "xyz": [2.010132, 1.1605523211, 2.7142662899429926]}, {"species": [{"element": "I", "occu": 1}], "abc": [0.666667, 0.333333, 0.514884], "properties": {"magmom": 0.0}, "label": "I", "xyz": [2.010132, -1.1605523211, 3.880772872236]}, {"species": [{"element": "I", "occu": 1}], "abc": [0.333333, 0.666667, 0.014884], "properties": {"magmom": 0.0}, "label": "I", "xyz": [2.010132, 1.1605523211, 0.112183372236]}]}, "task_ids": null, "uncorrected_energy_per_atom": null, "energy_per_atom": -4.4330443074999994, "formation_energy_per_atom": 0.74817909, "energy_above_hull": 1.042158883333334, "is_stable": false, "equilibrium_reaction_energy_per_atom": null, "decomposes_to": null, "xas": null, "grain_boundaries": null, "band_gap": 0.0, "cbm": null, "vbm": null, "efermi": 6.4779459, "is_gap_direct": null, "is_metal": null, "es_source_calc_id": null, "bandstructure": null, "dos": null, "dos_energy_up": null, "dos_energy_down": null, "is_magnetic": null, "ordering": null, "total_magnetization": 0.000159, "total_magnetization_normalized_vol": null, "total_magnetization_normalized_formula_units": null, "num_magnetic_sites": null, "num_unique_magnetic_sites": null, "types_of_magnetic_species": null, "bulk_modulus": null, "shear_modulus": null, "universal_anisotropy": null, "homogeneous_poisson": null, "e_total": null, "e_ionic": null, "e_electronic": null, "n": null, "e_ij_max": null, "weighted_surface_energy_EV_PER_ANG2": null, "weighted_surface_energy": null, "weighted_work_function": null, "surface_anisotropy": null, "shape_factor": null, "has_reconstructed": null, "possible_species": null, "has_props": null, "theoretical": null, "database_IDs": null, "fields_not_requested": ["builder_meta", "nsites", "elements", "nelements", "composition", "composition_reduced", "chemsys", "symmetry", "property_name", "deprecated", "deprecation_reasons", "last_updated", "origins", "warnings", "task_ids", "uncorrected_energy_per_atom", "equilibrium_reaction_energy_per_atom", "decomposes_to", "xas", "grain_boundaries", "cbm", "vbm", "is_gap_direct", "is_metal", "es_source_calc_id", "bandstructure", "dos", "dos_energy_up", "dos_energy_down", "is_magnetic", "ordering", "total_magnetization_normalized_vol", "total_magnetization_normalized_formula_units", "num_magnetic_sites", "num_unique_magnetic_sites", "types_of_magnetic_species", "bulk_modulus", "shear_modulus", "universal_anisotropy", "homogeneous_poisson", "e_total", "e_ionic", "e_electronic", "n", "e_ij_max", "weighted_surface_energy_EV_PER_ANG2", "weighted_surface_energy", "weighted_work_function", "surface_anisotropy", "shape_factor", "has_reconstructed", "possible_species", "has_props", "theoretical", "database_IDs"]}