{
  "builder_meta": null,
  "nsites": null,
  "elements": null,
  "nelements": null,
  "composition": null,
  "composition_reduced": null,
  "formula_pretty": "IrI3",
  "formula_anonymous": "AB3",
  "chemsys": null,
  "volume": 279.59275108808504,
  "density": 6.80542198998877,
  "density_atomic": 34.94909388601063,
  "symmetry": null,
  "property_name": null,
  "material_id": "mp-1025442",
  "deprecated": null,
  "deprecation_reasons": null,
  "last_updated": null,
  "origins": null,
  "warnings": null,
  "structure": {
    "@module": "pymatgen.core.structure",
    "@class": "Structure",
    "charge": 0,
    "lattice": {
      "matrix": [
        [6.53609485, 0.00018181, -2.16714541],
        [3.26792175, -5.97296401, -1.08345838],
        [-0.15772851000000002, 0.00013373, -7.10931901]
      ],
      "pbc": [true, true, true],
      "a": 6.886004294896675,
      "b": 6.89416374117054,
      "c": 7.111068491211283,
      "alpha": 81.57081108968909,
      "beta": 72.92721026128201,
      "gamma": 60.04214533854896,
      "volume": 279.59275108808504
    },
    "properties": {},
    "sites": [
      {
        "species": [{ "element": "Ir", "occu": 1 }],
        "abc": [0.166589899999999, 0.66684612, -1.497e-5],
        "properties": { "magmom": -0.0 },
        "label": "Ir",
        "xyz": [3.268050688098913, -3.9830175892603603, -1.0834181275162627]
      },
      {
        "species": [{ "element": "Ir", "occu": 1 }],
        "abc": [0.83340896, 0.33315366, 1.5030000000000002e-5],
        "properties": { "magmom": 0.0 },
        "label": "Ir",
        "xyz": [6.535957732346455, -1.9897632968867973, -2.1671833801362648]
      },
      {
        "species": [{ "element": "I", "occu": 1 }],
        "abc": [0.56601261, 0.35630181, 0.78013334],
        "properties": { "magmom": 0.0 },
        "label": "I",
        "xyz": [4.740829270399903, -2.127970653843676, -7.1588865960140815]
      },
      {
        "species": [{ "element": "I", "occu": 1 }],
        "abc": [0.43399722, 0.64370596, 0.219863],
        "properties": { "magmom": 0.0 },
        "label": "I",
        "xyz": [4.9055490384508165, -3.844724224788941, -3.201039905389335]
      },
      {
        "species": [{ "element": "I", "occu": 1 }],
        "abc": [0.07772916, 0.35623106, 0.21983306],
        "properties": { "magmom": -0.0 },
        "label": "I",
        "xyz": [1.6375064503678405, -2.127711770410457, -2.117275271974909]
      },
      {
        "species": [{ "element": "I", "occu": 1 }],
        "abc": [0.92225606, 0.64376738, 0.7801697200000001],
        "properties": { "magmom": 0.0 },
        "label": "I",
        "xyz": [8.008679499707089, -3.84492738408107, -8.242633571327707]
      },
      {
        "species": [{ "element": "I", "occu": 1 }],
        "abc": [0.21061017, 8.429000000000001e-5, 0.77837985],
        "properties": { "magmom": -0.0 },
        "label": "I",
        "xyz": [1.2540708066644084, -0.00036107736405470003, -5.990264852527618]
      },
      {
        "species": [{ "element": "I", "occu": 1 }],
        "abc": [0.78939593, -9.029e-5, 0.22162097],
        "properties": { "magmom": -0.0 },
        "label": "I",
        "xyz": [5.1243156666462975, 0.0007124563668143, -3.2862121159506907]
      }
    ]
  },
  "task_ids": null,
  "uncorrected_energy_per_atom": null,
  "energy_per_atom": -3.79358769625,
  "formation_energy_per_atom": -0.44096969,
  "energy_above_hull": 0.0,
  "is_stable": true,
  "equilibrium_reaction_energy_per_atom": null,
  "decomposes_to": null,
  "xas": null,
  "grain_boundaries": null,
  "band_gap": 1.3846999999999992,
  "cbm": null,
  "vbm": null,
  "efermi": 3.11606414,
  "is_gap_direct": null,
  "is_metal": null,
  "es_source_calc_id": null,
  "bandstructure": null,
  "dos": null,
  "dos_energy_up": null,
  "dos_energy_down": null,
  "is_magnetic": null,
  "ordering": null,
  "total_magnetization": 0.0,
  "total_magnetization_normalized_vol": null,
  "total_magnetization_normalized_formula_units": null,
  "num_magnetic_sites": null,
  "num_unique_magnetic_sites": null,
  "types_of_magnetic_species": null,
  "bulk_modulus": null,
  "shear_modulus": null,
  "universal_anisotropy": null,
  "homogeneous_poisson": null,
  "e_total": null,
  "e_ionic": null,
  "e_electronic": null,
  "n": null,
  "e_ij_max": null,
  "weighted_surface_energy_EV_PER_ANG2": null,
  "weighted_surface_energy": null,
  "weighted_work_function": null,
  "surface_anisotropy": null,
  "shape_factor": null,
  "has_reconstructed": null,
  "possible_species": null,
  "has_props": null,
  "theoretical": null,
  "database_IDs": null,
  "fields_not_requested": [
    "builder_meta",
    "nsites",
    "elements",
    "nelements",
    "composition",
    "composition_reduced",
    "chemsys",
    "symmetry",
    "property_name",
    "deprecated",
    "deprecation_reasons",
    "last_updated",
    "origins",
    "warnings",
    "task_ids",
    "uncorrected_energy_per_atom",
    "equilibrium_reaction_energy_per_atom",
    "decomposes_to",
    "xas",
    "grain_boundaries",
    "cbm",
    "vbm",
    "is_gap_direct",
    "is_metal",
    "es_source_calc_id",
    "bandstructure",
    "dos",
    "dos_energy_up",
    "dos_energy_down",
    "is_magnetic",
    "ordering",
    "total_magnetization_normalized_vol",
    "total_magnetization_normalized_formula_units",
    "num_magnetic_sites",
    "num_unique_magnetic_sites",
    "types_of_magnetic_species",
    "bulk_modulus",
    "shear_modulus",
    "universal_anisotropy",
    "homogeneous_poisson",
    "e_total",
    "e_ionic",
    "e_electronic",
    "n",
    "e_ij_max",
    "weighted_surface_energy_EV_PER_ANG2",
    "weighted_surface_energy",
    "weighted_work_function",
    "surface_anisotropy",
    "shape_factor",
    "has_reconstructed",
    "possible_species",
    "has_props",
    "theoretical",
    "database_IDs"
  ]
}
