{"builder_meta": null, "nsites": null, "elements": null, "nelements": null, "composition": null, "composition_reduced": null, "formula_pretty": "IrN2", "formula_anonymous": "AB2", "chemsys": null, "volume": 112.60776338530675, "density": 12.990265390553414, "density_atomic": 9.383980282108896, "symmetry": null, "property_name": null, "material_id": "mp-415", "deprecated": null, "deprecation_reasons": null, "last_updated": null, "origins": null, "warnings": null, "structure": {"@module": "pymatgen.core.structure", "@class": "Structure", "charge": 0, "lattice": {"matrix": [[4.933213, 0.0, 0.0], [0.0, 4.879075, 0.0], [0.0, 1.514543, 4.678439]], "pbc": [true, true, true], "a": 4.933213, "b": 4.879075, "c": 4.917482280148043, "alpha": 72.06176629411692, "beta": 90.0, "gamma": 90.0, "volume": 112.60776338530675}, "properties": {}, "sites": [{"species": [{"element": "Ir", "occu": 1}], "abc": [0.499724, 0.233156, 0.279235], "properties": {"magmom": -0.0}, "label": "Ir", "xyz": [2.4652449332120003, 1.560499025305, 1.306383914165]}, {"species": [{"element": "Ir", "occu": 1}], "abc": [0.999724, 0.766844, 0.220765], "properties": {"magmom": -0.0}, "label": "Ir", "xyz": [4.931851433212, 4.075847474695, 1.032835585835]}, {"species": [{"element": "Ir", "occu": 1}], "abc": [0.500275999999999, 0.766844, 0.720765], "properties": {"magmom": -0.0}, "label": "Ir", "xyz": [2.4679680667879955, 4.833118974695, 3.372055085835]}, {"species": [{"element": "Ir", "occu": 1}], "abc": [0.000276, 0.233156, 0.779235], "properties": {"magmom": -0.0}, "label": "Ir", "xyz": [0.001361566788, 2.317770525305, 3.645603414165]}, {"species": [{"element": "N", "occu": 1}], "abc": [0.913615, 0.324607, 0.340808], "properties": {"magmom": 0.0}, "label": "N", "xyz": [4.507057394995, 2.099950269269, 1.594449438712]}, {"species": [{"element": "N", "occu": 1}], "abc": [0.413614999999999, 0.675393, 0.159192], "properties": {"magmom": 0.0}, "label": "N", "xyz": [2.0404508949949953, 3.5363962307310004, 0.744770061288]}, {"species": [{"element": "N", "occu": 1}], "abc": [0.086384999999999, 0.675393, 0.659192], "properties": {"magmom": 0.0}, "label": "N", "xyz": [0.4261556050049951, 4.293667730731, 3.083989561288]}, {"species": [{"element": "N", "occu": 1}], "abc": [0.586384999999999, 0.324607, 0.840808], "properties": {"magmom": 0.0}, "label": "N", "xyz": [2.8927621050049956, 2.857221769269, 3.933668938712]}, {"species": [{"element": "N", "occu": 1}], "abc": [0.402655999999999, 0.185693, 0.700568], "properties": {"magmom": 0.0}, "label": "N", "xyz": [1.9863878137279953, 1.9670504343989998, 3.277564653352]}, {"species": [{"element": "N", "occu": 1}], "abc": [0.902656, 0.814307, 0.799431999999999], "properties": {"magmom": 0.0}, "label": "N", "xyz": [4.452994313728, 5.183839065600999, 3.7400938466479956]}, {"species": [{"element": "N", "occu": 1}], "abc": [0.597344, 0.814307, 0.299432], "properties": {"magmom": 0.0}, "label": "N", "xyz": [2.946825186272, 4.426567565601, 1.4008743466479998]}, {"species": [{"element": "N", "occu": 1}], "abc": [0.097344, 0.185693, 0.200568], "properties": {"magmom": 0.0}, "label": "N", "xyz": [0.48021868627200004, 1.209778934399, 0.938345153352]}]}, "task_ids": null, "uncorrected_energy_per_atom": null, "energy_per_atom": -23.37377334583334, "formation_energy_per_atom": 0.16517825166666, "energy_above_hull": 0.165178251666663, "is_stable": false, "equilibrium_reaction_energy_per_atom": null, "decomposes_to": null, "xas": null, "grain_boundaries": null, "band_gap": 0.32, "cbm": null, "vbm": null, "efermi": 8.52349368, "is_gap_direct": null, "is_metal": null, "es_source_calc_id": null, "bandstructure": null, "dos": null, "dos_energy_up": null, "dos_energy_down": null, "is_magnetic": null, "ordering": null, "total_magnetization": 7.82e-05, "total_magnetization_normalized_vol": null, "total_magnetization_normalized_formula_units": null, "num_magnetic_sites": null, "num_unique_magnetic_sites": null, "types_of_magnetic_species": null, "bulk_modulus": null, "shear_modulus": null, "universal_anisotropy": null, "homogeneous_poisson": null, "e_total": null, "e_ionic": null, "e_electronic": null, "n": null, "e_ij_max": null, "weighted_surface_energy_EV_PER_ANG2": null, "weighted_surface_energy": null, "weighted_work_function": null, "surface_anisotropy": null, "shape_factor": null, "has_reconstructed": null, "possible_species": null, "has_props": null, "theoretical": null, "database_IDs": null, "fields_not_requested": ["builder_meta", "nsites", "elements", "nelements", "composition", "composition_reduced", "chemsys", "symmetry", "property_name", "deprecated", "deprecation_reasons", "last_updated", "origins", "warnings", "task_ids", "uncorrected_energy_per_atom", "equilibrium_reaction_energy_per_atom", "decomposes_to", "xas", "grain_boundaries", "cbm", "vbm", "is_gap_direct", "is_metal", "es_source_calc_id", "bandstructure", "dos", "dos_energy_up", "dos_energy_down", "is_magnetic", "ordering", "total_magnetization_normalized_vol", "total_magnetization_normalized_formula_units", "num_magnetic_sites", "num_unique_magnetic_sites", "types_of_magnetic_species", "bulk_modulus", "shear_modulus", "universal_anisotropy", "homogeneous_poisson", "e_total", "e_ionic", "e_electronic", "n", "e_ij_max", "weighted_surface_energy_EV_PER_ANG2", "weighted_surface_energy", "weighted_work_function", "surface_anisotropy", "shape_factor", "has_reconstructed", "possible_species", "has_props", "theoretical", "database_IDs"]}