{
  "builder_meta": null,
  "nsites": null,
  "elements": null,
  "nelements": null,
  "composition": null,
  "composition_reduced": null,
  "formula_pretty": "IrN3",
  "formula_anonymous": "AB3",
  "chemsys": null,
  "volume": 161.89194126962437,
  "density": 9.610357435872467,
  "density_atomic": 10.118246329351523,
  "symmetry": null,
  "property_name": null,
  "material_id": "mp-1211954",
  "deprecated": null,
  "deprecation_reasons": null,
  "last_updated": null,
  "origins": null,
  "warnings": null,
  "structure": {
    "@module": "pymatgen.core.structure",
    "@class": "Structure",
    "charge": 0,
    "lattice": {
      "matrix": [
        [-3.433379, 3.433379, 3.433379],
        [3.433379, -3.433379, 3.433379],
        [3.433379, 3.433379, -3.433379]
      ],
      "pbc": [true, true, true],
      "a": 5.946786869640024,
      "b": 5.946786869640024,
      "c": 5.946786869640024,
      "alpha": 109.47122063449069,
      "beta": 109.47122063449069,
      "gamma": 109.47122063449069,
      "volume": 161.89194126962437
    },
    "properties": {},
    "sites": [
      {
        "species": [{ "element": "Ir", "occu": 1 }],
        "abc": [0.5, 0.5, 0.5],
        "properties": { "magmom": 0.0 },
        "label": "Ir",
        "xyz": [1.7166895, 1.7166895, 1.7166895]
      },
      {
        "species": [{ "element": "Ir", "occu": 1 }],
        "abc": [0.5, 0.0, 0.0],
        "properties": { "magmom": 0.0 },
        "label": "Ir",
        "xyz": [-1.7166895, 1.7166895, 1.7166895]
      },
      {
        "species": [{ "element": "Ir", "occu": 1 }],
        "abc": [0.0, 0.5, 0.0],
        "properties": { "magmom": 0.0 },
        "label": "Ir",
        "xyz": [1.7166895, -1.7166895, 1.7166895]
      },
      {
        "species": [{ "element": "Ir", "occu": 1 }],
        "abc": [0.0, 0.0, 0.5],
        "properties": { "magmom": 0.0 },
        "label": "Ir",
        "xyz": [1.7166895, 1.7166895, -1.7166895]
      },
      {
        "species": [{ "element": "N", "occu": 1 }],
        "abc": [0.908598999999999, 0.692655, 0.601254],
        "properties": { "magmom": 0.0 },
        "label": "N",
        "xyz": [1.3229152624900031, 2.8057504520419965, 3.433378999999997]
      },
      {
        "species": [{ "element": "N", "occu": 1 }],
        "abc": [0.091401, 0.307345, 0.398746],
        "properties": { "magmom": 0.0 },
        "label": "N",
        "xyz": [2.11046373751, 0.6276285479579999, 0.0]
      },
      {
        "species": [{ "element": "N", "occu": 1 }],
        "abc": [0.091401, 0.692655, 0.784056],
        "properties": { "magmom": 0.0 },
        "label": "N",
        "xyz": [4.75629426249, 0.6276285479579999, 4.440892098500626e-16]
      },
      {
        "species": [{ "element": "N", "occu": 1 }],
        "abc": [0.908598999999999, 0.307345, 0.215944],
        "properties": { "magmom": 0.0 },
        "label": "N",
        "xyz": [-1.3229152624899967, 2.8057504520419965, 3.433378999999996]
      },
      {
        "species": [{ "element": "N", "occu": 1 }],
        "abc": [0.692655, 0.601254, 0.908598999999999],
        "properties": { "magmom": 0.0 },
        "label": "N",
        "xyz": [2.8057504520419965, 3.433378999999997, 1.3229152624900031]
      },
      {
        "species": [{ "element": "N", "occu": 1 }],
        "abc": [0.307345, 0.398746, 0.091401],
        "properties": { "magmom": 0.0 },
        "label": "N",
        "xyz": [0.6276285479579999, 0.0, 2.11046373751]
      },
      {
        "species": [{ "element": "N", "occu": 1 }],
        "abc": [0.692655, 0.784056, 0.091401],
        "properties": { "magmom": 0.0 },
        "label": "N",
        "xyz": [0.6276285479579997, 2.220446049250313e-16, 4.75629426249]
      },
      {
        "species": [{ "element": "N", "occu": 1 }],
        "abc": [0.307345, 0.215944, 0.908598999999999],
        "properties": { "magmom": 0.0 },
        "label": "N",
        "xyz": [2.8057504520419965, 3.433378999999997, -1.3229152624899967]
      },
      {
        "species": [{ "element": "N", "occu": 1 }],
        "abc": [0.601254, 0.908598999999999, 0.692655],
        "properties": { "magmom": 0.0 },
        "label": "N",
        "xyz": [3.433378999999997, 1.3229152624900031, 2.8057504520419965]
      },
      {
        "species": [{ "element": "N", "occu": 1 }],
        "abc": [0.398746, 0.091401, 0.307345],
        "properties": { "magmom": 0.0 },
        "label": "N",
        "xyz": [0.0, 2.11046373751, 0.6276285479579999]
      },
      {
        "species": [{ "element": "N", "occu": 1 }],
        "abc": [0.215944, 0.908598999999999, 0.307345],
        "properties": { "magmom": 0.0 },
        "label": "N",
        "xyz": [3.4333789999999964, -1.3229152624899965, 2.805750452041997]
      },
      {
        "species": [{ "element": "N", "occu": 1 }],
        "abc": [0.784056, 0.091401, 0.692655],
        "properties": { "magmom": 0.0 },
        "label": "N",
        "xyz": [0.0, 4.75629426249, 0.6276285479579995]
      }
    ]
  },
  "task_ids": null,
  "uncorrected_energy_per_atom": null,
  "energy_per_atom": -19.856076356562497,
  "formation_energy_per_atom": 0.080325009375002,
  "energy_above_hull": 0.080325009375002,
  "is_stable": false,
  "equilibrium_reaction_energy_per_atom": null,
  "decomposes_to": null,
  "xas": null,
  "grain_boundaries": null,
  "band_gap": 0.0,
  "cbm": null,
  "vbm": null,
  "efermi": 6.54221993,
  "is_gap_direct": null,
  "is_metal": null,
  "es_source_calc_id": null,
  "bandstructure": null,
  "dos": null,
  "dos_energy_up": null,
  "dos_energy_down": null,
  "is_magnetic": null,
  "ordering": null,
  "total_magnetization": 0.00019759999999900002,
  "total_magnetization_normalized_vol": null,
  "total_magnetization_normalized_formula_units": null,
  "num_magnetic_sites": null,
  "num_unique_magnetic_sites": null,
  "types_of_magnetic_species": null,
  "bulk_modulus": null,
  "shear_modulus": null,
  "universal_anisotropy": null,
  "homogeneous_poisson": null,
  "e_total": null,
  "e_ionic": null,
  "e_electronic": null,
  "n": null,
  "e_ij_max": null,
  "weighted_surface_energy_EV_PER_ANG2": null,
  "weighted_surface_energy": null,
  "weighted_work_function": null,
  "surface_anisotropy": null,
  "shape_factor": null,
  "has_reconstructed": null,
  "possible_species": null,
  "has_props": null,
  "theoretical": null,
  "database_IDs": null,
  "fields_not_requested": [
    "builder_meta",
    "nsites",
    "elements",
    "nelements",
    "composition",
    "composition_reduced",
    "chemsys",
    "symmetry",
    "property_name",
    "deprecated",
    "deprecation_reasons",
    "last_updated",
    "origins",
    "warnings",
    "task_ids",
    "uncorrected_energy_per_atom",
    "equilibrium_reaction_energy_per_atom",
    "decomposes_to",
    "xas",
    "grain_boundaries",
    "cbm",
    "vbm",
    "is_gap_direct",
    "is_metal",
    "es_source_calc_id",
    "bandstructure",
    "dos",
    "dos_energy_up",
    "dos_energy_down",
    "is_magnetic",
    "ordering",
    "total_magnetization_normalized_vol",
    "total_magnetization_normalized_formula_units",
    "num_magnetic_sites",
    "num_unique_magnetic_sites",
    "types_of_magnetic_species",
    "bulk_modulus",
    "shear_modulus",
    "universal_anisotropy",
    "homogeneous_poisson",
    "e_total",
    "e_ionic",
    "e_electronic",
    "n",
    "e_ij_max",
    "weighted_surface_energy_EV_PER_ANG2",
    "weighted_surface_energy",
    "weighted_work_function",
    "surface_anisotropy",
    "shape_factor",
    "has_reconstructed",
    "possible_species",
    "has_props",
    "theoretical",
    "database_IDs"
  ]
}
