{"builder_meta": null, "nsites": null, "elements": null, "nelements": null, "composition": null, "composition_reduced": null, "formula_pretty": "IrO3", "formula_anonymous": "AB3", "chemsys": null, "volume": 371.9455709356828, "density": 8.579464419757443, "density_atomic": 11.623299091740087, "symmetry": null, "property_name": null, "material_id": "mp-1097041", "deprecated": null, "deprecation_reasons": null, "last_updated": null, "origins": null, "warnings": null, "structure": {"@module": "pymatgen.core.structure", "@class": "Structure", "charge": 0, "lattice": {"matrix": [[7.06581952, 8.048e-05, -2.3520000000000002e-05], [-0.00013112, 7.28694771, -2.0200000000000003e-05], [-1.639e-05, -3.325e-05, 7.223891229999999]], "pbc": [true, true, true], "a": 7.065819520497481, "b": 7.286947711207673, "c": 7.223891230095114, "alpha": 90.00042254613966, "beta": 90.00032071963756, "gamma": 90.00037836772613, "volume": 371.94557093568267}, "properties": {}, "sites": [{"species": [{"element": "Ir", "occu": 1}], "abc": [0.24996521, 0.49992315, 0.25001064], "properties": {"magmom": 0.044}, "label": "Ir", "xyz": [1.7661394125410814, 3.642925657414807, 1.8060336920733178]}, {"species": [{"element": "Ir", "occu": 1}], "abc": [0.75000562, 0.50006299, 0.24997833], "properties": {"magmom": 0.044}, "label": "Ir", "xyz": [5.299334684501625, 3.643984908509078, 1.8057885243724652]}, {"species": [{"element": "Ir", "occu": 1}], "abc": [0.24999894, 0.99993686, 0.24997646], "properties": {"magmom": 0.044}, "label": "Ir", "xyz": [1.766312181396046, 7.286499420318988, 1.8057766784008047]}, {"species": [{"element": "Ir", "occu": 1}], "abc": [0.750032599999999, 7.483e-05, 0.25001458], "properties": {"magmom": 0.044}, "label": "Ir", "xyz": [5.299590878165669, 0.0005973319360022999, 1.806060489555815]}, {"species": [{"element": "Ir", "occu": 1}], "abc": [0.7500350100000001, 0.5000755100000001, 0.74998792], "properties": {"magmom": 0.044}, "label": "Ir", "xyz": [5.299534152138515, 3.644059518140847, 5.417803415545204]}, {"species": [{"element": "Ir", "occu": 1}], "abc": [0.2499901, 0.49993674, 0.75002162], "properties": {"magmom": 0.044}, "label": "Ir", "xyz": [1.7663070838270514, 3.643008063672248, 5.418058624539093]}, {"species": [{"element": "Ir", "occu": 1}], "abc": [0.75000327, 6.622e-05, 0.75002673], "properties": {"magmom": 0.044}, "label": "Ir", "xyz": [5.299375443608959, 0.0005179635517532999, 5.418093875698022]}, {"species": [{"element": "Ir", "occu": 1}], "abc": [0.24996502, 0.9999260600000001, 0.74998992], "properties": {"magmom": 0.044}, "label": "Ir", "xyz": [1.7660643149934145, 7.286404093106293, 5.417819527992718]}, {"species": [{"element": "O", "occu": 1}], "abc": [0.33169687000000003, 0.49980741, 3.519999999999999e-06], "properties": {"magmom": -0.156}, "label": "O", "xyz": [2.3436446839636105, 3.6420971565875884, 7.530477065199987e-06]}, {"species": [{"element": "O", "occu": 1}], "abc": [0.83172885, 0.50019935, 0.49998673], "properties": {"magmom": -0.155}, "label": "O", "xyz": [5.876772162755874, 3.644976821005064, 3.6118200876739555]}, {"species": [{"element": "O", "occu": 1}], "abc": [0.16828309, 0.99982068, 0.49999806], "properties": {"magmom": -0.155}, "label": "O", "xyz": [1.1889186507521519, 7.285637933024232, 3.6119074462550005]}, {"species": [{"element": "O", "occu": 1}], "abc": [0.66829481, 0.00020998, 8.86e-06], "properties": {"magmom": -0.156}, "label": "O", "xyz": [4.722050485934898, 0.0015838973518595997, 4.828114077059999e-05]}, {"species": [{"element": "O", "occu": 1}], "abc": [0.66828727, 0.50017864, -1.5660000000000003e-05], "properties": {"magmom": -0.157}, "label": "O", "xyz": [4.721931654166901, 3.644829379619099, -0.0001389478617802]}, {"species": [{"element": "O", "occu": 1}], "abc": [0.16828215, 0.49979983, 0.50002002], "properties": {"magmom": -0.155}, "label": "O", "xyz": [1.1889775712557304, 3.642012144358656, 3.61207618334969]}, {"species": [{"element": "O", "occu": 1}], "abc": [0.83172066, 0.00018127, 0.50002392], "properties": {"magmom": -0.155}, "label": "O", "xyz": [5.876779855455112, 0.0013712160947684999, 3.6120988447466433]}, {"species": [{"element": "O", "occu": 1}], "abc": [0.33170165, 0.99980177, -2.7290000000000005e-05], "properties": {"magmom": -0.156}, "label": "O", "xyz": [2.3436128998254087, 7.285529914611631, -0.0002251376102287]}, {"species": [{"element": "O", "occu": 1}], "abc": [0.9999667400000001, 0.9270998300000001, 0.8338558500000001], "properties": {"magmom": 0.001}, "label": "O", "xyz": [7.065449282615673, 6.755780734776112, 6.023641715264905]}, {"species": [{"element": "O", "occu": 1}], "abc": [0.49996395, 0.07290934, 0.66625473], "properties": {"magmom": -0.009000000000000001}, "label": "O", "xyz": [3.5326345574186186, 0.531304632279535, 4.812938469072245]}, {"species": [{"element": "O", "occu": 1}], "abc": [0.500022499999999, 0.42710346, 0.66627514], "properties": {"magmom": -0.009000000000000001}, "label": "O", "xyz": [3.5330018188839736, 3.1122986679424716, 4.813078752593929]}, {"species": [{"element": "O", "occu": 1}], "abc": [4.3150000000000005e-05, 0.5728866300000001, 0.83384512], "properties": {"magmom": 0.001}, "label": "O", "xyz": [0.00021610649584560002, 4.17456719469059, 6.023594876221482]}, {"species": [{"element": "O", "occu": 1}], "abc": [2.8630000000000002e-05, 0.07290089, 0.16614244], "properties": {"magmom": 0.001}, "label": "O", "xyz": [0.0001900125735692, 0.5312194515104743, 1.2001934419754454]}, {"species": [{"element": "O", "occu": 1}], "abc": [0.50004171, 0.9270902400000001, 0.33375172000000003], "properties": {"magmom": -0.009000000000000001}, "label": "O", "xyz": [3.5330774450692197, 6.755687247443482, 2.410955634901548]}, {"species": [{"element": "O", "occu": 1}], "abc": [0.49995256, 0.57290389, 0.33374541], "properties": {"magmom": -0.009000000000000001}, "label": "O", "xyz": [3.5324939682766447, 4.174749828432739, 2.4109172088089648]}, {"species": [{"element": "O", "occu": 1}], "abc": [0.99997834, 0.42710049, 0.16613167], "properties": {"magmom": 0.001}, "label": "O", "xyz": [7.065607750034876, 3.1123338919241537, 1.2000849670177993]}, {"species": [{"element": "O", "occu": 1}], "abc": [0.32201577000000003, 0.24992473, 0.27143033], "properties": {"magmom": 0.179}, "label": "O", "xyz": [2.2752680945401247, 1.8212053297165653, 1.9607705581525492]}, {"species": [{"element": "O", "occu": 1}], "abc": [0.8221081, 0.2500923, 0.77146497], "properties": {"magmom": 0.179}, "label": "O", "xyz": [5.808822024116878, 1.8224500248232682, 5.57295464318824]}, {"species": [{"element": "O", "occu": 1}], "abc": [0.1779083, 0.2499168, 0.77148395], "properties": {"magmom": 0.179}, "label": "O", "xyz": [1.2570225251972595, 1.8211193196691744, 5.573106907768182]}, {"species": [{"element": "O", "occu": 1}], "abc": [0.67797986, 0.75008786, 0.72857536], "properties": {"magmom": 0.179}, "label": "O", "xyz": [4.790373036084513, 5.465881352414214, 5.263118055637013]}, {"species": [{"element": "O", "occu": 1}], "abc": [0.677991999999999, 0.25009631, 0.27144579], "properties": {"magmom": 0.179}, "label": "O", "xyz": [4.790531866379167, 1.8224842726575925, 1.9608738634841194]}, {"species": [{"element": "O", "occu": 1}], "abc": [0.17791041, 0.74989666, 0.22852987], "properties": {"magmom": 0.179}, "label": "O", "xyz": [1.2569807757345746, 5.464464468935267, 1.6508555913206646]}, {"species": [{"element": "O", "occu": 1}], "abc": [0.82208966, 0.75008206, 0.22851012], "properties": {"magmom": 0.179}, "label": "O", "xyz": [5.80863507077759, 5.465867313243429, 1.650697764627832]}, {"species": [{"element": "O", "occu": 1}], "abc": [0.32200522, 0.74990521, 0.7285581600000001], "properties": {"magmom": 0.179}, "label": "O", "xyz": [2.275120500378517, 5.464521743147855, 5.26300218092092]}]}, "task_ids": null, "uncorrected_energy_per_atom": null, "energy_per_atom": -6.90277686625, "formation_energy_per_atom": -0.9821975675000001, "energy_above_hull": 0.0, "is_stable": true, "equilibrium_reaction_energy_per_atom": null, "decomposes_to": null, "xas": null, "grain_boundaries": null, "band_gap": 0.0, "cbm": null, "vbm": null, "efermi": 2.94082607, "is_gap_direct": null, "is_metal": null, "es_source_calc_id": null, "bandstructure": null, "dos": null, "dos_energy_up": null, "dos_energy_down": null, "is_magnetic": null, "ordering": null, "total_magnetization": 0.5222981, "total_magnetization_normalized_vol": null, "total_magnetization_normalized_formula_units": null, "num_magnetic_sites": null, "num_unique_magnetic_sites": null, "types_of_magnetic_species": null, "bulk_modulus": null, "shear_modulus": null, "universal_anisotropy": null, "homogeneous_poisson": null, "e_total": null, "e_ionic": null, "e_electronic": null, "n": null, "e_ij_max": null, "weighted_surface_energy_EV_PER_ANG2": null, "weighted_surface_energy": null, "weighted_work_function": null, "surface_anisotropy": null, "shape_factor": null, "has_reconstructed": null, "possible_species": null, "has_props": null, "theoretical": null, "database_IDs": null, "fields_not_requested": ["builder_meta", "nsites", "elements", "nelements", "composition", "composition_reduced", "chemsys", "symmetry", "property_name", "deprecated", "deprecation_reasons", "last_updated", "origins", "warnings", "task_ids", "uncorrected_energy_per_atom", "equilibrium_reaction_energy_per_atom", "decomposes_to", "xas", "grain_boundaries", "cbm", "vbm", "is_gap_direct", "is_metal", "es_source_calc_id", "bandstructure", "dos", "dos_energy_up", "dos_energy_down", "is_magnetic", "ordering", "total_magnetization_normalized_vol", "total_magnetization_normalized_formula_units", "num_magnetic_sites", "num_unique_magnetic_sites", "types_of_magnetic_species", "bulk_modulus", "shear_modulus", "universal_anisotropy", "homogeneous_poisson", "e_total", "e_ionic", "e_electronic", "n", "e_ij_max", "weighted_surface_energy_EV_PER_ANG2", "weighted_surface_energy", "weighted_work_function", "surface_anisotropy", "shape_factor", "has_reconstructed", "possible_species", "has_props", "theoretical", "database_IDs"]}