{
  "builder_meta": null,
  "nsites": null,
  "elements": null,
  "nelements": null,
  "composition": null,
  "composition_reduced": null,
  "formula_pretty": "IrRu3",
  "formula_anonymous": "AB3",
  "chemsys": null,
  "volume": 109.7843388948233,
  "density": 14.987126514221417,
  "density_atomic": 13.723042361852913,
  "symmetry": null,
  "property_name": null,
  "material_id": "mp-862620",
  "deprecated": null,
  "deprecation_reasons": null,
  "last_updated": null,
  "origins": null,
  "warnings": null,
  "structure": {
    "@module": "pymatgen.core.structure",
    "@class": "Structure",
    "charge": 0,
    "lattice": {
      "matrix": [
        [5.4246046, -1.79e-6, 0.0],
        [-2.7123033100000002, 4.69783529, 0.0],
        [0.0, 0.0, 4.30798914]
      ],
      "pbc": [true, true, true],
      "a": 5.424604600000296,
      "b": 5.42459635893827,
      "c": 4.30798914,
      "alpha": 90.0,
      "beta": 90.0,
      "gamma": 120.00008147935019,
      "volume": 109.7843388948233
    },
    "properties": {},
    "sites": [
      {
        "species": [{ "element": "Ir", "occu": 1 }],
        "abc": [0.33333084, 0.6666658, 0.75],
        "properties": { "magmom": -0.0 },
        "label": "Ir",
        "xyz": [-1.1848017934079635e-5, 3.1318855252138786, 3.230991855]
      },
      {
        "species": [{ "element": "Ir", "occu": 1 }],
        "abc": [0.66666413, 0.33332279, 0.25],
        "properties": { "magmom": -0.0 },
        "label": "Ir",
        "xyz": [2.7123167996375637, 1.5658943724944665, 1.076997285]
      },
      {
        "species": [{ "element": "Ru", "occu": 1 }],
        "abc": [0.16581546, 0.33162417, 0.25],
        "properties": { "magmom": 0.0 },
        "label": "Ru",
        "xyz": [1.797310011319997e-5, 1.557915432033286, 1.076997285]
      },
      {
        "species": [{ "element": "Ru", "occu": 1 }],
        "abc": [0.66837574, 0.8341876300000001, 0.25],
        "properties": { "magmom": 0.0 },
        "label": "Ru",
        "xyz": [1.3631042437223484, 3.9188748903028885, 1.076997285]
      },
      {
        "species": [{ "element": "Ru", "occu": 1 }],
        "abc": [0.16581473, 0.8341926900000001, 0.25],
        "properties": { "magmom": 0.0 },
        "label": "Ru",
        "xyz": [-1.3631042471590462, 3.918899560933664, 1.076997285]
      },
      {
        "species": [{ "element": "Ru", "occu": 1 }],
        "abc": [0.83418482, 0.66837058, 0.75],
        "properties": { "magmom": 0.0 },
        "label": "Ru",
        "xyz": [2.7122990753815523, 3.139893404330941, 3.230991855]
      },
      {
        "species": [{ "element": "Ru", "occu": 1 }],
        "abc": [0.33161891, 0.16582175, 0.75],
        "properties": { "magmom": 0.0 },
        "label": "Ru",
        "xyz": [1.3491425832379935, 0.7790026754017086, 3.230991855]
      },
      {
        "species": [{ "element": "Ru", "occu": 1 }],
        "abc": [0.83420437, 0.165818599999999, 0.75],
        "properties": { "magmom": 0.0 },
        "label": "Ru",
        "xyz": [4.075478525202539, 0.7789869775925671, 3.230991855]
      }
    ]
  },
  "task_ids": null,
  "uncorrected_energy_per_atom": null,
  "energy_per_atom": -32.22303086875,
  "formation_energy_per_atom": -0.064791034999998,
  "energy_above_hull": 0.0,
  "is_stable": true,
  "equilibrium_reaction_energy_per_atom": null,
  "decomposes_to": null,
  "xas": null,
  "grain_boundaries": null,
  "band_gap": 0.0,
  "cbm": null,
  "vbm": null,
  "efermi": 8.95199114,
  "is_gap_direct": null,
  "is_metal": null,
  "es_source_calc_id": null,
  "bandstructure": null,
  "dos": null,
  "dos_energy_up": null,
  "dos_energy_down": null,
  "is_magnetic": null,
  "ordering": null,
  "total_magnetization": 5.08e-5,
  "total_magnetization_normalized_vol": null,
  "total_magnetization_normalized_formula_units": null,
  "num_magnetic_sites": null,
  "num_unique_magnetic_sites": null,
  "types_of_magnetic_species": null,
  "bulk_modulus": null,
  "shear_modulus": null,
  "universal_anisotropy": null,
  "homogeneous_poisson": null,
  "e_total": null,
  "e_ionic": null,
  "e_electronic": null,
  "n": null,
  "e_ij_max": null,
  "weighted_surface_energy_EV_PER_ANG2": null,
  "weighted_surface_energy": null,
  "weighted_work_function": null,
  "surface_anisotropy": null,
  "shape_factor": null,
  "has_reconstructed": null,
  "possible_species": null,
  "has_props": null,
  "theoretical": null,
  "database_IDs": null,
  "fields_not_requested": [
    "builder_meta",
    "nsites",
    "elements",
    "nelements",
    "composition",
    "composition_reduced",
    "chemsys",
    "symmetry",
    "property_name",
    "deprecated",
    "deprecation_reasons",
    "last_updated",
    "origins",
    "warnings",
    "task_ids",
    "uncorrected_energy_per_atom",
    "equilibrium_reaction_energy_per_atom",
    "decomposes_to",
    "xas",
    "grain_boundaries",
    "cbm",
    "vbm",
    "is_gap_direct",
    "is_metal",
    "es_source_calc_id",
    "bandstructure",
    "dos",
    "dos_energy_up",
    "dos_energy_down",
    "is_magnetic",
    "ordering",
    "total_magnetization_normalized_vol",
    "total_magnetization_normalized_formula_units",
    "num_magnetic_sites",
    "num_unique_magnetic_sites",
    "types_of_magnetic_species",
    "bulk_modulus",
    "shear_modulus",
    "universal_anisotropy",
    "homogeneous_poisson",
    "e_total",
    "e_ionic",
    "e_electronic",
    "n",
    "e_ij_max",
    "weighted_surface_energy_EV_PER_ANG2",
    "weighted_surface_energy",
    "weighted_work_function",
    "surface_anisotropy",
    "shape_factor",
    "has_reconstructed",
    "possible_species",
    "has_props",
    "theoretical",
    "database_IDs"
  ]
}
