{
  "builder_meta": null,
  "nsites": null,
  "elements": null,
  "nelements": null,
  "composition": null,
  "composition_reduced": null,
  "formula_pretty": "IrS2",
  "formula_anonymous": "AB2",
  "chemsys": null,
  "volume": 405.32579294529916,
  "density": 8.401620928439797,
  "density_atomic": 16.888574706054133,
  "symmetry": null,
  "property_name": null,
  "material_id": "mp-2833",
  "deprecated": null,
  "deprecation_reasons": null,
  "last_updated": null,
  "origins": null,
  "warnings": null,
  "structure": {
    "@module": "pymatgen.core.structure",
    "@class": "Structure",
    "charge": 0,
    "lattice": {
      "matrix": [
        [3.58569476, 0.0, 0.0],
        [-0.0, 5.66252955, 0.0],
        [0.0, 0.0, 19.96275345]
      ],
      "pbc": [true, true, true],
      "a": 3.58569476,
      "b": 5.66252955,
      "c": 19.96275345,
      "alpha": 90.0,
      "beta": 90.0,
      "gamma": 90.0,
      "volume": 405.32579294529916
    },
    "properties": {},
    "sites": [
      {
        "species": [{ "element": "Ir", "occu": 1 }],
        "abc": [0.25, 0.94104573, 0.80391746],
        "properties": { "magmom": -0.0 },
        "label": "Ir",
        "xyz": [0.89642369, 5.328699254026322, 16.048406048130236]
      },
      {
        "species": [{ "element": "Ir", "occu": 1 }],
        "abc": [0.75, 0.05895427, 0.19608254],
        "properties": { "magmom": -0.0 },
        "label": "Ir",
        "xyz": [2.68927107, 0.3338302959736785, 3.914347401869763]
      },
      {
        "species": [{ "element": "Ir", "occu": 1 }],
        "abc": [0.75, 0.44104573, 0.69608254],
        "properties": { "magmom": -0.0 },
        "label": "Ir",
        "xyz": [2.68927107, 2.497434479026322, 13.895724126869764]
      },
      {
        "species": [{ "element": "Ir", "occu": 1 }],
        "abc": [0.25, 0.55895427, 0.30391746000000003],
        "properties": { "magmom": -0.0 },
        "label": "Ir",
        "xyz": [0.89642369, 3.1650950709736785, 6.067029323130238]
      },
      {
        "species": [{ "element": "Ir", "occu": 1 }],
        "abc": [0.25, 0.92657031, 0.57730613],
        "properties": { "magmom": 0.0 },
        "label": "Ir",
        "xyz": [0.89642369, 5.246731760527661, 11.52461993836365]
      },
      {
        "species": [{ "element": "Ir", "occu": 1 }],
        "abc": [0.75, 0.07342969, 0.42269387],
        "properties": { "magmom": 0.0 },
        "label": "Ir",
        "xyz": [2.68927107, 0.4157977894723396, 8.438133511636352]
      },
      {
        "species": [{ "element": "Ir", "occu": 1 }],
        "abc": [0.75, 0.42657031, 0.92269387],
        "properties": { "magmom": 0.0 },
        "label": "Ir",
        "xyz": [2.68927107, 2.4154669855276607, 18.419510236636352]
      },
      {
        "species": [{ "element": "Ir", "occu": 1 }],
        "abc": [0.25, 0.57342969, 0.07730613],
        "properties": { "magmom": 0.0 },
        "label": "Ir",
        "xyz": [0.89642369, 3.2470625644723397, 1.5432432133636487]
      },
      {
        "species": [{ "element": "S", "occu": 1 }],
        "abc": [0.25, 0.22292644, 0.49136998],
        "properties": { "magmom": -0.0 },
        "label": "S",
        "xyz": [0.89642369, 1.2623275539763021, 9.809097763471431]
      },
      {
        "species": [{ "element": "S", "occu": 1 }],
        "abc": [0.75, 0.77707356, 0.50863002],
        "properties": { "magmom": -0.0 },
        "label": "S",
        "xyz": [2.68927107, 4.400201996023698, 10.15365568652857]
      },
      {
        "species": [{ "element": "S", "occu": 1 }],
        "abc": [0.75, 0.7229264400000001, 0.00863002],
        "properties": { "magmom": -0.0 },
        "label": "S",
        "xyz": [2.68927107, 4.093592328976302, 0.17227896152856903]
      },
      {
        "species": [{ "element": "S", "occu": 1 }],
        "abc": [0.25, 0.27707356, 0.99136998],
        "properties": { "magmom": -0.0 },
        "label": "S",
        "xyz": [0.89642369, 1.568937221023698, 19.790474488471432]
      },
      {
        "species": [{ "element": "S", "occu": 1 }],
        "abc": [0.25, 0.17863762, 0.2635329],
        "properties": { "magmom": -0.0 },
        "label": "S",
        "xyz": [0.89642369, 1.011540801991671, 5.260842308663506]
      },
      {
        "species": [{ "element": "S", "occu": 1 }],
        "abc": [0.75, 0.8213623800000001, 0.736467099999999],
        "properties": { "magmom": -0.0 },
        "label": "S",
        "xyz": [2.68927107, 4.65098874800833, 14.701911141336476]
      },
      {
        "species": [{ "element": "S", "occu": 1 }],
        "abc": [0.75, 0.67863762, 0.23646709999999901],
        "properties": { "magmom": -0.0 },
        "label": "S",
        "xyz": [2.68927107, 3.8428055769916716, 4.720534416336475]
      },
      {
        "species": [{ "element": "S", "occu": 1 }],
        "abc": [0.25, 0.32136238, 0.7635329],
        "properties": { "magmom": -0.0 },
        "label": "S",
        "xyz": [0.89642369, 1.8197239730083292, 15.242219033663504]
      },
      {
        "species": [{ "element": "S", "occu": 1 }],
        "abc": [0.25, 0.9369543300000001, 0.35884653],
        "properties": { "magmom": 0.0 },
        "label": "S",
        "xyz": [0.89642369, 5.305531580625452, 7.163564804778029]
      },
      {
        "species": [{ "element": "S", "occu": 1 }],
        "abc": [0.75, 0.06304567, 0.64115347],
        "properties": { "magmom": 0.0 },
        "label": "S",
        "xyz": [2.68927107, 0.35699796937454853, 12.799188645221973]
      },
      {
        "species": [{ "element": "S", "occu": 1 }],
        "abc": [0.75, 0.43695433, 0.14115347],
        "properties": { "magmom": 0.0 },
        "label": "S",
        "xyz": [2.68927107, 2.4742668056254518, 2.817811920221972]
      },
      {
        "species": [{ "element": "S", "occu": 1 }],
        "abc": [0.25, 0.56304567, 0.85884653],
        "properties": { "magmom": 0.0 },
        "label": "S",
        "xyz": [0.89642369, 3.188262744374549, 17.14494152977803]
      },
      {
        "species": [{ "element": "S", "occu": 1 }],
        "abc": [0.25, 0.54604613, 0.62342836],
        "properties": { "magmom": 0.0 },
        "label": "S",
        "xyz": [0.89642369, 3.0920023467881417, 12.445346644417842]
      },
      {
        "species": [{ "element": "S", "occu": 1 }],
        "abc": [0.75, 0.45395387000000004, 0.37657164],
        "properties": { "magmom": 0.0 },
        "label": "S",
        "xyz": [2.68927107, 2.5705272032118587, 7.517406805582158]
      },
      {
        "species": [{ "element": "S", "occu": 1 }],
        "abc": [0.75, 0.04604613, 0.87657164],
        "properties": { "magmom": 0.0 },
        "label": "S",
        "xyz": [2.68927107, 0.2607375717881415, 17.49878353058216]
      },
      {
        "species": [{ "element": "S", "occu": 1 }],
        "abc": [0.25, 0.95395387, 0.12342836],
        "properties": { "magmom": 0.0 },
        "label": "S",
        "xyz": [0.89642369, 5.401791978211858, 2.463969919417842]
      }
    ]
  },
  "task_ids": null,
  "uncorrected_energy_per_atom": null,
  "energy_per_atom": -23.31188797208333,
  "formation_energy_per_atom": -0.502104100624995,
  "energy_above_hull": 0.0,
  "is_stable": true,
  "equilibrium_reaction_energy_per_atom": null,
  "decomposes_to": null,
  "xas": null,
  "grain_boundaries": null,
  "band_gap": 0.5371,
  "cbm": null,
  "vbm": null,
  "efermi": 7.0936233,
  "is_gap_direct": null,
  "is_metal": null,
  "es_source_calc_id": null,
  "bandstructure": null,
  "dos": null,
  "dos_energy_up": null,
  "dos_energy_down": null,
  "is_magnetic": null,
  "ordering": null,
  "total_magnetization": 0.0,
  "total_magnetization_normalized_vol": null,
  "total_magnetization_normalized_formula_units": null,
  "num_magnetic_sites": null,
  "num_unique_magnetic_sites": null,
  "types_of_magnetic_species": null,
  "bulk_modulus": null,
  "shear_modulus": null,
  "universal_anisotropy": null,
  "homogeneous_poisson": null,
  "e_total": null,
  "e_ionic": null,
  "e_electronic": null,
  "n": null,
  "e_ij_max": null,
  "weighted_surface_energy_EV_PER_ANG2": null,
  "weighted_surface_energy": null,
  "weighted_work_function": null,
  "surface_anisotropy": null,
  "shape_factor": null,
  "has_reconstructed": null,
  "possible_species": null,
  "has_props": null,
  "theoretical": null,
  "database_IDs": null,
  "fields_not_requested": [
    "builder_meta",
    "nsites",
    "elements",
    "nelements",
    "composition",
    "composition_reduced",
    "chemsys",
    "symmetry",
    "property_name",
    "deprecated",
    "deprecation_reasons",
    "last_updated",
    "origins",
    "warnings",
    "task_ids",
    "uncorrected_energy_per_atom",
    "equilibrium_reaction_energy_per_atom",
    "decomposes_to",
    "xas",
    "grain_boundaries",
    "cbm",
    "vbm",
    "is_gap_direct",
    "is_metal",
    "es_source_calc_id",
    "bandstructure",
    "dos",
    "dos_energy_up",
    "dos_energy_down",
    "is_magnetic",
    "ordering",
    "total_magnetization_normalized_vol",
    "total_magnetization_normalized_formula_units",
    "num_magnetic_sites",
    "num_unique_magnetic_sites",
    "types_of_magnetic_species",
    "bulk_modulus",
    "shear_modulus",
    "universal_anisotropy",
    "homogeneous_poisson",
    "e_total",
    "e_ionic",
    "e_electronic",
    "n",
    "e_ij_max",
    "weighted_surface_energy_EV_PER_ANG2",
    "weighted_surface_energy",
    "weighted_work_function",
    "surface_anisotropy",
    "shape_factor",
    "has_reconstructed",
    "possible_species",
    "has_props",
    "theoretical",
    "database_IDs"
  ]
}
