{
  "builder_meta": null,
  "nsites": null,
  "elements": null,
  "nelements": null,
  "composition": null,
  "composition_reduced": null,
  "formula_pretty": "IrSe3",
  "formula_anonymous": "AB3",
  "chemsys": null,
  "volume": 653.9513927868076,
  "density": 7.627059714286827,
  "density_atomic": 23.355406885243127,
  "symmetry": null,
  "property_name": null,
  "material_id": "mp-685099",
  "deprecated": null,
  "deprecation_reasons": null,
  "last_updated": null,
  "origins": null,
  "warnings": null,
  "structure": {
    "@module": "pymatgen.core.structure",
    "@class": "Structure",
    "charge": 0,
    "lattice": {
      "matrix": [
        [6.00959, 0.0, 0.0],
        [0.029567999999999, 6.057034, 0.0],
        [0.030921999999999002, 0.624597, 17.965554]
      ],
      "pbc": [true, true, true],
      "a": 6.00959,
      "b": 6.0571061691025365,
      "c": 17.97643479974294,
      "alpha": 88.00838130411316,
      "beta": 89.90144314000243,
      "gamma": 89.72030730686542,
      "volume": 653.9513927868076
    },
    "properties": {},
    "sites": [
      {
        "species": [{ "element": "Ir", "occu": 1 }],
        "abc": [7.900000000000002e-5, 0.51775, 0.164082],
        "properties": { "magmom": 0.017 },
        "label": "Ir",
        "xyz": [0.020857333213999324, 3.2385144784540003, 2.9478240314280004]
      },
      {
        "species": [{ "element": "Ir", "occu": 1 }],
        "abc": [0.49522000000000005, 0.502092, 0.330096],
        "properties": { "magmom": 0.008 },
        "label": "Ir",
        "xyz": [3.0011222445679997, 3.2473652864399996, 5.930357513184]
      },
      {
        "species": [{ "element": "Ir", "occu": 1 }],
        "abc": [0.987267999999999, 0.491898, 0.497490999999999],
        "properties": { "magmom": 0.01 },
        "label": "Ir",
        "xyz": [5.963003756885993, 3.290174296658999, 8.937701425013984]
      },
      {
        "species": [{ "element": "Ir", "occu": 1 }],
        "abc": [0.492708, 0.510108, 0.665455999999999],
        "properties": { "magmom": 0.049 },
        "label": "Ir",
        "xyz": [2.9966331734959986, 3.505383320903999, 11.955285702623984]
      },
      {
        "species": [{ "element": "Ir", "occu": 1 }],
        "abc": [0.016971999999999002, 0.51627, 0.829823],
        "properties": { "magmom": 0.126 },
        "label": "Ir",
        "xyz": [0.14291961964599265, 3.6453698995109995, 14.908229916942]
      },
      {
        "species": [{ "element": "Ir", "occu": 1 }],
        "abc": [0.490448, 0.529057, 0.995294999999999],
        "properties": { "magmom": 0.136 },
        "label": "Ir",
        "xyz": [2.993811065685999, 3.826174508052999, 17.881026068429982]
      },
      {
        "species": [{ "element": "Ir", "occu": 1 }],
        "abc": [0.994794, 0.002712, 0.330576],
        "properties": { "magmom": 0.004 },
        "label": "Ir",
        "xyz": [5.988606333947999, 0.22290345407999998, 5.938980979104]
      },
      {
        "species": [{ "element": "Se", "occu": 1 }],
        "abc": [0.8844900000000001, 0.125074, 0.198347],
        "properties": { "magmom": 0.003 },
        "label": "Se",
        "xyz": [5.325253733066001, 0.8814644116749999, 3.5634137392380003]
      },
      {
        "species": [{ "element": "Se", "occu": 1 }],
        "abc": [0.612599, 0.111388999999999, 0.371985],
        "properties": { "magmom": 0.002 },
        "label": "Se",
        "xyz": [3.6962648945319994, 0.9070276752709939, 6.682916604690001]
      },
      {
        "species": [{ "element": "Se", "occu": 1 }],
        "abc": [0.860463, 0.11142, 0.533991],
        "properties": { "magmom": 0.009000000000000001 },
        "label": "Se",
        "xyz": [5.190836376431999, 1.008403904907, 9.593444146014]
      },
      {
        "species": [{ "element": "Se", "occu": 1 }],
        "abc": [0.382324, 0.391655, 0.202118],
        "properties": { "magmom": 0.006 },
        "label": "Se",
        "xyz": [2.3154408349959996, 2.4985099477159998, 3.631161843372]
      },
      {
        "species": [{ "element": "Se", "occu": 1 }],
        "abc": [0.37274, 0.394530999999999, 0.543351],
        "properties": { "magmom": 0.007 },
        "label": "Se",
        "xyz": [2.268481568829999, 2.729063085600994, 9.761601731454]
      },
      {
        "species": [{ "element": "Se", "occu": 1 }],
        "abc": [0.117946, 0.402495, 0.039071999999999],
        "properties": { "magmom": 0.007 },
        "label": "Se",
        "xyz": [0.7219162586839996, 2.462330153813999, 0.7019501258879821]
      },
      {
        "species": [{ "element": "Se", "occu": 1 }],
        "abc": [0.36278000000000005, 0.353611, 0.884412],
        "properties": { "magmom": 0.055 },
        "label": "Se",
        "xyz": [2.2179624181119992, 2.6942349317380003, 15.888951544248]
      },
      {
        "species": [{ "element": "Se", "occu": 1 }],
        "abc": [0.116427999999999, 0.376133999999999, 0.370934999999999],
        "properties": { "magmom": 0.004 },
        "label": "Se",
        "xyz": [0.7222761267019933, 2.5099413147509932, 6.664052772989983]
      },
      {
        "species": [{ "element": "Se", "occu": 1 }],
        "abc": [0.124494, 0.380042, 0.70774],
        "properties": { "magmom": 0.011 },
        "label": "Se",
        "xyz": [0.7812797155959988, 2.743979596208, 12.714941187960001]
      },
      {
        "species": [{ "element": "Se", "occu": 1 }],
        "abc": [0.874072, 0.628968, 0.29021],
        "properties": { "magmom": 0.003 },
        "label": "Se",
        "xyz": [5.280385549923999, 3.990944856282, 5.213783426340001]
      },
      {
        "species": [{ "element": "Se", "occu": 1 }],
        "abc": [0.873305999999999, 0.614034, 0.622962999999999],
        "properties": { "magmom": 0.008 },
        "label": "Se",
        "xyz": [5.285630023737993, 4.108325636066999, 11.191875416501983]
      },
      {
        "species": [{ "element": "Se", "occu": 1 }],
        "abc": [0.616433, 0.630274, 0.120444],
        "properties": { "magmom": 0.002 },
        "label": "Se",
        "xyz": [3.726869903469999, 3.8928200083839997, 2.163843185976]
      },
      {
        "species": [{ "element": "Se", "occu": 1 }],
        "abc": [0.874471999999999, 0.629002, 0.954795],
        "properties": { "magmom": 0.013000000000000001 },
        "label": "Se",
        "xyz": [5.303340688605993, 4.406248592682999, 17.15342113143]
      },
      {
        "species": [{ "element": "Se", "occu": 1 }],
        "abc": [0.607476, 0.616537999999999, 0.457047],
        "properties": { "magmom": 0.003 },
        "label": "Se",
        "xyz": [3.6830442977579994, 4.019861813350994, 8.211102559038]
      },
      {
        "species": [{ "element": "Se", "occu": 1 }],
        "abc": [0.64253, 0.505621, 0.79112],
        "properties": { "magmom": 0.03 },
        "label": "Se",
        "xyz": [3.900755077067999, 3.5566947667539996, 14.212909080480001]
      },
      {
        "species": [{ "element": "Se", "occu": 1 }],
        "abc": [0.122456, 0.898100999999999, 0.12549000000000002],
        "properties": { "magmom": 0.013000000000000001 },
        "label": "Se",
        "xyz": [0.7663458051879989, 5.518208969963994, 2.2544973714600003]
      },
      {
        "species": [{ "element": "Se", "occu": 1 }],
        "abc": [0.375355, 0.892451, 0.287686999999999],
        "properties": { "magmom": 0.001 },
        "label": "Se",
        "xyz": [2.2910135030319987, 5.585294487472999, 5.168456333597983]
      },
      {
        "species": [{ "element": "Se", "occu": 1 }],
        "abc": [0.104562, 0.884184, 0.462939],
        "properties": { "magmom": 0.003 },
        "label": "Se",
        "xyz": [0.6688333018499987, 5.644682860839, 8.316955603206]
      },
      {
        "species": [{ "element": "Se", "occu": 1 }],
        "abc": [0.369668, 0.88521, 0.690009],
        "properties": { "magmom": 0.021 },
        "label": "Se",
        "xyz": [2.2690634636979983, 5.792724618513001, 12.396393949986]
      },
      {
        "species": [{ "element": "Se", "occu": 1 }],
        "abc": [0.196035, 0.867448999999999, 0.815139],
        "properties": { "magmom": 0.022 },
        "label": "Se",
        "xyz": [1.2289444358399984, 5.763301460248995, 14.644423722006]
      },
      {
        "species": [{ "element": "Se", "occu": 1 }],
        "abc": [0.412182, 0.895432, 0.937453],
        "properties": { "magmom": 0.039 },
        "label": "Se",
        "xyz": [2.5325088804219984, 6.009192400129, 16.841862493962]
      }
    ]
  },
  "task_ids": null,
  "uncorrected_energy_per_atom": null,
  "energy_per_atom": -24.091998349082967,
  "formation_energy_per_atom": -0.268489813379842,
  "energy_above_hull": 0.063029089328498,
  "is_stable": false,
  "equilibrium_reaction_energy_per_atom": null,
  "decomposes_to": null,
  "xas": null,
  "grain_boundaries": null,
  "band_gap": 0.0,
  "cbm": null,
  "vbm": null,
  "efermi": 4.36199854,
  "is_gap_direct": null,
  "is_metal": null,
  "es_source_calc_id": null,
  "bandstructure": null,
  "dos": null,
  "dos_energy_up": null,
  "dos_energy_down": null,
  "is_magnetic": null,
  "ordering": null,
  "total_magnetization": 0.8200849,
  "total_magnetization_normalized_vol": null,
  "total_magnetization_normalized_formula_units": null,
  "num_magnetic_sites": null,
  "num_unique_magnetic_sites": null,
  "types_of_magnetic_species": null,
  "bulk_modulus": null,
  "shear_modulus": null,
  "universal_anisotropy": null,
  "homogeneous_poisson": null,
  "e_total": null,
  "e_ionic": null,
  "e_electronic": null,
  "n": null,
  "e_ij_max": null,
  "weighted_surface_energy_EV_PER_ANG2": null,
  "weighted_surface_energy": null,
  "weighted_work_function": null,
  "surface_anisotropy": null,
  "shape_factor": null,
  "has_reconstructed": null,
  "possible_species": null,
  "has_props": null,
  "theoretical": null,
  "database_IDs": null,
  "fields_not_requested": [
    "builder_meta",
    "nsites",
    "elements",
    "nelements",
    "composition",
    "composition_reduced",
    "chemsys",
    "symmetry",
    "property_name",
    "deprecated",
    "deprecation_reasons",
    "last_updated",
    "origins",
    "warnings",
    "task_ids",
    "uncorrected_energy_per_atom",
    "equilibrium_reaction_energy_per_atom",
    "decomposes_to",
    "xas",
    "grain_boundaries",
    "cbm",
    "vbm",
    "is_gap_direct",
    "is_metal",
    "es_source_calc_id",
    "bandstructure",
    "dos",
    "dos_energy_up",
    "dos_energy_down",
    "is_magnetic",
    "ordering",
    "total_magnetization_normalized_vol",
    "total_magnetization_normalized_formula_units",
    "num_magnetic_sites",
    "num_unique_magnetic_sites",
    "types_of_magnetic_species",
    "bulk_modulus",
    "shear_modulus",
    "universal_anisotropy",
    "homogeneous_poisson",
    "e_total",
    "e_ionic",
    "e_electronic",
    "n",
    "e_ij_max",
    "weighted_surface_energy_EV_PER_ANG2",
    "weighted_surface_energy",
    "weighted_work_function",
    "surface_anisotropy",
    "shape_factor",
    "has_reconstructed",
    "possible_species",
    "has_props",
    "theoretical",
    "database_IDs"
  ]
}
