{"builder_meta": null, "nsites": null, "elements": null, "nelements": null, "composition": null, "composition_reduced": null, "formula_pretty": "IrSe2", "formula_anonymous": "AB2", "chemsys": null, "volume": 476.9405361681865, "density": 9.752430302247923, "density_atomic": 19.872522340341103, "symmetry": null, "property_name": null, "material_id": "mp-1361", "deprecated": null, "deprecation_reasons": null, "last_updated": null, "origins": null, "warnings": null, "structure": {"@module": "pymatgen.core.structure", "@class": "Structure", "charge": 0, "lattice": {"matrix": [[3.765842209999999, -0.0, 0.0], [-0.0, 5.98587002, 0.0], [0.0, 0.0, 21.1580108]], "pbc": [true, true, true], "a": 3.765842209999999, "b": 5.98587002, "c": 21.1580108, "alpha": 90.0, "beta": 90.0, "gamma": 90.0, "volume": 476.94053616818627}, "properties": {}, "sites": [{"species": [{"element": "Ir", "occu": 1}], "abc": [0.25, 0.94161486, 0.80489765], "properties": {"magmom": 0.0}, "label": "Ir", "xyz": [0.9414605524999997, 5.636384160860498, 17.03003317159462]}, {"species": [{"element": "Ir", "occu": 1}], "abc": [0.75, 0.05838514, 0.19510235], "properties": {"magmom": 0.0}, "label": "Ir", "xyz": [2.824381657499999, 0.3494858591395028, 4.12797762840538]}, {"species": [{"element": "Ir", "occu": 1}], "abc": [0.75, 0.44161486, 0.69510235], "properties": {"magmom": 0.0}, "label": "Ir", "xyz": [2.824381657499999, 2.6434491508604974, 14.706983028405379]}, {"species": [{"element": "Ir", "occu": 1}], "abc": [0.25, 0.5583851400000001, 0.30489765], "properties": {"magmom": 0.0}, "label": "Ir", "xyz": [0.9414605524999997, 3.342420869139503, 6.45102777159462]}, {"species": [{"element": "Ir", "occu": 1}], "abc": [0.25, 0.9301379, 0.57640308], "properties": {"magmom": -0.0}, "label": "Ir", "xyz": [0.9414605524999997, 5.567684570075758, 12.195542591793263]}, {"species": [{"element": "Ir", "occu": 1}], "abc": [0.75, 0.0698621, 0.42359692], "properties": {"magmom": -0.0}, "label": "Ir", "xyz": [2.824381657499999, 0.418185449924242, 8.962468208206735]}, {"species": [{"element": "Ir", "occu": 1}], "abc": [0.75, 0.430137899999999, 0.92359692], "properties": {"magmom": -0.0}, "label": "Ir", "xyz": [2.824381657499999, 2.574749560075752, 19.541473608206736]}, {"species": [{"element": "Ir", "occu": 1}], "abc": [0.25, 0.569862099999999, 0.07640308], "properties": {"magmom": -0.0}, "label": "Ir", "xyz": [0.9414605524999997, 3.4111204599242364, 1.6165371917932638]}, {"species": [{"element": "Se", "occu": 1}], "abc": [0.25, 0.57220097, 0.86133512], "properties": {"magmom": 0.0}, "label": "Se", "xyz": [0.9414605524999997, 3.4251206317379195, 18.224137771379297]}, {"species": [{"element": "Se", "occu": 1}], "abc": [0.75, 0.42779903, 0.13866488], "properties": {"magmom": 0.0}, "label": "Se", "xyz": [2.824381657499999, 2.5607493882620807, 2.9338730286207038]}, {"species": [{"element": "Se", "occu": 1}], "abc": [0.75, 0.07220097, 0.63866488], "properties": {"magmom": 0.0}, "label": "Se", "xyz": [2.824381657499999, 0.4321856217379194, 13.512878428620704]}, {"species": [{"element": "Se", "occu": 1}], "abc": [0.25, 0.92779903, 0.36133512], "properties": {"magmom": 0.0}, "label": "Se", "xyz": [0.9414605524999997, 5.553684398262081, 7.6451323713792965]}, {"species": [{"element": "Se", "occu": 1}], "abc": [0.25, 0.18261771000000002, 0.26184744], "properties": {"magmom": -0.0}, "label": "Se", "xyz": [0.9414605524999997, 1.0931258754100543, 5.5401709634723515]}, {"species": [{"element": "Se", "occu": 1}], "abc": [0.75, 0.8173822900000001, 0.7381525600000001], "properties": {"magmom": -0.0}, "label": "Se", "xyz": [2.824381657499999, 4.892744144589947, 15.617839836527649]}, {"species": [{"element": "Se", "occu": 1}], "abc": [0.75, 0.68261771, 0.23815256], "properties": {"magmom": -0.0}, "label": "Se", "xyz": [2.824381657499999, 4.086060885410054, 5.038834436527648]}, {"species": [{"element": "Se", "occu": 1}], "abc": [0.25, 0.31738229, 0.76184744], "properties": {"magmom": -0.0}, "label": "Se", "xyz": [0.9414605524999997, 1.899809134589946, 16.119176363472352]}, {"species": [{"element": "Se", "occu": 1}], "abc": [0.25, 0.27628334, 0.99113449], "properties": {"magmom": -0.0}, "label": "Se", "xyz": [0.9414605524999997, 1.6537961619314667, 20.970434243672493]}, {"species": [{"element": "Se", "occu": 1}], "abc": [0.75, 0.72371666, 0.00886551], "properties": {"magmom": -0.0}, "label": "Se", "xyz": [2.824381657499999, 4.332073858068533, 0.187576556327508]}, {"species": [{"element": "Se", "occu": 1}], "abc": [0.75, 0.77628334, 0.50886551], "properties": {"magmom": -0.0}, "label": "Se", "xyz": [2.824381657499999, 4.646731171931467, 10.766581956327508]}, {"species": [{"element": "Se", "occu": 1}], "abc": [0.25, 0.22371666, 0.49113449000000003], "properties": {"magmom": -0.0}, "label": "Se", "xyz": [0.9414605524999997, 1.3391388480685333, 10.391428843672493]}, {"species": [{"element": "Se", "occu": 1}], "abc": [0.25, 0.95116979, 0.12208991], "properties": {"magmom": 0.0}, "label": "Se", "xyz": [0.9414605524999997, 5.693578729890696, 2.583179634351028]}, {"species": [{"element": "Se", "occu": 1}], "abc": [0.75, 0.04883021, 0.87791009], "properties": {"magmom": 0.0}, "label": "Se", "xyz": [2.824381657499999, 0.2922912901093042, 18.57483116564897]}, {"species": [{"element": "Se", "occu": 1}], "abc": [0.75, 0.45116979, 0.37791009000000003], "properties": {"magmom": 0.0}, "label": "Se", "xyz": [2.824381657499999, 2.700643719890696, 7.995825765648973]}, {"species": [{"element": "Se", "occu": 1}], "abc": [0.25, 0.54883021, 0.62208991], "properties": {"magmom": 0.0}, "label": "Se", "xyz": [0.9414605524999997, 3.2852263001093043, 13.162185034351028]}]}, "task_ids": null, "uncorrected_energy_per_atom": null, "energy_per_atom": -27.418099894583335, "formation_energy_per_atom": -0.423941923958333, "energy_above_hull": 0.0, "is_stable": true, "equilibrium_reaction_energy_per_atom": null, "decomposes_to": null, "xas": null, "grain_boundaries": null, "band_gap": 0.0517, "cbm": null, "vbm": null, "efermi": 5.70876651, "is_gap_direct": null, "is_metal": null, "es_source_calc_id": null, "bandstructure": null, "dos": null, "dos_energy_up": null, "dos_energy_down": null, "is_magnetic": null, "ordering": null, "total_magnetization": 0.0, "total_magnetization_normalized_vol": null, "total_magnetization_normalized_formula_units": null, "num_magnetic_sites": null, "num_unique_magnetic_sites": null, "types_of_magnetic_species": null, "bulk_modulus": null, "shear_modulus": null, "universal_anisotropy": null, "homogeneous_poisson": null, "e_total": null, "e_ionic": null, "e_electronic": null, "n": null, "e_ij_max": null, "weighted_surface_energy_EV_PER_ANG2": null, "weighted_surface_energy": null, "weighted_work_function": null, "surface_anisotropy": null, "shape_factor": null, "has_reconstructed": null, "possible_species": null, "has_props": null, "theoretical": null, "database_IDs": null, "fields_not_requested": ["builder_meta", "nsites", "elements", "nelements", "composition", "composition_reduced", "chemsys", "symmetry", "property_name", "deprecated", "deprecation_reasons", "last_updated", "origins", "warnings", "task_ids", "uncorrected_energy_per_atom", "equilibrium_reaction_energy_per_atom", "decomposes_to", "xas", "grain_boundaries", "cbm", "vbm", "is_gap_direct", "is_metal", "es_source_calc_id", "bandstructure", "dos", "dos_energy_up", "dos_energy_down", "is_magnetic", "ordering", "total_magnetization_normalized_vol", "total_magnetization_normalized_formula_units", "num_magnetic_sites", "num_unique_magnetic_sites", "types_of_magnetic_species", "bulk_modulus", "shear_modulus", "universal_anisotropy", "homogeneous_poisson", "e_total", "e_ionic", "e_electronic", "n", "e_ij_max", "weighted_surface_energy_EV_PER_ANG2", "weighted_surface_energy", "weighted_work_function", "surface_anisotropy", "shape_factor", "has_reconstructed", "possible_species", "has_props", "theoretical", "database_IDs"]}