{
  "builder_meta": null,
  "nsites": null,
  "elements": null,
  "nelements": null,
  "composition": null,
  "composition_reduced": null,
  "formula_pretty": "IrW",
  "formula_anonymous": "AB",
  "chemsys": null,
  "volume": 59.80093263139563,
  "density": 20.884535149893452,
  "density_atomic": 14.950233157848908,
  "symmetry": null,
  "property_name": null,
  "material_id": "mp-30744",
  "deprecated": null,
  "deprecation_reasons": null,
  "last_updated": null,
  "origins": null,
  "warnings": null,
  "structure": {
    "@module": "pymatgen.core.structure",
    "@class": "Structure",
    "charge": 0,
    "lattice": {
      "matrix": [
        [2.7729614, 0.0, 0.0],
        [0.0, 4.46946766, 0.0],
        [0.0, 0.0, 4.82512239]
      ],
      "pbc": [true, true, true],
      "a": 2.7729614,
      "b": 4.46946766,
      "c": 4.82512239,
      "alpha": 90.0,
      "beta": 90.0,
      "gamma": 90.0,
      "volume": 59.80093263139563
    },
    "properties": {},
    "sites": [
      {
        "species": [{ "element": "Ir", "occu": 1 }],
        "abc": [0.5, 0.25, 0.67756738],
        "properties": { "magmom": -0.0 },
        "label": "Ir",
        "xyz": [1.3864807, 1.117366915, 3.269345535971638]
      },
      {
        "species": [{ "element": "Ir", "occu": 1 }],
        "abc": [0.5, 0.75, 0.32243262],
        "properties": { "magmom": -0.0 },
        "label": "Ir",
        "xyz": [1.3864807, 3.3521007450000004, 1.5557768540283616]
      },
      {
        "species": [{ "element": "W", "occu": 1 }],
        "abc": [0.0, 0.25, 0.17262225],
        "properties": { "magmom": -0.0 },
        "label": "W",
        "xyz": [0.0, 1.117366915, 0.8329234834871775]
      },
      {
        "species": [{ "element": "W", "occu": 1 }],
        "abc": [0.0, 0.75, 0.82737775],
        "properties": { "magmom": -0.0 },
        "label": "W",
        "xyz": [0.0, 3.3521007450000004, 3.9921989065128223]
      }
    ]
  },
  "task_ids": null,
  "uncorrected_energy_per_atom": null,
  "energy_per_atom": -52.1592991075,
  "formation_energy_per_atom": -0.295725192499993,
  "energy_above_hull": 0.0,
  "is_stable": true,
  "equilibrium_reaction_energy_per_atom": null,
  "decomposes_to": null,
  "xas": null,
  "grain_boundaries": null,
  "band_gap": 0.0,
  "cbm": null,
  "vbm": null,
  "efermi": 8.37795157,
  "is_gap_direct": null,
  "is_metal": null,
  "es_source_calc_id": null,
  "bandstructure": null,
  "dos": null,
  "dos_energy_up": null,
  "dos_energy_down": null,
  "is_magnetic": null,
  "ordering": null,
  "total_magnetization": 1e-7,
  "total_magnetization_normalized_vol": null,
  "total_magnetization_normalized_formula_units": null,
  "num_magnetic_sites": null,
  "num_unique_magnetic_sites": null,
  "types_of_magnetic_species": null,
  "bulk_modulus": null,
  "shear_modulus": null,
  "universal_anisotropy": null,
  "homogeneous_poisson": null,
  "e_total": null,
  "e_ionic": null,
  "e_electronic": null,
  "n": null,
  "e_ij_max": null,
  "weighted_surface_energy_EV_PER_ANG2": null,
  "weighted_surface_energy": null,
  "weighted_work_function": null,
  "surface_anisotropy": null,
  "shape_factor": null,
  "has_reconstructed": null,
  "possible_species": null,
  "has_props": null,
  "theoretical": null,
  "database_IDs": null,
  "fields_not_requested": [
    "builder_meta",
    "nsites",
    "elements",
    "nelements",
    "composition",
    "composition_reduced",
    "chemsys",
    "symmetry",
    "property_name",
    "deprecated",
    "deprecation_reasons",
    "last_updated",
    "origins",
    "warnings",
    "task_ids",
    "uncorrected_energy_per_atom",
    "equilibrium_reaction_energy_per_atom",
    "decomposes_to",
    "xas",
    "grain_boundaries",
    "cbm",
    "vbm",
    "is_gap_direct",
    "is_metal",
    "es_source_calc_id",
    "bandstructure",
    "dos",
    "dos_energy_up",
    "dos_energy_down",
    "is_magnetic",
    "ordering",
    "total_magnetization_normalized_vol",
    "total_magnetization_normalized_formula_units",
    "num_magnetic_sites",
    "num_unique_magnetic_sites",
    "types_of_magnetic_species",
    "bulk_modulus",
    "shear_modulus",
    "universal_anisotropy",
    "homogeneous_poisson",
    "e_total",
    "e_ionic",
    "e_electronic",
    "n",
    "e_ij_max",
    "weighted_surface_energy_EV_PER_ANG2",
    "weighted_surface_energy",
    "weighted_work_function",
    "surface_anisotropy",
    "shape_factor",
    "has_reconstructed",
    "possible_species",
    "has_props",
    "theoretical",
    "database_IDs"
  ]
}
