{
  "builder_meta": null,
  "nsites": null,
  "elements": null,
  "nelements": null,
  "composition": null,
  "composition_reduced": null,
  "formula_pretty": "K2Au3",
  "formula_anonymous": "A2B3",
  "chemsys": null,
  "volume": 135.1280096635621,
  "density": 8.222281670969434,
  "density_atomic": 27.02560193271242,
  "symmetry": null,
  "property_name": null,
  "material_id": "mp-8700",
  "deprecated": null,
  "deprecation_reasons": null,
  "last_updated": null,
  "origins": null,
  "warnings": null,
  "structure": {
    "@module": "pymatgen.core.structure",
    "@class": "Structure",
    "charge": 0,
    "lattice": {
      "matrix": [
        [4.53522763, 0.00023953, -1.932067529999999],
        [-1.04784731, 4.82183858, -2.45804433],
        [-0.03795336, 0.00036607, 6.19509551]
      ],
      "pbc": [true, true, true],
      "a": 4.929622161359868,
      "b": 5.512721034561408,
      "c": 6.195211777620252,
      "alpha": 116.40167335577466,
      "beta": 113.4256618280761,
      "gamma": 90.00413966360729,
      "volume": 135.1280096635621
    },
    "properties": {},
    "sites": [
      {
        "species": [{ "element": "K", "occu": 1 }],
        "abc": [0.19477636, 0.69467842, 0.3896651],
        "properties": { "magmom": 0.0 },
        "label": "K",
        "xyz": [0.14064911601104055, 3.3498165057341116, 0.3301410791917516]
      },
      {
        "species": [{ "element": "K", "occu": 1 }],
        "abc": [0.80522364, 0.30532158, 0.6103349],
        "properties": { "magmom": 0.0 },
        "label": "K",
        "xyz": [3.3087778439889592, 1.4726276742658884, 1.4748425708082493]
      },
      {
        "species": [{ "element": "Au", "occu": 1 }],
        "abc": [0.0, -0.0, -0.0],
        "properties": { "magmom": 0.0 },
        "label": "Au",
        "xyz": [0.0, 0.0, 0.0]
      },
      {
        "species": [{ "element": "Au", "occu": 1 }],
        "abc": [0.49996767000000003, 0.25278983, 0.99988993],
        "properties": { "magmom": 0.0 },
        "label": "Au",
        "xyz": [1.9646328652562, 1.2193975418883114, 4.607073706267295]
      },
      {
        "species": [{ "element": "Au", "occu": 1 }],
        "abc": [0.50003233, 0.74721017, 0.00011007000000000001],
        "properties": { "magmom": 0.0 },
        "label": "Au",
        "xyz": [1.4847940947437996, 3.6030466381116883, -2.8020900562672946]
      }
    ]
  },
  "task_ids": null,
  "uncorrected_energy_per_atom": null,
  "energy_per_atom": -33.133563582,
  "formation_energy_per_atom": -0.375281917500001,
  "energy_above_hull": 0.0,
  "is_stable": true,
  "equilibrium_reaction_energy_per_atom": null,
  "decomposes_to": null,
  "xas": null,
  "grain_boundaries": null,
  "band_gap": 0.0,
  "cbm": null,
  "vbm": null,
  "efermi": 2.24745018,
  "is_gap_direct": null,
  "is_metal": null,
  "es_source_calc_id": null,
  "bandstructure": null,
  "dos": null,
  "dos_energy_up": null,
  "dos_energy_down": null,
  "is_magnetic": null,
  "ordering": null,
  "total_magnetization": 3e-7,
  "total_magnetization_normalized_vol": null,
  "total_magnetization_normalized_formula_units": null,
  "num_magnetic_sites": null,
  "num_unique_magnetic_sites": null,
  "types_of_magnetic_species": null,
  "bulk_modulus": null,
  "shear_modulus": null,
  "universal_anisotropy": null,
  "homogeneous_poisson": null,
  "e_total": null,
  "e_ionic": null,
  "e_electronic": null,
  "n": null,
  "e_ij_max": null,
  "weighted_surface_energy_EV_PER_ANG2": null,
  "weighted_surface_energy": null,
  "weighted_work_function": null,
  "surface_anisotropy": null,
  "shape_factor": null,
  "has_reconstructed": null,
  "possible_species": null,
  "has_props": null,
  "theoretical": null,
  "database_IDs": null,
  "fields_not_requested": [
    "builder_meta",
    "nsites",
    "elements",
    "nelements",
    "composition",
    "composition_reduced",
    "chemsys",
    "symmetry",
    "property_name",
    "deprecated",
    "deprecation_reasons",
    "last_updated",
    "origins",
    "warnings",
    "task_ids",
    "uncorrected_energy_per_atom",
    "equilibrium_reaction_energy_per_atom",
    "decomposes_to",
    "xas",
    "grain_boundaries",
    "cbm",
    "vbm",
    "is_gap_direct",
    "is_metal",
    "es_source_calc_id",
    "bandstructure",
    "dos",
    "dos_energy_up",
    "dos_energy_down",
    "is_magnetic",
    "ordering",
    "total_magnetization_normalized_vol",
    "total_magnetization_normalized_formula_units",
    "num_magnetic_sites",
    "num_unique_magnetic_sites",
    "types_of_magnetic_species",
    "bulk_modulus",
    "shear_modulus",
    "universal_anisotropy",
    "homogeneous_poisson",
    "e_total",
    "e_ionic",
    "e_electronic",
    "n",
    "e_ij_max",
    "weighted_surface_energy_EV_PER_ANG2",
    "weighted_surface_energy",
    "weighted_work_function",
    "surface_anisotropy",
    "shape_factor",
    "has_reconstructed",
    "possible_species",
    "has_props",
    "theoretical",
    "database_IDs"
  ]
}
