{
  "builder_meta": null,
  "nsites": null,
  "elements": null,
  "nelements": null,
  "composition": null,
  "composition_reduced": null,
  "formula_pretty": "K2Ga3",
  "formula_anonymous": "A2B3",
  "chemsys": null,
  "volume": 272.66349932258515,
  "density": 3.500151698943761,
  "density_atomic": 27.266349932258514,
  "symmetry": null,
  "property_name": null,
  "material_id": "mp-568052",
  "deprecated": null,
  "deprecation_reasons": null,
  "last_updated": null,
  "origins": null,
  "warnings": null,
  "structure": {
    "@module": "pymatgen.core.structure",
    "@class": "Structure",
    "charge": 0,
    "lattice": {
      "matrix": [
        [5.69047598, -8.014e-5, -2.17807263],
        [-0.83380657, 5.6290569999999995, -2.17807263],
        [-0.00280416, -0.00324988, 8.51475134]
      ],
      "pbc": [true, true, true],
      "a": 6.093071250767917,
      "b": 6.093071186764461,
      "c": 8.514752421947753,
      "alpha": 110.96359062350679,
      "beta": 110.96359170796171,
      "gamma": 90.00186274608959,
      "volume": 272.6634993225851
    },
    "properties": {},
    "sites": [
      {
        "species": [{ "element": "K", "occu": 1 }],
        "abc": [0.39056346000000003, 0.39056346000000003, 0.78116018],
        "properties": { "magmom": 0.0 },
        "label": "K",
        "xyz": [1.8946471107154101, 2.1959340018557567, 4.950033524401442]
      },
      {
        "species": [{ "element": "K", "occu": 1 }],
        "abc": [0.25000197, 0.74999803, 0.5],
        "properties": { "magmom": 0.0 },
        "label": "K",
        "xyz": [0.7958748403366238, 4.220136685599834, 2.07930304]
      },
      {
        "species": [{ "element": "K", "occu": 1 }],
        "abc": [0.60943654, 0.60943654, 0.21883982000000002],
        "properties": { "magmom": 0.0 },
        "label": "K",
        "xyz": [2.959218139284591, 3.4297929781442424, -0.7914274444014415]
      },
      {
        "species": [{ "element": "K", "occu": 1 }],
        "abc": [0.74999803, 0.25000197, 0.5],
        "properties": { "magmom": 0.0 },
        "label": "K",
        "xyz": [4.057990409663376, 1.405590294400166, 2.07930304]
      },
      {
        "species": [{ "element": "Ga", "occu": 1 }],
        "abc": [8.47e-6, 0.29443821000000003, 0.99997771],
        "properties": { "magmom": -0.0 },
        "label": "Ga",
        "xyz": [-0.24826041312076275, 1.6541596588290095, 7.873235291490262]
      },
      {
        "species": [{ "element": "Ga", "occu": 1 }],
        "abc": [0.13861035, 0.13861035, 0.27714881],
        "properties": { "magmom": 0.0 },
        "label": "Ga",
        "xyz": [0.672407477147344, 0.7793337523318581, 1.7560463821874646]
      },
      {
        "species": [{ "element": "Ga", "occu": 1 }],
        "abc": [0.29443821000000003, 8.47e-6, 0.99997771],
        "properties": { "magmom": -0.0 },
        "label": "Ga",
        "xyz": [1.6726824017622746, -0.0032257257255342, 7.873235291490262]
      },
      {
        "species": [{ "element": "Ga", "occu": 1 }],
        "abc": [0.9999915300000001, 0.70556179, 2.2290000000000002e-5],
        "properties": { "magmom": -0.0 },
        "label": "Ga",
        "xyz": [5.102125663120764, 3.97156732117099, -3.714629211490263]
      },
      {
        "species": [{ "element": "Ga", "occu": 1 }],
        "abc": [0.86138965, 0.86138965, 0.72285119],
        "properties": { "magmom": 0.0 },
        "label": "Ga",
        "xyz": [4.1814577728526565, 4.846393227668142, 2.4025596978125354]
      },
      {
        "species": [{ "element": "Ga", "occu": 1 }],
        "abc": [0.70556179, 0.9999915300000001, 2.2290000000000002e-5],
        "properties": { "magmom": -0.0 },
        "label": "Ga",
        "xyz": [3.181182848237726, 5.628952705725535, -3.714629211490263]
      }
    ]
  },
  "task_ids": null,
  "uncorrected_energy_per_atom": null,
  "energy_per_atom": -2.407395546000001,
  "formation_energy_per_atom": -0.1379900434,
  "energy_above_hull": 0.000102776549999,
  "is_stable": false,
  "equilibrium_reaction_energy_per_atom": null,
  "decomposes_to": null,
  "xas": null,
  "grain_boundaries": null,
  "band_gap": 0.21069999999999903,
  "cbm": null,
  "vbm": null,
  "efermi": 1.7543446500000002,
  "is_gap_direct": null,
  "is_metal": null,
  "es_source_calc_id": null,
  "bandstructure": null,
  "dos": null,
  "dos_energy_up": null,
  "dos_energy_down": null,
  "is_magnetic": null,
  "ordering": null,
  "total_magnetization": 0.0,
  "total_magnetization_normalized_vol": null,
  "total_magnetization_normalized_formula_units": null,
  "num_magnetic_sites": null,
  "num_unique_magnetic_sites": null,
  "types_of_magnetic_species": null,
  "bulk_modulus": null,
  "shear_modulus": null,
  "universal_anisotropy": null,
  "homogeneous_poisson": null,
  "e_total": null,
  "e_ionic": null,
  "e_electronic": null,
  "n": null,
  "e_ij_max": null,
  "weighted_surface_energy_EV_PER_ANG2": null,
  "weighted_surface_energy": null,
  "weighted_work_function": null,
  "surface_anisotropy": null,
  "shape_factor": null,
  "has_reconstructed": null,
  "possible_species": null,
  "has_props": null,
  "theoretical": null,
  "database_IDs": null,
  "fields_not_requested": [
    "builder_meta",
    "nsites",
    "elements",
    "nelements",
    "composition",
    "composition_reduced",
    "chemsys",
    "symmetry",
    "property_name",
    "deprecated",
    "deprecation_reasons",
    "last_updated",
    "origins",
    "warnings",
    "task_ids",
    "uncorrected_energy_per_atom",
    "equilibrium_reaction_energy_per_atom",
    "decomposes_to",
    "xas",
    "grain_boundaries",
    "cbm",
    "vbm",
    "is_gap_direct",
    "is_metal",
    "es_source_calc_id",
    "bandstructure",
    "dos",
    "dos_energy_up",
    "dos_energy_down",
    "is_magnetic",
    "ordering",
    "total_magnetization_normalized_vol",
    "total_magnetization_normalized_formula_units",
    "num_magnetic_sites",
    "num_unique_magnetic_sites",
    "types_of_magnetic_species",
    "bulk_modulus",
    "shear_modulus",
    "universal_anisotropy",
    "homogeneous_poisson",
    "e_total",
    "e_ionic",
    "e_electronic",
    "n",
    "e_ij_max",
    "weighted_surface_energy_EV_PER_ANG2",
    "weighted_surface_energy",
    "weighted_work_function",
    "surface_anisotropy",
    "shape_factor",
    "has_reconstructed",
    "possible_species",
    "has_props",
    "theoretical",
    "database_IDs"
  ]
}
