{"builder_meta": null, "nsites": null, "elements": null, "nelements": null, "composition": null, "composition_reduced": null, "formula_pretty": "K2Hg7", "formula_anonymous": "A2B7", "chemsys": null, "volume": 266.42619517167196, "density": 9.238810872835934, "density_atomic": 29.60291057463022, "symmetry": null, "property_name": null, "material_id": "mp-31473", "deprecated": null, "deprecation_reasons": null, "last_updated": null, "origins": null, "warnings": null, "structure": {"@module": "pymatgen.core.structure", "@class": "Structure", "charge": 0, "lattice": {"matrix": [[6.95967827, 3.41e-06, -2.37e-06], [-3.47983669, 6.02725978, 2.37e-06], [-2.17e-06, 1.24e-06, 6.35137457]], "pbc": [true, true, true], "a": 6.95967827000124, "b": 6.959678429689221, "c": 6.351374570000492, "alpha": 89.99996101371266, "beta": 90.0000390866773, "gamma": 119.99994792562173, "volume": 266.42619517167196}, "properties": {}, "sites": [{"species": [{"element": "K", "occu": 1}], "abc": [0.33333297, 0.66666706, 0.84018668], "properties": {"magmom": 0.0}, "label": "K", "xyz": [-4.090623964706308e-06, 4.018177735885757, 5.33634110340652]}, {"species": [{"element": "K", "occu": 1}], "abc": [0.66666703, 0.33333294, 0.15981332], "properties": {"magmom": 0.0}, "label": "K", "xyz": [3.4798435006239656, 2.009086694114242, 1.015033466593479]}, {"species": [{"element": "Hg", "occu": 1}], "abc": [0.18195069, 0.3639052, 0.33209008], "properties": {"magmom": 0.0}, "label": "Hg", "xyz": [-1.3123872755288462e-05, 2.193352207936408, 2.109228920293454]}, {"species": [{"element": "Hg", "occu": 1}], "abc": [0.63609479, 0.81804932, 0.33209009], "properties": {"magmom": -0.0}, "label": "Hg", "xyz": [1.5803363290221677, 4.930598345367295, 2.1092289838072475]}, {"species": [{"element": "Hg", "occu": 1}], "abc": [0.18195077, 0.81804928, 0.3320899], "properties": {"magmom": 0.0}, "label": "Hg", "xyz": [-1.580359799228398, 4.930596555645559, 2.109228853367312]}, {"species": [{"element": "Hg", "occu": 1}], "abc": [0.81804931, 0.6360948, 0.66790992], "properties": {"magmom": 0.0}, "label": "Hg", "xyz": [3.4798525338727555, 3.8339122220635913, 4.242145649706546]}, {"species": [{"element": "Hg", "occu": 1}], "abc": [0.8180492300000001, 0.18195072, 0.6679101], "properties": {"magmom": 0.0}, "label": "Hg", "xyz": [5.060199209228399, 1.0966678743544398, 4.242145716632688]}, {"species": [{"element": "Hg", "occu": 1}], "abc": [0.36390521000000003, 0.18195068, 0.66790991], "properties": {"magmom": -0.0}, "label": "Hg", "xyz": [1.899503080977833, 1.0966660846327048, 4.242145586192753]}, {"species": [{"element": "Hg", "occu": 1}], "abc": [0.0, -0.0, -0.0], "properties": {"magmom": -0.0}, "label": "Hg", "xyz": [0.0, 0.0, 0.0]}]}, "task_ids": null, "uncorrected_energy_per_atom": null, "energy_per_atom": -39.97227081111111, "formation_energy_per_atom": -0.237695974444445, "energy_above_hull": 0.0, "is_stable": true, "equilibrium_reaction_energy_per_atom": null, "decomposes_to": null, "xas": null, "grain_boundaries": null, "band_gap": 0.0, "cbm": null, "vbm": null, "efermi": 1.50882401, "is_gap_direct": null, "is_metal": null, "es_source_calc_id": null, "bandstructure": null, "dos": null, "dos_energy_up": null, "dos_energy_down": null, "is_magnetic": null, "ordering": null, "total_magnetization": 0.0, "total_magnetization_normalized_vol": null, "total_magnetization_normalized_formula_units": null, "num_magnetic_sites": null, "num_unique_magnetic_sites": null, "types_of_magnetic_species": null, "bulk_modulus": null, "shear_modulus": null, "universal_anisotropy": null, "homogeneous_poisson": null, "e_total": null, "e_ionic": null, "e_electronic": null, "n": null, "e_ij_max": null, "weighted_surface_energy_EV_PER_ANG2": null, "weighted_surface_energy": null, "weighted_work_function": null, "surface_anisotropy": null, "shape_factor": null, "has_reconstructed": null, "possible_species": null, "has_props": null, "theoretical": null, "database_IDs": null, "fields_not_requested": ["builder_meta", "nsites", "elements", "nelements", "composition", "composition_reduced", "chemsys", "symmetry", "property_name", "deprecated", "deprecation_reasons", "last_updated", "origins", "warnings", "task_ids", "uncorrected_energy_per_atom", "equilibrium_reaction_energy_per_atom", "decomposes_to", "xas", "grain_boundaries", "cbm", "vbm", "is_gap_direct", "is_metal", "es_source_calc_id", "bandstructure", "dos", "dos_energy_up", "dos_energy_down", "is_magnetic", "ordering", "total_magnetization_normalized_vol", "total_magnetization_normalized_formula_units", "num_magnetic_sites", "num_unique_magnetic_sites", "types_of_magnetic_species", "bulk_modulus", "shear_modulus", "universal_anisotropy", "homogeneous_poisson", "e_total", "e_ionic", "e_electronic", "n", "e_ij_max", "weighted_surface_energy_EV_PER_ANG2", "weighted_surface_energy", "weighted_work_function", "surface_anisotropy", "shape_factor", "has_reconstructed", "possible_species", "has_props", "theoretical", "database_IDs"]}