{"builder_meta": null, "nsites": null, "elements": null, "nelements": null, "composition": null, "composition_reduced": null, "formula_pretty": "K2O", "formula_anonymous": "AB2", "chemsys": null, "volume": 129.6009765025592, "density": 2.413811101405781, "density_atomic": 21.600162750426534, "symmetry": null, "property_name": null, "material_id": "mp-971", "deprecated": null, "deprecation_reasons": null, "last_updated": null, "origins": null, "warnings": null, "structure": {"@module": "pymatgen.core.structure", "@class": "Structure", "charge": 0, "lattice": {"matrix": [[6.37500949, 0.0, 0.0], [-0.0, 4.51565428, 0.0], [0.0, 0.0, 4.50201309]], "pbc": [true, true, true], "a": 6.37500949, "b": 4.51565428, "c": 4.50201309, "alpha": 90.0, "beta": 90.0, "gamma": 90.0, "volume": 129.6009765025592}, "properties": {}, "sites": [{"species": [{"element": "K", "occu": 1}], "abc": [0.24990177, 0.99754293, 0.5], "properties": {"magmom": -0.0}, "label": "K", "xyz": [1.5931261553177973, 4.50455900133824, 2.251006545]}, {"species": [{"element": "K", "occu": 1}], "abc": [0.25009823000000003, 0.49754293, -0.0], "properties": {"magmom": -0.0}, "label": "K", "xyz": [1.594378589682203, 2.2467318613382403, 0.0]}, {"species": [{"element": "K", "occu": 1}], "abc": [0.74990177, 0.5024570700000001, -0.0], "properties": {"magmom": -0.0}, "label": "K", "xyz": [4.780630900317798, 2.26892241866176, 0.0]}, {"species": [{"element": "K", "occu": 1}], "abc": [0.75009823, 0.00245707, 0.5], "properties": {"magmom": -0.0}, "label": "K", "xyz": [4.7818833346822025, 0.011095278661759599, 2.251006545]}, {"species": [{"element": "O", "occu": 1}], "abc": [-0.0, 0.0, -0.0], "properties": {"magmom": 0.0}, "label": "O", "xyz": [0.0, 0.0, 0.0]}, {"species": [{"element": "O", "occu": 1}], "abc": [0.5, 0.5, 0.5], "properties": {"magmom": 0.0}, "label": "O", "xyz": [3.187504745, 2.25782714, 2.251006545]}]}, "task_ids": null, "uncorrected_energy_per_atom": null, "energy_per_atom": -3.6374448533333332, "formation_energy_per_atom": -1.233878036499999, "energy_above_hull": 0.0, "is_stable": true, "equilibrium_reaction_energy_per_atom": null, "decomposes_to": null, "xas": null, "grain_boundaries": null, "band_gap": 1.7072, "cbm": null, "vbm": null, "efermi": 0.47156282, "is_gap_direct": null, "is_metal": null, "es_source_calc_id": null, "bandstructure": null, "dos": null, "dos_energy_up": null, "dos_energy_down": null, "is_magnetic": null, "ordering": null, "total_magnetization": 0.0, "total_magnetization_normalized_vol": null, "total_magnetization_normalized_formula_units": null, "num_magnetic_sites": null, "num_unique_magnetic_sites": null, "types_of_magnetic_species": null, "bulk_modulus": null, "shear_modulus": null, "universal_anisotropy": null, "homogeneous_poisson": null, "e_total": null, "e_ionic": null, "e_electronic": null, "n": null, "e_ij_max": null, "weighted_surface_energy_EV_PER_ANG2": null, "weighted_surface_energy": null, "weighted_work_function": null, "surface_anisotropy": null, "shape_factor": null, "has_reconstructed": null, "possible_species": null, "has_props": null, "theoretical": null, "database_IDs": null, "fields_not_requested": ["builder_meta", "nsites", "elements", "nelements", "composition", "composition_reduced", "chemsys", "symmetry", "property_name", "deprecated", "deprecation_reasons", "last_updated", "origins", "warnings", "task_ids", "uncorrected_energy_per_atom", "equilibrium_reaction_energy_per_atom", "decomposes_to", "xas", "grain_boundaries", "cbm", "vbm", "is_gap_direct", "is_metal", "es_source_calc_id", "bandstructure", "dos", "dos_energy_up", "dos_energy_down", "is_magnetic", "ordering", "total_magnetization_normalized_vol", "total_magnetization_normalized_formula_units", "num_magnetic_sites", "num_unique_magnetic_sites", "types_of_magnetic_species", "bulk_modulus", "shear_modulus", "universal_anisotropy", "homogeneous_poisson", "e_total", "e_ionic", "e_electronic", "n", "e_ij_max", "weighted_surface_energy_EV_PER_ANG2", "weighted_surface_energy", "weighted_work_function", "surface_anisotropy", "shape_factor", "has_reconstructed", "possible_species", "has_props", "theoretical", "database_IDs"]}