{"builder_meta": null, "nsites": null, "elements": null, "nelements": null, "composition": null, "composition_reduced": null, "formula_pretty": "K2O2", "formula_anonymous": "AB", "chemsys": null, "volume": 150.3161849315957, "density": 2.434651554559929, "density_atomic": 18.789523116449462, "symmetry": null, "property_name": null, "material_id": "mp-2672", "deprecated": null, "deprecation_reasons": null, "last_updated": null, "origins": null, "warnings": null, "structure": {"@module": "pymatgen.core.structure", "@class": "Structure", "charge": 0, "lattice": {"matrix": [[4.8293190500000005, -0.0050051900000000005, 0.0], [-0.18995871, 4.82558486, -0.0], [-0.0, 0.0, 6.45041428]], "pbc": [true, true, true], "a": 4.829321643732155, "b": 4.829322266381286, "c": 6.45041428, "alpha": 90.0, "beta": 90.0, "gamma": 92.31366155128892, "volume": 150.31618493159573}, "properties": {}, "sites": [{"species": [{"element": "K", "occu": 1}], "abc": [0.90919476, 0.59080524, 0.75], "properties": {"magmom": 0.0}, "label": "K", "xyz": [4.278562973376538, 2.8464301288318623, 4.83781071]}, {"species": [{"element": "K", "occu": 1}], "abc": [0.59080524, 0.90919476, 0.25], "properties": {"magmom": 0.0}, "label": "K", "xyz": [2.6804775366234628, 4.384439376168139, 1.61260357]}, {"species": [{"element": "K", "occu": 1}], "abc": [0.09080524, 0.40919476, 0.25], "properties": {"magmom": 0.0}, "label": "K", "xyz": [0.3607973666234624, 1.974149541168138, 1.61260357]}, {"species": [{"element": "K", "occu": 1}], "abc": [0.40919476, 0.09080524, 0.75], "properties": {"magmom": 0.0}, "label": "K", "xyz": [1.9588828033765378, 0.436140293831862, 4.83781071]}, {"species": [{"element": "O", "occu": 1}], "abc": [0.5879353900000001, 0.41206461, 0.43077975], "properties": {"magmom": -0.0}, "label": "O", "xyz": [2.761052317343927, 1.9855100150231306, 2.7787078509348304]}, {"species": [{"element": "O", "occu": 1}], "abc": [0.91206461, 0.08793539, 0.93077975], "properties": {"magmom": -0.0}, "label": "O", "xyz": [4.387946902656074, 0.4197746299768695, 6.00391499093483]}, {"species": [{"element": "O", "occu": 1}], "abc": [0.41206461, 0.5879353900000001, 0.56922025], "properties": {"magmom": -0.0}, "label": "O", "xyz": [1.8783080226560738, 2.83506965497687, 3.67170642906517]}, {"species": [{"element": "O", "occu": 1}], "abc": [0.08793539, 0.91206461, 0.06922025], "properties": {"magmom": -0.0}, "label": "O", "xyz": [0.25141343734392646, 4.400805040023131, 0.44649928906517]}]}, "task_ids": null, "uncorrected_energy_per_atom": null, "energy_per_atom": -4.3246242175, "formation_energy_per_atom": -1.284958853625, "energy_above_hull": 0.0, "is_stable": true, "equilibrium_reaction_energy_per_atom": null, "decomposes_to": null, "xas": null, "grain_boundaries": null, "band_gap": 2.3575, "cbm": null, "vbm": null, "efermi": 0.88468063, "is_gap_direct": null, "is_metal": null, "es_source_calc_id": null, "bandstructure": null, "dos": null, "dos_energy_up": null, "dos_energy_down": null, "is_magnetic": null, "ordering": null, "total_magnetization": 0.0, "total_magnetization_normalized_vol": null, "total_magnetization_normalized_formula_units": null, "num_magnetic_sites": null, "num_unique_magnetic_sites": null, "types_of_magnetic_species": null, "bulk_modulus": null, "shear_modulus": null, "universal_anisotropy": null, "homogeneous_poisson": null, "e_total": null, "e_ionic": null, "e_electronic": null, "n": null, "e_ij_max": null, "weighted_surface_energy_EV_PER_ANG2": null, "weighted_surface_energy": null, "weighted_work_function": null, "surface_anisotropy": null, "shape_factor": null, "has_reconstructed": null, "possible_species": null, "has_props": null, "theoretical": null, "database_IDs": null, "fields_not_requested": ["builder_meta", "nsites", "elements", "nelements", "composition", "composition_reduced", "chemsys", "symmetry", "property_name", "deprecated", "deprecation_reasons", "last_updated", "origins", "warnings", "task_ids", "uncorrected_energy_per_atom", "equilibrium_reaction_energy_per_atom", "decomposes_to", "xas", "grain_boundaries", "cbm", "vbm", "is_gap_direct", "is_metal", "es_source_calc_id", "bandstructure", "dos", "dos_energy_up", "dos_energy_down", "is_magnetic", "ordering", "total_magnetization_normalized_vol", "total_magnetization_normalized_formula_units", "num_magnetic_sites", "num_unique_magnetic_sites", "types_of_magnetic_species", "bulk_modulus", "shear_modulus", "universal_anisotropy", "homogeneous_poisson", "e_total", "e_ionic", "e_electronic", "n", "e_ij_max", "weighted_surface_energy_EV_PER_ANG2", "weighted_surface_energy", "weighted_work_function", "surface_anisotropy", "shape_factor", "has_reconstructed", "possible_species", "has_props", "theoretical", "database_IDs"]}