{"builder_meta": null, "nsites": null, "elements": null, "nelements": null, "composition": null, "composition_reduced": null, "formula_pretty": "K2P3", "formula_anonymous": "A2B3", "chemsys": null, "volume": 574.7815911954909, "density": 1.9774323955365691, "density_atomic": 28.739079559774545, "symmetry": null, "property_name": null, "material_id": "mp-569857", "deprecated": null, "deprecation_reasons": null, "last_updated": null, "origins": null, "warnings": null, "structure": {"@module": "pymatgen.core.structure", "@class": "Structure", "charge": 0, "lattice": {"matrix": [[7.59811393, -0.0, 3.38350237], [3.79905646, 7.38712488, 1.6917517], [-0.00649133, 0.0, 10.23761988]], "pbc": [true, true, true], "a": 8.317416881523714, "b": 8.477291300494258, "c": 10.237621937966667, "alpha": 78.50522492116151, "beta": 66.03252769737873, "gamma": 60.62192075576604, "volume": 574.7815911954908}, "properties": {}, "sites": [{"species": [{"element": "K", "occu": 1}], "abc": [0.24963339, 0.25, 0.50073422], "properties": {"magmom": 0.0}, "label": "K", "xyz": [2.84325662188781, 1.84678122, 6.393899696964429]}, {"species": [{"element": "K", "occu": 1}], "abc": [0.50036661, 0.25, 0.99926578], "properties": {"magmom": 0.0}, "label": "K", "xyz": [4.745120060612191, 1.84678122, 12.34603275053557]}, {"species": [{"element": "K", "occu": 1}], "abc": [0.98831449, 0.75, 0.02337003], "properties": {"magmom": 0.0}, "label": "K", "xyz": [10.358466736113007, 5.54034366, 4.852031677944538]}, {"species": [{"element": "K", "occu": 1}], "abc": [0.26168551, 0.75, 0.47662997], "properties": {"magmom": 0.0}, "label": "K", "xyz": [4.834514701386994, 5.54034366, 7.033783774555463]}, {"species": [{"element": "K", "occu": 1}], "abc": [0.73831449, 0.25, 0.52337003], "properties": {"magmom": 0.0}, "label": "K", "xyz": [6.556164358613007, 1.84678122, 8.279090175444537]}, {"species": [{"element": "K", "occu": 1}], "abc": [0.49963339, 0.75, 0.0007342200000000001], "properties": {"magmom": 0.0}, "label": "K", "xyz": [6.64555899938781, 5.54034366, 2.9668411994644277]}, {"species": [{"element": "K", "occu": 1}], "abc": [0.75036661, 0.75, 0.49926578], "properties": {"magmom": 0.0}, "label": "K", "xyz": [8.547422438112191, 5.54034366, 8.918974253035572]}, {"species": [{"element": "K", "occu": 1}], "abc": [0.01168551, 0.25, 0.9766299700000001], "properties": {"magmom": 0.0}, "label": "K", "xyz": [1.032212323886994, 1.84678122, 10.460842272055462]}, {"species": [{"element": "P", "occu": 1}], "abc": [0.42011893, 0.60446153, 0.7540501900000001], "properties": {"magmom": 0.0}, "label": "P", "xyz": [5.483600186037827, 4.465232807265867, 10.163751431960744]}, {"species": [{"element": "P", "occu": 1}], "abc": [0.020098730000000002, 0.95980454, 0.25], "properties": {"magmom": 0.0}, "label": "P", "xyz": [3.797441245912638, 7.090195997370955, 4.2511600328017085]}, {"species": [{"element": "P", "occu": 1}], "abc": [0.27009873, 0.45980454, 0.75], "properties": {"magmom": 0.0}, "label": "P", "xyz": [3.7941958334126373, 3.396633557370955, 9.369969715301709]}, {"species": [{"element": "P", "occu": 1}], "abc": [0.17416913, 0.10446153, 0.24594981000000002], "properties": {"magmom": 0.0}, "label": "P", "xyz": [1.7186156018168175, 0.7716703672658664, 3.283965299436162]}, {"species": [{"element": "P", "occu": 1}], "abc": [0.97990127, 0.04019546, 0.75], "properties": {"magmom": 0.0}, "label": "P", "xyz": [7.593237814087363, 0.2969288826290448, 11.061713917198293]}, {"species": [{"element": "P", "occu": 1}], "abc": [0.27862866000000003, 0.89553847, 0.74594981], "properties": {"magmom": 0.0}, "label": "P", "xyz": [5.514411306095103, 6.615454512734133, 10.094520064836047]}, {"species": [{"element": "P", "occu": 1}], "abc": [0.72137134, 0.10446153, 0.25405019], "properties": {"magmom": 0.0}, "label": "P", "xyz": [5.876267753904898, 0.7716703672658664, 5.218353885163954]}, {"species": [{"element": "P", "occu": 1}], "abc": [0.72990127, 0.54019546, 0.25], "properties": {"magmom": 0.0}, "label": "P", "xyz": [7.596483226587364, 3.9904913226290444, 5.942904234698292]}, {"species": [{"element": "P", "occu": 1}], "abc": [0.97542253, 0.60446153, 0.74594981], "properties": {"magmom": 0.0}, "label": "P", "xyz": [9.70291278681668, 4.465232807265867, 11.95969386730672]}, {"species": [{"element": "P", "occu": 1}], "abc": [0.57988107, 0.39553847000000003, 0.24594981000000002], "properties": {"magmom": 0.0}, "label": "P", "xyz": [5.907078873962174, 2.921892072734134, 5.149122518039258]}, {"species": [{"element": "P", "occu": 1}], "abc": [0.82583087, 0.89553847, 0.7540501900000001], "properties": {"magmom": 0.0}, "label": "P", "xyz": [9.672063458183183, 6.615454512734133, 12.028908650563839]}, {"species": [{"element": "P", "occu": 1}], "abc": [0.02457747, 0.39553847000000003, 0.25405019], "properties": {"magmom": 0.0}, "label": "P", "xyz": [1.6877662731833207, 2.921892072734134, 3.3531800826932803]}]}, "task_ids": null, "uncorrected_energy_per_atom": null, "energy_per_atom": -8.3585340175, "formation_energy_per_atom": -0.549982655785713, "energy_above_hull": 0.0, "is_stable": true, "equilibrium_reaction_energy_per_atom": null, "decomposes_to": null, "xas": null, "grain_boundaries": null, "band_gap": 1.0327, "cbm": null, "vbm": null, "efermi": 2.26680503, "is_gap_direct": null, "is_metal": null, "es_source_calc_id": null, "bandstructure": null, "dos": null, "dos_energy_up": null, "dos_energy_down": null, "is_magnetic": null, "ordering": null, "total_magnetization": 0.0, "total_magnetization_normalized_vol": null, "total_magnetization_normalized_formula_units": null, "num_magnetic_sites": null, "num_unique_magnetic_sites": null, "types_of_magnetic_species": null, "bulk_modulus": null, "shear_modulus": null, "universal_anisotropy": null, "homogeneous_poisson": null, "e_total": null, "e_ionic": null, "e_electronic": null, "n": null, "e_ij_max": null, "weighted_surface_energy_EV_PER_ANG2": null, "weighted_surface_energy": null, "weighted_work_function": null, "surface_anisotropy": null, "shape_factor": null, "has_reconstructed": null, "possible_species": null, "has_props": null, "theoretical": null, "database_IDs": null, "fields_not_requested": ["builder_meta", "nsites", "elements", "nelements", "composition", "composition_reduced", "chemsys", "symmetry", "property_name", "deprecated", "deprecation_reasons", "last_updated", "origins", "warnings", "task_ids", "uncorrected_energy_per_atom", "equilibrium_reaction_energy_per_atom", "decomposes_to", "xas", "grain_boundaries", "cbm", "vbm", "is_gap_direct", "is_metal", "es_source_calc_id", "bandstructure", "dos", "dos_energy_up", "dos_energy_down", "is_magnetic", "ordering", "total_magnetization_normalized_vol", "total_magnetization_normalized_formula_units", "num_magnetic_sites", "num_unique_magnetic_sites", "types_of_magnetic_species", "bulk_modulus", "shear_modulus", "universal_anisotropy", "homogeneous_poisson", "e_total", "e_ionic", "e_electronic", "n", "e_ij_max", "weighted_surface_energy_EV_PER_ANG2", "weighted_surface_energy", "weighted_work_function", "surface_anisotropy", "shape_factor", "has_reconstructed", "possible_species", "has_props", "theoretical", "database_IDs"]}