{"builder_meta": null, "nsites": null, "elements": null, "nelements": null, "composition": null, "composition_reduced": null, "formula_pretty": "K2Re", "formula_anonymous": "AB2", "chemsys": null, "volume": 268.5365208223674, "density": 4.904947444077143, "density_atomic": 29.837391202485264, "symmetry": null, "property_name": null, "material_id": "mp-1181016", "deprecated": null, "deprecation_reasons": null, "last_updated": null, "origins": null, "warnings": null, "structure": {"@module": "pymatgen.core.structure", "@class": "Structure", "charge": 0, "lattice": {"matrix": [[10.61944, -0.003433, 0.0], [-5.312693, 9.194988, 0.0], [0.0, 0.0, 2.750626999999999]], "pbc": [true, true, true], "a": 10.61944055490161, "b": 10.619440250427186, "c": 2.750626999999999, "alpha": 90.0, "beta": 90.0, "gamma": 120.03704513352332, "volume": 268.53652082236727}, "properties": {}, "sites": [{"species": [{"element": "K", "occu": 1}], "abc": [0.357828, 0.357828, 0.0], "properties": {"magmom": 0.005}, "label": "K", "xyz": [1.898902665516, 3.28899574254, 0.0]}, {"species": [{"element": "K", "occu": 1}], "abc": [0.642536, 0.999699, 0.0], "properties": {"magmom": 0.005}, "label": "K", "xyz": [1.5122786204330003, 9.190014482524, 0.0]}, {"species": [{"element": "K", "occu": 1}], "abc": [0.999699, 0.642536, 0.0], "properties": {"magmom": 0.005}, "label": "K", "xyz": [7.202647039112001, 5.904678842901, 0.0]}, {"species": [{"element": "K", "occu": 1}], "abc": [0.689843, 0.689843, 0.5], "properties": {"magmom": 0.004}, "label": "K", "xyz": [3.660822270721, 6.340729875865, 1.3753134999999994]}, {"species": [{"element": "K", "occu": 1}], "abc": [0.310201, 0.000417, 0.5], "properties": {"magmom": 0.004}, "label": "K", "xyz": [3.2919455144590004, 0.002769389963, 1.3753134999999994]}, {"species": [{"element": "K", "occu": 1}], "abc": [0.000417, 0.310201, 0.5], "properties": {"magmom": 0.004}, "label": "K", "xyz": [-1.6435743748130003, 2.852293041027, 1.3753134999999994]}, {"species": [{"element": "Re", "occu": 1}], "abc": [0.999972, 0.999972, 0.0], "properties": {"magmom": 1.43}, "label": "Re", "xyz": [5.306598411084001, 9.19129763646, 0.0]}, {"species": [{"element": "Re", "occu": 1}], "abc": [0.666715, 0.33289, 0.5], "properties": {"magmom": 1.423}, "label": "Re", "xyz": [5.311597566830001, 3.0586307227250003, 1.3753134999999994]}, {"species": [{"element": "Re", "occu": 1}], "abc": [0.33289, 0.666715, 0.5], "properties": {"magmom": 1.423}, "label": "Re", "xyz": [-0.006946731894999392, 6.12929361305, 1.3753134999999994]}]}, "task_ids": null, "uncorrected_energy_per_atom": null, "energy_per_atom": -19.90374295477778, "formation_energy_per_atom": 1.57863790522222, "energy_above_hull": 1.578637905222223, "is_stable": false, "equilibrium_reaction_energy_per_atom": null, "decomposes_to": null, "xas": null, "grain_boundaries": null, "band_gap": 0.0, "cbm": null, "vbm": null, "efermi": 2.01338159, "is_gap_direct": null, "is_metal": null, "es_source_calc_id": null, "bandstructure": null, "dos": null, "dos_energy_up": null, "dos_energy_down": null, "is_magnetic": null, "ordering": null, "total_magnetization": 5.4620179, "total_magnetization_normalized_vol": null, "total_magnetization_normalized_formula_units": null, "num_magnetic_sites": null, "num_unique_magnetic_sites": null, "types_of_magnetic_species": null, "bulk_modulus": null, "shear_modulus": null, "universal_anisotropy": null, "homogeneous_poisson": null, "e_total": null, "e_ionic": null, "e_electronic": null, "n": null, "e_ij_max": null, "weighted_surface_energy_EV_PER_ANG2": null, "weighted_surface_energy": null, "weighted_work_function": null, "surface_anisotropy": null, "shape_factor": null, "has_reconstructed": null, "possible_species": null, "has_props": null, "theoretical": null, "database_IDs": null, "fields_not_requested": ["builder_meta", "nsites", "elements", "nelements", "composition", "composition_reduced", "chemsys", "symmetry", "property_name", "deprecated", "deprecation_reasons", "last_updated", "origins", "warnings", "task_ids", "uncorrected_energy_per_atom", "equilibrium_reaction_energy_per_atom", "decomposes_to", "xas", "grain_boundaries", "cbm", "vbm", "is_gap_direct", "is_metal", "es_source_calc_id", "bandstructure", "dos", "dos_energy_up", "dos_energy_down", "is_magnetic", "ordering", "total_magnetization_normalized_vol", "total_magnetization_normalized_formula_units", "num_magnetic_sites", "num_unique_magnetic_sites", "types_of_magnetic_species", "bulk_modulus", "shear_modulus", "universal_anisotropy", "homogeneous_poisson", "e_total", "e_ionic", "e_electronic", "n", "e_ij_max", "weighted_surface_energy_EV_PER_ANG2", "weighted_surface_energy", "weighted_work_function", "surface_anisotropy", "shape_factor", "has_reconstructed", "possible_species", "has_props", "theoretical", "database_IDs"]}