{
  "builder_meta": null,
  "nsites": null,
  "elements": null,
  "nelements": null,
  "composition": null,
  "composition_reduced": null,
  "formula_pretty": "K2S3",
  "formula_anonymous": "A2B3",
  "chemsys": null,
  "volume": 272.4065994738514,
  "density": 2.12611636609544,
  "density_atomic": 27.240659947385137,
  "symmetry": null,
  "property_name": null,
  "material_id": "mp-7667",
  "deprecated": null,
  "deprecation_reasons": null,
  "last_updated": null,
  "origins": null,
  "warnings": null,
  "structure": {
    "@module": "pymatgen.core.structure",
    "@class": "Structure",
    "charge": 0,
    "lattice": {
      "matrix": [
        [6.22188442, -0.06452946, 0.0],
        [-1.901685399999999, 5.92449368, -0.0],
        [-0.0, 0.0, 7.41468415]
      ],
      "pbc": [true, true, true],
      "a": 6.222219040426546,
      "b": 6.222220883650234,
      "c": 7.41468415,
      "alpha": 90.0,
      "beta": 90.0,
      "gamma": 108.39016884637898,
      "volume": 272.4065994738514
    },
    "properties": {},
    "sites": [
      {
        "species": [{ "element": "K", "occu": 1 }],
        "abc": [0.41909838, 0.58090162, 0.65698545],
        "properties": { "magmom": 0.0 },
        "label": "K",
        "xyz": [1.5028895513788925, 3.4145037842434873, 4.871339602895618]
      },
      {
        "species": [{ "element": "K", "occu": 1 }],
        "abc": [0.58090162, 0.41909838, 0.15698545],
        "properties": { "magmom": 0.0 },
        "label": "K",
        "xyz": [2.817309468621109, 2.4454604357565133, 1.1639975278956176]
      },
      {
        "species": [{ "element": "K", "occu": 1 }],
        "abc": [0.89420491, 0.10579509000000001, 0.38741179000000003],
        "properties": { "magmom": 0.0 },
        "label": "K",
        "xyz": [5.362450619771816, 0.5690797821083826, 2.872536058836129]
      },
      {
        "species": [{ "element": "K", "occu": 1 }],
        "abc": [0.10579509000000001, 0.89420491, 0.88741179],
        "properties": { "magmom": 0.0 },
        "label": "K",
        "xyz": [-1.0422515997718151, 5.290884437891617, 6.579878133836129]
      },
      {
        "species": [{ "element": "S", "occu": 1 }],
        "abc": [0.38687688000000003, 0.07227146, 0.50130253],
        "properties": { "magmom": -0.0 },
        "label": "S",
        "xyz": [2.269665651811526, 0.403206851861488, 3.7169999235458997]
      },
      {
        "species": [{ "element": "S", "occu": 1 }],
        "abc": [0.61312312, 0.92772854, 0.00130253],
        "properties": { "magmom": -0.0 },
        "label": "S",
        "xyz": [2.050533368188476, 5.456757368138512, 0.009657848545899501]
      },
      {
        "species": [{ "element": "S", "occu": 1 }],
        "abc": [0.92772854, 0.61312312, 0.50130253],
        "properties": { "magmom": -0.0 },
        "label": "S",
        "xyz": [4.6062524633089, 3.5725782277890934, 3.7169999235458997]
      },
      {
        "species": [{ "element": "S", "occu": 1 }],
        "abc": [0.07227146, 0.38687688000000003, 0.00130253],
        "properties": { "magmom": -0.0 },
        "label": "S",
        "xyz": [-0.28605344330889854, 2.287385992210907, 0.009657848545899501]
      },
      {
        "species": [{ "element": "S", "occu": 1 }],
        "abc": [0.799202899999999, 0.200797099999999, 0.84369771],
        "properties": { "magmom": 0.0 },
        "label": "S",
        "xyz": [4.590695158496474, 1.1380490183448881, 6.255752037728297]
      },
      {
        "species": [{ "element": "S", "occu": 1 }],
        "abc": [0.200797099999999, 0.799202899999999, 0.34369771],
        "properties": { "magmom": 0.0 },
        "label": "S",
        "xyz": [-0.27049613849648146, 4.721915201655101, 2.5484099627282966]
      }
    ]
  },
  "task_ids": null,
  "uncorrected_energy_per_atom": null,
  "energy_per_atom": -8.172802736,
  "formation_energy_per_atom": -0.9444977121874991,
  "energy_above_hull": 0.0,
  "is_stable": true,
  "equilibrium_reaction_energy_per_atom": null,
  "decomposes_to": null,
  "xas": null,
  "grain_boundaries": null,
  "band_gap": 1.2855,
  "cbm": null,
  "vbm": null,
  "efermi": 1.63117306,
  "is_gap_direct": null,
  "is_metal": null,
  "es_source_calc_id": null,
  "bandstructure": null,
  "dos": null,
  "dos_energy_up": null,
  "dos_energy_down": null,
  "is_magnetic": null,
  "ordering": null,
  "total_magnetization": 0.0,
  "total_magnetization_normalized_vol": null,
  "total_magnetization_normalized_formula_units": null,
  "num_magnetic_sites": null,
  "num_unique_magnetic_sites": null,
  "types_of_magnetic_species": null,
  "bulk_modulus": null,
  "shear_modulus": null,
  "universal_anisotropy": null,
  "homogeneous_poisson": null,
  "e_total": null,
  "e_ionic": null,
  "e_electronic": null,
  "n": null,
  "e_ij_max": null,
  "weighted_surface_energy_EV_PER_ANG2": null,
  "weighted_surface_energy": null,
  "weighted_work_function": null,
  "surface_anisotropy": null,
  "shape_factor": null,
  "has_reconstructed": null,
  "possible_species": null,
  "has_props": null,
  "theoretical": null,
  "database_IDs": null,
  "fields_not_requested": [
    "builder_meta",
    "nsites",
    "elements",
    "nelements",
    "composition",
    "composition_reduced",
    "chemsys",
    "symmetry",
    "property_name",
    "deprecated",
    "deprecation_reasons",
    "last_updated",
    "origins",
    "warnings",
    "task_ids",
    "uncorrected_energy_per_atom",
    "equilibrium_reaction_energy_per_atom",
    "decomposes_to",
    "xas",
    "grain_boundaries",
    "cbm",
    "vbm",
    "is_gap_direct",
    "is_metal",
    "es_source_calc_id",
    "bandstructure",
    "dos",
    "dos_energy_up",
    "dos_energy_down",
    "is_magnetic",
    "ordering",
    "total_magnetization_normalized_vol",
    "total_magnetization_normalized_formula_units",
    "num_magnetic_sites",
    "num_unique_magnetic_sites",
    "types_of_magnetic_species",
    "bulk_modulus",
    "shear_modulus",
    "universal_anisotropy",
    "homogeneous_poisson",
    "e_total",
    "e_ionic",
    "e_electronic",
    "n",
    "e_ij_max",
    "weighted_surface_energy_EV_PER_ANG2",
    "weighted_surface_energy",
    "weighted_work_function",
    "surface_anisotropy",
    "shape_factor",
    "has_reconstructed",
    "possible_species",
    "has_props",
    "theoretical",
    "database_IDs"
  ]
}
