{
  "builder_meta": null,
  "nsites": null,
  "elements": null,
  "nelements": null,
  "composition": null,
  "composition_reduced": null,
  "formula_pretty": "K2S5",
  "formula_anonymous": "A2B5",
  "chemsys": null,
  "volume": 750.6127739044418,
  "density": 2.110672500110484,
  "density_atomic": 26.80759906801578,
  "symmetry": null,
  "property_name": null,
  "material_id": "mp-17146",
  "deprecated": null,
  "deprecation_reasons": null,
  "last_updated": null,
  "origins": null,
  "warnings": null,
  "structure": {
    "@module": "pymatgen.core.structure",
    "@class": "Structure",
    "charge": 0,
    "lattice": {
      "matrix": [
        [6.48895017, 0.0, 0.0],
        [0.0, 6.63951447, 0.0],
        [0.0, 0.0, 17.42228806]
      ],
      "pbc": [true, true, true],
      "a": 6.48895017,
      "b": 6.63951447,
      "c": 17.42228806,
      "alpha": 90.0,
      "beta": 90.0,
      "gamma": 90.0,
      "volume": 750.6127739044418
    },
    "properties": {},
    "sites": [
      {
        "species": [{ "element": "K", "occu": 1 }],
        "abc": [0.41384726, 0.7290979, 0.3334585],
        "properties": { "magmom": -0.0 },
        "label": "K",
        "xyz": [2.6854342481310343, 4.840856057096612, 5.8096100430555095]
      },
      {
        "species": [{ "element": "K", "occu": 1 }],
        "abc": [0.91384726, 0.770902099999999, 0.6665415],
        "properties": { "magmom": -0.0 },
        "label": "K",
        "xyz": [5.929909333131034, 5.11841564790338, 11.61267801694449]
      },
      {
        "species": [{ "element": "K", "occu": 1 }],
        "abc": [0.5861527400000001, 0.2290979, 0.166541499999999],
        "properties": { "magmom": -0.0 },
        "label": "K",
        "xyz": [3.803515921868966, 1.5210988220966128, 2.9015339869444725]
      },
      {
        "species": [{ "element": "K", "occu": 1 }],
        "abc": [0.08615274, 0.2709021, 0.8334585],
        "properties": { "magmom": -0.0 },
        "label": "K",
        "xyz": [0.5590408368689658, 1.798658412903387, 14.52075407305551]
      },
      {
        "species": [{ "element": "K", "occu": 1 }],
        "abc": [0.87562081, 0.58501, 0.01039673],
        "properties": { "magmom": 0.0 },
        "label": "K",
        "xyz": [5.681859803905038, 3.8841823600947003, 0.1811348249420438]
      },
      {
        "species": [{ "element": "K", "occu": 1 }],
        "abc": [0.37562081, 0.9149900000000001, 0.98960327],
        "properties": { "magmom": 0.0 },
        "label": "K",
        "xyz": [2.437384718905038, 6.0750893449053, 17.241153235057958]
      },
      {
        "species": [{ "element": "K", "occu": 1 }],
        "abc": [0.12437919, 0.08501, 0.48960327000000003],
        "properties": { "magmom": 0.0 },
        "label": "K",
        "xyz": [0.8070903660949623, 0.5644251250947, 8.530009205057956]
      },
      {
        "species": [{ "element": "K", "occu": 1 }],
        "abc": [0.62437919, 0.41499, 0.51039673],
        "properties": { "magmom": 0.0 },
        "label": "K",
        "xyz": [4.051565451094962, 2.7553321099053, 8.892278854942044]
      },
      {
        "species": [{ "element": "S", "occu": 1 }],
        "abc": [0.54738913, 0.72938866, 0.15567586],
        "properties": { "magmom": 0.0 },
        "label": "S",
        "xyz": [3.551980788169652, 4.84278656232391, 2.7122296769082315]
      },
      {
        "species": [{ "element": "S", "occu": 1 }],
        "abc": [0.04738913, 0.77061134, 0.84432414],
        "properties": { "magmom": 0.0 },
        "label": "S",
        "xyz": [0.3075057031696521, 5.11648514267609, 14.710058383091768]
      },
      {
        "species": [{ "element": "S", "occu": 1 }],
        "abc": [0.45261087, 0.22938866, 0.34432414],
        "properties": { "magmom": 0.0 },
        "label": "S",
        "xyz": [2.9369693818303477, 1.5230293273239102, 5.998914353091768]
      },
      {
        "species": [{ "element": "S", "occu": 1 }],
        "abc": [0.95261087, 0.27061134, 0.65567586],
        "properties": { "magmom": 0.0 },
        "label": "S",
        "xyz": [6.181444466830348, 1.7967279076760896, 11.423373706908231]
      },
      {
        "species": [{ "element": "S", "occu": 1 }],
        "abc": [0.24515886, 0.64281592, 0.14571957],
        "properties": { "magmom": -0.0 },
        "label": "S",
        "xyz": [1.5908236262740063, 4.2679856023863625, 2.538768324519334]
      },
      {
        "species": [{ "element": "S", "occu": 1 }],
        "abc": [0.74515886, 0.85718408, 0.85428043],
        "properties": { "magmom": -0.0 },
        "label": "S",
        "xyz": [4.835298711274006, 5.691286102613637, 14.883519735480665]
      },
      {
        "species": [{ "element": "S", "occu": 1 }],
        "abc": [0.75484114, 0.14281592, 0.35428043000000004],
        "properties": { "magmom": -0.0 },
        "label": "S",
        "xyz": [4.8981265437259935, 0.9482283673863625, 6.1723757054806665]
      },
      {
        "species": [{ "element": "S", "occu": 1 }],
        "abc": [0.25484114, 0.35718408, 0.64571957],
        "properties": { "magmom": -0.0 },
        "label": "S",
        "xyz": [1.6536514587259938, 2.3715288676136375, 11.249912354519335]
      },
      {
        "species": [{ "element": "S", "occu": 1 }],
        "abc": [0.58753163, 0.91406027, 0.52927539],
        "properties": { "magmom": 0.0 },
        "label": "S",
        "xyz": [3.812463470368877, 6.068916389117107, 9.221188307648843]
      },
      {
        "species": [{ "element": "S", "occu": 1 }],
        "abc": [0.08753163, 0.58593973, 0.47072461],
        "properties": { "magmom": 0.0 },
        "label": "S",
        "xyz": [0.5679883853688771, 3.890355315882893, 8.201099752351157]
      },
      {
        "species": [{ "element": "S", "occu": 1 }],
        "abc": [0.41246837000000003, 0.41406027, 0.97072461],
        "properties": { "magmom": 0.0 },
        "label": "S",
        "xyz": [2.676486699631123, 2.7491591541171068, 16.912243782351155]
      },
      {
        "species": [{ "element": "S", "occu": 1 }],
        "abc": [0.91246837, 0.08593973, 0.029275390000000002],
        "properties": { "magmom": 0.0 },
        "label": "S",
        "xyz": [5.920961784631123, 0.5705980808828931, 0.5100442776488434]
      },
      {
        "species": [{ "element": "S", "occu": 1 }],
        "abc": [0.42456651, 0.8813728200000001, 0.62905976],
        "properties": { "magmom": 0.0 },
        "label": "S",
        "xyz": [2.7549909272408066, 5.851887591854705, 10.959660345674465]
      },
      {
        "species": [{ "element": "S", "occu": 1 }],
        "abc": [0.92456651, 0.61862718, 0.37094024000000003],
        "properties": { "magmom": 0.0 },
        "label": "S",
        "xyz": [5.999466012240807, 4.107384113145295, 6.462627714325535]
      },
      {
        "species": [{ "element": "S", "occu": 1 }],
        "abc": [0.57543349, 0.38137282, 0.87094024],
        "properties": { "magmom": 0.0 },
        "label": "S",
        "xyz": [3.733959242759193, 2.5321303568547053, 15.173771744325535]
      },
      {
        "species": [{ "element": "S", "occu": 1 }],
        "abc": [0.07543349, 0.11862718, 0.12905976],
        "properties": { "magmom": 0.0 },
        "label": "S",
        "xyz": [0.48948415775919335, 0.7876268781452946, 2.2485163156744656]
      },
      {
        "species": [{ "element": "S", "occu": 1 }],
        "abc": [0.44366318, 0.14011703, 0.69485834],
        "properties": { "magmom": -0.0 },
        "label": "S",
        "xyz": [2.8789082672837405, 0.9303090481784241, 12.10602216037342]
      },
      {
        "species": [{ "element": "S", "occu": 1 }],
        "abc": [0.94366318, 0.35988297, 0.30514166],
        "properties": { "magmom": -0.0 },
        "label": "S",
        "xyz": [6.12338335228374, 2.3894481868215762, 5.316265899626579]
      },
      {
        "species": [{ "element": "S", "occu": 1 }],
        "abc": [0.5563368200000001, 0.64011703, 0.80514166],
        "properties": { "magmom": -0.0 },
        "label": "S",
        "xyz": [3.61004190271626, 4.250066283178424, 14.027409929626579]
      },
      {
        "species": [{ "element": "S", "occu": 1 }],
        "abc": [0.05633682, 0.85988297, 0.19485834],
        "properties": { "magmom": -0.0 },
        "label": "S",
        "xyz": [0.36556681771625943, 5.709205421821576, 3.3948781303734203]
      }
    ]
  },
  "task_ids": null,
  "uncorrected_energy_per_atom": null,
  "energy_per_atom": -8.158680591071429,
  "formation_energy_per_atom": -0.699891550580356,
  "energy_above_hull": 0.0,
  "is_stable": true,
  "equilibrium_reaction_energy_per_atom": null,
  "decomposes_to": null,
  "xas": null,
  "grain_boundaries": null,
  "band_gap": 1.929899999999999,
  "cbm": null,
  "vbm": null,
  "efermi": 1.3597609,
  "is_gap_direct": null,
  "is_metal": null,
  "es_source_calc_id": null,
  "bandstructure": null,
  "dos": null,
  "dos_energy_up": null,
  "dos_energy_down": null,
  "is_magnetic": null,
  "ordering": null,
  "total_magnetization": 0.0,
  "total_magnetization_normalized_vol": null,
  "total_magnetization_normalized_formula_units": null,
  "num_magnetic_sites": null,
  "num_unique_magnetic_sites": null,
  "types_of_magnetic_species": null,
  "bulk_modulus": null,
  "shear_modulus": null,
  "universal_anisotropy": null,
  "homogeneous_poisson": null,
  "e_total": null,
  "e_ionic": null,
  "e_electronic": null,
  "n": null,
  "e_ij_max": null,
  "weighted_surface_energy_EV_PER_ANG2": null,
  "weighted_surface_energy": null,
  "weighted_work_function": null,
  "surface_anisotropy": null,
  "shape_factor": null,
  "has_reconstructed": null,
  "possible_species": null,
  "has_props": null,
  "theoretical": null,
  "database_IDs": null,
  "fields_not_requested": [
    "builder_meta",
    "nsites",
    "elements",
    "nelements",
    "composition",
    "composition_reduced",
    "chemsys",
    "symmetry",
    "property_name",
    "deprecated",
    "deprecation_reasons",
    "last_updated",
    "origins",
    "warnings",
    "task_ids",
    "uncorrected_energy_per_atom",
    "equilibrium_reaction_energy_per_atom",
    "decomposes_to",
    "xas",
    "grain_boundaries",
    "cbm",
    "vbm",
    "is_gap_direct",
    "is_metal",
    "es_source_calc_id",
    "bandstructure",
    "dos",
    "dos_energy_up",
    "dos_energy_down",
    "is_magnetic",
    "ordering",
    "total_magnetization_normalized_vol",
    "total_magnetization_normalized_formula_units",
    "num_magnetic_sites",
    "num_unique_magnetic_sites",
    "types_of_magnetic_species",
    "bulk_modulus",
    "shear_modulus",
    "universal_anisotropy",
    "homogeneous_poisson",
    "e_total",
    "e_ionic",
    "e_electronic",
    "n",
    "e_ij_max",
    "weighted_surface_energy_EV_PER_ANG2",
    "weighted_surface_energy",
    "weighted_work_function",
    "surface_anisotropy",
    "shape_factor",
    "has_reconstructed",
    "possible_species",
    "has_props",
    "theoretical",
    "database_IDs"
  ]
}
