{
  "builder_meta": null,
  "nsites": null,
  "elements": null,
  "nelements": null,
  "composition": null,
  "composition_reduced": null,
  "formula_pretty": "K2Se3",
  "formula_anonymous": "A2B3",
  "chemsys": null,
  "volume": 310.2867416586008,
  "density": 3.372345208659668,
  "density_atomic": 31.02867416586008,
  "symmetry": null,
  "property_name": null,
  "material_id": "mp-7670",
  "deprecated": null,
  "deprecation_reasons": null,
  "last_updated": null,
  "origins": null,
  "warnings": null,
  "structure": {
    "@module": "pymatgen.core.structure",
    "@class": "Structure",
    "charge": 0,
    "lattice": {
      "matrix": [
        [6.51079245, -0.04535386, -0.0],
        [-1.9542859300000002, 6.21073584, -0.0],
        [0.0, -0.0, 7.6902294]
      ],
      "pbc": [true, true, true],
      "a": 6.510950414462846,
      "b": 6.510950250958493,
      "c": 7.6902294,
      "alpha": 90.0,
      "beta": 90.0,
      "gamma": 107.86594918175248,
      "volume": 310.2867416586008
    },
    "properties": {},
    "sites": [
      {
        "species": [{ "element": "K", "occu": 1 }],
        "abc": [0.09853718, 0.90146282, 0.87164736],
        "properties": { "magmom": -0.0 },
        "label": "K",
        "xyz": [-1.1201609779558317, 5.594278403134954, 6.703168154304383]
      },
      {
        "species": [{ "element": "K", "occu": 1 }],
        "abc": [0.90146282, 0.09853718, 0.37164736],
        "properties": { "magmom": -0.0 },
        "label": "K",
        "xyz": [5.676667497955831, 0.571103576865046, 2.858053454304384]
      },
      {
        "species": [{ "element": "K", "occu": 1 }],
        "abc": [0.58657893, 0.41342107, 0.14975867],
        "properties": { "magmom": -0.0 },
        "label": "K",
        "xyz": [3.0111506885065342, 2.541045437789979, 1.151678526938898]
      },
      {
        "species": [{ "element": "K", "occu": 1 }],
        "abc": [0.41342107, 0.58657893, 0.64975867],
        "properties": { "magmom": -0.0 },
        "label": "K",
        "xyz": [1.5453558314934663, 3.6243365422100213, 4.996793226938898]
      },
      {
        "species": [{ "element": "Se", "occu": 1 }],
        "abc": [0.79228323, 0.20771677, 0.81790703],
        "properties": { "magmom": 0.0 },
        "label": "Se",
        "xyz": [4.752453711109568, 1.254140885314269, 6.289892688572682]
      },
      {
        "species": [{ "element": "Se", "occu": 1 }],
        "abc": [0.20771677, 0.79228323, 0.31790703],
        "properties": { "magmom": 0.0 },
        "label": "Se",
        "xyz": [-0.1959471911095676, 4.911241094685731, 2.4447779885726817]
      },
      {
        "species": [{ "element": "Se", "occu": 1 }],
        "abc": [0.08569378, 0.40438108, -0.00075653],
        "properties": { "magmom": 0.0 },
        "label": "Se",
        "xyz": [-0.2323418391662434, 2.5076175228729163, -0.005817889247982]
      },
      {
        "species": [{ "element": "Se", "occu": 1 }],
        "abc": [0.9143062200000001, 0.59561892, 0.49924347],
        "properties": { "magmom": 0.0 },
        "label": "Se",
        "xyz": [4.788848359166244, 3.657764457127084, 3.839296810752018]
      },
      {
        "species": [{ "element": "Se", "occu": 1 }],
        "abc": [0.59561892, 0.9143062200000001, -0.00075653],
        "properties": { "magmom": 0.0 },
        "label": "Se",
        "xyz": [2.0911353859556696, 5.651500792177894, -0.005817889247982]
      },
      {
        "species": [{ "element": "Se", "occu": 1 }],
        "abc": [0.40438108, 0.08569378, 0.49924347],
        "properties": { "magmom": 0.0 },
        "label": "Se",
        "xyz": [2.465371134044331, 0.5138811878221063, 3.839296810752018]
      }
    ]
  },
  "task_ids": null,
  "uncorrected_energy_per_atom": null,
  "energy_per_atom": -3.6239855469999993,
  "formation_energy_per_atom": -1.073890771306249,
  "energy_above_hull": 0.0,
  "is_stable": true,
  "equilibrium_reaction_energy_per_atom": null,
  "decomposes_to": null,
  "xas": null,
  "grain_boundaries": null,
  "band_gap": 0.644,
  "cbm": null,
  "vbm": null,
  "efermi": 1.0493969,
  "is_gap_direct": null,
  "is_metal": null,
  "es_source_calc_id": null,
  "bandstructure": null,
  "dos": null,
  "dos_energy_up": null,
  "dos_energy_down": null,
  "is_magnetic": null,
  "ordering": null,
  "total_magnetization": 0.0,
  "total_magnetization_normalized_vol": null,
  "total_magnetization_normalized_formula_units": null,
  "num_magnetic_sites": null,
  "num_unique_magnetic_sites": null,
  "types_of_magnetic_species": null,
  "bulk_modulus": null,
  "shear_modulus": null,
  "universal_anisotropy": null,
  "homogeneous_poisson": null,
  "e_total": null,
  "e_ionic": null,
  "e_electronic": null,
  "n": null,
  "e_ij_max": null,
  "weighted_surface_energy_EV_PER_ANG2": null,
  "weighted_surface_energy": null,
  "weighted_work_function": null,
  "surface_anisotropy": null,
  "shape_factor": null,
  "has_reconstructed": null,
  "possible_species": null,
  "has_props": null,
  "theoretical": null,
  "database_IDs": null,
  "fields_not_requested": [
    "builder_meta",
    "nsites",
    "elements",
    "nelements",
    "composition",
    "composition_reduced",
    "chemsys",
    "symmetry",
    "property_name",
    "deprecated",
    "deprecation_reasons",
    "last_updated",
    "origins",
    "warnings",
    "task_ids",
    "uncorrected_energy_per_atom",
    "equilibrium_reaction_energy_per_atom",
    "decomposes_to",
    "xas",
    "grain_boundaries",
    "cbm",
    "vbm",
    "is_gap_direct",
    "is_metal",
    "es_source_calc_id",
    "bandstructure",
    "dos",
    "dos_energy_up",
    "dos_energy_down",
    "is_magnetic",
    "ordering",
    "total_magnetization_normalized_vol",
    "total_magnetization_normalized_formula_units",
    "num_magnetic_sites",
    "num_unique_magnetic_sites",
    "types_of_magnetic_species",
    "bulk_modulus",
    "shear_modulus",
    "universal_anisotropy",
    "homogeneous_poisson",
    "e_total",
    "e_ionic",
    "e_electronic",
    "n",
    "e_ij_max",
    "weighted_surface_energy_EV_PER_ANG2",
    "weighted_surface_energy",
    "weighted_work_function",
    "surface_anisotropy",
    "shape_factor",
    "has_reconstructed",
    "possible_species",
    "has_props",
    "theoretical",
    "database_IDs"
  ]
}
