{"builder_meta": null, "nsites": null, "elements": null, "nelements": null, "composition": null, "composition_reduced": null, "formula_pretty": "K2Tc", "formula_anonymous": "AB2", "chemsys": null, "volume": 284.98595063111543, "density": 3.079955384335519, "density_atomic": 31.66510562567949, "symmetry": null, "property_name": null, "material_id": "mp-1180954", "deprecated": null, "deprecation_reasons": null, "last_updated": null, "origins": null, "warnings": null, "structure": {"@module": "pymatgen.core.structure", "@class": "Structure", "charge": 0, "lattice": {"matrix": [[10.750721, 0.048795, 0.0], [-5.333103, 9.334794, 0.0], [0.0, 0.0, 2.832411999999999]], "pbc": [true, true, true], "a": 10.750831733957424, "b": 10.750830973978013, "c": 2.832411999999999, "alpha": 90.0, "beta": 90.0, "gamma": 119.47990297382407, "volume": 284.9859506311153}, "properties": {}, "sites": [{"species": [{"element": "K", "occu": 1}], "abc": [0.353528, 0.353528, 0.0], "properties": {"magmom": -0.001}, "label": "K", "xyz": [1.9152796563040002, 3.3173614519920003, 0.0]}, {"species": [{"element": "K", "occu": 1}], "abc": [0.650189, 0.001434999999999, 0.0], "properties": {"magmom": -0.0}, "label": "K", "xyz": [6.982347533464005, 0.045121401644990664, 0.0]}, {"species": [{"element": "K", "occu": 1}], "abc": [0.001434999999999, 0.650189, 0.0], "properties": {"magmom": -0.0}, "label": "K", "xyz": [-3.452097621832011, 6.069450396891, 0.0]}, {"species": [{"element": "K", "occu": 1}], "abc": [0.683113, 0.683113, 0.5], "properties": {"magmom": -0.001}, "label": "K", "xyz": [3.700845284834, 6.410051632557, 1.4162059999999994]}, {"species": [{"element": "K", "occu": 1}], "abc": [0.312346, 0.001212, 0.5], "properties": {"magmom": -0.002}, "label": "K", "xyz": [3.3514809806300003, 0.026554693398, 1.4162059999999994]}, {"species": [{"element": "K", "occu": 1}], "abc": [0.001212, 0.312346, 0.5], "properties": {"magmom": -0.002}, "label": "K", "xyz": [-1.6527435157860002, 2.9157447062640003, 1.4162059999999994]}, {"species": [{"element": "Tc", "occu": 1}], "abc": [0.995201, 0.995201, 0.0], "properties": {"magmom": 1.65}, "label": "Tc", "xyz": [5.391618851218, 9.338557156389, 0.0]}, {"species": [{"element": "Tc", "occu": 1}], "abc": [0.66832, 0.334754, 0.5], "properties": {"magmom": 1.679}, "label": "Tc", "xyz": [5.399644297058, 3.157470305076, 1.4162059999999994]}, {"species": [{"element": "Tc", "occu": 1}], "abc": [0.334754, 0.66832, 0.5], "properties": {"magmom": 1.679}, "label": "Tc", "xyz": [0.0346274606739998, 6.25496384751, 1.4162059999999994]}]}, "task_ids": null, "uncorrected_energy_per_atom": null, "energy_per_atom": -11.26281710338889, "formation_energy_per_atom": 1.404246204111111, "energy_above_hull": 1.40424620411111, "is_stable": false, "equilibrium_reaction_energy_per_atom": null, "decomposes_to": null, "xas": null, "grain_boundaries": null, "band_gap": 0.0, "cbm": null, "vbm": null, "efermi": 2.06306158, "is_gap_direct": null, "is_metal": null, "es_source_calc_id": null, "bandstructure": null, "dos": null, "dos_energy_up": null, "dos_energy_down": null, "is_magnetic": null, "ordering": null, "total_magnetization": 6.0036324, "total_magnetization_normalized_vol": null, "total_magnetization_normalized_formula_units": null, "num_magnetic_sites": null, "num_unique_magnetic_sites": null, "types_of_magnetic_species": null, "bulk_modulus": null, "shear_modulus": null, "universal_anisotropy": null, "homogeneous_poisson": null, "e_total": null, "e_ionic": null, "e_electronic": null, "n": null, "e_ij_max": null, "weighted_surface_energy_EV_PER_ANG2": null, "weighted_surface_energy": null, "weighted_work_function": null, "surface_anisotropy": null, "shape_factor": null, "has_reconstructed": null, "possible_species": null, "has_props": null, "theoretical": null, "database_IDs": null, "fields_not_requested": ["builder_meta", "nsites", "elements", "nelements", "composition", "composition_reduced", "chemsys", "symmetry", "property_name", "deprecated", "deprecation_reasons", "last_updated", "origins", "warnings", "task_ids", "uncorrected_energy_per_atom", "equilibrium_reaction_energy_per_atom", "decomposes_to", "xas", "grain_boundaries", "cbm", "vbm", "is_gap_direct", "is_metal", "es_source_calc_id", "bandstructure", "dos", "dos_energy_up", "dos_energy_down", "is_magnetic", "ordering", "total_magnetization_normalized_vol", "total_magnetization_normalized_formula_units", "num_magnetic_sites", "num_unique_magnetic_sites", "types_of_magnetic_species", "bulk_modulus", "shear_modulus", "universal_anisotropy", "homogeneous_poisson", "e_total", "e_ionic", "e_electronic", "n", "e_ij_max", "weighted_surface_energy_EV_PER_ANG2", "weighted_surface_energy", "weighted_work_function", "surface_anisotropy", "shape_factor", "has_reconstructed", "possible_species", "has_props", "theoretical", "database_IDs"]}