{"builder_meta": null, "nsites": null, "elements": null, "nelements": null, "composition": null, "composition_reduced": null, "formula_pretty": "K2Te3", "formula_anonymous": "A2B3", "chemsys": null, "volume": 764.3436104596132, "density": 4.006066661089576, "density_atomic": 38.217180522980655, "symmetry": null, "property_name": null, "material_id": "mp-7289", "deprecated": null, "deprecation_reasons": null, "last_updated": null, "origins": null, "warnings": null, "structure": {"@module": "pymatgen.core.structure", "@class": "Structure", "charge": 0, "lattice": {"matrix": [[4.66031807, -0.0, 0.0], [0.0, 10.22366231, 0.0], [0.0, 0.0, 16.04229819]], "pbc": [true, true, true], "a": 4.66031807, "b": 10.22366231, "c": 16.04229819, "alpha": 90.0, "beta": 90.0, "gamma": 90.0, "volume": 764.3436104596132}, "properties": {}, "sites": [{"species": [{"element": "K", "occu": 1}], "abc": [0.7206332, 0.97107753, 0.62301913], "properties": {"magmom": -0.0}, "label": "K", "xyz": [3.3583799238019236, 9.927968743548893, 9.994658661534375]}, {"species": [{"element": "K", "occu": 1}], "abc": [0.2206332, 0.028922470000000002, 0.87698087], "properties": {"magmom": -0.0}, "label": "K", "xyz": [1.028220888801924, 0.2956935664511057, 14.068788623465625]}, {"species": [{"element": "K", "occu": 1}], "abc": [0.279366799999999, 0.47107753, 0.37698087], "properties": {"magmom": -0.0}, "label": "K", "xyz": [1.3019381461980715, 4.816137588548894, 6.047639528465626]}, {"species": [{"element": "K", "occu": 1}], "abc": [0.779366799999999, 0.52892247, 0.12301913], "properties": {"magmom": -0.0}, "label": "K", "xyz": [3.632097181198071, 5.407524721451106, 1.9735095665343747]}, {"species": [{"element": "K", "occu": 1}], "abc": [0.279366799999999, 0.028922470000000002, 0.37698087], "properties": {"magmom": -0.0}, "label": "K", "xyz": [1.3019381461980715, 0.2956935664511057, 6.047639528465626]}, {"species": [{"element": "K", "occu": 1}], "abc": [0.779366799999999, 0.97107753, 0.12301913], "properties": {"magmom": -0.0}, "label": "K", "xyz": [3.632097181198071, 9.927968743548893, 1.9735095665343747]}, {"species": [{"element": "K", "occu": 1}], "abc": [0.7206332, 0.52892247, 0.62301913], "properties": {"magmom": -0.0}, "label": "K", "xyz": [3.3583799238019236, 5.407524721451106, 9.994658661534375]}, {"species": [{"element": "K", "occu": 1}], "abc": [0.2206332, 0.47107753, 0.87698087], "properties": {"magmom": -0.0}, "label": "K", "xyz": [1.028220888801924, 4.816137588548894, 14.068788623465625]}, {"species": [{"element": "Te", "occu": 1}], "abc": [0.19075731, 0.75, 0.5173289600000001], "properties": {"magmom": 0.0}, "label": "Te", "xyz": [0.8889897387775917, 7.6677467324999995, 8.299145438642583]}, {"species": [{"element": "Te", "occu": 1}], "abc": [0.6907573100000001, 0.25, 0.98267104], "properties": {"magmom": 0.0}, "label": "Te", "xyz": [3.219148773777592, 2.5559155775, 15.76430184635742]}, {"species": [{"element": "Te", "occu": 1}], "abc": [0.80924269, 0.25, 0.48267104], "properties": {"magmom": 0.0}, "label": "Te", "xyz": [3.771328331222408, 2.5559155775, 7.743152751357417]}, {"species": [{"element": "Te", "occu": 1}], "abc": [0.30924269, 0.75, 0.01732896], "properties": {"magmom": 0.0}, "label": "Te", "xyz": [1.441169296222408, 7.6677467324999995, 0.2779963436425824]}, {"species": [{"element": "Te", "occu": 1}], "abc": [0.29677158, 0.75, 0.73963226], "properties": {"magmom": -0.0}, "label": "Te", "xyz": [1.3830499569364505, 7.6677467324999995, 11.86540126586361]}, {"species": [{"element": "Te", "occu": 1}], "abc": [0.79677058, 0.25, 0.7603677400000001], "properties": {"magmom": -0.0}, "label": "Te", "xyz": [3.7132043316183805, 2.5559155775, 12.198046019136392]}, {"species": [{"element": "Te", "occu": 1}], "abc": [0.70322942, 0.25, 0.26036774], "properties": {"magmom": -0.0}, "label": "Te", "xyz": [3.277272773381619, 2.5559155775, 4.176896924136391]}, {"species": [{"element": "Te", "occu": 1}], "abc": [0.20322842, 0.75, 0.23963226], "properties": {"magmom": -0.0}, "label": "Te", "xyz": [0.9471090780635493, 7.6677467324999995, 3.8442521708636095]}, {"species": [{"element": "Te", "occu": 1}], "abc": [0.6832527700000001, 0.75, 0.8771108], "properties": {"magmom": 0.0}, "label": "Te", "xyz": [3.184175230408554, 7.6677467324999995, 14.070872999269453]}, {"species": [{"element": "Te", "occu": 1}], "abc": [0.18325277, 0.25, 0.622889199999999], "properties": {"magmom": 0.0}, "label": "Te", "xyz": [0.8540161954085539, 2.5559155775, 9.992574285730532]}, {"species": [{"element": "Te", "occu": 1}], "abc": [0.31674723, 0.25, 0.122889199999999], "properties": {"magmom": 0.0}, "label": "Te", "xyz": [1.476142839591446, 2.5559155775, 1.971425190730532]}, {"species": [{"element": "Te", "occu": 1}], "abc": [0.81674723, 0.75, 0.377110799999999], "properties": {"magmom": 0.0}, "label": "Te", "xyz": [3.8063018745914463, 7.6677467324999995, 6.049723904269436]}]}, "task_ids": null, "uncorrected_energy_per_atom": null, "energy_per_atom": -18.5207381335, "formation_energy_per_atom": -0.863097973, "energy_above_hull": 0.0, "is_stable": true, "equilibrium_reaction_energy_per_atom": null, "decomposes_to": null, "xas": null, "grain_boundaries": null, "band_gap": 0.5752, "cbm": null, "vbm": null, "efermi": 2.7137540700000002, "is_gap_direct": null, "is_metal": null, "es_source_calc_id": null, "bandstructure": null, "dos": null, "dos_energy_up": null, "dos_energy_down": null, "is_magnetic": null, "ordering": null, "total_magnetization": 0.0, "total_magnetization_normalized_vol": null, "total_magnetization_normalized_formula_units": null, "num_magnetic_sites": null, "num_unique_magnetic_sites": null, "types_of_magnetic_species": null, "bulk_modulus": null, "shear_modulus": null, "universal_anisotropy": null, "homogeneous_poisson": null, "e_total": null, "e_ionic": null, "e_electronic": null, "n": null, "e_ij_max": null, "weighted_surface_energy_EV_PER_ANG2": null, "weighted_surface_energy": null, "weighted_work_function": null, "surface_anisotropy": null, "shape_factor": null, "has_reconstructed": null, "possible_species": null, "has_props": null, "theoretical": null, "database_IDs": null, "fields_not_requested": ["builder_meta", "nsites", "elements", "nelements", "composition", "composition_reduced", "chemsys", "symmetry", "property_name", "deprecated", "deprecation_reasons", "last_updated", "origins", "warnings", "task_ids", "uncorrected_energy_per_atom", "equilibrium_reaction_energy_per_atom", "decomposes_to", "xas", "grain_boundaries", "cbm", "vbm", "is_gap_direct", "is_metal", "es_source_calc_id", "bandstructure", "dos", "dos_energy_up", "dos_energy_down", "is_magnetic", "ordering", "total_magnetization_normalized_vol", "total_magnetization_normalized_formula_units", "num_magnetic_sites", "num_unique_magnetic_sites", "types_of_magnetic_species", "bulk_modulus", "shear_modulus", "universal_anisotropy", "homogeneous_poisson", "e_total", "e_ionic", "e_electronic", "n", "e_ij_max", "weighted_surface_energy_EV_PER_ANG2", "weighted_surface_energy", "weighted_work_function", "surface_anisotropy", "shape_factor", "has_reconstructed", "possible_species", "has_props", "theoretical", "database_IDs"]}