{"builder_meta": null, "nsites": null, "elements": null, "nelements": null, "composition": null, "composition_reduced": null, "formula_pretty": "K3Ac", "formula_anonymous": "AB3", "chemsys": null, "volume": 499.2814411930874, "density": 2.29015174493554, "density_atomic": 62.410180149135925, "symmetry": null, "property_name": null, "material_id": "mp-1184792", "deprecated": null, "deprecation_reasons": null, "last_updated": null, "origins": null, "warnings": null, "structure": {"@module": "pymatgen.core.structure", "@class": "Structure", "charge": 0, "lattice": {"matrix": [[4.434988, -7.681624, 0.0], [4.434988, 7.681624, 0.0], [0.0, 0.0, 7.327738]], "pbc": [true, true, true], "a": 8.86997552632024, "b": 8.86997552632024, "c": 7.327738, "alpha": 90.0, "beta": 90.0, "gamma": 119.99999646691236, "volume": 499.2814411930874}, "properties": {}, "sites": [{"species": [{"element": "K", "occu": 1}], "abc": [0.168341, 0.336683, 0.25], "properties": {"magmom": -0.008}, "label": "K", "xyz": [2.239775379712, 1.2931399474080003, 1.8319345]}, {"species": [{"element": "K", "occu": 1}], "abc": [0.663316999999999, 0.831658999999999, 0.25], "properties": {"magmom": -0.008}, "label": "K", "xyz": [6.630200620287991, 1.293139947408, 1.8319345]}, {"species": [{"element": "K", "occu": 1}], "abc": [0.168341, 0.831658999999999, 0.25], "properties": {"magmom": -0.008}, "label": "K", "xyz": [4.434987999999995, 5.095359468431993, 1.8319345]}, {"species": [{"element": "K", "occu": 1}], "abc": [0.831658999999999, 0.663316999999999, 0.75], "properties": {"magmom": -0.007}, "label": "K", "xyz": [6.630200620287991, -1.293139947408, 5.4958035]}, {"species": [{"element": "K", "occu": 1}], "abc": [0.336683, 0.168341, 0.75], "properties": {"magmom": -0.009000000000000001}, "label": "K", "xyz": [2.239775379712, -1.2931399474080003, 5.4958035]}, {"species": [{"element": "K", "occu": 1}], "abc": [0.831658999999999, 0.168341, 0.75], "properties": {"magmom": -0.007}, "label": "K", "xyz": [4.434987999999995, -5.095359468431993, 5.4958035]}, {"species": [{"element": "Ac", "occu": 1}], "abc": [0.333333, 0.666667, 0.75], "properties": {"magmom": -0.167}, "label": "Ac", "xyz": [4.434988, 2.560546454416, 5.4958035]}, {"species": [{"element": "Ac", "occu": 1}], "abc": [0.666667, 0.333333, 0.25], "properties": {"magmom": -0.152}, "label": "Ac", "xyz": [4.434988, -2.560546454416, 1.8319345]}]}, "task_ids": null, "uncorrected_energy_per_atom": null, "energy_per_atom": -21.237655311937502, "formation_energy_per_atom": 0.43541249337499704, "energy_above_hull": 0.43541249337499704, "is_stable": false, "equilibrium_reaction_energy_per_atom": null, "decomposes_to": null, "xas": null, "grain_boundaries": null, "band_gap": 0.0, "cbm": null, "vbm": null, "efermi": 1.01680208, "is_gap_direct": null, "is_metal": null, "es_source_calc_id": null, "bandstructure": null, "dos": null, "dos_energy_up": null, "dos_energy_down": null, "is_magnetic": null, "ordering": null, "total_magnetization": 1.7763554, "total_magnetization_normalized_vol": null, "total_magnetization_normalized_formula_units": null, "num_magnetic_sites": null, "num_unique_magnetic_sites": null, "types_of_magnetic_species": null, "bulk_modulus": null, "shear_modulus": null, "universal_anisotropy": null, "homogeneous_poisson": null, "e_total": null, "e_ionic": null, "e_electronic": null, "n": null, "e_ij_max": null, "weighted_surface_energy_EV_PER_ANG2": null, "weighted_surface_energy": null, "weighted_work_function": null, "surface_anisotropy": null, "shape_factor": null, "has_reconstructed": null, "possible_species": null, "has_props": null, "theoretical": null, "database_IDs": null, "fields_not_requested": ["builder_meta", "nsites", "elements", "nelements", "composition", "composition_reduced", "chemsys", "symmetry", "property_name", "deprecated", "deprecation_reasons", "last_updated", "origins", "warnings", "task_ids", "uncorrected_energy_per_atom", "equilibrium_reaction_energy_per_atom", "decomposes_to", "xas", "grain_boundaries", "cbm", "vbm", "is_gap_direct", "is_metal", "es_source_calc_id", "bandstructure", "dos", "dos_energy_up", "dos_energy_down", "is_magnetic", "ordering", "total_magnetization_normalized_vol", "total_magnetization_normalized_formula_units", "num_magnetic_sites", "num_unique_magnetic_sites", "types_of_magnetic_species", "bulk_modulus", "shear_modulus", "universal_anisotropy", "homogeneous_poisson", "e_total", "e_ionic", "e_electronic", "n", "e_ij_max", "weighted_surface_energy_EV_PER_ANG2", "weighted_surface_energy", "weighted_work_function", "surface_anisotropy", "shape_factor", "has_reconstructed", "possible_species", "has_props", "theoretical", "database_IDs"]}