{
  "builder_meta": null,
  "nsites": null,
  "elements": null,
  "nelements": null,
  "composition": null,
  "composition_reduced": null,
  "formula_pretty": "K3As",
  "formula_anonymous": "AB3",
  "chemsys": null,
  "volume": 297.3181781186043,
  "density": 2.147080340091364,
  "density_atomic": 37.16477226482554,
  "symmetry": null,
  "property_name": null,
  "material_id": "mp-14018",
  "deprecated": null,
  "deprecation_reasons": null,
  "last_updated": null,
  "origins": null,
  "warnings": null,
  "structure": {
    "@module": "pymatgen.core.structure",
    "@class": "Structure",
    "charge": 0,
    "lattice": {
      "matrix": [
        [5.78949242, -1.2060000000000001e-5, 0.0],
        [-2.89475626, 5.01384121, 0.0],
        [0.0, 0.0, 10.24261668]
      ],
      "pbc": [true, true, true],
      "a": 5.789492420012561,
      "b": 5.7894919884134435,
      "c": 10.24261668,
      "alpha": 90.0,
      "beta": 90.0,
      "gamma": 120.00023666443789,
      "volume": 297.3181781186043
    },
    "properties": {},
    "sites": [
      {
        "species": [{ "element": "K", "occu": 1 }],
        "abc": [0.333333, 0.666667, 0.91929975],
        "properties": { "magmom": -0.0 },
        "label": "K",
        "xyz": [-9.594749559971305e-6, 3.34255845795109, 9.416034953269829]
      },
      {
        "species": [{ "element": "K", "occu": 1 }],
        "abc": [0.666667, 0.333333, 0.41929975],
        "properties": { "magmom": -0.0 },
        "label": "K",
        "xyz": [2.89474575474956, 1.6712706920489098, 4.29472661326983]
      },
      {
        "species": [{ "element": "K", "occu": 1 }],
        "abc": [0.0, 0.0, 0.25],
        "properties": { "magmom": -0.0 },
        "label": "K",
        "xyz": [0.0, 0.0, 2.56065417]
      },
      {
        "species": [{ "element": "K", "occu": 1 }],
        "abc": [-0.0, -0.0, 0.75],
        "properties": { "magmom": -0.0 },
        "label": "K",
        "xyz": [0.0, 0.0, 7.68196251]
      },
      {
        "species": [{ "element": "K", "occu": 1 }],
        "abc": [0.333333, 0.666667, 0.58070025],
        "properties": { "magmom": -0.0 },
        "label": "K",
        "xyz": [-9.594749559971305e-6, 3.34255845795109, 5.94789006673017]
      },
      {
        "species": [{ "element": "K", "occu": 1 }],
        "abc": [0.666667, 0.333333, 0.08070125],
        "properties": { "magmom": -0.0 },
        "label": "K",
        "xyz": [2.89474575474956, 1.6712706920489098, 0.82659196934685]
      },
      {
        "species": [{ "element": "As", "occu": 1 }],
        "abc": [0.666666, 0.333333999999999, 0.75],
        "properties": { "magmom": 0.0 },
        "label": "As",
        "xyz": [2.894737070500883, 1.671275705902175, 7.68196251]
      },
      {
        "species": [{ "element": "As", "occu": 1 }],
        "abc": [0.333333999999999, 0.666666, 0.25],
        "properties": { "magmom": 0.0 },
        "label": "As",
        "xyz": [-9.105008855758712e-7, 3.34255344409782, 2.56065417]
      }
    ]
  },
  "task_ids": null,
  "uncorrected_energy_per_atom": null,
  "energy_per_atom": -2.3193812025,
  "formation_energy_per_atom": -0.30332327731249903,
  "energy_above_hull": 0.0,
  "is_stable": true,
  "equilibrium_reaction_energy_per_atom": null,
  "decomposes_to": null,
  "xas": null,
  "grain_boundaries": null,
  "band_gap": 0.11180000000000001,
  "cbm": null,
  "vbm": null,
  "efermi": 0.53022712,
  "is_gap_direct": null,
  "is_metal": null,
  "es_source_calc_id": null,
  "bandstructure": null,
  "dos": null,
  "dos_energy_up": null,
  "dos_energy_down": null,
  "is_magnetic": null,
  "ordering": null,
  "total_magnetization": 0.0,
  "total_magnetization_normalized_vol": null,
  "total_magnetization_normalized_formula_units": null,
  "num_magnetic_sites": null,
  "num_unique_magnetic_sites": null,
  "types_of_magnetic_species": null,
  "bulk_modulus": null,
  "shear_modulus": null,
  "universal_anisotropy": null,
  "homogeneous_poisson": null,
  "e_total": null,
  "e_ionic": null,
  "e_electronic": null,
  "n": null,
  "e_ij_max": null,
  "weighted_surface_energy_EV_PER_ANG2": null,
  "weighted_surface_energy": null,
  "weighted_work_function": null,
  "surface_anisotropy": null,
  "shape_factor": null,
  "has_reconstructed": null,
  "possible_species": null,
  "has_props": null,
  "theoretical": null,
  "database_IDs": null,
  "fields_not_requested": [
    "builder_meta",
    "nsites",
    "elements",
    "nelements",
    "composition",
    "composition_reduced",
    "chemsys",
    "symmetry",
    "property_name",
    "deprecated",
    "deprecation_reasons",
    "last_updated",
    "origins",
    "warnings",
    "task_ids",
    "uncorrected_energy_per_atom",
    "equilibrium_reaction_energy_per_atom",
    "decomposes_to",
    "xas",
    "grain_boundaries",
    "cbm",
    "vbm",
    "is_gap_direct",
    "is_metal",
    "es_source_calc_id",
    "bandstructure",
    "dos",
    "dos_energy_up",
    "dos_energy_down",
    "is_magnetic",
    "ordering",
    "total_magnetization_normalized_vol",
    "total_magnetization_normalized_formula_units",
    "num_magnetic_sites",
    "num_unique_magnetic_sites",
    "types_of_magnetic_species",
    "bulk_modulus",
    "shear_modulus",
    "universal_anisotropy",
    "homogeneous_poisson",
    "e_total",
    "e_ionic",
    "e_electronic",
    "n",
    "e_ij_max",
    "weighted_surface_energy_EV_PER_ANG2",
    "weighted_surface_energy",
    "weighted_work_function",
    "surface_anisotropy",
    "shape_factor",
    "has_reconstructed",
    "possible_species",
    "has_props",
    "theoretical",
    "database_IDs"
  ]
}
