{
  "builder_meta": null,
  "nsites": null,
  "elements": null,
  "nelements": null,
  "composition": null,
  "composition_reduced": null,
  "formula_pretty": "K3Bi",
  "formula_anonymous": "AB3",
  "chemsys": null,
  "volume": 1092.5586505131587,
  "density": 2.975361818034186,
  "density_atomic": 45.52327710471494,
  "symmetry": null,
  "property_name": null,
  "material_id": "mp-31286",
  "deprecated": null,
  "deprecation_reasons": null,
  "last_updated": null,
  "origins": null,
  "warnings": null,
  "structure": {
    "@module": "pymatgen.core.structure",
    "@class": "Structure",
    "charge": 0,
    "lattice": {
      "matrix": [
        [10.72134912, 0.0, -0.0],
        [-5.36067405, 9.28496121, 0.0],
        [-0.0, -0.0, 10.97527038]
      ],
      "pbc": [true, true, true],
      "a": 10.72134912,
      "b": 10.721349306013122,
      "c": 10.97527038,
      "alpha": 90.0,
      "beta": 90.0,
      "gamma": 119.99999627895791,
      "volume": 1092.5586505131587
    },
    "properties": {},
    "sites": [
      {
        "species": [{ "element": "K", "occu": 1 }],
        "abc": [0.0, 0.0, 0.78474727],
        "properties": { "magmom": 0.0 },
        "label": "K",
        "xyz": [0.0, 0.0, 8.612813468216862]
      },
      {
        "species": [{ "element": "K", "occu": 1 }],
        "abc": [0.0, 0.0, 0.28474727],
        "properties": { "magmom": 0.0 },
        "label": "K",
        "xyz": [0.0, 0.0, 3.1251782782168624]
      },
      {
        "species": [{ "element": "K", "occu": 1 }],
        "abc": [0.666667, 0.333333, 0.23079984],
        "properties": { "magmom": 0.0 },
        "label": "K",
        "xyz": [5.36068009067439, 3.09498397501293, 2.5330906476607393]
      },
      {
        "species": [{ "element": "K", "occu": 1 }],
        "abc": [0.333333, 0.666667, 0.73079984],
        "properties": { "magmom": 0.0 },
        "label": "K",
        "xyz": [-5.020674390454616e-6, 6.1899772349870705, 8.020725837660738]
      },
      {
        "species": [{ "element": "K", "occu": 1 }],
        "abc": [0.666667, 0.333333, 0.73079984],
        "properties": { "magmom": 0.0 },
        "label": "K",
        "xyz": [5.36068009067439, 3.09498397501293, 8.020725837660738]
      },
      {
        "species": [{ "element": "K", "occu": 1 }],
        "abc": [0.333333, 0.666667, 0.23079984],
        "properties": { "magmom": 0.0 },
        "label": "K",
        "xyz": [-5.020674390454616e-6, 6.1899772349870705, 2.5330906476607393]
      },
      {
        "species": [{ "element": "K", "occu": 1 }],
        "abc": [0.31092081, 0.31092081, 0.08254708],
        "properties": { "magmom": 0.0 },
        "label": "K",
        "xyz": [1.6667454349112065, 2.88688766023178, 0.9059765220794903]
      },
      {
        "species": [{ "element": "K", "occu": 1 }],
        "abc": [-0.0, 0.31092081, 0.58254708],
        "properties": { "magmom": 0.0 },
        "label": "K",
        "xyz": [-1.6667451177719805, 2.88688766023178, 6.39361171207949]
      },
      {
        "species": [{ "element": "K", "occu": 1 }],
        "abc": [0.31092081, -0.0, 0.58254708],
        "properties": { "magmom": 0.0 },
        "label": "K",
        "xyz": [3.333490552683187, 0.0, 6.39361171207949]
      },
      {
        "species": [{ "element": "K", "occu": 1 }],
        "abc": [0.6890791900000001, 0.0, 0.08254708],
        "properties": { "magmom": 0.0 },
        "label": "K",
        "xyz": [7.387858567316813, 0.0, 0.9059765220794903]
      },
      {
        "species": [{ "element": "K", "occu": 1 }],
        "abc": [0.0, 0.6890791900000001, 0.08254708],
        "properties": { "magmom": 0.0 },
        "label": "K",
        "xyz": [-3.6939289322280198, 6.398073549768221, 0.9059765220794903]
      },
      {
        "species": [{ "element": "K", "occu": 1 }],
        "abc": [0.6890791900000001, 0.6890791900000001, 0.58254708],
        "properties": { "magmom": 0.0 },
        "label": "K",
        "xyz": [3.693929635088793, 6.398073549768221, 6.39361171207949]
      },
      {
        "species": [{ "element": "K", "occu": 1 }],
        "abc": [0.35372107, 0.35372107, 0.41819353000000004],
        "properties": { "magmom": 0.0 },
        "label": "K",
        "xyz": [1.8961837216827249, 3.2842864141096952, 4.589787062916642]
      },
      {
        "species": [{ "element": "K", "occu": 1 }],
        "abc": [0.0, 0.35372107, 0.91819353],
        "properties": { "magmom": 0.0 },
        "label": "K",
        "xyz": [-1.8961833608872336, 3.2842864141096952, 10.07742225291664]
      },
      {
        "species": [{ "element": "K", "occu": 1 }],
        "abc": [0.35372107, 0.0, 0.91819353],
        "properties": { "magmom": 0.0 },
        "label": "K",
        "xyz": [3.7923670825699585, 0.0, 10.07742225291664]
      },
      {
        "species": [{ "element": "K", "occu": 1 }],
        "abc": [0.64627893, -0.0, 0.41819353000000004],
        "properties": { "magmom": 0.0 },
        "label": "K",
        "xyz": [6.928982037430042, 0.0, 4.589787062916642]
      },
      {
        "species": [{ "element": "K", "occu": 1 }],
        "abc": [-0.0, 0.64627893, 0.41819353000000004],
        "properties": { "magmom": 0.0 },
        "label": "K",
        "xyz": [-3.464490689112767, 6.000674795890306, 4.589787062916642]
      },
      {
        "species": [{ "element": "K", "occu": 1 }],
        "abc": [0.64627893, 0.64627893, 0.91819353],
        "properties": { "magmom": 0.0 },
        "label": "K",
        "xyz": [3.464491348317275, 6.000674795890306, 10.07742225291664]
      },
      {
        "species": [{ "element": "Bi", "occu": 1 }],
        "abc": [0.66824155, 0.66824155, 0.25047873],
        "properties": { "magmom": -0.0 },
        "label": "Bi",
        "xyz": [3.5822258178231583, 6.204596870660276, 2.7490717861890173]
      },
      {
        "species": [{ "element": "Bi", "occu": 1 }],
        "abc": [-0.0, 0.66824155, 0.75047873],
        "properties": { "magmom": -0.0 },
        "label": "Bi",
        "xyz": [-3.582225136216777, 6.204596870660276, 8.236706976189017]
      },
      {
        "species": [{ "element": "Bi", "occu": 1 }],
        "abc": [0.66824155, -0.0, 0.75047873],
        "properties": { "magmom": -0.0 },
        "label": "Bi",
        "xyz": [7.1644509540399355, 0.0, 8.236706976189017]
      },
      {
        "species": [{ "element": "Bi", "occu": 1 }],
        "abc": [0.33175845, 0.0, 0.25047873],
        "properties": { "magmom": -0.0 },
        "label": "Bi",
        "xyz": [3.5568981659600634, 0.0, 2.7490717861890173]
      },
      {
        "species": [{ "element": "Bi", "occu": 1 }],
        "abc": [0.0, 0.33175845, 0.25047873],
        "properties": { "magmom": -0.0 },
        "label": "Bi",
        "xyz": [-1.7784489137832225, 3.0803643393397246, 2.7490717861890173]
      },
      {
        "species": [{ "element": "Bi", "occu": 1 }],
        "abc": [0.33175845, 0.33175845, 0.75047873],
        "properties": { "magmom": -0.0 },
        "label": "Bi",
        "xyz": [1.778449252176841, 3.0803643393397246, 8.236706976189017]
      }
    ]
  },
  "task_ids": null,
  "uncorrected_energy_per_atom": null,
  "energy_per_atom": -19.64048955625,
  "formation_energy_per_atom": -0.5012231678125,
  "energy_above_hull": 0.0,
  "is_stable": true,
  "equilibrium_reaction_energy_per_atom": null,
  "decomposes_to": null,
  "xas": null,
  "grain_boundaries": null,
  "band_gap": 0.024699999999999,
  "cbm": null,
  "vbm": null,
  "efermi": 0.53790796,
  "is_gap_direct": null,
  "is_metal": null,
  "es_source_calc_id": null,
  "bandstructure": null,
  "dos": null,
  "dos_energy_up": null,
  "dos_energy_down": null,
  "is_magnetic": null,
  "ordering": null,
  "total_magnetization": 0.0,
  "total_magnetization_normalized_vol": null,
  "total_magnetization_normalized_formula_units": null,
  "num_magnetic_sites": null,
  "num_unique_magnetic_sites": null,
  "types_of_magnetic_species": null,
  "bulk_modulus": null,
  "shear_modulus": null,
  "universal_anisotropy": null,
  "homogeneous_poisson": null,
  "e_total": null,
  "e_ionic": null,
  "e_electronic": null,
  "n": null,
  "e_ij_max": null,
  "weighted_surface_energy_EV_PER_ANG2": null,
  "weighted_surface_energy": null,
  "weighted_work_function": null,
  "surface_anisotropy": null,
  "shape_factor": null,
  "has_reconstructed": null,
  "possible_species": null,
  "has_props": null,
  "theoretical": null,
  "database_IDs": null,
  "fields_not_requested": [
    "builder_meta",
    "nsites",
    "elements",
    "nelements",
    "composition",
    "composition_reduced",
    "chemsys",
    "symmetry",
    "property_name",
    "deprecated",
    "deprecation_reasons",
    "last_updated",
    "origins",
    "warnings",
    "task_ids",
    "uncorrected_energy_per_atom",
    "equilibrium_reaction_energy_per_atom",
    "decomposes_to",
    "xas",
    "grain_boundaries",
    "cbm",
    "vbm",
    "is_gap_direct",
    "is_metal",
    "es_source_calc_id",
    "bandstructure",
    "dos",
    "dos_energy_up",
    "dos_energy_down",
    "is_magnetic",
    "ordering",
    "total_magnetization_normalized_vol",
    "total_magnetization_normalized_formula_units",
    "num_magnetic_sites",
    "num_unique_magnetic_sites",
    "types_of_magnetic_species",
    "bulk_modulus",
    "shear_modulus",
    "universal_anisotropy",
    "homogeneous_poisson",
    "e_total",
    "e_ionic",
    "e_electronic",
    "n",
    "e_ij_max",
    "weighted_surface_energy_EV_PER_ANG2",
    "weighted_surface_energy",
    "weighted_work_function",
    "surface_anisotropy",
    "shape_factor",
    "has_reconstructed",
    "possible_species",
    "has_props",
    "theoretical",
    "database_IDs"
  ]
}
