{"builder_meta": null, "nsites": null, "elements": null, "nelements": null, "composition": null, "composition_reduced": null, "formula_pretty": "K3Bi2", "formula_anonymous": "A2B3", "chemsys": null, "volume": 419.3061699905372, "density": 4.239446323865866, "density_atomic": 41.930616999053726, "symmetry": null, "property_name": null, "material_id": "mp-1206573", "deprecated": null, "deprecation_reasons": null, "last_updated": null, "origins": null, "warnings": null, "structure": {"@module": "pymatgen.core.structure", "@class": "Structure", "charge": 0, "lattice": {"matrix": [[4.90477612, 4.70600122, -0.00530419], [-4.9047751, 4.70600121, -0.00530419], [-0.0, 2.61370011, 9.08007006]], "pbc": [true, true, true], "a": 6.7973012589111645, "b": 6.797300515979343, "c": 9.448761853254766, "alpha": 79.00272560049632, "beta": 79.00272679370546, "gamma": 92.36965978345454, "volume": 419.3061699905372}, "properties": {}, "sites": [{"species": [{"element": "K", "occu": 1}], "abc": [0.65552802, 0.76057052, 0.51620416], "properties": {"magmom": 0.0}, "label": "K", "xyz": [-0.5152091698031698, 8.013364319048971, 4.679658682348568]}, {"species": [{"element": "K", "occu": 1}], "abc": [0.34447198, 0.23942948, 0.48379584000000003], "properties": {"magmom": 0.0}, "label": "K", "xyz": [0.5152101898031696, 4.01233822095103, 4.389802997651433]}, {"species": [{"element": "K", "occu": 1}], "abc": [0.23942948, 0.34447198, 0.98379584], "properties": {"magmom": 0.0}, "label": "K", "xyz": [-0.5152095942236805, 5.319188274900603, 8.929838027651433]}, {"species": [{"element": "K", "occu": 1}], "abc": [0.76057052, 0.65552802, 0.01620416], "properties": {"magmom": 0.0}, "label": "K", "xyz": [0.5152106142236805, 6.706514265099396, 0.139623652348567]}, {"species": [{"element": "K", "occu": 1}], "abc": [0.84374363, 0.15625637, 0.75], "properties": {"magmom": 0.0}, "label": "K", "xyz": [3.371971255033728, 6.666276300937437, 6.804748355]}, {"species": [{"element": "K", "occu": 1}], "abc": [0.15625637, 0.84374363, 0.25], "properties": {"magmom": 0.0}, "label": "K", "xyz": [-3.371970235033728, 5.3594262390625635, 2.264713325]}, {"species": [{"element": "Bi", "occu": 1}], "abc": [0.3195504, 0.88623463, 0.845055599999999], "properties": {"magmom": 0.003}, "label": "Bi", "xyz": [-2.779458374925265, 7.8831477280515045, 7.666768339697052]}, {"species": [{"element": "Bi", "occu": 1}], "abc": [0.6804496, 0.11376537, 0.154944399999999], "properties": {"magmom": 0.003}, "label": "Bi", "xyz": [2.779459394925265, 4.142554811948491, 1.4026933403029307]}, {"species": [{"element": "Bi", "occu": 1}], "abc": [0.11376537, 0.6804496, 0.6549444], "properties": {"magmom": 0.003}, "label": "Bi", "xyz": [-2.7794585848259956, 5.449404861281652, 5.94272837030294]}, {"species": [{"element": "Bi", "occu": 1}], "abc": [0.88623463, 0.3195504, 0.345055599999999], "properties": {"magmom": 0.003}, "label": "Bi", "xyz": [2.7794596048259956, 6.576297678718347, 3.1267333096970513]}]}, "task_ids": null, "uncorrected_energy_per_atom": null, "energy_per_atom": -27.47532344, "formation_energy_per_atom": -0.46345558025000105, "energy_above_hull": 0.025073801428572, "is_stable": false, "equilibrium_reaction_energy_per_atom": null, "decomposes_to": null, "xas": null, "grain_boundaries": null, "band_gap": 0.0, "cbm": null, "vbm": null, "efermi": 1.55397487, "is_gap_direct": null, "is_metal": null, "es_source_calc_id": null, "bandstructure": null, "dos": null, "dos_energy_up": null, "dos_energy_down": null, "is_magnetic": null, "ordering": null, "total_magnetization": 0.0183155, "total_magnetization_normalized_vol": null, "total_magnetization_normalized_formula_units": null, "num_magnetic_sites": null, "num_unique_magnetic_sites": null, "types_of_magnetic_species": null, "bulk_modulus": null, "shear_modulus": null, "universal_anisotropy": null, "homogeneous_poisson": null, "e_total": null, "e_ionic": null, "e_electronic": null, "n": null, "e_ij_max": null, "weighted_surface_energy_EV_PER_ANG2": null, "weighted_surface_energy": null, "weighted_work_function": null, "surface_anisotropy": null, "shape_factor": null, "has_reconstructed": null, "possible_species": null, "has_props": null, "theoretical": null, "database_IDs": null, "fields_not_requested": ["builder_meta", "nsites", "elements", "nelements", "composition", "composition_reduced", "chemsys", "symmetry", "property_name", "deprecated", "deprecation_reasons", "last_updated", "origins", "warnings", "task_ids", "uncorrected_energy_per_atom", "equilibrium_reaction_energy_per_atom", "decomposes_to", "xas", "grain_boundaries", "cbm", "vbm", "is_gap_direct", "is_metal", "es_source_calc_id", "bandstructure", "dos", "dos_energy_up", "dos_energy_down", "is_magnetic", "ordering", "total_magnetization_normalized_vol", "total_magnetization_normalized_formula_units", "num_magnetic_sites", "num_unique_magnetic_sites", "types_of_magnetic_species", "bulk_modulus", "shear_modulus", "universal_anisotropy", "homogeneous_poisson", "e_total", "e_ionic", "e_electronic", "n", "e_ij_max", "weighted_surface_energy_EV_PER_ANG2", "weighted_surface_energy", "weighted_work_function", "surface_anisotropy", "shape_factor", "has_reconstructed", "possible_species", "has_props", "theoretical", "database_IDs"]}