{"builder_meta": null, "nsites": null, "elements": null, "nelements": null, "composition": null, "composition_reduced": null, "formula_pretty": "K3Er", "formula_anonymous": "AB3", "chemsys": null, "volume": 451.91213492784965, "density": 2.091171406932142, "density_atomic": 56.489016865981206, "symmetry": null, "property_name": null, "material_id": "mp-1184906", "deprecated": null, "deprecation_reasons": null, "last_updated": null, "origins": null, "warnings": null, "structure": {"@module": "pymatgen.core.structure", "@class": "Structure", "charge": 0, "lattice": {"matrix": [[4.298095, -7.444519, 0.0], [4.298095, 7.444519, 0.0], [0.0, 0.0, 7.061734]], "pbc": [true, true, true], "a": 8.596190072955926, "b": 8.596190072955926, "c": 7.061734, "alpha": 90.0, "beta": 90.0, "gamma": 120.00000056149585, "volume": 451.91213492784965}, "properties": {}, "sites": [{"species": [{"element": "K", "occu": 1}], "abc": [0.172298999999999, 0.344599, 0.25], "properties": {"magmom": 0.005}, "label": "K", "xyz": [2.2216767093099956, 1.282690623700007, 1.7654335]}, {"species": [{"element": "K", "occu": 1}], "abc": [0.655401, 0.827700999999999, 0.25], "properties": {"magmom": 0.004}, "label": "K", "xyz": [6.374513290689996, 1.2826906236999926, 1.7654335]}, {"species": [{"element": "K", "occu": 1}], "abc": [0.172298999999999, 0.827700999999999, 0.25], "properties": {"magmom": 0.005}, "label": "K", "xyz": [4.298094999999991, 4.879152641638, 1.7654335]}, {"species": [{"element": "K", "occu": 1}], "abc": [0.827700999999999, 0.655401, 0.75], "properties": {"magmom": 0.005}, "label": "K", "xyz": [6.374513290689996, -1.2826906236999926, 5.2963005]}, {"species": [{"element": "K", "occu": 1}], "abc": [0.344599, 0.172298999999999, 0.75], "properties": {"magmom": 0.005}, "label": "K", "xyz": [2.2216767093099956, -1.282690623700007, 5.2963005]}, {"species": [{"element": "K", "occu": 1}], "abc": [0.827700999999999, 0.172298999999999, 0.75], "properties": {"magmom": 0.005}, "label": "K", "xyz": [4.298094999999991, -4.879152641638, 5.2963005]}, {"species": [{"element": "Er", "occu": 1}], "abc": [0.333333, 0.666667, 0.75], "properties": {"magmom": 0.23500000000000001}, "label": "Er", "xyz": [4.298095, 2.481511296346, 5.2963005]}, {"species": [{"element": "Er", "occu": 1}], "abc": [0.666667, 0.333333, 0.25], "properties": {"magmom": 0.233}, "label": "Er", "xyz": [4.298095, -2.481511296346, 1.7654335]}]}, "task_ids": null, "uncorrected_energy_per_atom": null, "energy_per_atom": -12.411343173604168, "formation_energy_per_atom": 0.583713570249999, "energy_above_hull": 0.583713570249999, "is_stable": false, "equilibrium_reaction_energy_per_atom": null, "decomposes_to": null, "xas": null, "grain_boundaries": null, "band_gap": 0.0, "cbm": null, "vbm": null, "efermi": 0.41193514000000003, "is_gap_direct": null, "is_metal": null, "es_source_calc_id": null, "bandstructure": null, "dos": null, "dos_energy_up": null, "dos_energy_down": null, "is_magnetic": null, "ordering": null, "total_magnetization": 1.1666863, "total_magnetization_normalized_vol": null, "total_magnetization_normalized_formula_units": null, "num_magnetic_sites": null, "num_unique_magnetic_sites": null, "types_of_magnetic_species": null, "bulk_modulus": null, "shear_modulus": null, "universal_anisotropy": null, "homogeneous_poisson": null, "e_total": null, "e_ionic": null, "e_electronic": null, "n": null, "e_ij_max": null, "weighted_surface_energy_EV_PER_ANG2": null, "weighted_surface_energy": null, "weighted_work_function": null, "surface_anisotropy": null, "shape_factor": null, "has_reconstructed": null, "possible_species": null, "has_props": null, "theoretical": null, "database_IDs": null, "fields_not_requested": ["builder_meta", "nsites", "elements", "nelements", "composition", "composition_reduced", "chemsys", "symmetry", "property_name", "deprecated", "deprecation_reasons", "last_updated", "origins", "warnings", "task_ids", "uncorrected_energy_per_atom", "equilibrium_reaction_energy_per_atom", "decomposes_to", "xas", "grain_boundaries", "cbm", "vbm", "is_gap_direct", "is_metal", "es_source_calc_id", "bandstructure", "dos", "dos_energy_up", "dos_energy_down", "is_magnetic", "ordering", "total_magnetization_normalized_vol", "total_magnetization_normalized_formula_units", "num_magnetic_sites", "num_unique_magnetic_sites", "types_of_magnetic_species", "bulk_modulus", "shear_modulus", "universal_anisotropy", "homogeneous_poisson", "e_total", "e_ionic", "e_electronic", "n", "e_ij_max", "weighted_surface_energy_EV_PER_ANG2", "weighted_surface_energy", "weighted_work_function", "surface_anisotropy", "shape_factor", "has_reconstructed", "possible_species", "has_props", "theoretical", "database_IDs"]}