{
  "builder_meta": null,
  "nsites": null,
  "elements": null,
  "nelements": null,
  "composition": null,
  "composition_reduced": null,
  "formula_pretty": "K3Eu",
  "formula_anonymous": "AB3",
  "chemsys": null,
  "volume": 542.224666195852,
  "density": 1.6491869527685572,
  "density_atomic": 67.7780832744815,
  "symmetry": null,
  "property_name": null,
  "material_id": "mp-1185259",
  "deprecated": null,
  "deprecation_reasons": null,
  "last_updated": null,
  "origins": null,
  "warnings": null,
  "structure": {
    "@module": "pymatgen.core.structure",
    "@class": "Structure",
    "charge": 0,
    "lattice": {
      "matrix": [
        [4.584780999999999, -7.941074, 0.0],
        [4.584780999999999, 7.941074, 0.0],
        [0.0, 0.0, 7.446487]
      ],
      "pbc": [true, true, true],
      "a": 9.16956231733211,
      "b": 9.16956231733211,
      "c": 7.446487,
      "alpha": 90.0,
      "beta": 90.0,
      "gamma": 120.00000228958838,
      "volume": 542.2246661958519
    },
    "properties": {},
    "sites": [
      {
        "species": [{ "element": "K", "occu": 1 }],
        "abc": [0.168388999999999, 0.336777999999999, 0.25],
        "properties": { "magmom": 0.006 },
        "label": "K",
        "xyz": [2.3160800634269902, 1.3371895097860003, 1.86162175]
      },
      {
        "species": [{ "element": "K", "occu": 1 }],
        "abc": [0.663222, 0.831611, 0.25],
        "properties": { "magmom": 0.007 },
        "label": "K",
        "xyz": [6.853481936572997, 1.3371895097859996, 1.86162175]
      },
      {
        "species": [{ "element": "K", "occu": 1 }],
        "abc": [0.168388999999999, 0.831611, 0.25],
        "properties": { "magmom": 0.007 },
        "label": "K",
        "xyz": [4.584780999999994, 5.266694980428007, 1.86162175]
      },
      {
        "species": [{ "element": "K", "occu": 1 }],
        "abc": [0.831611, 0.663222, 0.75],
        "properties": { "magmom": 0.007 },
        "label": "K",
        "xyz": [6.853481936572997, -1.3371895097859996, 5.58486525]
      },
      {
        "species": [{ "element": "K", "occu": 1 }],
        "abc": [0.336777999999999, 0.168388999999999, 0.75],
        "properties": { "magmom": 0.008 },
        "label": "K",
        "xyz": [2.3160800634269902, -1.3371895097860003, 5.58486525]
      },
      {
        "species": [{ "element": "K", "occu": 1 }],
        "abc": [0.831611, 0.168388999999999, 0.75],
        "properties": { "magmom": 0.008 },
        "label": "K",
        "xyz": [4.584780999999994, -5.266694980428007, 5.58486525]
      },
      {
        "species": [{ "element": "Eu", "occu": 1 }],
        "abc": [0.333333, 0.666667, 0.75],
        "properties": { "magmom": 7.012 },
        "label": "Eu",
        "xyz": [4.584780999999999, 2.6470299607160004, 5.58486525]
      },
      {
        "species": [{ "element": "Eu", "occu": 1 }],
        "abc": [0.666667, 0.333333, 0.25],
        "properties": { "magmom": 7.011 },
        "label": "Eu",
        "xyz": [4.584780999999999, -2.6470299607160004, 1.86162175]
      }
    ]
  },
  "task_ids": null,
  "uncorrected_energy_per_atom": null,
  "energy_per_atom": -13.9580445819375,
  "formation_energy_per_atom": 0.18587404899999801,
  "energy_above_hull": 0.18587404899999801,
  "is_stable": false,
  "equilibrium_reaction_energy_per_atom": null,
  "decomposes_to": null,
  "xas": null,
  "grain_boundaries": null,
  "band_gap": 0.0,
  "cbm": null,
  "vbm": null,
  "efermi": 0.16772132,
  "is_gap_direct": null,
  "is_metal": null,
  "es_source_calc_id": null,
  "bandstructure": null,
  "dos": null,
  "dos_energy_up": null,
  "dos_energy_down": null,
  "is_magnetic": null,
  "ordering": null,
  "total_magnetization": 15.3431225,
  "total_magnetization_normalized_vol": null,
  "total_magnetization_normalized_formula_units": null,
  "num_magnetic_sites": null,
  "num_unique_magnetic_sites": null,
  "types_of_magnetic_species": null,
  "bulk_modulus": null,
  "shear_modulus": null,
  "universal_anisotropy": null,
  "homogeneous_poisson": null,
  "e_total": null,
  "e_ionic": null,
  "e_electronic": null,
  "n": null,
  "e_ij_max": null,
  "weighted_surface_energy_EV_PER_ANG2": null,
  "weighted_surface_energy": null,
  "weighted_work_function": null,
  "surface_anisotropy": null,
  "shape_factor": null,
  "has_reconstructed": null,
  "possible_species": null,
  "has_props": null,
  "theoretical": null,
  "database_IDs": null,
  "fields_not_requested": [
    "builder_meta",
    "nsites",
    "elements",
    "nelements",
    "composition",
    "composition_reduced",
    "chemsys",
    "symmetry",
    "property_name",
    "deprecated",
    "deprecation_reasons",
    "last_updated",
    "origins",
    "warnings",
    "task_ids",
    "uncorrected_energy_per_atom",
    "equilibrium_reaction_energy_per_atom",
    "decomposes_to",
    "xas",
    "grain_boundaries",
    "cbm",
    "vbm",
    "is_gap_direct",
    "is_metal",
    "es_source_calc_id",
    "bandstructure",
    "dos",
    "dos_energy_up",
    "dos_energy_down",
    "is_magnetic",
    "ordering",
    "total_magnetization_normalized_vol",
    "total_magnetization_normalized_formula_units",
    "num_magnetic_sites",
    "num_unique_magnetic_sites",
    "types_of_magnetic_species",
    "bulk_modulus",
    "shear_modulus",
    "universal_anisotropy",
    "homogeneous_poisson",
    "e_total",
    "e_ionic",
    "e_electronic",
    "n",
    "e_ij_max",
    "weighted_surface_energy_EV_PER_ANG2",
    "weighted_surface_energy",
    "weighted_work_function",
    "surface_anisotropy",
    "shape_factor",
    "has_reconstructed",
    "possible_species",
    "has_props",
    "theoretical",
    "database_IDs"
  ]
}
