{"builder_meta": null, "nsites": null, "elements": null, "nelements": null, "composition": null, "composition_reduced": null, "formula_pretty": "K3Ga", "formula_anonymous": "AB3", "chemsys": null, "volume": 187.96145735051454, "density": 1.652203241456948, "density_atomic": 46.990364337628634, "symmetry": null, "property_name": null, "material_id": "mp-1184898", "deprecated": null, "deprecation_reasons": null, "last_updated": null, "origins": null, "warnings": null, "structure": {"@module": "pymatgen.core.structure", "@class": "Structure", "charge": 0, "lattice": {"matrix": [[-2.883978, 2.883978, 5.649694], [2.883978, -2.883978, 5.649694], [2.883978, 2.883978, -5.649694]], "pbc": [true, true, true], "a": 6.9680485433587505, "b": 6.9680485433587505, "c": 6.9680485433587505, "alpha": 131.10163095371706, "beta": 131.10163095371706, "gamma": 71.65165847643708, "volume": 187.96145735051454}, "properties": {}, "sites": [{"species": [{"element": "K", "occu": 1}], "abc": [0.75, 0.25, 0.5], "properties": {"magmom": 0.012}, "label": "K", "xyz": [-2.220446049250313e-16, 2.883978, 2.824847]}, {"species": [{"element": "K", "occu": 1}], "abc": [0.25, 0.75, 0.5], "properties": {"magmom": 0.012}, "label": "K", "xyz": [2.883978, -2.220446049250313e-16, 2.824847]}, {"species": [{"element": "K", "occu": 1}], "abc": [0.5, 0.5, 0.0], "properties": {"magmom": 0.008}, "label": "K", "xyz": [0.0, 0.0, 5.649694]}, {"species": [{"element": "Ga", "occu": 1}], "abc": [0.0, 0.0, 0.0], "properties": {"magmom": 0.163}, "label": "Ga", "xyz": [0.0, 0.0, 0.0]}]}, "task_ids": null, "uncorrected_energy_per_atom": null, "energy_per_atom": -1.4256348025, "formation_energy_per_atom": 0.17991649518750003, "energy_above_hull": 0.237455170166667, "is_stable": false, "equilibrium_reaction_energy_per_atom": null, "decomposes_to": null, "xas": null, "grain_boundaries": null, "band_gap": 0.0, "cbm": null, "vbm": null, "efermi": 0.58960848, "is_gap_direct": null, "is_metal": null, "es_source_calc_id": null, "bandstructure": null, "dos": null, "dos_energy_up": null, "dos_energy_down": null, "is_magnetic": null, "ordering": null, "total_magnetization": 0.8654753, "total_magnetization_normalized_vol": null, "total_magnetization_normalized_formula_units": null, "num_magnetic_sites": null, "num_unique_magnetic_sites": null, "types_of_magnetic_species": null, "bulk_modulus": null, "shear_modulus": null, "universal_anisotropy": null, "homogeneous_poisson": null, "e_total": null, "e_ionic": null, "e_electronic": null, "n": null, "e_ij_max": null, "weighted_surface_energy_EV_PER_ANG2": null, "weighted_surface_energy": null, "weighted_work_function": null, "surface_anisotropy": null, "shape_factor": null, "has_reconstructed": null, "possible_species": null, "has_props": null, "theoretical": null, "database_IDs": null, "fields_not_requested": ["builder_meta", "nsites", "elements", "nelements", "composition", "composition_reduced", "chemsys", "symmetry", "property_name", "deprecated", "deprecation_reasons", "last_updated", "origins", "warnings", "task_ids", "uncorrected_energy_per_atom", "equilibrium_reaction_energy_per_atom", "decomposes_to", "xas", "grain_boundaries", "cbm", "vbm", "is_gap_direct", "is_metal", "es_source_calc_id", "bandstructure", "dos", "dos_energy_up", "dos_energy_down", "is_magnetic", "ordering", "total_magnetization_normalized_vol", "total_magnetization_normalized_formula_units", "num_magnetic_sites", "num_unique_magnetic_sites", "types_of_magnetic_species", "bulk_modulus", "shear_modulus", "universal_anisotropy", "homogeneous_poisson", "e_total", "e_ionic", "e_electronic", "n", "e_ij_max", "weighted_surface_energy_EV_PER_ANG2", "weighted_surface_energy", "weighted_work_function", "surface_anisotropy", "shape_factor", "has_reconstructed", "possible_species", "has_props", "theoretical", "database_IDs"]}