{
  "builder_meta": null,
  "nsites": null,
  "elements": null,
  "nelements": null,
  "composition": null,
  "composition_reduced": null,
  "formula_pretty": "K3Ho",
  "formula_anonymous": "AB3",
  "chemsys": null,
  "volume": 450.4516658167678,
  "density": 2.080782640863461,
  "density_atomic": 56.30645822709597,
  "symmetry": null,
  "property_name": null,
  "material_id": "mp-1184912",
  "deprecated": null,
  "deprecation_reasons": null,
  "last_updated": null,
  "origins": null,
  "warnings": null,
  "structure": {
    "@module": "pymatgen.core.structure",
    "@class": "Structure",
    "charge": 0,
    "lattice": {
      "matrix": [
        [4.297408, -7.443329, 0.0],
        [4.297408, 7.443329, 0.0],
        [0.0, 0.0, 7.041163]
      ],
      "pbc": [true, true, true],
      "a": 8.594816002725421,
      "b": 8.594816002725421,
      "c": 7.041163,
      "alpha": 90.0,
      "beta": 90.0,
      "gamma": 120.00000002097923,
      "volume": 450.4516658167678
    },
    "properties": {},
    "sites": [
      {
        "species": [{ "element": "K", "occu": 1 }],
        "abc": [0.172369, 0.344738999999999, 0.25],
        "properties": { "magmom": 0.002 },
        "label": "K",
        "xyz": [2.222224056063996, 1.2830066197299927, 1.76029075]
      },
      {
        "species": [{ "element": "K", "occu": 1 }],
        "abc": [0.655261, 0.827631, 0.25],
        "properties": { "magmom": 0.002 },
        "label": "K",
        "xyz": [6.3725919439359995, 1.28300661973, 1.76029075]
      },
      {
        "species": [{ "element": "K", "occu": 1 }],
        "abc": [0.172369, 0.827631, 0.25],
        "properties": { "magmom": 0.002 },
        "label": "K",
        "xyz": [4.297408, 4.877330647198001, 1.76029075]
      },
      {
        "species": [{ "element": "K", "occu": 1 }],
        "abc": [0.827631, 0.655261, 0.75],
        "properties": { "magmom": 0.003 },
        "label": "K",
        "xyz": [6.3725919439359995, -1.28300661973, 5.28087225]
      },
      {
        "species": [{ "element": "K", "occu": 1 }],
        "abc": [0.344738999999999, 0.172369, 0.75],
        "properties": { "magmom": 0.003 },
        "label": "K",
        "xyz": [2.222224056063996, -1.2830066197299927, 5.28087225]
      },
      {
        "species": [{ "element": "K", "occu": 1 }],
        "abc": [0.827631, 0.172369, 0.75],
        "properties": { "magmom": 0.003 },
        "label": "K",
        "xyz": [4.297408, -4.877330647198001, 5.28087225]
      },
      {
        "species": [{ "element": "Ho", "occu": 1 }],
        "abc": [0.333333, 0.666667, 0.75],
        "properties": { "magmom": 0.128 },
        "label": "Ho",
        "xyz": [4.297408, 2.4811146288860004, 5.28087225]
      },
      {
        "species": [{ "element": "Ho", "occu": 1 }],
        "abc": [0.666667, 0.333333, 0.25],
        "properties": { "magmom": 0.127 },
        "label": "Ho",
        "xyz": [4.297408, -2.4811146288860004, 1.76029075]
      }
    ]
  },
  "task_ids": null,
  "uncorrected_energy_per_atom": null,
  "energy_per_atom": -12.151784445687499,
  "formation_energy_per_atom": 0.5822494852500011,
  "energy_above_hull": 0.5822494852500011,
  "is_stable": false,
  "equilibrium_reaction_energy_per_atom": null,
  "decomposes_to": null,
  "xas": null,
  "grain_boundaries": null,
  "band_gap": 0.0,
  "cbm": null,
  "vbm": null,
  "efermi": 0.42592572,
  "is_gap_direct": null,
  "is_metal": null,
  "es_source_calc_id": null,
  "bandstructure": null,
  "dos": null,
  "dos_energy_up": null,
  "dos_energy_down": null,
  "is_magnetic": null,
  "ordering": null,
  "total_magnetization": 0.6258671,
  "total_magnetization_normalized_vol": null,
  "total_magnetization_normalized_formula_units": null,
  "num_magnetic_sites": null,
  "num_unique_magnetic_sites": null,
  "types_of_magnetic_species": null,
  "bulk_modulus": null,
  "shear_modulus": null,
  "universal_anisotropy": null,
  "homogeneous_poisson": null,
  "e_total": null,
  "e_ionic": null,
  "e_electronic": null,
  "n": null,
  "e_ij_max": null,
  "weighted_surface_energy_EV_PER_ANG2": null,
  "weighted_surface_energy": null,
  "weighted_work_function": null,
  "surface_anisotropy": null,
  "shape_factor": null,
  "has_reconstructed": null,
  "possible_species": null,
  "has_props": null,
  "theoretical": null,
  "database_IDs": null,
  "fields_not_requested": [
    "builder_meta",
    "nsites",
    "elements",
    "nelements",
    "composition",
    "composition_reduced",
    "chemsys",
    "symmetry",
    "property_name",
    "deprecated",
    "deprecation_reasons",
    "last_updated",
    "origins",
    "warnings",
    "task_ids",
    "uncorrected_energy_per_atom",
    "equilibrium_reaction_energy_per_atom",
    "decomposes_to",
    "xas",
    "grain_boundaries",
    "cbm",
    "vbm",
    "is_gap_direct",
    "is_metal",
    "es_source_calc_id",
    "bandstructure",
    "dos",
    "dos_energy_up",
    "dos_energy_down",
    "is_magnetic",
    "ordering",
    "total_magnetization_normalized_vol",
    "total_magnetization_normalized_formula_units",
    "num_magnetic_sites",
    "num_unique_magnetic_sites",
    "types_of_magnetic_species",
    "bulk_modulus",
    "shear_modulus",
    "universal_anisotropy",
    "homogeneous_poisson",
    "e_total",
    "e_ionic",
    "e_electronic",
    "n",
    "e_ij_max",
    "weighted_surface_energy_EV_PER_ANG2",
    "weighted_surface_energy",
    "weighted_work_function",
    "surface_anisotropy",
    "shape_factor",
    "has_reconstructed",
    "possible_species",
    "has_props",
    "theoretical",
    "database_IDs"
  ]
}
