{"builder_meta": null, "nsites": null, "elements": null, "nelements": null, "composition": null, "composition_reduced": null, "formula_pretty": "K3N", "formula_anonymous": "AB3", "chemsys": null, "volume": 374.76194722338556, "density": 1.163572971709018, "density_atomic": 46.845243402923195, "symmetry": null, "property_name": null, "material_id": "mp-11801", "deprecated": null, "deprecation_reasons": null, "last_updated": null, "origins": null, "warnings": null, "structure": {"@module": "pymatgen.core.structure", "@class": "Structure", "charge": 0, "lattice": {"matrix": [[3.87462, -6.7110389999999995, 0.0], [3.87462, 6.7110389999999995, 0.0], [0.0, 0.0, 7.206205]], "pbc": [true, true, true], "a": 7.749240259788117, "b": 7.749240259788117, "c": 7.206205, "alpha": 90.0, "beta": 90.0, "gamma": 120.00000221795206, "volume": 374.7619472233855}, "properties": {}, "sites": [{"species": [{"element": "K", "occu": 1}], "abc": [0.0, 0.735633, 0.75], "properties": {"magmom": 0.0}, "label": "K", "xyz": [2.85029833446, 4.936861752686999, 5.40465375]}, {"species": [{"element": "K", "occu": 1}], "abc": [0.0, 0.264366999999999, 0.25], "properties": {"magmom": 0.0}, "label": "K", "xyz": [1.0243216655399963, 1.7741772473129933, 1.80155125]}, {"species": [{"element": "K", "occu": 1}], "abc": [0.735633, 0.735633, 0.25], "properties": {"magmom": 0.0}, "label": "K", "xyz": [5.70059666892, 0.0, 1.80155125]}, {"species": [{"element": "K", "occu": 1}], "abc": [0.735633, 0.0, 0.75], "properties": {"magmom": 0.0}, "label": "K", "xyz": [2.85029833446, -4.936861752686999, 5.40465375]}, {"species": [{"element": "K", "occu": 1}], "abc": [0.264366999999999, 0.264366999999999, 0.75], "properties": {"magmom": 0.0}, "label": "K", "xyz": [2.0486433310799925, 0.0, 5.40465375]}, {"species": [{"element": "K", "occu": 1}], "abc": [0.264366999999999, 0.0, 0.25], "properties": {"magmom": 0.0}, "label": "K", "xyz": [1.0243216655399963, -1.7741772473129933, 1.80155125]}, {"species": [{"element": "N", "occu": 1}], "abc": [0.0, 0.0, 0.5], "properties": {"magmom": -0.022}, "label": "N", "xyz": [0.0, 0.0, 3.6031025]}, {"species": [{"element": "N", "occu": 1}], "abc": [0.0, 0.0, 0.0], "properties": {"magmom": -0.021}, "label": "N", "xyz": [0.0, 0.0, 0.0]}]}, "task_ids": null, "uncorrected_energy_per_atom": null, "energy_per_atom": -6.425722896583334, "formation_energy_per_atom": 0.370162723416665, "energy_above_hull": 0.44386683466666704, "is_stable": false, "equilibrium_reaction_energy_per_atom": null, "decomposes_to": null, "xas": null, "grain_boundaries": null, "band_gap": 0.0, "cbm": null, "vbm": null, "efermi": -0.03193815, "is_gap_direct": null, "is_metal": null, "es_source_calc_id": null, "bandstructure": null, "dos": null, "dos_energy_up": null, "dos_energy_down": null, "is_magnetic": null, "ordering": null, "total_magnetization": 0.0153683, "total_magnetization_normalized_vol": null, "total_magnetization_normalized_formula_units": null, "num_magnetic_sites": null, "num_unique_magnetic_sites": null, "types_of_magnetic_species": null, "bulk_modulus": null, "shear_modulus": null, "universal_anisotropy": null, "homogeneous_poisson": null, "e_total": null, "e_ionic": null, "e_electronic": null, "n": null, "e_ij_max": null, "weighted_surface_energy_EV_PER_ANG2": null, "weighted_surface_energy": null, "weighted_work_function": null, "surface_anisotropy": null, "shape_factor": null, "has_reconstructed": null, "possible_species": null, "has_props": null, "theoretical": null, "database_IDs": null, "fields_not_requested": ["builder_meta", "nsites", "elements", "nelements", "composition", "composition_reduced", "chemsys", "symmetry", "property_name", "deprecated", "deprecation_reasons", "last_updated", "origins", "warnings", "task_ids", "uncorrected_energy_per_atom", "equilibrium_reaction_energy_per_atom", "decomposes_to", "xas", "grain_boundaries", "cbm", "vbm", "is_gap_direct", "is_metal", "es_source_calc_id", "bandstructure", "dos", "dos_energy_up", "dos_energy_down", "is_magnetic", "ordering", "total_magnetization_normalized_vol", "total_magnetization_normalized_formula_units", "num_magnetic_sites", "num_unique_magnetic_sites", "types_of_magnetic_species", "bulk_modulus", "shear_modulus", "universal_anisotropy", "homogeneous_poisson", "e_total", "e_ionic", "e_electronic", "n", "e_ij_max", "weighted_surface_energy_EV_PER_ANG2", "weighted_surface_energy", "weighted_work_function", "surface_anisotropy", "shape_factor", "has_reconstructed", "possible_species", "has_props", "theoretical", "database_IDs"]}