{"builder_meta": null, "nsites": null, "elements": null, "nelements": null, "composition": null, "composition_reduced": null, "formula_pretty": "K3Nd", "formula_anonymous": "AB3", "chemsys": null, "volume": 466.15012310434554, "density": 1.863314920589405, "density_atomic": 58.26876538804319, "symmetry": null, "property_name": null, "material_id": "mp-975838", "deprecated": null, "deprecation_reasons": null, "last_updated": null, "origins": null, "warnings": null, "structure": {"@module": "pymatgen.core.structure", "@class": "Structure", "charge": 0, "lattice": {"matrix": [[4.330941, -7.501409, 0.0], [4.330941, 7.501409, 0.0], [0.0, 0.0, 7.174154]], "pbc": [true, true, true], "a": 8.661881258177232, "b": 8.661881258177232, "c": 7.174154, "alpha": 90.0, "beta": 90.0, "gamma": 119.99999433395605, "volume": 466.15012310434554}, "properties": {}, "sites": [{"species": [{"element": "K", "occu": 1}], "abc": [0.8289900000000001, 0.17101000000000002, 0.75], "properties": {"magmom": -0.009000000000000001}, "label": "K", "xyz": [4.330941000000001, -4.9357770938200005, 5.380615499999999]}, {"species": [{"element": "K", "occu": 1}], "abc": [0.342018999999999, 0.17101000000000002, 0.75], "properties": {"magmom": -0.009000000000000001}, "label": "K", "xyz": [2.221898330288996, -1.2828084516809923, 5.380615499999999]}, {"species": [{"element": "K", "occu": 1}], "abc": [0.8289900000000001, 0.657980999999999, 0.75], "properties": {"magmom": -0.009000000000000001}, "label": "K", "xyz": [6.439983669710997, -1.2828084516810083, 5.380615499999999]}, {"species": [{"element": "K", "occu": 1}], "abc": [0.17101000000000002, 0.8289900000000001, 0.25], "properties": {"magmom": -0.008}, "label": "K", "xyz": [4.330941000000001, 4.9357770938200005, 1.7935385]}, {"species": [{"element": "K", "occu": 1}], "abc": [0.657980999999999, 0.8289900000000001, 0.25], "properties": {"magmom": -0.009000000000000001}, "label": "K", "xyz": [6.439983669710997, 1.2828084516810083, 1.7935385]}, {"species": [{"element": "K", "occu": 1}], "abc": [0.17101000000000002, 0.342018999999999, 0.25], "properties": {"magmom": -0.008}, "label": "K", "xyz": [2.221898330288996, 1.2828084516809923, 1.7935385]}, {"species": [{"element": "Nd", "occu": 1}], "abc": [0.666667, 0.333333, 0.25], "properties": {"magmom": -0.384}, "label": "Nd", "xyz": [4.330941, -2.5004746676060003, 1.7935385]}, {"species": [{"element": "Nd", "occu": 1}], "abc": [0.333333, 0.666667, 0.75], "properties": {"magmom": -0.391}, "label": "Nd", "xyz": [4.330941, 2.5004746676060003, 5.380615499999999]}]}, "task_ids": null, "uncorrected_energy_per_atom": null, "energy_per_atom": -11.3269437069375, "formation_energy_per_atom": 0.541256490874999, "energy_above_hull": 0.541256490874999, "is_stable": false, "equilibrium_reaction_energy_per_atom": null, "decomposes_to": null, "xas": null, "grain_boundaries": null, "band_gap": 0.0, "cbm": null, "vbm": null, "efermi": 0.46613924, "is_gap_direct": null, "is_metal": null, "es_source_calc_id": null, "bandstructure": null, "dos": null, "dos_energy_up": null, "dos_energy_down": null, "is_magnetic": null, "ordering": null, "total_magnetization": 2.3826387, "total_magnetization_normalized_vol": null, "total_magnetization_normalized_formula_units": null, "num_magnetic_sites": null, "num_unique_magnetic_sites": null, "types_of_magnetic_species": null, "bulk_modulus": null, "shear_modulus": null, "universal_anisotropy": null, "homogeneous_poisson": null, "e_total": null, "e_ionic": null, "e_electronic": null, "n": null, "e_ij_max": null, "weighted_surface_energy_EV_PER_ANG2": null, "weighted_surface_energy": null, "weighted_work_function": null, "surface_anisotropy": null, "shape_factor": null, "has_reconstructed": null, "possible_species": null, "has_props": null, "theoretical": null, "database_IDs": null, "fields_not_requested": ["builder_meta", "nsites", "elements", "nelements", "composition", "composition_reduced", "chemsys", "symmetry", "property_name", "deprecated", "deprecation_reasons", "last_updated", "origins", "warnings", "task_ids", "uncorrected_energy_per_atom", "equilibrium_reaction_energy_per_atom", "decomposes_to", "xas", "grain_boundaries", "cbm", "vbm", "is_gap_direct", "is_metal", "es_source_calc_id", "bandstructure", "dos", "dos_energy_up", "dos_energy_down", "is_magnetic", "ordering", "total_magnetization_normalized_vol", "total_magnetization_normalized_formula_units", "num_magnetic_sites", "num_unique_magnetic_sites", "types_of_magnetic_species", "bulk_modulus", "shear_modulus", "universal_anisotropy", "homogeneous_poisson", "e_total", "e_ionic", "e_electronic", "n", "e_ij_max", "weighted_surface_energy_EV_PER_ANG2", "weighted_surface_energy", "weighted_work_function", "surface_anisotropy", "shape_factor", "has_reconstructed", "possible_species", "has_props", "theoretical", "database_IDs"]}