{"builder_meta": null, "nsites": null, "elements": null, "nelements": null, "composition": null, "composition_reduced": null, "formula_pretty": "K3Pm", "formula_anonymous": "AB3", "chemsys": null, "volume": 461.81152109108893, "density": 1.8862713835761191, "density_atomic": 57.72644013638612, "symmetry": null, "property_name": null, "material_id": "mp-1185146", "deprecated": null, "deprecation_reasons": null, "last_updated": null, "origins": null, "warnings": null, "structure": {"@module": "pymatgen.core.structure", "@class": "Structure", "charge": 0, "lattice": {"matrix": [[4.329585, -7.499061, 0.0], [4.329585, 7.499061, 0.0], [0.0, 0.0, 7.111834]], "pbc": [true, true, true], "a": 8.659169830529137, "b": 8.659169830529137, "c": 7.111834, "alpha": 90.0, "beta": 90.0, "gamma": 119.99999870517588, "volume": 461.81152109108893}, "properties": {}, "sites": [{"species": [{"element": "K", "occu": 1}], "abc": [0.170691999999999, 0.341383999999999, 0.25], "properties": {"magmom": 0.009000000000000001}, "label": "K", "xyz": [2.2170765684599916, 1.2800297202120001, 1.7779585]}, {"species": [{"element": "K", "occu": 1}], "abc": [0.658616, 0.829307999999999, 0.25], "properties": {"magmom": 0.009000000000000001}, "label": "K", "xyz": [6.442093431539996, 1.280029720211993, 1.7779585]}, {"species": [{"element": "K", "occu": 1}], "abc": [0.170691999999999, 0.829307999999999, 0.25], "properties": {"magmom": 0.009000000000000001}, "label": "K", "xyz": [4.329584999999992, 4.939001559576001, 1.7779585]}, {"species": [{"element": "K", "occu": 1}], "abc": [0.829307999999999, 0.658616, 0.75], "properties": {"magmom": 0.007}, "label": "K", "xyz": [6.442093431539996, -1.280029720211993, 5.3338754999999995]}, {"species": [{"element": "K", "occu": 1}], "abc": [0.341383999999999, 0.170691999999999, 0.75], "properties": {"magmom": 0.008}, "label": "K", "xyz": [2.2170765684599916, -1.2800297202120001, 5.3338754999999995]}, {"species": [{"element": "K", "occu": 1}], "abc": [0.829307999999999, 0.170691999999999, 0.75], "properties": {"magmom": 0.008}, "label": "K", "xyz": [4.329584999999992, -4.939001559576001, 5.3338754999999995]}, {"species": [{"element": "Pm", "occu": 1}], "abc": [0.333333, 0.666667, 0.75], "properties": {"magmom": 0.35000000000000003}, "label": "Pm", "xyz": [4.329585, 2.499691999374, 5.3338754999999995]}, {"species": [{"element": "Pm", "occu": 1}], "abc": [0.666667, 0.333333, 0.25], "properties": {"magmom": 0.418}, "label": "Pm", "xyz": [4.329585, -2.499691999374, 1.7779585]}]}, "task_ids": null, "uncorrected_energy_per_atom": null, "energy_per_atom": -11.3454986369375, "formation_energy_per_atom": 0.5533524308750011, "energy_above_hull": 0.5533524308750011, "is_stable": false, "equilibrium_reaction_energy_per_atom": null, "decomposes_to": null, "xas": null, "grain_boundaries": null, "band_gap": 0.0, "cbm": null, "vbm": null, "efermi": 0.44735026, "is_gap_direct": null, "is_metal": null, "es_source_calc_id": null, "bandstructure": null, "dos": null, "dos_energy_up": null, "dos_energy_down": null, "is_magnetic": null, "ordering": null, "total_magnetization": 2.2390517, "total_magnetization_normalized_vol": null, "total_magnetization_normalized_formula_units": null, "num_magnetic_sites": null, "num_unique_magnetic_sites": null, "types_of_magnetic_species": null, "bulk_modulus": null, "shear_modulus": null, "universal_anisotropy": null, "homogeneous_poisson": null, "e_total": null, "e_ionic": null, "e_electronic": null, "n": null, "e_ij_max": null, "weighted_surface_energy_EV_PER_ANG2": null, "weighted_surface_energy": null, "weighted_work_function": null, "surface_anisotropy": null, "shape_factor": null, "has_reconstructed": null, "possible_species": null, "has_props": null, "theoretical": null, "database_IDs": null, "fields_not_requested": ["builder_meta", "nsites", "elements", "nelements", "composition", "composition_reduced", "chemsys", "symmetry", "property_name", "deprecated", "deprecation_reasons", "last_updated", "origins", "warnings", "task_ids", "uncorrected_energy_per_atom", "equilibrium_reaction_energy_per_atom", "decomposes_to", "xas", "grain_boundaries", "cbm", "vbm", "is_gap_direct", "is_metal", "es_source_calc_id", "bandstructure", "dos", "dos_energy_up", "dos_energy_down", "is_magnetic", "ordering", "total_magnetization_normalized_vol", "total_magnetization_normalized_formula_units", "num_magnetic_sites", "num_unique_magnetic_sites", "types_of_magnetic_species", "bulk_modulus", "shear_modulus", "universal_anisotropy", "homogeneous_poisson", "e_total", "e_ionic", "e_electronic", "n", "e_ij_max", "weighted_surface_energy_EV_PER_ANG2", "weighted_surface_energy", "weighted_work_function", "surface_anisotropy", "shape_factor", "has_reconstructed", "possible_species", "has_props", "theoretical", "database_IDs"]}