{"builder_meta": null, "nsites": null, "elements": null, "nelements": null, "composition": null, "composition_reduced": null, "formula_pretty": "K3Pr", "formula_anonymous": "AB3", "chemsys": null, "volume": 468.65153064888017, "density": 1.829740834419546, "density_atomic": 58.58144133111002, "symmetry": null, "property_name": null, "material_id": "mp-975872", "deprecated": null, "deprecation_reasons": null, "last_updated": null, "origins": null, "warnings": null, "structure": {"@module": "pymatgen.core.structure", "@class": "Structure", "charge": 0, "lattice": {"matrix": [[4.341766, -7.520159, 0.0], [4.341766, 7.520159, 0.0], [0.0, 0.0, 7.17673]], "pbc": [true, true, true], "a": 8.683531734498182, "b": 8.683531734498182, "c": 7.17673, "alpha": 90.0, "beta": 90.0, "gamma": 119.99999797715269, "volume": 468.65153064888017}, "properties": {}, "sites": [{"species": [{"element": "K", "occu": 1}], "abc": [0.170814, 0.341628999999999, 0.25], "properties": {"magmom": 0.008}, "label": "K", "xyz": [2.2249075943379957, 1.2845559595849927, 1.7941825]}, {"species": [{"element": "K", "occu": 1}], "abc": [0.658370999999999, 0.829186, 0.25], "properties": {"magmom": 0.008}, "label": "K", "xyz": [6.458624405661995, 1.2845559595850062, 1.7941825]}, {"species": [{"element": "K", "occu": 1}], "abc": [0.170814, 0.829186, 0.25], "properties": {"magmom": 0.008}, "label": "K", "xyz": [4.341766, 4.9510621211479995, 1.7941825]}, {"species": [{"element": "K", "occu": 1}], "abc": [0.829186, 0.658370999999999, 0.75], "properties": {"magmom": 0.009000000000000001}, "label": "K", "xyz": [6.458624405661995, -1.2845559595850062, 5.3825475]}, {"species": [{"element": "K", "occu": 1}], "abc": [0.341628999999999, 0.170814, 0.75], "properties": {"magmom": 0.009000000000000001}, "label": "K", "xyz": [2.2249075943379957, -1.2845559595849927, 5.3825475]}, {"species": [{"element": "K", "occu": 1}], "abc": [0.829186, 0.170814, 0.75], "properties": {"magmom": 0.009000000000000001}, "label": "K", "xyz": [4.341766, -4.9510621211479995, 5.3825475]}, {"species": [{"element": "Pr", "occu": 1}], "abc": [0.333333, 0.666667, 0.75], "properties": {"magmom": 0.441}, "label": "Pr", "xyz": [4.341766, 2.506724680106, 5.3825475]}, {"species": [{"element": "Pr", "occu": 1}], "abc": [0.666667, 0.333333, 0.25], "properties": {"magmom": 0.333}, "label": "Pr", "xyz": [4.341766, -2.506724680106, 1.7941825]}]}, "task_ids": null, "uncorrected_energy_per_atom": null, "energy_per_atom": -11.336909189020835, "formation_energy_per_atom": 0.5277778552499991, "energy_above_hull": 0.5277778552499991, "is_stable": false, "equilibrium_reaction_energy_per_atom": null, "decomposes_to": null, "xas": null, "grain_boundaries": null, "band_gap": 0.0, "cbm": null, "vbm": null, "efermi": 0.48941834, "is_gap_direct": null, "is_metal": null, "es_source_calc_id": null, "bandstructure": null, "dos": null, "dos_energy_up": null, "dos_energy_down": null, "is_magnetic": null, "ordering": null, "total_magnetization": 2.3488398, "total_magnetization_normalized_vol": null, "total_magnetization_normalized_formula_units": null, "num_magnetic_sites": null, "num_unique_magnetic_sites": null, "types_of_magnetic_species": null, "bulk_modulus": null, "shear_modulus": null, "universal_anisotropy": null, "homogeneous_poisson": null, "e_total": null, "e_ionic": null, "e_electronic": null, "n": null, "e_ij_max": null, "weighted_surface_energy_EV_PER_ANG2": null, "weighted_surface_energy": null, "weighted_work_function": null, "surface_anisotropy": null, "shape_factor": null, "has_reconstructed": null, "possible_species": null, "has_props": null, "theoretical": null, "database_IDs": null, "fields_not_requested": ["builder_meta", "nsites", "elements", "nelements", "composition", "composition_reduced", "chemsys", "symmetry", "property_name", "deprecated", "deprecation_reasons", "last_updated", "origins", "warnings", "task_ids", "uncorrected_energy_per_atom", "equilibrium_reaction_energy_per_atom", "decomposes_to", "xas", "grain_boundaries", "cbm", "vbm", "is_gap_direct", "is_metal", "es_source_calc_id", "bandstructure", "dos", "dos_energy_up", "dos_energy_down", "is_magnetic", "ordering", "total_magnetization_normalized_vol", "total_magnetization_normalized_formula_units", "num_magnetic_sites", "num_unique_magnetic_sites", "types_of_magnetic_species", "bulk_modulus", "shear_modulus", "universal_anisotropy", "homogeneous_poisson", "e_total", "e_ionic", "e_electronic", "n", "e_ij_max", "weighted_surface_energy_EV_PER_ANG2", "weighted_surface_energy", "weighted_work_function", "surface_anisotropy", "shape_factor", "has_reconstructed", "possible_species", "has_props", "theoretical", "database_IDs"]}