{"builder_meta": null, "nsites": null, "elements": null, "nelements": null, "composition": null, "composition_reduced": null, "formula_pretty": "K3Th", "formula_anonymous": "AB3", "chemsys": null, "volume": 210.625470439341, "density": 2.7540877469426253, "density_atomic": 52.65636760983525, "symmetry": null, "property_name": null, "material_id": "mp-1185172", "deprecated": null, "deprecation_reasons": null, "last_updated": null, "origins": null, "warnings": null, "structure": {"@module": "pymatgen.core.structure", "@class": "Structure", "charge": 0, "lattice": {"matrix": [[-2.813194, 2.813194, 6.653521], [2.813194, -2.813194, 6.653521], [2.813194, 2.813194, -6.653521]], "pbc": [true, true, true], "a": 7.752255327368481, "b": 7.752255327368481, "c": 7.752255327368481, "alpha": 137.4447734542592, "beta": 137.4447734542592, "gamma": 61.754426797442186, "volume": 210.625470439341}, "properties": {}, "sites": [{"species": [{"element": "K", "occu": 1}], "abc": [0.75, 0.25, 0.5], "properties": {"magmom": 0.007}, "label": "K", "xyz": [-2.220446049250313e-16, 2.813194, 3.3267605]}, {"species": [{"element": "K", "occu": 1}], "abc": [0.25, 0.75, 0.5], "properties": {"magmom": 0.007}, "label": "K", "xyz": [2.813194, -2.220446049250313e-16, 3.3267605]}, {"species": [{"element": "K", "occu": 1}], "abc": [0.5, 0.5, 0.0], "properties": {"magmom": 0.005}, "label": "K", "xyz": [0.0, 0.0, 6.653521]}, {"species": [{"element": "Th", "occu": 1}], "abc": [0.0, 0.0, 0.0], "properties": {"magmom": 0.426}, "label": "Th", "xyz": [0.0, 0.0, 0.0]}]}, "task_ids": null, "uncorrected_energy_per_atom": null, "energy_per_atom": -21.9267865744375, "formation_energy_per_atom": 0.9557269152500001, "energy_above_hull": 0.9557269152500001, "is_stable": false, "equilibrium_reaction_energy_per_atom": null, "decomposes_to": null, "xas": null, "grain_boundaries": null, "band_gap": 0.0, "cbm": null, "vbm": null, "efermi": 1.2461211700000001, "is_gap_direct": null, "is_metal": null, "es_source_calc_id": null, "bandstructure": null, "dos": null, "dos_energy_up": null, "dos_energy_down": null, "is_magnetic": null, "ordering": null, "total_magnetization": 1.1102819, "total_magnetization_normalized_vol": null, "total_magnetization_normalized_formula_units": null, "num_magnetic_sites": null, "num_unique_magnetic_sites": null, "types_of_magnetic_species": null, "bulk_modulus": null, "shear_modulus": null, "universal_anisotropy": null, "homogeneous_poisson": null, "e_total": null, "e_ionic": null, "e_electronic": null, "n": null, "e_ij_max": null, "weighted_surface_energy_EV_PER_ANG2": null, "weighted_surface_energy": null, "weighted_work_function": null, "surface_anisotropy": null, "shape_factor": null, "has_reconstructed": null, "possible_species": null, "has_props": null, "theoretical": null, "database_IDs": null, "fields_not_requested": ["builder_meta", "nsites", "elements", "nelements", "composition", "composition_reduced", "chemsys", "symmetry", "property_name", "deprecated", "deprecation_reasons", "last_updated", "origins", "warnings", "task_ids", "uncorrected_energy_per_atom", "equilibrium_reaction_energy_per_atom", "decomposes_to", "xas", "grain_boundaries", "cbm", "vbm", "is_gap_direct", "is_metal", "es_source_calc_id", "bandstructure", "dos", "dos_energy_up", "dos_energy_down", "is_magnetic", "ordering", "total_magnetization_normalized_vol", "total_magnetization_normalized_formula_units", "num_magnetic_sites", "num_unique_magnetic_sites", "types_of_magnetic_species", "bulk_modulus", "shear_modulus", "universal_anisotropy", "homogeneous_poisson", "e_total", "e_ionic", "e_electronic", "n", "e_ij_max", "weighted_surface_energy_EV_PER_ANG2", "weighted_surface_energy", "weighted_work_function", "surface_anisotropy", "shape_factor", "has_reconstructed", "possible_species", "has_props", "theoretical", "database_IDs"]}