{
  "builder_meta": null,
  "nsites": null,
  "elements": null,
  "nelements": null,
  "composition": null,
  "composition_reduced": null,
  "formula_pretty": "K3Tm",
  "formula_anonymous": "AB3",
  "chemsys": null,
  "volume": 451.90254736514174,
  "density": 2.103527063188275,
  "density_atomic": 56.48781842064272,
  "symmetry": null,
  "property_name": null,
  "material_id": "mp-1185140",
  "deprecated": null,
  "deprecation_reasons": null,
  "last_updated": null,
  "origins": null,
  "warnings": null,
  "structure": {
    "@module": "pymatgen.core.structure",
    "@class": "Structure",
    "charge": 0,
    "lattice": {
      "matrix": [
        [4.292763, -7.435283, 0.0],
        [4.292763, 7.435283, 0.0],
        [0.0, 0.0, 7.079138]
      ],
      "pbc": [true, true, true],
      "a": 8.585525462326578,
      "b": 8.585525462326578,
      "c": 7.079138,
      "alpha": 90.0,
      "beta": 90.0,
      "gamma": 119.99999585672563,
      "volume": 451.90254736514174
    },
    "properties": {},
    "sites": [
      {
        "species": [{ "element": "K", "occu": 1 }],
        "abc": [0.171584, 0.343168, 0.25],
        "properties": { "magmom": 0.003 },
        "label": "K",
        "xyz": [2.209708339776, 1.2757755982719998, 1.7697845]
      },
      {
        "species": [{ "element": "K", "occu": 1 }],
        "abc": [0.656832, 0.828415999999999, 0.25],
        "properties": { "magmom": 0.004 },
        "label": "K",
        "xyz": [6.375817660223996, 1.2757755982719932, 1.7697845]
      },
      {
        "species": [{ "element": "K", "occu": 1 }],
        "abc": [0.171584, 0.828415999999999, 0.25],
        "properties": { "magmom": 0.004 },
        "label": "K",
        "xyz": [4.292762999999995, 4.8837318034559924, 1.7697845]
      },
      {
        "species": [{ "element": "K", "occu": 1 }],
        "abc": [0.828415999999999, 0.656832, 0.75],
        "properties": { "magmom": 0.003 },
        "label": "K",
        "xyz": [6.375817660223996, -1.2757755982719932, 5.3093535]
      },
      {
        "species": [{ "element": "K", "occu": 1 }],
        "abc": [0.343168, 0.171584, 0.75],
        "properties": { "magmom": 0.004 },
        "label": "K",
        "xyz": [2.209708339776, -1.2757755982719998, 5.3093535]
      },
      {
        "species": [{ "element": "K", "occu": 1 }],
        "abc": [0.828415999999999, 0.171584, 0.75],
        "properties": { "magmom": 0.004 },
        "label": "K",
        "xyz": [4.292762999999995, -4.8837318034559924, 5.3093535]
      },
      {
        "species": [{ "element": "Tm", "occu": 1 }],
        "abc": [0.333333, 0.666667, 0.75],
        "properties": { "magmom": 0.178 },
        "label": "Tm",
        "xyz": [4.292763, 2.478432623522, 5.3093535]
      },
      {
        "species": [{ "element": "Tm", "occu": 1 }],
        "abc": [0.666667, 0.333333, 0.25],
        "properties": { "magmom": 0.147 },
        "label": "Tm",
        "xyz": [4.292763, -2.478432623522, 1.7697845]
      }
    ]
  },
  "task_ids": null,
  "uncorrected_energy_per_atom": null,
  "energy_per_atom": -12.713849249854167,
  "formation_energy_per_atom": 0.5801107748333331,
  "energy_above_hull": 0.5801107748333331,
  "is_stable": false,
  "equilibrium_reaction_energy_per_atom": null,
  "decomposes_to": null,
  "xas": null,
  "grain_boundaries": null,
  "band_gap": 0.0,
  "cbm": null,
  "vbm": null,
  "efermi": 0.40579029,
  "is_gap_direct": null,
  "is_metal": null,
  "es_source_calc_id": null,
  "bandstructure": null,
  "dos": null,
  "dos_energy_up": null,
  "dos_energy_down": null,
  "is_magnetic": null,
  "ordering": null,
  "total_magnetization": 0.826112,
  "total_magnetization_normalized_vol": null,
  "total_magnetization_normalized_formula_units": null,
  "num_magnetic_sites": null,
  "num_unique_magnetic_sites": null,
  "types_of_magnetic_species": null,
  "bulk_modulus": null,
  "shear_modulus": null,
  "universal_anisotropy": null,
  "homogeneous_poisson": null,
  "e_total": null,
  "e_ionic": null,
  "e_electronic": null,
  "n": null,
  "e_ij_max": null,
  "weighted_surface_energy_EV_PER_ANG2": null,
  "weighted_surface_energy": null,
  "weighted_work_function": null,
  "surface_anisotropy": null,
  "shape_factor": null,
  "has_reconstructed": null,
  "possible_species": null,
  "has_props": null,
  "theoretical": null,
  "database_IDs": null,
  "fields_not_requested": [
    "builder_meta",
    "nsites",
    "elements",
    "nelements",
    "composition",
    "composition_reduced",
    "chemsys",
    "symmetry",
    "property_name",
    "deprecated",
    "deprecation_reasons",
    "last_updated",
    "origins",
    "warnings",
    "task_ids",
    "uncorrected_energy_per_atom",
    "equilibrium_reaction_energy_per_atom",
    "decomposes_to",
    "xas",
    "grain_boundaries",
    "cbm",
    "vbm",
    "is_gap_direct",
    "is_metal",
    "es_source_calc_id",
    "bandstructure",
    "dos",
    "dos_energy_up",
    "dos_energy_down",
    "is_magnetic",
    "ordering",
    "total_magnetization_normalized_vol",
    "total_magnetization_normalized_formula_units",
    "num_magnetic_sites",
    "num_unique_magnetic_sites",
    "types_of_magnetic_species",
    "bulk_modulus",
    "shear_modulus",
    "universal_anisotropy",
    "homogeneous_poisson",
    "e_total",
    "e_ionic",
    "e_electronic",
    "n",
    "e_ij_max",
    "weighted_surface_energy_EV_PER_ANG2",
    "weighted_surface_energy",
    "weighted_work_function",
    "surface_anisotropy",
    "shape_factor",
    "has_reconstructed",
    "possible_species",
    "has_props",
    "theoretical",
    "database_IDs"
  ]
}
