{
  "builder_meta": null,
  "nsites": null,
  "elements": null,
  "nelements": null,
  "composition": null,
  "composition_reduced": null,
  "formula_pretty": "K4Bi",
  "formula_anonymous": "AB4",
  "chemsys": null,
  "volume": 741.3272931634223,
  "density": 1.636840144156229,
  "density_atomic": 74.13272931634222,
  "symmetry": null,
  "property_name": null,
  "material_id": "mp-1211781",
  "deprecated": null,
  "deprecation_reasons": null,
  "last_updated": null,
  "origins": null,
  "warnings": null,
  "structure": {
    "@module": "pymatgen.core.structure",
    "@class": "Structure",
    "charge": 0,
    "lattice": {
      "matrix": [
        [0.0, 7.183344, 7.183344],
        [7.183344, 0.0, 7.183344],
        [7.183344, 7.183344, 0.0]
      ],
      "pbc": [true, true, true],
      "a": 10.158782507991397,
      "b": 10.158782507991397,
      "c": 10.158782507991397,
      "alpha": 59.99999999999999,
      "beta": 59.99999999999999,
      "gamma": 59.99999999999999,
      "volume": 741.3272931634223
    },
    "properties": {},
    "sites": [
      {
        "species": [{ "element": "K", "occu": 1 }],
        "abc": [0.383102, 0.383102, 0.383102],
        "properties": { "magmom": 0.002 },
        "label": "K",
        "xyz": [5.503906906176, 5.503906906176, 5.503906906176]
      },
      {
        "species": [{ "element": "K", "occu": 1 }],
        "abc": [0.383102, 0.383102, 0.850694],
        "properties": { "magmom": 0.002 },
        "label": "K",
        "xyz": [8.862781093824, 8.862781093824, 5.503906906176]
      },
      {
        "species": [{ "element": "K", "occu": 1 }],
        "abc": [0.383102, 0.850694, 0.383102],
        "properties": { "magmom": 0.002 },
        "label": "K",
        "xyz": [8.862781093824, 5.503906906176, 8.862781093824]
      },
      {
        "species": [{ "element": "K", "occu": 1 }],
        "abc": [0.866898, 0.866898, 0.399306],
        "properties": { "magmom": 0.002 },
        "label": "K",
        "xyz": [9.095578906176, 9.095578906176, 12.454453093823998]
      },
      {
        "species": [{ "element": "K", "occu": 1 }],
        "abc": [0.866898, 0.866898, 0.866898],
        "properties": { "magmom": 0.002 },
        "label": "K",
        "xyz": [12.454453093823998, 12.454453093823998, 12.454453093823998]
      },
      {
        "species": [{ "element": "K", "occu": 1 }],
        "abc": [0.850694, 0.383102, 0.383102],
        "properties": { "magmom": 0.002 },
        "label": "K",
        "xyz": [5.503906906176, 8.862781093824, 8.862781093824]
      },
      {
        "species": [{ "element": "K", "occu": 1 }],
        "abc": [0.866898, 0.399306, 0.866898],
        "properties": { "magmom": 0.002 },
        "label": "K",
        "xyz": [9.095578906176, 12.454453093823998, 9.095578906176]
      },
      {
        "species": [{ "element": "K", "occu": 1 }],
        "abc": [0.399306, 0.866898, 0.866898],
        "properties": { "magmom": 0.002 },
        "label": "K",
        "xyz": [12.454453093823998, 9.095578906176, 9.095578906176]
      },
      {
        "species": [{ "element": "Bi", "occu": 1 }],
        "abc": [0.0, 0.0, 0.0],
        "properties": { "magmom": 0.033 },
        "label": "Bi",
        "xyz": [0.0, 0.0, 0.0]
      },
      {
        "species": [{ "element": "Bi", "occu": 1 }],
        "abc": [0.25, 0.25, 0.25],
        "properties": { "magmom": 0.033 },
        "label": "Bi",
        "xyz": [3.591672, 3.591672, 3.591672]
      }
    ]
  },
  "task_ids": null,
  "uncorrected_energy_per_atom": null,
  "energy_per_atom": -16.582506815183336,
  "formation_energy_per_atom": -0.067440917183336,
  "energy_above_hull": 0.333537617066664,
  "is_stable": false,
  "equilibrium_reaction_energy_per_atom": null,
  "decomposes_to": null,
  "xas": null,
  "grain_boundaries": null,
  "band_gap": 0.0,
  "cbm": null,
  "vbm": null,
  "efermi": -0.2796556,
  "is_gap_direct": null,
  "is_metal": null,
  "es_source_calc_id": null,
  "bandstructure": null,
  "dos": null,
  "dos_energy_up": null,
  "dos_energy_down": null,
  "is_magnetic": null,
  "ordering": null,
  "total_magnetization": 0.359362299999999,
  "total_magnetization_normalized_vol": null,
  "total_magnetization_normalized_formula_units": null,
  "num_magnetic_sites": null,
  "num_unique_magnetic_sites": null,
  "types_of_magnetic_species": null,
  "bulk_modulus": null,
  "shear_modulus": null,
  "universal_anisotropy": null,
  "homogeneous_poisson": null,
  "e_total": null,
  "e_ionic": null,
  "e_electronic": null,
  "n": null,
  "e_ij_max": null,
  "weighted_surface_energy_EV_PER_ANG2": null,
  "weighted_surface_energy": null,
  "weighted_work_function": null,
  "surface_anisotropy": null,
  "shape_factor": null,
  "has_reconstructed": null,
  "possible_species": null,
  "has_props": null,
  "theoretical": null,
  "database_IDs": null,
  "fields_not_requested": [
    "builder_meta",
    "nsites",
    "elements",
    "nelements",
    "composition",
    "composition_reduced",
    "chemsys",
    "symmetry",
    "property_name",
    "deprecated",
    "deprecation_reasons",
    "last_updated",
    "origins",
    "warnings",
    "task_ids",
    "uncorrected_energy_per_atom",
    "equilibrium_reaction_energy_per_atom",
    "decomposes_to",
    "xas",
    "grain_boundaries",
    "cbm",
    "vbm",
    "is_gap_direct",
    "is_metal",
    "es_source_calc_id",
    "bandstructure",
    "dos",
    "dos_energy_up",
    "dos_energy_down",
    "is_magnetic",
    "ordering",
    "total_magnetization_normalized_vol",
    "total_magnetization_normalized_formula_units",
    "num_magnetic_sites",
    "num_unique_magnetic_sites",
    "types_of_magnetic_species",
    "bulk_modulus",
    "shear_modulus",
    "universal_anisotropy",
    "homogeneous_poisson",
    "e_total",
    "e_ionic",
    "e_electronic",
    "n",
    "e_ij_max",
    "weighted_surface_energy_EV_PER_ANG2",
    "weighted_surface_energy",
    "weighted_work_function",
    "surface_anisotropy",
    "shape_factor",
    "has_reconstructed",
    "possible_species",
    "has_props",
    "theoretical",
    "database_IDs"
  ]
}
