{
  "builder_meta": null,
  "nsites": null,
  "elements": null,
  "nelements": null,
  "composition": null,
  "composition_reduced": null,
  "formula_pretty": "K4C",
  "formula_anonymous": "AB4",
  "chemsys": null,
  "volume": 230.98940602236112,
  "density": 1.21062372397602,
  "density_atomic": 46.197881204472225,
  "symmetry": null,
  "property_name": null,
  "material_id": "mp-1206408",
  "deprecated": null,
  "deprecation_reasons": null,
  "last_updated": null,
  "origins": null,
  "warnings": null,
  "structure": {
    "@module": "pymatgen.core.structure",
    "@class": "Structure",
    "charge": 0,
    "lattice": {
      "matrix": [
        [-5.309139, 5.309139, -2.048726],
        [5.309139, -5.309139, -2.048726],
        [-5.309139, -5.309139, 2.048726]
      ],
      "pbc": [true, true, true],
      "a": 7.782749646861191,
      "b": 7.782749646861191,
      "c": 7.782749646861191,
      "alpha": 93.97349296482487,
      "beta": 93.97349296482487,
      "gamma": 149.4752775642942,
      "volume": 230.98940602236112
    },
    "properties": {},
    "sites": [
      {
        "species": [{ "element": "K", "occu": 1 }],
        "abc": [0.731489, 0.5, 0.231489],
        "properties": { "magmom": -0.001 },
        "label": "K",
        "xyz": [
          -2.4580145559419995, -2.220446049250313e-16, -2.0487259999999994
        ]
      },
      {
        "species": [{ "element": "K", "occu": 1 }],
        "abc": [0.268511, 0.5, 0.7685109999999991],
        "properties": { "magmom": -0.001 },
        "label": "K",
        "xyz": [
          -2.8511244440579953, -5.309138999999996, -1.9984014443252818e-15
        ]
      },
      {
        "species": [{ "element": "K", "occu": 1 }],
        "abc": [0.5, 0.731489, 0.231489],
        "properties": { "magmom": -0.001 },
        "label": "K",
        "xyz": [
          -2.220446049250313e-16, -2.4580145559419995, -2.0487259999999994
        ]
      },
      {
        "species": [{ "element": "K", "occu": 1 }],
        "abc": [0.5, 0.268511, 0.7685109999999991],
        "properties": { "magmom": -0.001 },
        "label": "K",
        "xyz": [
          -5.309138999999996, -2.8511244440579953, -1.9984014443252818e-15
        ]
      },
      {
        "species": [{ "element": "C", "occu": 1 }],
        "abc": [0.0, 0.0, 0.0],
        "properties": { "magmom": 0.035 },
        "label": "C",
        "xyz": [0.0, 0.0, 0.0]
      }
    ]
  },
  "task_ids": null,
  "uncorrected_energy_per_atom": null,
  "energy_per_atom": -1.7837430520000002,
  "formation_energy_per_atom": 0.9670858247,
  "energy_above_hull": 0.97340269838125,
  "is_stable": false,
  "equilibrium_reaction_energy_per_atom": null,
  "decomposes_to": null,
  "xas": null,
  "grain_boundaries": null,
  "band_gap": 0.0,
  "cbm": null,
  "vbm": null,
  "efermi": 0.19979012000000002,
  "is_gap_direct": null,
  "is_metal": null,
  "es_source_calc_id": null,
  "bandstructure": null,
  "dos": null,
  "dos_energy_up": null,
  "dos_energy_down": null,
  "is_magnetic": null,
  "ordering": null,
  "total_magnetization": 0.001169,
  "total_magnetization_normalized_vol": null,
  "total_magnetization_normalized_formula_units": null,
  "num_magnetic_sites": null,
  "num_unique_magnetic_sites": null,
  "types_of_magnetic_species": null,
  "bulk_modulus": null,
  "shear_modulus": null,
  "universal_anisotropy": null,
  "homogeneous_poisson": null,
  "e_total": null,
  "e_ionic": null,
  "e_electronic": null,
  "n": null,
  "e_ij_max": null,
  "weighted_surface_energy_EV_PER_ANG2": null,
  "weighted_surface_energy": null,
  "weighted_work_function": null,
  "surface_anisotropy": null,
  "shape_factor": null,
  "has_reconstructed": null,
  "possible_species": null,
  "has_props": null,
  "theoretical": null,
  "database_IDs": null,
  "fields_not_requested": [
    "builder_meta",
    "nsites",
    "elements",
    "nelements",
    "composition",
    "composition_reduced",
    "chemsys",
    "symmetry",
    "property_name",
    "deprecated",
    "deprecation_reasons",
    "last_updated",
    "origins",
    "warnings",
    "task_ids",
    "uncorrected_energy_per_atom",
    "equilibrium_reaction_energy_per_atom",
    "decomposes_to",
    "xas",
    "grain_boundaries",
    "cbm",
    "vbm",
    "is_gap_direct",
    "is_metal",
    "es_source_calc_id",
    "bandstructure",
    "dos",
    "dos_energy_up",
    "dos_energy_down",
    "is_magnetic",
    "ordering",
    "total_magnetization_normalized_vol",
    "total_magnetization_normalized_formula_units",
    "num_magnetic_sites",
    "num_unique_magnetic_sites",
    "types_of_magnetic_species",
    "bulk_modulus",
    "shear_modulus",
    "universal_anisotropy",
    "homogeneous_poisson",
    "e_total",
    "e_ionic",
    "e_electronic",
    "n",
    "e_ij_max",
    "weighted_surface_energy_EV_PER_ANG2",
    "weighted_surface_energy",
    "weighted_work_function",
    "surface_anisotropy",
    "shape_factor",
    "has_reconstructed",
    "possible_species",
    "has_props",
    "theoretical",
    "database_IDs"
  ]
}
