{
  "builder_meta": null,
  "nsites": null,
  "elements": null,
  "nelements": null,
  "composition": null,
  "composition_reduced": null,
  "formula_pretty": "K4Fe",
  "formula_anonymous": "AB4",
  "chemsys": null,
  "volume": 4122.44028589544,
  "density": 0.34196233112767804,
  "density_atomic": 206.122014294772,
  "symmetry": null,
  "property_name": null,
  "material_id": "mp-1182806",
  "deprecated": null,
  "deprecation_reasons": null,
  "last_updated": null,
  "origins": null,
  "warnings": null,
  "structure": {
    "@module": "pymatgen.core.structure",
    "@class": "Structure",
    "charge": 0,
    "lattice": {
      "matrix": [
        [-6.42881002, 6.42882239, 24.93632001],
        [6.42881002, -6.42882239, 24.93632001],
        [6.42882239, 6.42881002, -24.93632001]
      ],
      "pbc": [true, true, true],
      "a": 26.54203103073584,
      "b": 26.54203103073584,
      "c": 26.54203103073584,
      "alpha": 151.9656583614279,
      "beta": 151.9656583614279,
      "gamma": 40.063454751418504,
      "volume": 4122.44028589544
    },
    "properties": {},
    "sites": [
      {
        "species": [{ "element": "K", "occu": 1 }],
        "abc": [0.77309267, 0.12027398, 0.00982187],
        "properties": { "magmom": -0.001 },
        "label": "K",
        "xyz": [-4.133704277747605, 4.259998347153606, 22.032355377245047]
      },
      {
        "species": [{ "element": "K", "occu": 1 }],
        "abc": [0.11045211, 0.7632718, 0.99017813],
        "properties": { "magmom": -0.001 },
        "label": "K",
        "xyz": [10.562533096557624, 2.1688052440240044, -2.903939696434943]
      },
      {
        "species": [{ "element": "K", "occu": 1 }],
        "abc": [0.63954789, 0.4867282, 0.50982187],
        "properties": { "magmom": -0.001 },
        "label": "K",
        "xyz": [2.2951054984423758, 4.2599985909759965, 15.37209970143494]
      },
      {
        "species": [{ "element": "K", "occu": 1 }],
        "abc": [0.9769073300000001, 0.12972602, 0.49017813],
        "properties": { "magmom": -0.001 },
        "label": "K",
        "xyz": [-2.2950995572523967, 8.597640247846394, 15.372124637754954]
      },
      {
        "species": [{ "element": "K", "occu": 1 }],
        "abc": [0.87972602, 0.88954789, 0.6528196900000001],
        "properties": { "magmom": -0.0 },
        "label": "K",
        "xyz": [4.260004775975997, 4.133710706557625, 27.840259706434935]
      },
      {
        "species": [{ "element": "K", "occu": 1 }],
        "abc": [0.2367282, 0.22690733000000002, 0.34718031],
        "properties": { "magmom": -0.0 },
        "label": "K",
        "xyz": [2.1688240428340233, 2.295092884619985, 2.903964632754951]
      },
      {
        "species": [{ "element": "K", "occu": 1 }],
        "abc": [0.5132718, 0.02309267, 0.15281969],
        "properties": { "magmom": -0.0 },
        "label": "K",
        "xyz": [-2.168817857834023, 4.133723320380014, 9.564195372245045]
      },
      {
        "species": [{ "element": "K", "occu": 1 }],
        "abc": [0.87027398, 0.36045211, 0.84718031],
        "properties": { "magmom": -0.0 },
        "label": "K",
        "xyz": [2.1688237990240036, 8.723915518442375, 9.564220308565059]
      },
      {
        "species": [{ "element": "K", "occu": 1 }],
        "abc": [0.60917631, 0.63776755, 0.35402524],
        "properties": { "magmom": -0.003 },
        "label": "K",
        "xyz": [2.459773039733348, 2.0921530063750415, 22.26610445120759]
      },
      {
        "species": [{ "element": "K", "occu": 1 }],
        "abc": [0.2837423, 0.25515107, 0.64597476],
        "properties": { "magmom": -0.003 },
        "label": "K",
        "xyz": [3.9690494145547515, 4.336656949336735, -2.670215808155614]
      },
      {
        "species": [{ "element": "K", "occu": 1 }],
        "abc": [0.4662577, 0.9948489300000001, 0.85402524],
        "properties": { "magmom": -0.003 },
        "label": "K",
        "xyz": [8.888589180445248, 2.0921468856632655, 15.138375813155612]
      },
      {
        "species": [{ "element": "K", "occu": 1 }],
        "abc": [0.14082369, 0.61223245, 0.14597476],
        "properties": { "magmom": -0.003 },
        "label": "K",
        "xyz": [3.969043165266652, -2.092159191375041, 15.138375563792415]
      },
      {
        "species": [{ "element": "K", "occu": 1 }],
        "abc": [0.36223245, 0.7162577, 0.97140876],
        "properties": { "magmom": -0.003 },
        "label": "K",
        "xyz": [8.520975460663141, 3.9690369159784282, 2.670215808155614]
      },
      {
        "species": [{ "element": "K", "occu": 1 }],
        "abc": [0.74484893, 0.39082369, 0.02859124],
        "properties": { "magmom": -0.004 },
        "label": "K",
        "xyz": [-2.092153006375041, 2.4597730397333484, 27.606535568792413]
      },
      {
        "species": [{ "element": "K", "occu": 1 }],
        "abc": [0.00515107, 0.85917631, 0.47140876],
        "properties": { "magmom": -0.004 },
        "label": "K",
        "xyz": [8.520969211375043, -2.459779224733349, 9.797944446207588]
      },
      {
        "species": [{ "element": "K", "occu": 1 }],
        "abc": [0.38776755, 0.5337423, 0.52859124],
        "properties": { "magmom": -0.003 },
        "label": "K",
        "xyz": [4.336663134336858, 2.459766919021573, 9.797944196844387]
      },
      {
        "species": [{ "element": "Fe", "occu": 1 }],
        "abc": [0.99323419, 0.49323419, 0.5],
        "properties": { "magmom": 3.213 },
        "label": "Fe",
        "xyz": [6.184999999714336e-6, 6.4288162049999995, 24.598891203426284]
      },
      {
        "species": [{ "element": "Fe", "occu": 1 }],
        "abc": [0.75676581, 0.75676581, 0.0],
        "properties": { "magmom": 3.213 },
        "label": "Fe",
        "xyz": [0.0, 0.0, 37.741908821573716]
      },
      {
        "species": [{ "element": "Fe", "occu": 1 }],
        "abc": [0.50676581, 0.006765810000000001, 0.5],
        "properties": { "magmom": 3.188 },
        "label": "Fe",
        "xyz": [6.185000000158425e-6, 6.428816205, 0.33742880657371543]
      },
      {
        "species": [{ "element": "Fe", "occu": 1 }],
        "abc": [0.24323419000000002, 0.24323419000000002, 0.0],
        "properties": { "magmom": 3.188 },
        "label": "Fe",
        "xyz": [0.0, 0.0, 12.130731198426284]
      }
    ]
  },
  "task_ids": null,
  "uncorrected_energy_per_atom": null,
  "energy_per_atom": -1.1318889455,
  "formation_energy_per_atom": 1.4672110747,
  "energy_above_hull": 1.4672110747,
  "is_stable": false,
  "equilibrium_reaction_energy_per_atom": null,
  "decomposes_to": null,
  "xas": null,
  "grain_boundaries": null,
  "band_gap": 0.0,
  "cbm": null,
  "vbm": null,
  "efermi": -1.52575154,
  "is_gap_direct": null,
  "is_metal": null,
  "es_source_calc_id": null,
  "bandstructure": null,
  "dos": null,
  "dos_energy_up": null,
  "dos_energy_down": null,
  "is_magnetic": null,
  "ordering": null,
  "total_magnetization": 11.9938876,
  "total_magnetization_normalized_vol": null,
  "total_magnetization_normalized_formula_units": null,
  "num_magnetic_sites": null,
  "num_unique_magnetic_sites": null,
  "types_of_magnetic_species": null,
  "bulk_modulus": null,
  "shear_modulus": null,
  "universal_anisotropy": null,
  "homogeneous_poisson": null,
  "e_total": null,
  "e_ionic": null,
  "e_electronic": null,
  "n": null,
  "e_ij_max": null,
  "weighted_surface_energy_EV_PER_ANG2": null,
  "weighted_surface_energy": null,
  "weighted_work_function": null,
  "surface_anisotropy": null,
  "shape_factor": null,
  "has_reconstructed": null,
  "possible_species": null,
  "has_props": null,
  "theoretical": null,
  "database_IDs": null,
  "fields_not_requested": [
    "builder_meta",
    "nsites",
    "elements",
    "nelements",
    "composition",
    "composition_reduced",
    "chemsys",
    "symmetry",
    "property_name",
    "deprecated",
    "deprecation_reasons",
    "last_updated",
    "origins",
    "warnings",
    "task_ids",
    "uncorrected_energy_per_atom",
    "equilibrium_reaction_energy_per_atom",
    "decomposes_to",
    "xas",
    "grain_boundaries",
    "cbm",
    "vbm",
    "is_gap_direct",
    "is_metal",
    "es_source_calc_id",
    "bandstructure",
    "dos",
    "dos_energy_up",
    "dos_energy_down",
    "is_magnetic",
    "ordering",
    "total_magnetization_normalized_vol",
    "total_magnetization_normalized_formula_units",
    "num_magnetic_sites",
    "num_unique_magnetic_sites",
    "types_of_magnetic_species",
    "bulk_modulus",
    "shear_modulus",
    "universal_anisotropy",
    "homogeneous_poisson",
    "e_total",
    "e_ionic",
    "e_electronic",
    "n",
    "e_ij_max",
    "weighted_surface_energy_EV_PER_ANG2",
    "weighted_surface_energy",
    "weighted_work_function",
    "surface_anisotropy",
    "shape_factor",
    "has_reconstructed",
    "possible_species",
    "has_props",
    "theoretical",
    "database_IDs"
  ]
}
