{
  "builder_meta": null,
  "nsites": null,
  "elements": null,
  "nelements": null,
  "composition": null,
  "composition_reduced": null,
  "formula_pretty": "K4P3",
  "formula_anonymous": "A3B4",
  "chemsys": null,
  "volume": 420.00934034296154,
  "density": 1.971367796412561,
  "density_atomic": 30.000667167354397,
  "symmetry": null,
  "property_name": null,
  "material_id": "mp-28424",
  "deprecated": null,
  "deprecation_reasons": null,
  "last_updated": null,
  "origins": null,
  "warnings": null,
  "structure": {
    "@module": "pymatgen.core.structure",
    "@class": "Structure",
    "charge": 0,
    "lattice": {
      "matrix": [
        [4.98106308, 0.0, 0.0],
        [-2.49053154, 5.67096924, 0.0],
        [0.0, 0.0, 14.86892652]
      ],
      "pbc": [true, true, true],
      "a": 4.98106308,
      "b": 6.193758105767527,
      "c": 14.86892652,
      "alpha": 90.0,
      "beta": 90.0,
      "gamma": 113.70974169170363,
      "volume": 420.00934034296154
    },
    "properties": {},
    "sites": [
      {
        "species": [{ "element": "K", "occu": 1 }],
        "abc": [0.80531264, 0.61062728, 0.11105938],
        "properties": { "magmom": -0.0 },
        "label": "K",
        "xyz": [2.49052655893692, 3.462848521984867, 1.6513337605767577]
      },
      {
        "species": [{ "element": "K", "occu": 1 }],
        "abc": [0.19468736, 0.38937272, 0.8889406200000001],
        "properties": { "magmom": -0.0 },
        "label": "K",
        "xyz": [4.9810630800006805e-6, 2.2081207180151328, 13.217592759423244]
      },
      {
        "species": [{ "element": "K", "occu": 1 }],
        "abc": [0.80531264, 0.61062728, 0.38894062],
        "properties": { "magmom": -0.0 },
        "label": "K",
        "xyz": [2.49052655893692, 3.462848521984867, 5.783129499423243]
      },
      {
        "species": [{ "element": "K", "occu": 1 }],
        "abc": [0.19468736, 0.38937272, 0.61105938],
        "properties": { "magmom": -0.0 },
        "label": "K",
        "xyz": [4.9810630800006805e-6, 2.2081207180151328, 9.08579702057676]
      },
      {
        "species": [{ "element": "K", "occu": 1 }],
        "abc": [0.5168918100000001, 0.03378162, 0.25],
        "properties": { "magmom": -0.0 },
        "label": "K",
        "xyz": [2.4905365210630803, 0.19157452789736878, 3.71723163]
      },
      {
        "species": [{ "element": "K", "occu": 1 }],
        "abc": [0.48310819, 0.96621838, 0.75],
        "properties": { "magmom": -0.0 },
        "label": "K",
        "xyz": [-4.981063080222725e-6, 5.479394712102631, 11.15169489]
      },
      {
        "species": [{ "element": "K", "occu": 1 }],
        "abc": [0.5, 0.0, 0.0],
        "properties": { "magmom": -0.0 },
        "label": "K",
        "xyz": [2.49053154, 0.0, 0.0]
      },
      {
        "species": [{ "element": "K", "occu": 1 }],
        "abc": [0.5, -0.0, 0.5],
        "properties": { "magmom": -0.0 },
        "label": "K",
        "xyz": [2.49053154, 0.0, 7.43446326]
      },
      {
        "species": [{ "element": "P", "occu": 1 }],
        "abc": [0.8871809900000001, 0.7743599800000001, 0.62468154],
        "properties": { "magmom": -0.0 },
        "label": "P",
        "xyz": [2.4905365210630803, 4.391371627267016, 9.288343916660441]
      },
      {
        "species": [{ "element": "P", "occu": 1 }],
        "abc": [0.11281901, 0.22564002, 0.37531846],
        "properties": { "magmom": -0.0 },
        "label": "P",
        "xyz": [-4.9810630800006805e-6, 1.2795976127329847, 5.580582603339559]
      },
      {
        "species": [{ "element": "P", "occu": 1 }],
        "abc": [0.11281901, 0.22564002, 0.12468154000000001],
        "properties": { "magmom": -0.0 },
        "label": "P",
        "xyz": [-4.9810630800006805e-6, 1.2795976127329847, 1.8538806566604409]
      },
      {
        "species": [{ "element": "P", "occu": 1 }],
        "abc": [0.8871809900000001, 0.7743599800000001, 0.87531846],
        "properties": { "magmom": -0.0 },
        "label": "P",
        "xyz": [2.4905365210630803, 4.391371627267016, 13.01504586333956]
      },
      {
        "species": [{ "element": "P", "occu": 1 }],
        "abc": [0.21146511, 0.42293223, 0.25],
        "properties": { "magmom": -0.0 },
        "label": "P",
        "xyz": [-5.005968395366267e-6, 2.3984356669346054, 3.71723163]
      },
      {
        "species": [{ "element": "P", "occu": 1 }],
        "abc": [0.78853489, 0.57706777, 0.75],
        "properties": { "magmom": -0.0 },
        "label": "P",
        "xyz": [2.4905365459683955, 3.2725335730653944, 11.15169489]
      }
    ]
  },
  "task_ids": null,
  "uncorrected_energy_per_atom": null,
  "energy_per_atom": -7.800731105714285,
  "formation_energy_per_atom": -0.503690436989795,
  "energy_above_hull": 0.0,
  "is_stable": true,
  "equilibrium_reaction_energy_per_atom": null,
  "decomposes_to": null,
  "xas": null,
  "grain_boundaries": null,
  "band_gap": 0.0,
  "cbm": null,
  "vbm": null,
  "efermi": 2.28638938,
  "is_gap_direct": null,
  "is_metal": null,
  "es_source_calc_id": null,
  "bandstructure": null,
  "dos": null,
  "dos_energy_up": null,
  "dos_energy_down": null,
  "is_magnetic": null,
  "ordering": null,
  "total_magnetization": 2.299999999999998e-6,
  "total_magnetization_normalized_vol": null,
  "total_magnetization_normalized_formula_units": null,
  "num_magnetic_sites": null,
  "num_unique_magnetic_sites": null,
  "types_of_magnetic_species": null,
  "bulk_modulus": null,
  "shear_modulus": null,
  "universal_anisotropy": null,
  "homogeneous_poisson": null,
  "e_total": null,
  "e_ionic": null,
  "e_electronic": null,
  "n": null,
  "e_ij_max": null,
  "weighted_surface_energy_EV_PER_ANG2": null,
  "weighted_surface_energy": null,
  "weighted_work_function": null,
  "surface_anisotropy": null,
  "shape_factor": null,
  "has_reconstructed": null,
  "possible_species": null,
  "has_props": null,
  "theoretical": null,
  "database_IDs": null,
  "fields_not_requested": [
    "builder_meta",
    "nsites",
    "elements",
    "nelements",
    "composition",
    "composition_reduced",
    "chemsys",
    "symmetry",
    "property_name",
    "deprecated",
    "deprecation_reasons",
    "last_updated",
    "origins",
    "warnings",
    "task_ids",
    "uncorrected_energy_per_atom",
    "equilibrium_reaction_energy_per_atom",
    "decomposes_to",
    "xas",
    "grain_boundaries",
    "cbm",
    "vbm",
    "is_gap_direct",
    "is_metal",
    "es_source_calc_id",
    "bandstructure",
    "dos",
    "dos_energy_up",
    "dos_energy_down",
    "is_magnetic",
    "ordering",
    "total_magnetization_normalized_vol",
    "total_magnetization_normalized_formula_units",
    "num_magnetic_sites",
    "num_unique_magnetic_sites",
    "types_of_magnetic_species",
    "bulk_modulus",
    "shear_modulus",
    "universal_anisotropy",
    "homogeneous_poisson",
    "e_total",
    "e_ionic",
    "e_electronic",
    "n",
    "e_ij_max",
    "weighted_surface_energy_EV_PER_ANG2",
    "weighted_surface_energy",
    "weighted_work_function",
    "surface_anisotropy",
    "shape_factor",
    "has_reconstructed",
    "possible_species",
    "has_props",
    "theoretical",
    "database_IDs"
  ]
}
