{
  "builder_meta": null,
  "nsites": null,
  "elements": null,
  "nelements": null,
  "composition": null,
  "composition_reduced": null,
  "formula_pretty": "K5As4",
  "formula_anonymous": "A4B5",
  "chemsys": null,
  "volume": 290.46287031431257,
  "density": 2.830868699249479,
  "density_atomic": 32.27365225714584,
  "symmetry": null,
  "property_name": null,
  "material_id": "mp-1223503",
  "deprecated": null,
  "deprecation_reasons": null,
  "last_updated": null,
  "origins": null,
  "warnings": null,
  "structure": {
    "@module": "pymatgen.core.structure",
    "@class": "Structure",
    "charge": 0,
    "lattice": {
      "matrix": [
        [0.0, -5.18366838, -0.0],
        [5.36940676, 2.59183368, -2.28280127],
        [5.422866, -2.59183368, 8.13030328]
      ],
      "pbc": [true, true, true],
      "a": 5.18366838,
      "b": 6.38430203056134,
      "c": 10.11073236237203,
      "alpha": 86.58943617122185,
      "beta": 75.14671442919112,
      "gamma": 113.95191272449998,
      "volume": 290.46287031431257
    },
    "properties": {},
    "sites": [
      {
        "species": [{ "element": "K", "occu": 1 }],
        "abc": [0.7085461200000001, 0.31410613, 0.89701189],
        "properties": { "magmom": -0.0 },
        "label": "K",
        "xyz": [6.550938857656179, -5.183662899049683, 6.575936838987214]
      },
      {
        "species": [{ "element": "K", "occu": 1 }],
        "abc": [0.29228292, 0.68349574, 0.0989289],
        "properties": { "magmom": -0.0 },
        "label": "K",
        "xyz": [4.206444815014603, 2.2937051016302945e-6, -0.755962983154798]
      },
      {
        "species": [{ "element": "K", "occu": 1 }],
        "abc": [0.58329072, 0.8337901, 0.66720865],
        "properties": { "magmom": -0.0 },
        "label": "K",
        "xyz": [8.095141302351976, -2.5918342490381976, 3.521231576345944]
      },
      {
        "species": [{ "element": "K", "occu": 1 }],
        "abc": [0.41355236, 0.15687727, 0.32977155],
        "properties": { "magmom": 0.0 },
        "label": "K",
        "xyz": [2.6306448002906455, -2.5918315099897273, 2.323023083425551]
      },
      {
        "species": [{ "element": "K", "occu": 1 }],
        "abc": [0.99727937, 0.48987572, 0.49531499],
        "properties": { "magmom": 0.0 },
        "label": "K",
        "xyz": [5.316368821089208, -5.1836632194759344, 2.9087721720720023]
      },
      {
        "species": [{ "element": "As", "occu": 1 }],
        "abc": [0.01105899, 0.91342208, 0.89130111],
        "properties": { "magmom": -0.0 },
        "label": "As",
        "xyz": [9.73794117626652, 7.738302533866204e-6, 5.161387253830599]
      },
      {
        "species": [{ "element": "As", "occu": 1 }],
        "abc": [0.98885568, 0.0835231, 0.10581174],
        "properties": { "magmom": -0.0 },
        "label": "As",
        "xyz": [1.022272385002996, -5.1836683686327945, 0.6696148980301702]
      },
      {
        "species": [{ "element": "As", "occu": 1 }],
        "abc": [0.26673845, 0.22113231, 0.6876544],
        "properties": { "magmom": -0.0 },
        "label": "As",
        "xyz": [4.916406985678816, -2.5918313343212023, 5.086037705720398]
      },
      {
        "species": [{ "element": "As", "occu": 1 }],
        "abc": [0.73269138, 0.7743785400000001, 0.30899478],
        "properties": { "magmom": 0.0 },
        "label": "As",
        "xyz": [5.833590654114412, -2.591831835511528, 0.7444689587641327]
      }
    ]
  },
  "task_ids": null,
  "uncorrected_energy_per_atom": null,
  "energy_per_atom": -3.124758361111111,
  "formation_energy_per_atom": -0.420609611805556,
  "energy_above_hull": 0.0,
  "is_stable": true,
  "equilibrium_reaction_energy_per_atom": null,
  "decomposes_to": null,
  "xas": null,
  "grain_boundaries": null,
  "band_gap": 0.0,
  "cbm": null,
  "vbm": null,
  "efermi": 1.68490041,
  "is_gap_direct": null,
  "is_metal": null,
  "es_source_calc_id": null,
  "bandstructure": null,
  "dos": null,
  "dos_energy_up": null,
  "dos_energy_down": null,
  "is_magnetic": null,
  "ordering": null,
  "total_magnetization": 0.0,
  "total_magnetization_normalized_vol": null,
  "total_magnetization_normalized_formula_units": null,
  "num_magnetic_sites": null,
  "num_unique_magnetic_sites": null,
  "types_of_magnetic_species": null,
  "bulk_modulus": null,
  "shear_modulus": null,
  "universal_anisotropy": null,
  "homogeneous_poisson": null,
  "e_total": null,
  "e_ionic": null,
  "e_electronic": null,
  "n": null,
  "e_ij_max": null,
  "weighted_surface_energy_EV_PER_ANG2": null,
  "weighted_surface_energy": null,
  "weighted_work_function": null,
  "surface_anisotropy": null,
  "shape_factor": null,
  "has_reconstructed": null,
  "possible_species": null,
  "has_props": null,
  "theoretical": null,
  "database_IDs": null,
  "fields_not_requested": [
    "builder_meta",
    "nsites",
    "elements",
    "nelements",
    "composition",
    "composition_reduced",
    "chemsys",
    "symmetry",
    "property_name",
    "deprecated",
    "deprecation_reasons",
    "last_updated",
    "origins",
    "warnings",
    "task_ids",
    "uncorrected_energy_per_atom",
    "equilibrium_reaction_energy_per_atom",
    "decomposes_to",
    "xas",
    "grain_boundaries",
    "cbm",
    "vbm",
    "is_gap_direct",
    "is_metal",
    "es_source_calc_id",
    "bandstructure",
    "dos",
    "dos_energy_up",
    "dos_energy_down",
    "is_magnetic",
    "ordering",
    "total_magnetization_normalized_vol",
    "total_magnetization_normalized_formula_units",
    "num_magnetic_sites",
    "num_unique_magnetic_sites",
    "types_of_magnetic_species",
    "bulk_modulus",
    "shear_modulus",
    "universal_anisotropy",
    "homogeneous_poisson",
    "e_total",
    "e_ionic",
    "e_electronic",
    "n",
    "e_ij_max",
    "weighted_surface_energy_EV_PER_ANG2",
    "weighted_surface_energy",
    "weighted_work_function",
    "surface_anisotropy",
    "shape_factor",
    "has_reconstructed",
    "possible_species",
    "has_props",
    "theoretical",
    "database_IDs"
  ]
}
