{
  "builder_meta": null,
  "nsites": null,
  "elements": null,
  "nelements": null,
  "composition": null,
  "composition_reduced": null,
  "formula_pretty": "K5Bi4",
  "formula_anonymous": "A4B5",
  "chemsys": null,
  "volume": 385.77388603678935,
  "density": 4.439651848776721,
  "density_atomic": 42.86376511519882,
  "symmetry": null,
  "property_name": null,
  "material_id": "mp-1205955",
  "deprecated": null,
  "deprecation_reasons": null,
  "last_updated": null,
  "origins": null,
  "warnings": null,
  "structure": {
    "@module": "pymatgen.core.structure",
    "@class": "Structure",
    "charge": 0,
    "lattice": {
      "matrix": [
        [2.792385389999999, 6.3413873, 0.00345401],
        [-2.792385389999999, 6.3413873, 0.00345401],
        [0.0, 4.22213018, 10.89519162]
      ],
      "pbc": [true, true, true],
      "a": 6.9289696914528225,
      "b": 6.9289696914528225,
      "c": 11.684673024667187,
      "alpha": 70.66067304197638,
      "beta": 70.66067304197638,
      "gamma": 47.53190648110481,
      "volume": 385.77388603678907
    },
    "properties": {},
    "sites": [
      {
        "species": [{ "element": "K", "occu": 1 }],
        "abc": [0.90481666, 0.90481666, 0.38771965],
        "properties": { "magmom": 0.0 },
        "label": "K",
        "xyz": [0.0, 13.112588588748872, 4.230530373172947]
      },
      {
        "species": [{ "element": "K", "occu": 1 }],
        "abc": [0.09518334, 0.09518334, 0.61228035],
        "properties": { "magmom": 0.0 },
        "label": "K",
        "xyz": [0.0, 3.792316191251127, 6.671569266827054]
      },
      {
        "species": [{ "element": "K", "occu": 1 }],
        "abc": [0.24409658, 0.24409658, 0.16642997],
        "properties": { "magmom": -0.0 },
        "label": "K",
        "xyz": [0.0, 3.7985109039643623, 1.8149726385174232]
      },
      {
        "species": [{ "element": "K", "occu": 1 }],
        "abc": [0.75590342, 0.75590342, 0.8335700300000001],
        "properties": { "magmom": -0.0 },
        "label": "K",
        "xyz": [0.0, 13.106393876035636, 9.087127001482578]
      },
      {
        "species": [{ "element": "K", "occu": 1 }],
        "abc": [-0.0, -0.0, 0.0],
        "properties": { "magmom": -0.0 },
        "label": "K",
        "xyz": [0.0, 0.0, 0.0]
      },
      {
        "species": [{ "element": "Bi", "occu": 1 }],
        "abc": [0.60982362, 0.60982362, 0.39176304],
        "properties": { "magmom": -0.0 },
        "label": "Bi",
        "xyz": [0.0, 9.3883300728086, 4.272546064197157]
      },
      {
        "species": [{ "element": "Bi", "occu": 1 }],
        "abc": [0.39017638, 0.39017638, 0.60823696],
        "properties": { "magmom": -0.0 },
        "label": "Bi",
        "xyz": [0.0, 7.516574707191401, 6.629553575802843]
      },
      {
        "species": [{ "element": "Bi", "occu": 1 }],
        "abc": [0.54429163, 0.54429163, 0.171046099999999],
        "properties": { "magmom": -0.0 },
        "label": "Bi",
        "xyz": [0.0, 7.625306960937892, 1.8673400128195439]
      },
      {
        "species": [{ "element": "Bi", "occu": 1 }],
        "abc": [0.45570837000000003, 0.45570837000000003, 0.828953899999999],
        "properties": { "magmom": -0.0 },
        "label": "Bi",
        "xyz": [0.0, 9.2795978190621, 9.034759627180435]
      }
    ]
  },
  "task_ids": null,
  "uncorrected_energy_per_atom": null,
  "energy_per_atom": -29.829258777777778,
  "formation_energy_per_atom": -0.48476825986110905,
  "energy_above_hull": 0.0,
  "is_stable": true,
  "equilibrium_reaction_energy_per_atom": null,
  "decomposes_to": null,
  "xas": null,
  "grain_boundaries": null,
  "band_gap": 0.0,
  "cbm": null,
  "vbm": null,
  "efermi": 1.66463044,
  "is_gap_direct": null,
  "is_metal": null,
  "es_source_calc_id": null,
  "bandstructure": null,
  "dos": null,
  "dos_energy_up": null,
  "dos_energy_down": null,
  "is_magnetic": null,
  "ordering": null,
  "total_magnetization": 1e-7,
  "total_magnetization_normalized_vol": null,
  "total_magnetization_normalized_formula_units": null,
  "num_magnetic_sites": null,
  "num_unique_magnetic_sites": null,
  "types_of_magnetic_species": null,
  "bulk_modulus": null,
  "shear_modulus": null,
  "universal_anisotropy": null,
  "homogeneous_poisson": null,
  "e_total": null,
  "e_ionic": null,
  "e_electronic": null,
  "n": null,
  "e_ij_max": null,
  "weighted_surface_energy_EV_PER_ANG2": null,
  "weighted_surface_energy": null,
  "weighted_work_function": null,
  "surface_anisotropy": null,
  "shape_factor": null,
  "has_reconstructed": null,
  "possible_species": null,
  "has_props": null,
  "theoretical": null,
  "database_IDs": null,
  "fields_not_requested": [
    "builder_meta",
    "nsites",
    "elements",
    "nelements",
    "composition",
    "composition_reduced",
    "chemsys",
    "symmetry",
    "property_name",
    "deprecated",
    "deprecation_reasons",
    "last_updated",
    "origins",
    "warnings",
    "task_ids",
    "uncorrected_energy_per_atom",
    "equilibrium_reaction_energy_per_atom",
    "decomposes_to",
    "xas",
    "grain_boundaries",
    "cbm",
    "vbm",
    "is_gap_direct",
    "is_metal",
    "es_source_calc_id",
    "bandstructure",
    "dos",
    "dos_energy_up",
    "dos_energy_down",
    "is_magnetic",
    "ordering",
    "total_magnetization_normalized_vol",
    "total_magnetization_normalized_formula_units",
    "num_magnetic_sites",
    "num_unique_magnetic_sites",
    "types_of_magnetic_species",
    "bulk_modulus",
    "shear_modulus",
    "universal_anisotropy",
    "homogeneous_poisson",
    "e_total",
    "e_ionic",
    "e_electronic",
    "n",
    "e_ij_max",
    "weighted_surface_energy_EV_PER_ANG2",
    "weighted_surface_energy",
    "weighted_work_function",
    "surface_anisotropy",
    "shape_factor",
    "has_reconstructed",
    "possible_species",
    "has_props",
    "theoretical",
    "database_IDs"
  ]
}
