{
  "builder_meta": null,
  "nsites": null,
  "elements": null,
  "nelements": null,
  "composition": null,
  "composition_reduced": null,
  "formula_pretty": "K5Hg7",
  "formula_anonymous": "A5B7",
  "chemsys": null,
  "volume": 1625.966830747797,
  "density": 6.534534265503228,
  "density_atomic": 33.87430897391244,
  "symmetry": null,
  "property_name": null,
  "material_id": "mp-30718",
  "deprecated": null,
  "deprecation_reasons": null,
  "last_updated": null,
  "origins": null,
  "warnings": null,
  "structure": {
    "@module": "pymatgen.core.structure",
    "@class": "Structure",
    "charge": 0,
    "lattice": {
      "matrix": [
        [8.24438869, -0.0, 0.0],
        [-0.0, 10.13946352, 0.0],
        [0.0, 0.0, 19.45083483]
      ],
      "pbc": [true, true, true],
      "a": 8.24438869,
      "b": 10.13946352,
      "c": 19.45083483,
      "alpha": 90.0,
      "beta": 90.0,
      "gamma": 90.0,
      "volume": 1625.966830747797
    },
    "properties": {},
    "sites": [
      {
        "species": [{ "element": "K", "occu": 1 }],
        "abc": [0.25, 0.10267465, 0.58811901],
        "properties": { "magmom": 0.0 },
        "label": "K",
        "xyz": [2.0610971725, 1.041065868103768, 11.439405723893119]
      },
      {
        "species": [{ "element": "K", "occu": 1 }],
        "abc": [0.75, 0.89732535, 0.41188099],
        "properties": { "magmom": 0.0 },
        "label": "K",
        "xyz": [6.183291517499999, 9.098397651896232, 8.011429106106883]
      },
      {
        "species": [{ "element": "K", "occu": 1 }],
        "abc": [0.75, 0.10267465, 0.91188099],
        "properties": { "magmom": 0.0 },
        "label": "K",
        "xyz": [6.183291517499999, 1.041065868103768, 17.736846521106884]
      },
      {
        "species": [{ "element": "K", "occu": 1 }],
        "abc": [0.25, 0.89732535, 0.08811901],
        "properties": { "magmom": 0.0 },
        "label": "K",
        "xyz": [2.0610971725, 9.098397651896232, 1.7139883088931185]
      },
      {
        "species": [{ "element": "K", "occu": 1 }],
        "abc": [0.25, 0.99104536, 0.89002147],
        "properties": { "magmom": -0.0 },
        "label": "K",
        "xyz": [2.0610971725, 10.048668274385268, 17.311660608123802]
      },
      {
        "species": [{ "element": "K", "occu": 1 }],
        "abc": [0.75, 0.00895464, 0.10997853],
        "properties": { "magmom": -0.0 },
        "label": "K",
        "xyz": [6.183291517499999, 0.09079524561473279, 2.1391742218762]
      },
      {
        "species": [{ "element": "K", "occu": 1 }],
        "abc": [0.75, 0.99104536, 0.60997853],
        "properties": { "magmom": -0.0 },
        "label": "K",
        "xyz": [6.183291517499999, 10.048668274385268, 11.8645916368762]
      },
      {
        "species": [{ "element": "K", "occu": 1 }],
        "abc": [0.25, 0.00895464, 0.39002147],
        "properties": { "magmom": -0.0 },
        "label": "K",
        "xyz": [2.0610971725, 0.09079524561473279, 7.5862431931238]
      },
      {
        "species": [{ "element": "K", "occu": 1 }],
        "abc": [0.25, 0.81481503, 0.7095336],
        "properties": { "magmom": 0.0 },
        "label": "K",
        "xyz": [2.0610971725, 8.261787272232706, 13.801020859935289]
      },
      {
        "species": [{ "element": "K", "occu": 1 }],
        "abc": [0.75, 0.18518497, 0.2904664],
        "properties": { "magmom": 0.0 },
        "label": "K",
        "xyz": [6.183291517499999, 1.8776762477672944, 5.649813970064713]
      },
      {
        "species": [{ "element": "K", "occu": 1 }],
        "abc": [0.75, 0.81481503, 0.7904664],
        "properties": { "magmom": 0.0 },
        "label": "K",
        "xyz": [6.183291517499999, 8.261787272232706, 15.375231385064714]
      },
      {
        "species": [{ "element": "K", "occu": 1 }],
        "abc": [0.25, 0.18518497, 0.2095346],
        "properties": { "magmom": 0.0 },
        "label": "K",
        "xyz": [2.0610971725, 1.8776762477672944, 4.075622895770118]
      },
      {
        "species": [{ "element": "K", "occu": 1 }],
        "abc": [0.25, 0.47725336, 0.51813392],
        "properties": { "magmom": 0.0 },
        "label": "K",
        "xyz": [2.0610971725, 4.839093033517427, 10.078137297740435]
      },
      {
        "species": [{ "element": "K", "occu": 1 }],
        "abc": [0.75, 0.52274664, 0.48186608000000003],
        "properties": { "magmom": 0.0 },
        "label": "K",
        "xyz": [6.183291517499999, 5.300370486482573, 9.372697532259568]
      },
      {
        "species": [{ "element": "K", "occu": 1 }],
        "abc": [0.75, 0.47725336, 0.98186608],
        "properties": { "magmom": 0.0 },
        "label": "K",
        "xyz": [6.183291517499999, 4.839093033517427, 19.098114947259567]
      },
      {
        "species": [{ "element": "K", "occu": 1 }],
        "abc": [0.25, 0.52274664, 0.01813392],
        "properties": { "magmom": 0.0 },
        "label": "K",
        "xyz": [2.0610971725, 5.300370486482573, 0.35271988274043364]
      },
      {
        "species": [{ "element": "K", "occu": 1 }],
        "abc": [0.25, 0.42928076, 0.72729647],
        "properties": { "magmom": -0.0 },
        "label": "K",
        "xyz": [2.0610971725, 4.352676605857875, 14.14652351041205]
      },
      {
        "species": [{ "element": "K", "occu": 1 }],
        "abc": [0.75, 0.57071924, 0.27270353],
        "properties": { "magmom": -0.0 },
        "label": "K",
        "xyz": [6.183291517499999, 5.786786914142124, 5.304311319587951]
      },
      {
        "species": [{ "element": "K", "occu": 1 }],
        "abc": [0.75, 0.42928076, 0.77270353],
        "properties": { "magmom": -0.0 },
        "label": "K",
        "xyz": [6.183291517499999, 4.352676605857875, 15.029728734587952]
      },
      {
        "species": [{ "element": "K", "occu": 1 }],
        "abc": [0.25, 0.57071924, 0.22729647],
        "properties": { "magmom": -0.0 },
        "label": "K",
        "xyz": [2.0610971725, 5.786786914142124, 4.421106095412051]
      },
      {
        "species": [{ "element": "Hg", "occu": 1 }],
        "abc": [0.56807724, 0.37182888000000003, 0.14188525],
        "properties": { "magmom": -0.0 },
        "label": "Hg",
        "xyz": [4.683449572502416, 3.770145364442458, 2.7597865625632574]
      },
      {
        "species": [{ "element": "Hg", "occu": 1 }],
        "abc": [0.06807724, 0.62817112, 0.85811475],
        "properties": { "magmom": -0.0 },
        "label": "Hg",
        "xyz": [0.5612552275024155, 6.369318155557542, 16.691048267436745]
      },
      {
        "species": [{ "element": "Hg", "occu": 1 }],
        "abc": [0.43192276, 0.37182888000000003, 0.35811475],
        "properties": { "magmom": -0.0 },
        "label": "Hg",
        "xyz": [3.5609391174975844, 3.770145364442458, 6.9656308524367425]
      },
      {
        "species": [{ "element": "Hg", "occu": 1 }],
        "abc": [0.9319227600000001, 0.62817112, 0.64188525],
        "properties": { "magmom": -0.0 },
        "label": "Hg",
        "xyz": [7.683133462497584, 6.369318155557542, 12.485203977563257]
      },
      {
        "species": [{ "element": "Hg", "occu": 1 }],
        "abc": [0.43192276, 0.62817112, 0.85811475],
        "properties": { "magmom": -0.0 },
        "label": "Hg",
        "xyz": [3.5609391174975844, 6.369318155557542, 16.691048267436745]
      },
      {
        "species": [{ "element": "Hg", "occu": 1 }],
        "abc": [0.9319227600000001, 0.37182888000000003, 0.14188525],
        "properties": { "magmom": -0.0 },
        "label": "Hg",
        "xyz": [7.683133462497584, 3.770145364442458, 2.7597865625632574]
      },
      {
        "species": [{ "element": "Hg", "occu": 1 }],
        "abc": [0.56807724, 0.62817112, 0.64188525],
        "properties": { "magmom": -0.0 },
        "label": "Hg",
        "xyz": [4.683449572502416, 6.369318155557542, 12.485203977563257]
      },
      {
        "species": [{ "element": "Hg", "occu": 1 }],
        "abc": [0.06807724, 0.37182888000000003, 0.35811475],
        "properties": { "magmom": -0.0 },
        "label": "Hg",
        "xyz": [0.5612552275024155, 3.770145364442458, 6.9656308524367425]
      },
      {
        "species": [{ "element": "Hg", "occu": 1 }],
        "abc": [0.06847869, 0.68080205, 0.38070144],
        "properties": { "magmom": -0.0 },
        "label": "Hg",
        "xyz": [0.564564937342016, 6.902967550316216, 7.404960828983156]
      },
      {
        "species": [{ "element": "Hg", "occu": 1 }],
        "abc": [0.5684786900000001, 0.31919795, 0.61929856],
        "properties": { "magmom": -0.0 },
        "label": "Hg",
        "xyz": [4.686759282342016, 3.236495969683784, 12.045874001016847]
      },
      {
        "species": [{ "element": "Hg", "occu": 1 }],
        "abc": [0.93152131, 0.68080205, 0.11929856],
        "properties": { "magmom": -0.0 },
        "label": "Hg",
        "xyz": [7.679823752657984, 6.902967550316216, 2.320456586016845]
      },
      {
        "species": [{ "element": "Hg", "occu": 1 }],
        "abc": [0.43152131, 0.31919795, 0.8807014400000001],
        "properties": { "magmom": -0.0 },
        "label": "Hg",
        "xyz": [3.5576294076579833, 3.236495969683784, 17.13037824398316]
      },
      {
        "species": [{ "element": "Hg", "occu": 1 }],
        "abc": [0.93152131, 0.31919795, 0.61929856],
        "properties": { "magmom": -0.0 },
        "label": "Hg",
        "xyz": [7.679823752657984, 3.236495969683784, 12.045874001016847]
      },
      {
        "species": [{ "element": "Hg", "occu": 1 }],
        "abc": [0.43152131, 0.68080205, 0.38070144],
        "properties": { "magmom": -0.0 },
        "label": "Hg",
        "xyz": [3.5576294076579833, 6.902967550316216, 7.404960828983156]
      },
      {
        "species": [{ "element": "Hg", "occu": 1 }],
        "abc": [0.06847869, 0.31919795, 0.8807014400000001],
        "properties": { "magmom": -0.0 },
        "label": "Hg",
        "xyz": [0.564564937342016, 3.236495969683784, 17.13037824398316]
      },
      {
        "species": [{ "element": "Hg", "occu": 1 }],
        "abc": [0.5684786900000001, 0.68080205, 0.11929856],
        "properties": { "magmom": -0.0 },
        "label": "Hg",
        "xyz": [4.686759282342016, 6.902967550316216, 2.320456586016845]
      },
      {
        "species": [{ "element": "Hg", "occu": 1 }],
        "abc": [0.56623122, 0.19894172000000002, 0.47192339],
        "properties": { "magmom": -0.0 },
        "label": "Hg",
        "xyz": [4.668230266092902, 2.0171623125460543, 9.179303911303675]
      },
      {
        "species": [{ "element": "Hg", "occu": 1 }],
        "abc": [0.06623122000000001, 0.80105828, 0.5280766100000001],
        "properties": { "magmom": -0.0 },
        "label": "Hg",
        "xyz": [0.5460359210929018, 8.122301207453946, 10.271530918696328]
      },
      {
        "species": [{ "element": "Hg", "occu": 1 }],
        "abc": [0.43376878, 0.19894172000000002, 0.028076610000000002],
        "properties": { "magmom": -0.0 },
        "label": "Hg",
        "xyz": [3.576158423907098, 2.0171623125460543, 0.5461135036963264]
      },
      {
        "species": [{ "element": "Hg", "occu": 1 }],
        "abc": [0.93376878, 0.80105828, 0.97192339],
        "properties": { "magmom": -0.0 },
        "label": "Hg",
        "xyz": [7.698352768907097, 8.122301207453946, 18.904721326303676]
      },
      {
        "species": [{ "element": "Hg", "occu": 1 }],
        "abc": [0.43376878, 0.80105828, 0.5280766100000001],
        "properties": { "magmom": -0.0 },
        "label": "Hg",
        "xyz": [3.576158423907098, 8.122301207453946, 10.271530918696328]
      },
      {
        "species": [{ "element": "Hg", "occu": 1 }],
        "abc": [0.93376878, 0.19894172000000002, 0.47192339],
        "properties": { "magmom": -0.0 },
        "label": "Hg",
        "xyz": [7.698352768907097, 2.0171623125460543, 9.179303911303675]
      },
      {
        "species": [{ "element": "Hg", "occu": 1 }],
        "abc": [0.56623122, 0.80105828, 0.97192339],
        "properties": { "magmom": -0.0 },
        "label": "Hg",
        "xyz": [4.668230266092902, 8.122301207453946, 18.904721326303676]
      },
      {
        "species": [{ "element": "Hg", "occu": 1 }],
        "abc": [0.06623122000000001, 0.19894172000000002, 0.028076610000000002],
        "properties": { "magmom": -0.0 },
        "label": "Hg",
        "xyz": [0.5460359210929018, 2.0171623125460543, 0.5461135036963264]
      },
      {
        "species": [{ "element": "Hg", "occu": 1 }],
        "abc": [0.5, 0.87165284, 0.25],
        "properties": { "magmom": 0.0 },
        "label": "Hg",
        "xyz": [4.122194345, 8.838092173284396, 4.8627087075]
      },
      {
        "species": [{ "element": "Hg", "occu": 1 }],
        "abc": [0.0, 0.12834716000000002, 0.75],
        "properties": { "magmom": 0.0 },
        "label": "Hg",
        "xyz": [0.0, 1.3013713467156034, 14.5881261225]
      },
      {
        "species": [{ "element": "Hg", "occu": 1 }],
        "abc": [0.5, 0.12834716000000002, 0.75],
        "properties": { "magmom": 0.0 },
        "label": "Hg",
        "xyz": [4.122194345, 1.3013713467156034, 14.5881261225]
      },
      {
        "species": [{ "element": "Hg", "occu": 1 }],
        "abc": [0.0, 0.87165284, 0.25],
        "properties": { "magmom": 0.0 },
        "label": "Hg",
        "xyz": [0.0, 8.838092173284396, 4.8627087075]
      }
    ]
  },
  "task_ids": null,
  "uncorrected_energy_per_atom": null,
  "energy_per_atom": -31.588496582708334,
  "formation_energy_per_atom": -0.282999471145837,
  "energy_above_hull": 0.0,
  "is_stable": true,
  "equilibrium_reaction_energy_per_atom": null,
  "decomposes_to": null,
  "xas": null,
  "grain_boundaries": null,
  "band_gap": 0.0,
  "cbm": null,
  "vbm": null,
  "efermi": 1.29511244,
  "is_gap_direct": null,
  "is_metal": null,
  "es_source_calc_id": null,
  "bandstructure": null,
  "dos": null,
  "dos_energy_up": null,
  "dos_energy_down": null,
  "is_magnetic": null,
  "ordering": null,
  "total_magnetization": 6e-7,
  "total_magnetization_normalized_vol": null,
  "total_magnetization_normalized_formula_units": null,
  "num_magnetic_sites": null,
  "num_unique_magnetic_sites": null,
  "types_of_magnetic_species": null,
  "bulk_modulus": null,
  "shear_modulus": null,
  "universal_anisotropy": null,
  "homogeneous_poisson": null,
  "e_total": null,
  "e_ionic": null,
  "e_electronic": null,
  "n": null,
  "e_ij_max": null,
  "weighted_surface_energy_EV_PER_ANG2": null,
  "weighted_surface_energy": null,
  "weighted_work_function": null,
  "surface_anisotropy": null,
  "shape_factor": null,
  "has_reconstructed": null,
  "possible_species": null,
  "has_props": null,
  "theoretical": null,
  "database_IDs": null,
  "fields_not_requested": [
    "builder_meta",
    "nsites",
    "elements",
    "nelements",
    "composition",
    "composition_reduced",
    "chemsys",
    "symmetry",
    "property_name",
    "deprecated",
    "deprecation_reasons",
    "last_updated",
    "origins",
    "warnings",
    "task_ids",
    "uncorrected_energy_per_atom",
    "equilibrium_reaction_energy_per_atom",
    "decomposes_to",
    "xas",
    "grain_boundaries",
    "cbm",
    "vbm",
    "is_gap_direct",
    "is_metal",
    "es_source_calc_id",
    "bandstructure",
    "dos",
    "dos_energy_up",
    "dos_energy_down",
    "is_magnetic",
    "ordering",
    "total_magnetization_normalized_vol",
    "total_magnetization_normalized_formula_units",
    "num_magnetic_sites",
    "num_unique_magnetic_sites",
    "types_of_magnetic_species",
    "bulk_modulus",
    "shear_modulus",
    "universal_anisotropy",
    "homogeneous_poisson",
    "e_total",
    "e_ionic",
    "e_electronic",
    "n",
    "e_ij_max",
    "weighted_surface_energy_EV_PER_ANG2",
    "weighted_surface_energy",
    "weighted_work_function",
    "surface_anisotropy",
    "shape_factor",
    "has_reconstructed",
    "possible_species",
    "has_props",
    "theoretical",
    "database_IDs"
  ]
}
