{"builder_meta": null, "nsites": null, "elements": null, "nelements": null, "composition": null, "composition_reduced": null, "formula_pretty": "K5La2", "formula_anonymous": "A2B5", "chemsys": null, "volume": 872.8786848631175, "density": 1.800793639634701, "density_atomic": 62.348477490222685, "symmetry": null, "property_name": null, "material_id": "mp-1097055", "deprecated": null, "deprecation_reasons": null, "last_updated": null, "origins": null, "warnings": null, "structure": {"@module": "pymatgen.core.structure", "@class": "Structure", "charge": 0, "lattice": {"matrix": [[3.587552, 10.067947, 0.0], [-3.587552, 10.067947, 0.0], [0.0, 3.957557999999999, 12.083278]], "pbc": [true, true, true], "a": 10.688034718670828, "b": 10.688034718670828, "c": 12.71486816874827, "alpha": 72.95058865925073, "beta": 72.95058865925073, "gamma": 39.22542570833843, "volume": 872.8786848631175}, "properties": {}, "sites": [{"species": [{"element": "K", "occu": 1}], "abc": [0.010112, 0.548814999999999, 0.320511], "properties": {"magmom": 0.001}, "label": "K", "xyz": [-1.9326250250559966, 6.89568828500699, 3.8728235150579997]}, {"species": [{"element": "K", "occu": 1}], "abc": [0.451185, 0.989888, 0.179488999999999], "properties": {"magmom": 0.001}, "label": "K", "xyz": [-1.9326250250560002, 15.218984714992997, 2.168815484941988]}, {"species": [{"element": "K", "occu": 1}], "abc": [0.989888, 0.451185, 0.679489], "properties": {"magmom": 0.001}, "label": "K", "xyz": [1.9326250250560002, 17.197763714993, 8.210454484942]}, {"species": [{"element": "K", "occu": 1}], "abc": [0.548814999999999, 0.010112, 0.820511], "properties": {"magmom": 0.001}, "label": "K", "xyz": [1.9326250250559966, 8.87446728500699, 9.914462515058]}, {"species": [{"element": "K", "occu": 1}], "abc": [0.159489, 0.840511, 0.25], "properties": {"magmom": -0.003}, "label": "K", "xyz": [-2.443201838144, 11.0573365, 3.0208195]}, {"species": [{"element": "K", "occu": 1}], "abc": [0.840511, 0.159489, 0.75], "properties": {"magmom": -0.003}, "label": "K", "xyz": [2.443201838144, 13.0361155, 9.0624585]}, {"species": [{"element": "K", "occu": 1}], "abc": [0.618421, 0.252098999999999, 0.117118], "properties": {"magmom": 0.0}, "label": "K", "xyz": [1.3141992237440034, 9.227850500283989, 1.415169352804]}, {"species": [{"element": "K", "occu": 1}], "abc": [0.747900999999999, 0.381579, 0.382882], "properties": {"magmom": 0.0}, "label": "K", "xyz": [1.3141992237439968, 12.88682249971599, 4.626469647196]}, {"species": [{"element": "K", "occu": 1}], "abc": [0.381579, 0.747900999999999, 0.882882], "properties": {"magmom": 0.0}, "label": "K", "xyz": [-1.3141992237439968, 14.86560149971599, 10.668108647196]}, {"species": [{"element": "K", "occu": 1}], "abc": [0.252098999999999, 0.618421, 0.6171179999999991], "properties": {"magmom": 0.0}, "label": "K", "xyz": [-1.3141992237440034, 11.206629500283984, 7.456808352803988]}, {"species": [{"element": "La", "occu": 1}], "abc": [0.911972, 0.436608, 0.030923], "properties": {"magmom": 0.41400000000000003}, "label": "La", "xyz": [1.7053930689280004, 13.699811531294001, 0.373651205594]}, {"species": [{"element": "La", "occu": 1}], "abc": [0.563392, 0.088028, 0.469076999999999], "properties": {"magmom": 0.41400000000000003}, "label": "La", "xyz": [1.705393068928, 8.414861468705995, 5.667987794405988]}, {"species": [{"element": "La", "occu": 1}], "abc": [0.088028, 0.563392, 0.969077], "properties": {"magmom": 0.41400000000000003}, "label": "La", "xyz": [-1.705393068928, 10.393640468705998, 11.709626794405999]}, {"species": [{"element": "La", "occu": 1}], "abc": [0.436608, 0.911972, 0.530922999999999], "properties": {"magmom": 0.41400000000000003}, "label": "La", "xyz": [-1.7053930689280004, 15.678590531293995, 6.415290205593989]}]}, "task_ids": null, "uncorrected_energy_per_atom": null, "energy_per_atom": -12.35455116732143, "formation_energy_per_atom": 0.442717417142856, "energy_above_hull": 0.442717417142855, "is_stable": false, "equilibrium_reaction_energy_per_atom": null, "decomposes_to": null, "xas": null, "grain_boundaries": null, "band_gap": 0.0, "cbm": null, "vbm": null, "efermi": 1.1163233, "is_gap_direct": null, "is_metal": null, "es_source_calc_id": null, "bandstructure": null, "dos": null, "dos_energy_up": null, "dos_energy_down": null, "is_magnetic": null, "ordering": null, "total_magnetization": 3.1519759, "total_magnetization_normalized_vol": null, "total_magnetization_normalized_formula_units": null, "num_magnetic_sites": null, "num_unique_magnetic_sites": null, "types_of_magnetic_species": null, "bulk_modulus": null, "shear_modulus": null, "universal_anisotropy": null, "homogeneous_poisson": null, "e_total": null, "e_ionic": null, "e_electronic": null, "n": null, "e_ij_max": null, "weighted_surface_energy_EV_PER_ANG2": null, "weighted_surface_energy": null, "weighted_work_function": null, "surface_anisotropy": null, "shape_factor": null, "has_reconstructed": null, "possible_species": null, "has_props": null, "theoretical": null, "database_IDs": null, "fields_not_requested": ["builder_meta", "nsites", "elements", "nelements", "composition", "composition_reduced", "chemsys", "symmetry", "property_name", "deprecated", "deprecation_reasons", "last_updated", "origins", "warnings", "task_ids", "uncorrected_energy_per_atom", "equilibrium_reaction_energy_per_atom", "decomposes_to", "xas", "grain_boundaries", "cbm", "vbm", "is_gap_direct", "is_metal", "es_source_calc_id", "bandstructure", "dos", "dos_energy_up", "dos_energy_down", "is_magnetic", "ordering", "total_magnetization_normalized_vol", "total_magnetization_normalized_formula_units", "num_magnetic_sites", "num_unique_magnetic_sites", "types_of_magnetic_species", "bulk_modulus", "shear_modulus", "universal_anisotropy", "homogeneous_poisson", "e_total", "e_ionic", "e_electronic", "n", "e_ij_max", "weighted_surface_energy_EV_PER_ANG2", "weighted_surface_energy", "weighted_work_function", "surface_anisotropy", "shape_factor", "has_reconstructed", "possible_species", "has_props", "theoretical", "database_IDs"]}