{
  "builder_meta": null,
  "nsites": null,
  "elements": null,
  "nelements": null,
  "composition": null,
  "composition_reduced": null,
  "formula_pretty": "K5Sb4",
  "formula_anonymous": "A4B5",
  "chemsys": null,
  "volume": 360.1789231906424,
  "density": 3.14668667976223,
  "density_atomic": 40.01988035451583,
  "symmetry": null,
  "property_name": null,
  "material_id": "mp-30021",
  "deprecated": null,
  "deprecation_reasons": null,
  "last_updated": null,
  "origins": null,
  "warnings": null,
  "structure": {
    "@module": "pymatgen.core.structure",
    "@class": "Structure",
    "charge": 0,
    "lattice": {
      "matrix": [
        [5.31341714, 0.0, 1.37144224],
        [2.36968865, 6.11617159, 1.7977309300000002],
        [-0.027426620000000002, 0.04553315, 11.08493961]
      ],
      "pbc": [true, true, true],
      "a": 5.487554603036037,
      "b": 6.8010893034087285,
      "c": 11.085067056386285,
      "alpha": 74.50473848761501,
      "beta": 75.6691873848608,
      "gamma": 66.20709121215498,
      "volume": 360.1789231906424
    },
    "properties": {},
    "sites": [
      {
        "species": [{ "element": "K", "occu": 1 }],
        "abc": [0.89958856, 0.80943662, 0.39138626],
        "properties": { "magmom": -0.0 },
        "label": "K",
        "xyz": [6.6872676427340405, 4.968474308434145, 7.027376053737189]
      },
      {
        "species": [{ "element": "K", "occu": 1 }],
        "abc": [0.10041144, 0.19056338, 0.60861374],
        "properties": { "magmom": -0.0 },
        "label": "K",
        "xyz": [0.9684115272659598, 1.1932304315658553, 7.226736726262811]
      },
      {
        "species": [{ "element": "K", "occu": 1 }],
        "abc": [0.24538067, 0.34274717, 0.16649149],
        "properties": { "magmom": 0.0 },
        "label": "K",
        "xyz": [2.1114476375418403, 2.1038813856947938, 2.7982407166253878]
      },
      {
        "species": [{ "element": "K", "occu": 1 }],
        "abc": [0.75461933, 0.65725283, 0.83350851],
        "properties": { "magmom": 0.0 },
        "label": "K",
        "xyz": [5.54423153245816, 4.0578233543052065, 11.455872063374612]
      },
      {
        "species": [{ "element": "K", "occu": 1 }],
        "abc": [0.0, -0.0, 0.0],
        "properties": { "magmom": 0.0 },
        "label": "K",
        "xyz": [0.0, 0.0, 0.0]
      },
      {
        "species": [{ "element": "Sb", "occu": 1 }],
        "abc": [0.54430493, 0.73476992, 0.17662122],
        "properties": { "magmom": -0.0 },
        "label": "Sb",
        "xyz": [4.628450961149031, 4.502021030394016, 4.025236941604392]
      },
      {
        "species": [{ "element": "Sb", "occu": 1 }],
        "abc": [0.45569507000000004, 0.26523008, 0.82337878],
        "properties": { "magmom": -0.0 },
        "label": "Sb",
        "xyz": [3.027228208850968, 1.6596837096059842, 10.228875838395608]
      },
      {
        "species": [{ "element": "Sb", "occu": 1 }],
        "abc": [0.60506338, 0.3982214, 0.39165384000000003],
        "properties": { "magmom": -0.0 },
        "label": "Sb",
        "xyz": [4.147873124804223, 2.453423646254822, 5.887163569401675]
      },
      {
        "species": [{ "element": "Sb", "occu": 1 }],
        "abc": [0.39493662, 0.601778599999999, 0.60834616],
        "properties": { "magmom": -0.0 },
        "label": "Sb",
        "xyz": [3.5078060451957755, 3.7082810937451725, 8.366949210598323]
      }
    ]
  },
  "task_ids": null,
  "uncorrected_energy_per_atom": null,
  "energy_per_atom": -15.344439172222224,
  "formation_energy_per_atom": -0.575929994305555,
  "energy_above_hull": 0.0,
  "is_stable": true,
  "equilibrium_reaction_energy_per_atom": null,
  "decomposes_to": null,
  "xas": null,
  "grain_boundaries": null,
  "band_gap": 0.0,
  "cbm": null,
  "vbm": null,
  "efermi": 2.27573795,
  "is_gap_direct": null,
  "is_metal": null,
  "es_source_calc_id": null,
  "bandstructure": null,
  "dos": null,
  "dos_energy_up": null,
  "dos_energy_down": null,
  "is_magnetic": null,
  "ordering": null,
  "total_magnetization": 0.0,
  "total_magnetization_normalized_vol": null,
  "total_magnetization_normalized_formula_units": null,
  "num_magnetic_sites": null,
  "num_unique_magnetic_sites": null,
  "types_of_magnetic_species": null,
  "bulk_modulus": null,
  "shear_modulus": null,
  "universal_anisotropy": null,
  "homogeneous_poisson": null,
  "e_total": null,
  "e_ionic": null,
  "e_electronic": null,
  "n": null,
  "e_ij_max": null,
  "weighted_surface_energy_EV_PER_ANG2": null,
  "weighted_surface_energy": null,
  "weighted_work_function": null,
  "surface_anisotropy": null,
  "shape_factor": null,
  "has_reconstructed": null,
  "possible_species": null,
  "has_props": null,
  "theoretical": null,
  "database_IDs": null,
  "fields_not_requested": [
    "builder_meta",
    "nsites",
    "elements",
    "nelements",
    "composition",
    "composition_reduced",
    "chemsys",
    "symmetry",
    "property_name",
    "deprecated",
    "deprecation_reasons",
    "last_updated",
    "origins",
    "warnings",
    "task_ids",
    "uncorrected_energy_per_atom",
    "equilibrium_reaction_energy_per_atom",
    "decomposes_to",
    "xas",
    "grain_boundaries",
    "cbm",
    "vbm",
    "is_gap_direct",
    "is_metal",
    "es_source_calc_id",
    "bandstructure",
    "dos",
    "dos_energy_up",
    "dos_energy_down",
    "is_magnetic",
    "ordering",
    "total_magnetization_normalized_vol",
    "total_magnetization_normalized_formula_units",
    "num_magnetic_sites",
    "num_unique_magnetic_sites",
    "types_of_magnetic_species",
    "bulk_modulus",
    "shear_modulus",
    "universal_anisotropy",
    "homogeneous_poisson",
    "e_total",
    "e_ionic",
    "e_electronic",
    "n",
    "e_ij_max",
    "weighted_surface_energy_EV_PER_ANG2",
    "weighted_surface_energy",
    "weighted_work_function",
    "surface_anisotropy",
    "shape_factor",
    "has_reconstructed",
    "possible_species",
    "has_props",
    "theoretical",
    "database_IDs"
  ]
}
