{"builder_meta": null, "nsites": null, "elements": null, "nelements": null, "composition": null, "composition_reduced": null, "formula_pretty": "K5Se3", "formula_anonymous": "A3B5", "chemsys": null, "volume": 505.5792268002451, "density": 2.8401869735763983, "density_atomic": 31.59870167501532, "symmetry": null, "property_name": null, "material_id": "mp-755633", "deprecated": null, "deprecation_reasons": null, "last_updated": null, "origins": null, "warnings": null, "structure": {"@module": "pymatgen.core.structure", "@class": "Structure", "charge": 0, "lattice": {"matrix": [[0.0022121800000000002, 6.07077176, 0.00710508], [-9.12608487, 3.03206691, -0.00154922], [-0.00662543, -3.02485291, 9.12093908]], "pbc": [true, true, true], "a": 6.070776320860097, "b": 9.616592806251207, "c": 9.609438522854985, "alpha": 95.66702584230136, "beta": 108.28045088710333, "gamma": 71.64225870973944, "volume": 505.5792268002451}, "properties": {}, "sites": [{"species": [{"element": "K", "occu": 1}], "abc": [0.91171817, 0.8737799700000001, 0.69410438], "properties": {"magmom": -0.0}, "label": "K", "xyz": [-7.976772019207127, 6.084628599485926, 6.33600791827135]}, {"species": [{"element": "K", "occu": 1}], "abc": [0.72012723, 0.86702481, 0.31585476], "properties": {"magmom": 0.0}, "label": "K", "xyz": [-7.913041623002509, 6.0451910981177095, 2.884665373491201]}, {"species": [{"element": "K", "occu": 1}], "abc": [0.21270553, 0.69416839, 0.1268914], "properties": {"magmom": -0.0}, "label": "K", "xyz": [-6.335409808380205, 3.012223909462834, 1.1578045994298485]}, {"species": [{"element": "K", "occu": 1}], "abc": [0.59184498, 0.68360156, 0.86873835], "properties": {"magmom": 0.0}, "label": "K", "xyz": [-6.243052351322781, 3.037875734556046, 7.9268556235314325]}, {"species": [{"element": "K", "occu": 1}], "abc": [0.24713446, 0.49970547, 0.49899887], "properties": {"magmom": 0.0}, "label": "K", "xyz": [-4.56311390539678, 1.5060391370176358, 4.552320050659662]}, {"species": [{"element": "K", "occu": 1}], "abc": [0.7481507, 0.50037398, 0.50193734], "properties": {"magmom": 0.0}, "label": "K", "xyz": [-4.568125914914713, 4.540732905630574, 4.582680381315507]}, {"species": [{"element": "K", "occu": 1}], "abc": [0.40753779, 0.31585838, 0.13374334000000002], "properties": {"magmom": 0.0}, "label": "K", "xyz": [-2.8825349429695644, 3.0272187177168974, 1.2222711109772368]}, {"species": [{"element": "K", "occu": 1}], "abc": [0.78153182, 0.30537182, 0.8732043700000001], "properties": {"magmom": 0.0}, "label": "K", "xyz": [-2.7909056115939253, 3.029094313446663, 7.969523621132445]}, {"species": [{"element": "K", "occu": 1}], "abc": [0.27501126, 0.13289551, 0.68264568], "properties": {"magmom": -0.0}, "label": "K", "xyz": [-1.2167301498604293, 0.00757589760166244, 6.228117753126373]}, {"species": [{"element": "K", "occu": 1}], "abc": [0.08614941, 0.12627402000000001, 0.3035554], "properties": {"magmom": -0.0}, "label": "K", "xyz": [-1.1542080304480857, -0.012345752032874024, 2.7691267830177697]}, {"species": [{"element": "Se", "occu": 1}], "abc": [0.33982948, 0.81012457, 0.49630292000000004], "properties": {"magmom": 0.0}, "label": "Se", "xyz": [-7.395802037368444, 3.018135780270967, 4.527908153001537]}, {"species": [{"element": "Se", "occu": 1}], "abc": [0.153390499999999, 0.50225809, 0.81053486], "properties": {"magmom": -0.0}, "label": "Se", "xyz": [-4.588680770565298, 0.002330120693633475, 7.393150823771879]}, {"species": [{"element": "Se", "occu": 1}], "abc": [0.8432238400000001, 0.49730756000000004, 0.19029634], "properties": {"magmom": 0.0}, "label": "Se", "xyz": [-4.537866431218173, 6.05127083418825, 1.740902058309971]}, {"species": [{"element": "Se", "occu": 1}], "abc": [0.65378377, 0.18981137, 0.50181298], "properties": {"magmom": 0.0}, "label": "Se", "xyz": [-1.7341131113027348, 3.0265823693523304, 4.581356746551178]}, {"species": [{"element": "Se", "occu": 1}], "abc": [0.29775247, 0.99936661, 0.99893948], "properties": {"magmom": -0.0}, "label": "Se", "xyz": [-9.126264220644082, 1.8160887224942361, 9.111833458066881]}, {"species": [{"element": "Se", "occu": 1}], "abc": [0.69681958, 0.0004909, 0.99947253], "properties": {"magmom": 0.0}, "label": "Se", "xyz": [-0.0095604400086365, 1.2084636788896175, 9.12107825661284]}]}, "task_ids": null, "uncorrected_energy_per_atom": null, "energy_per_atom": -3.20936536375, "formation_energy_per_atom": -1.191292482910155, "energy_above_hull": 0.030649843750000003, "is_stable": false, "equilibrium_reaction_energy_per_atom": null, "decomposes_to": null, "xas": null, "grain_boundaries": null, "band_gap": 0.42860000000000004, "cbm": null, "vbm": null, "efermi": 0.41131836, "is_gap_direct": null, "is_metal": null, "es_source_calc_id": null, "bandstructure": null, "dos": null, "dos_energy_up": null, "dos_energy_down": null, "is_magnetic": null, "ordering": null, "total_magnetization": 0.0, "total_magnetization_normalized_vol": null, "total_magnetization_normalized_formula_units": null, "num_magnetic_sites": null, "num_unique_magnetic_sites": null, "types_of_magnetic_species": null, "bulk_modulus": null, "shear_modulus": null, "universal_anisotropy": null, "homogeneous_poisson": null, "e_total": null, "e_ionic": null, "e_electronic": null, "n": null, "e_ij_max": null, "weighted_surface_energy_EV_PER_ANG2": null, "weighted_surface_energy": null, "weighted_work_function": null, "surface_anisotropy": null, "shape_factor": null, "has_reconstructed": null, "possible_species": null, "has_props": null, "theoretical": null, "database_IDs": null, "fields_not_requested": ["builder_meta", "nsites", "elements", "nelements", "composition", "composition_reduced", "chemsys", "symmetry", "property_name", "deprecated", "deprecation_reasons", "last_updated", "origins", "warnings", "task_ids", "uncorrected_energy_per_atom", "equilibrium_reaction_energy_per_atom", "decomposes_to", "xas", "grain_boundaries", "cbm", "vbm", "is_gap_direct", "is_metal", "es_source_calc_id", "bandstructure", "dos", "dos_energy_up", "dos_energy_down", "is_magnetic", "ordering", "total_magnetization_normalized_vol", "total_magnetization_normalized_formula_units", "num_magnetic_sites", "num_unique_magnetic_sites", "types_of_magnetic_species", "bulk_modulus", "shear_modulus", "universal_anisotropy", "homogeneous_poisson", "e_total", "e_ionic", "e_electronic", "n", "e_ij_max", "weighted_surface_energy_EV_PER_ANG2", "weighted_surface_energy", "weighted_work_function", "surface_anisotropy", "shape_factor", "has_reconstructed", "possible_species", "has_props", "theoretical", "database_IDs"]}