{
  "builder_meta": null,
  "nsites": null,
  "elements": null,
  "nelements": null,
  "composition": null,
  "composition_reduced": null,
  "formula_pretty": "K5Te3",
  "formula_anonymous": "A3B5",
  "chemsys": null,
  "volume": 609.8372538320665,
  "density": 3.149284900515929,
  "density_atomic": 38.114828364504156,
  "symmetry": null,
  "property_name": null,
  "material_id": "mp-644",
  "deprecated": null,
  "deprecation_reasons": null,
  "last_updated": null,
  "origins": null,
  "warnings": null,
  "structure": {
    "@module": "pymatgen.core.structure",
    "@class": "Structure",
    "charge": 0,
    "lattice": {
      "matrix": [
        [-6.88498255, 6.88498255, 3.21623869],
        [6.88498255, -6.88498255, 3.21623869],
        [6.88498255, 6.88498255, -3.21623869]
      ],
      "pbc": [true, true, true],
      "a": 10.254275241998428,
      "b": 10.254275241998428,
      "c": 10.254275241998428,
      "alpha": 95.64562765167214,
      "beta": 95.64562765167214,
      "gamma": 143.44150396280688,
      "volume": 609.8372538320665
    },
    "properties": {},
    "sites": [
      {
        "species": [{ "element": "K", "occu": 1 }],
        "abc": [0.25, 0.75, 0.5],
        "properties": { "magmom": 0.0 },
        "label": "K",
        "xyz": [6.88498255, 0.0, 1.608119345]
      },
      {
        "species": [{ "element": "K", "occu": 1 }],
        "abc": [0.75, 0.25, 0.5],
        "properties": { "magmom": 0.0 },
        "label": "K",
        "xyz": [0.0, 6.88498255, 1.608119345]
      },
      {
        "species": [{ "element": "K", "occu": 1 }],
        "abc": [0.41180956, 0.71886285, 0.13067242],
        "properties": { "magmom": 0.0 },
        "label": "K",
        "xyz": [3.013733875036361, -1.214379212103819, 3.216238657837613]
      },
      {
        "species": [{ "element": "K", "occu": 1 }],
        "abc": [0.71886285, 0.58819044, 0.30705329],
        "properties": { "magmom": 0.0 },
        "label": "K",
        "xyz": [1.2143792809536431, 3.013733806186536, 3.2162386900000004]
      },
      {
        "species": [{ "element": "K", "occu": 1 }],
        "abc": [0.28113715, 0.41180956, 0.69294671],
        "properties": { "magmom": 0.0 },
        "label": "K",
        "xyz": [5.670603269046356, 3.8712487438134646, 0.0]
      },
      {
        "species": [{ "element": "K", "occu": 1 }],
        "abc": [0.58819044, 0.28113715, 0.86932758],
        "properties": { "magmom": 0.0 },
        "label": "K",
        "xyz": [3.87124867496364, 8.099361762103818, 3.2162386975898016e-8]
      },
      {
        "species": [{ "element": "K", "occu": 1 }],
        "abc": [0.77560451, 0.09134141, 0.8669469200000001],
        "properties": { "magmom": 0.0 },
        "label": "K",
        "xyz": [1.2577749128673412, 10.68005391908515, -3.2162386904843743e-6]
      },
      {
        "species": [{ "element": "K", "occu": 1 }],
        "abc": [0.09134141, 0.22439549, 0.31573691],
        "properties": { "magmom": 0.0 },
        "label": "K",
        "xyz": [3.089918134747225, 1.2577680967346165, -3.216238675385341e-8]
      },
      {
        "species": [{ "element": "K", "occu": 1 }],
        "abc": [0.90865859, 0.77560451, 0.68426309],
        "properties": { "magmom": 0.0 },
        "label": "K",
        "xyz": [3.7950644152527744, 5.627214453265385, 3.2162387221623874]
      },
      {
        "species": [{ "element": "K", "occu": 1 }],
        "abc": [0.22439549, 0.90865859, 0.13305308],
        "properties": { "magmom": 0.0 },
        "label": "K",
        "xyz": [5.62720763713266, -3.795071369085152, 3.21624190623869]
      },
      {
        "species": [{ "element": "Te", "occu": 1 }],
        "abc": [0.15617264, 0.6550774500000001, 0.81125009],
        "properties": { "magmom": 0.0 },
        "label": "Te",
        "xyz": [9.020393624296997, 2.150491802374863, 0.0]
      },
      {
        "species": [{ "element": "Te", "occu": 1 }],
        "abc": [0.6550774500000001, 0.84382736, 0.49890481000000003],
        "properties": { "magmom": 0.0 },
        "label": "Te",
        "xyz": [4.734490747625136, 2.135411074296996, 3.21623869]
      },
      {
        "species": [{ "element": "Te", "occu": 1 }],
        "abc": [0.34492255, 0.15617264, 0.50109519],
        "properties": { "magmom": 0.0 },
        "label": "Te",
        "xyz": [2.150491802374864, 4.749571475703005, 0.0]
      },
      {
        "species": [{ "element": "Te", "occu": 1 }],
        "abc": [0.84382736, 0.34492255, 0.18874991],
        "properties": { "magmom": 0.0 },
        "label": "Te",
        "xyz": [-2.1354110742969947, 4.734490747625136, 3.21623869]
      },
      {
        "species": [{ "element": "Te", "occu": 1 }],
        "abc": [0.22029508, 0.22029508, -0.0],
        "properties": { "magmom": 0.0 },
        "label": "Te",
        "xyz": [0.0, 0.0, 1.4170431190252903]
      },
      {
        "species": [{ "element": "Te", "occu": 1 }],
        "abc": [0.77970492, 0.77970492, 0.0],
        "properties": { "magmom": 0.0 },
        "label": "Te",
        "xyz": [0.0, 0.0, 5.015434260974709]
      }
    ]
  },
  "task_ids": null,
  "uncorrected_energy_per_atom": null,
  "energy_per_atom": -14.46687823,
  "formation_energy_per_atom": -1.174004153593751,
  "energy_above_hull": 0.0,
  "is_stable": true,
  "equilibrium_reaction_energy_per_atom": null,
  "decomposes_to": null,
  "xas": null,
  "grain_boundaries": null,
  "band_gap": 0.171599999999999,
  "cbm": null,
  "vbm": null,
  "efermi": 1.1192707,
  "is_gap_direct": null,
  "is_metal": null,
  "es_source_calc_id": null,
  "bandstructure": null,
  "dos": null,
  "dos_energy_up": null,
  "dos_energy_down": null,
  "is_magnetic": null,
  "ordering": null,
  "total_magnetization": 2e-7,
  "total_magnetization_normalized_vol": null,
  "total_magnetization_normalized_formula_units": null,
  "num_magnetic_sites": null,
  "num_unique_magnetic_sites": null,
  "types_of_magnetic_species": null,
  "bulk_modulus": null,
  "shear_modulus": null,
  "universal_anisotropy": null,
  "homogeneous_poisson": null,
  "e_total": null,
  "e_ionic": null,
  "e_electronic": null,
  "n": null,
  "e_ij_max": null,
  "weighted_surface_energy_EV_PER_ANG2": null,
  "weighted_surface_energy": null,
  "weighted_work_function": null,
  "surface_anisotropy": null,
  "shape_factor": null,
  "has_reconstructed": null,
  "possible_species": null,
  "has_props": null,
  "theoretical": null,
  "database_IDs": null,
  "fields_not_requested": [
    "builder_meta",
    "nsites",
    "elements",
    "nelements",
    "composition",
    "composition_reduced",
    "chemsys",
    "symmetry",
    "property_name",
    "deprecated",
    "deprecation_reasons",
    "last_updated",
    "origins",
    "warnings",
    "task_ids",
    "uncorrected_energy_per_atom",
    "equilibrium_reaction_energy_per_atom",
    "decomposes_to",
    "xas",
    "grain_boundaries",
    "cbm",
    "vbm",
    "is_gap_direct",
    "is_metal",
    "es_source_calc_id",
    "bandstructure",
    "dos",
    "dos_energy_up",
    "dos_energy_down",
    "is_magnetic",
    "ordering",
    "total_magnetization_normalized_vol",
    "total_magnetization_normalized_formula_units",
    "num_magnetic_sites",
    "num_unique_magnetic_sites",
    "types_of_magnetic_species",
    "bulk_modulus",
    "shear_modulus",
    "universal_anisotropy",
    "homogeneous_poisson",
    "e_total",
    "e_ionic",
    "e_electronic",
    "n",
    "e_ij_max",
    "weighted_surface_energy_EV_PER_ANG2",
    "weighted_surface_energy",
    "weighted_work_function",
    "surface_anisotropy",
    "shape_factor",
    "has_reconstructed",
    "possible_species",
    "has_props",
    "theoretical",
    "database_IDs"
  ]
}
