{"builder_meta": null, "nsites": null, "elements": null, "nelements": null, "composition": null, "composition_reduced": null, "formula_pretty": "KAg2", "formula_anonymous": "AB2", "chemsys": null, "volume": 288.95769390427455, "density": 5.857784496514922, "density_atomic": 24.079807825356212, "symmetry": null, "property_name": null, "material_id": "mp-12735", "deprecated": null, "deprecation_reasons": null, "last_updated": null, "origins": null, "warnings": null, "structure": {"@module": "pymatgen.core.structure", "@class": "Structure", "charge": 0, "lattice": {"matrix": [[5.83730147, -1.029999999999998e-06, -0.0], [-2.91865126, 5.0552518, -0.0], [-0.0, -0.0, 9.79218007]], "pbc": [true, true, true], "a": 5.8373014700000905, "b": 5.837302111327015, "c": 9.79218007, "alpha": 90.0, "beta": 90.0, "gamma": 120.00001242585216, "volume": 288.95769390427455}, "properties": {}, "sites": [{"species": [{"element": "K", "occu": 1}], "abc": [0.333333, 0.666667, 0.06177482], "properties": {"magmom": 0.0}, "label": "K", "xyz": [-3.2686509101598205e-06, 3.37016920841761, 0.6049101612318375]}, {"species": [{"element": "K", "occu": 1}], "abc": [0.666667, 0.333333, 0.56177482], "properties": {"magmom": 0.0}, "label": "K", "xyz": [2.91865347865091, 1.68508156158239, 5.501000196231838]}, {"species": [{"element": "K", "occu": 1}], "abc": [0.666667, 0.333333, 0.93822518], "properties": {"magmom": 0.0}, "label": "K", "xyz": [2.91865347865091, 1.68508156158239, 9.187269908768164]}, {"species": [{"element": "K", "occu": 1}], "abc": [0.333333, 0.666667, 0.43822518], "properties": {"magmom": 0.0}, "label": "K", "xyz": [-3.2686509101598205e-06, 3.37016920841761, 4.291179873768162]}, {"species": [{"element": "Ag", "occu": 1}], "abc": [-0.0, -0.0, -0.0], "properties": {"magmom": 0.0}, "label": "Ag", "xyz": [0.0, 0.0, 0.0]}, {"species": [{"element": "Ag", "occu": 1}], "abc": [-0.0, -0.0, 0.5], "properties": {"magmom": 0.0}, "label": "Ag", "xyz": [0.0, 0.0, 4.896090035]}, {"species": [{"element": "Ag", "occu": 1}], "abc": [0.83430841, 0.66861682, 0.25], "properties": {"magmom": -0.0}, "label": "Ag", "xyz": [2.918650383976169, 3.3800255234776135, 2.4480450175]}, {"species": [{"element": "Ag", "occu": 1}], "abc": [0.16569159, 0.83430841, 0.75], "properties": {"magmom": -0.0}, "label": "Ag", "xyz": [-1.467863530201459, 4.2176389207453004, 7.3441350525]}, {"species": [{"element": "Ag", "occu": 1}], "abc": [0.66861682, 0.83430841, 0.75], "properties": {"magmom": -0.0}, "label": "Ag", "xyz": [1.4678626541776292, 4.217638402732313, 7.3441350525]}, {"species": [{"element": "Ag", "occu": 1}], "abc": [0.33138318, 0.16569159, 0.25], "properties": {"magmom": -0.0}, "label": "Ag", "xyz": [1.4507875558223713, 0.8376123672676865, 2.4480450175]}, {"species": [{"element": "Ag", "occu": 1}], "abc": [0.83430841, 0.16569159, 0.25], "properties": {"magmom": -0.0}, "label": "Ag", "xyz": [4.386513740201459, 0.8376118492546997, 2.4480450175]}, {"species": [{"element": "Ag", "occu": 1}], "abc": [0.16569159, 0.33138318, 0.75], "properties": {"magmom": -0.0}, "label": "Ag", "xyz": [-1.7397616947079086e-07, 1.6752252465223862, 7.3441350525]}]}, "task_ids": null, "uncorrected_energy_per_atom": null, "energy_per_atom": -16.233648615833335, "formation_energy_per_atom": 0.009690792916667001, "energy_above_hull": 0.009690792916664, "is_stable": false, "equilibrium_reaction_energy_per_atom": null, "decomposes_to": null, "xas": null, "grain_boundaries": null, "band_gap": 0.0, "cbm": null, "vbm": null, "efermi": 2.04951909, "is_gap_direct": null, "is_metal": null, "es_source_calc_id": null, "bandstructure": null, "dos": null, "dos_energy_up": null, "dos_energy_down": null, "is_magnetic": null, "ordering": null, "total_magnetization": 4e-07, "total_magnetization_normalized_vol": null, "total_magnetization_normalized_formula_units": null, "num_magnetic_sites": null, "num_unique_magnetic_sites": null, "types_of_magnetic_species": null, "bulk_modulus": null, "shear_modulus": null, "universal_anisotropy": null, "homogeneous_poisson": null, "e_total": null, "e_ionic": null, "e_electronic": null, "n": null, "e_ij_max": null, "weighted_surface_energy_EV_PER_ANG2": null, "weighted_surface_energy": null, "weighted_work_function": null, "surface_anisotropy": null, "shape_factor": null, "has_reconstructed": null, "possible_species": null, "has_props": null, "theoretical": null, "database_IDs": null, "fields_not_requested": ["builder_meta", "nsites", "elements", "nelements", "composition", "composition_reduced", "chemsys", "symmetry", "property_name", "deprecated", "deprecation_reasons", "last_updated", "origins", "warnings", "task_ids", "uncorrected_energy_per_atom", "equilibrium_reaction_energy_per_atom", "decomposes_to", "xas", "grain_boundaries", "cbm", "vbm", "is_gap_direct", "is_metal", "es_source_calc_id", "bandstructure", "dos", "dos_energy_up", "dos_energy_down", "is_magnetic", "ordering", "total_magnetization_normalized_vol", "total_magnetization_normalized_formula_units", "num_magnetic_sites", "num_unique_magnetic_sites", "types_of_magnetic_species", "bulk_modulus", "shear_modulus", "universal_anisotropy", "homogeneous_poisson", "e_total", "e_ionic", "e_electronic", "n", "e_ij_max", "weighted_surface_energy_EV_PER_ANG2", "weighted_surface_energy", "weighted_work_function", "surface_anisotropy", "shape_factor", "has_reconstructed", "possible_species", "has_props", "theoretical", "database_IDs"]}