{"builder_meta": null, "nsites": null, "elements": null, "nelements": null, "composition": null, "composition_reduced": null, "formula_pretty": "KAs", "formula_anonymous": "AB", "chemsys": null, "volume": 503.7965661137013, "density": 3.006523046083559, "density_atomic": 31.487285382106332, "symmetry": null, "property_name": null, "material_id": "mp-713", "deprecated": null, "deprecation_reasons": null, "last_updated": null, "origins": null, "warnings": null, "structure": {"@module": "pymatgen.core.structure", "@class": "Structure", "charge": 0, "lattice": {"matrix": [[6.44796365, 0.0, 0.0], [0.0, 6.70952004, 0.0], [0.0, 0.0, 11.64504492]], "pbc": [true, true, true], "a": 6.44796365, "b": 6.70952004, "c": 11.64504492, "alpha": 90.0, "beta": 90.0, "gamma": 90.0, "volume": 503.7965661137013}, "properties": {}, "sites": [{"species": [{"element": "K", "occu": 1}], "abc": [0.0823312, 0.60179559, 0.9624338], "properties": {"magmom": -0.0}, "label": "K", "xyz": [0.53086858486088, 4.037759571088624, 11.207584833526296]}, {"species": [{"element": "K", "occu": 1}], "abc": [0.582331199999999, 0.39820441, 0.5375662], "properties": {"magmom": -0.0}, "label": "K", "xyz": [3.754850409860874, 2.6717604689113763, 6.2599825464737044]}, {"species": [{"element": "K", "occu": 1}], "abc": [0.4176688, 0.10179559, 0.0375662], "properties": {"magmom": -0.0}, "label": "K", "xyz": [2.69311324013912, 0.6829995510886236, 0.437460086473704]}, {"species": [{"element": "K", "occu": 1}], "abc": [0.9176688, 0.8982044100000001, 0.4624338], "properties": {"magmom": -0.0}, "label": "K", "xyz": [5.91709506513912, 6.026520488911377, 5.385062373526296]}, {"species": [{"element": "K", "occu": 1}], "abc": [0.34837698, 0.8568134900000001, 0.6677913], "properties": {"magmom": -0.0}, "label": "K", "xyz": [2.246322103536777, 5.74880728169734, 7.776459685685196]}, {"species": [{"element": "K", "occu": 1}], "abc": [0.8483769800000001, 0.14318651000000002, 0.832208699999999], "properties": {"magmom": -0.0}, "label": "K", "xyz": [5.470303928536778, 0.9607127583026606, 9.691107694314793]}, {"species": [{"element": "K", "occu": 1}], "abc": [0.15162302, 0.35681349, 0.332208699999999], "properties": {"magmom": -0.0}, "label": "K", "xyz": [0.977659721463223, 2.39404726169734, 3.868585234314793]}, {"species": [{"element": "K", "occu": 1}], "abc": [0.65162302, 0.64318651, 0.1677913], "properties": {"magmom": -0.0}, "label": "K", "xyz": [4.2016415464632235, 4.315472778302661, 1.9539372256851961]}, {"species": [{"element": "As", "occu": 1}], "abc": [0.84299444, 0.68520391, 0.71716879], "properties": {"magmom": 0.0}, "label": "As", "xyz": [5.4355975062721065, 4.597389365631357, 8.351462774772047]}, {"species": [{"element": "As", "occu": 1}], "abc": [0.34299444, 0.31479609000000003, 0.78283121], "properties": {"magmom": 0.0}, "label": "As", "xyz": [2.211615681272106, 2.1121306743686437, 9.116104605227953]}, {"species": [{"element": "As", "occu": 1}], "abc": [0.65700556, 0.18520391, 0.28283121], "properties": {"magmom": 0.0}, "label": "As", "xyz": [4.236347968727894, 1.2426293456313564, 3.2935821452279535]}, {"species": [{"element": "As", "occu": 1}], "abc": [0.15700556000000002, 0.81479609, 0.21716879], "properties": {"magmom": 0.0}, "label": "As", "xyz": [1.0123661437278941, 5.466890694368644, 2.5289403147720466]}, {"species": [{"element": "As", "occu": 1}], "abc": [0.58108845, 0.57084727, 0.86230127], "properties": {"magmom": -0.0}, "label": "As", "xyz": [3.7468372030348425, 3.8301111978442908, 10.041537023723048]}, {"species": [{"element": "As", "occu": 1}], "abc": [0.08108745, 0.42915273, 0.63769873], "properties": {"magmom": -0.0}, "label": "As", "xyz": [0.5228489300711926, 2.8794088421557094, 7.426030356276952]}, {"species": [{"element": "As", "occu": 1}], "abc": [0.91891155, 0.07084727, 0.13769873], "properties": {"magmom": -0.0}, "label": "As", "xyz": [5.925108271965158, 0.4753511778442908, 1.6035078962769516]}, {"species": [{"element": "As", "occu": 1}], "abc": [0.41891255, 0.92915273, 0.36230127], "properties": {"magmom": -0.0}, "label": "As", "xyz": [2.7011328949288074, 6.234168862155709, 4.219014563723048]}]}, "task_ids": null, "uncorrected_energy_per_atom": null, "energy_per_atom": -3.338292345, "formation_energy_per_atom": -0.43754621737500005, "energy_above_hull": 0.0, "is_stable": true, "equilibrium_reaction_energy_per_atom": null, "decomposes_to": null, "xas": null, "grain_boundaries": null, "band_gap": 0.6695, "cbm": null, "vbm": null, "efermi": 1.6671528100000002, "is_gap_direct": null, "is_metal": null, "es_source_calc_id": null, "bandstructure": null, "dos": null, "dos_energy_up": null, "dos_energy_down": null, "is_magnetic": null, "ordering": null, "total_magnetization": 0.0, "total_magnetization_normalized_vol": null, "total_magnetization_normalized_formula_units": null, "num_magnetic_sites": null, "num_unique_magnetic_sites": null, "types_of_magnetic_species": null, "bulk_modulus": null, "shear_modulus": null, "universal_anisotropy": null, "homogeneous_poisson": null, "e_total": null, "e_ionic": null, "e_electronic": null, "n": null, "e_ij_max": null, "weighted_surface_energy_EV_PER_ANG2": null, "weighted_surface_energy": null, "weighted_work_function": null, "surface_anisotropy": null, "shape_factor": null, "has_reconstructed": null, "possible_species": null, "has_props": null, "theoretical": null, "database_IDs": null, "fields_not_requested": ["builder_meta", "nsites", "elements", "nelements", "composition", "composition_reduced", "chemsys", "symmetry", "property_name", "deprecated", "deprecation_reasons", "last_updated", "origins", "warnings", "task_ids", "uncorrected_energy_per_atom", "equilibrium_reaction_energy_per_atom", "decomposes_to", "xas", "grain_boundaries", "cbm", "vbm", "is_gap_direct", "is_metal", "es_source_calc_id", "bandstructure", "dos", "dos_energy_up", "dos_energy_down", "is_magnetic", "ordering", "total_magnetization_normalized_vol", "total_magnetization_normalized_formula_units", "num_magnetic_sites", "num_unique_magnetic_sites", "types_of_magnetic_species", "bulk_modulus", "shear_modulus", "universal_anisotropy", "homogeneous_poisson", "e_total", "e_ionic", "e_electronic", "n", "e_ij_max", "weighted_surface_energy_EV_PER_ANG2", "weighted_surface_energy", "weighted_work_function", "surface_anisotropy", "shape_factor", "has_reconstructed", "possible_species", "has_props", "theoretical", "database_IDs"]}