{"builder_meta": null, "nsites": null, "elements": null, "nelements": null, "composition": null, "composition_reduced": null, "formula_pretty": "KAu2", "formula_anonymous": "AB2", "chemsys": null, "volume": 273.36730985267667, "density": 10.52160362923416, "density_atomic": 22.780609154389722, "symmetry": null, "property_name": null, "material_id": "mp-30401", "deprecated": null, "deprecation_reasons": null, "last_updated": null, "origins": null, "warnings": null, "structure": {"@module": "pymatgen.core.structure", "@class": "Structure", "charge": 0, "lattice": {"matrix": [[5.6920661500000005, 0.0, 0.0], [-2.84603307, 4.92947191, -0.0], [0.0, 0.0, 9.74263078]], "pbc": [true, true, true], "a": 5.6920661500000005, "b": 5.692064436301883, "c": 9.74263078, "alpha": 90.0, "beta": 90.0, "gamma": 120.00000990113229, "volume": 273.3673098526767}, "properties": {}, "sites": [{"species": [{"element": "K", "occu": 1}], "abc": [0.333333, 0.666667, 0.56141261], "properties": {"magmom": 0.0}, "label": "K", "xyz": [-2.842699739824539e-06, 3.28631624982397, 5.469635774466136]}, {"species": [{"element": "K", "occu": 1}], "abc": [0.666667, 0.333333, 0.06141261], "properties": {"magmom": 0.0}, "label": "K", "xyz": [2.8460359226997403, 1.64315566017603, 0.5983203844661359]}, {"species": [{"element": "K", "occu": 1}], "abc": [0.666667, 0.333333, 0.43858739], "properties": {"magmom": 0.0}, "label": "K", "xyz": [2.8460359226997403, 1.64315566017603, 4.272995005533865]}, {"species": [{"element": "K", "occu": 1}], "abc": [0.333333, 0.666667, 0.93858739], "properties": {"magmom": 0.0}, "label": "K", "xyz": [-2.842699739824539e-06, 3.28631624982397, 9.144310395533864]}, {"species": [{"element": "Au", "occu": 1}], "abc": [0.33503177, 0.16751638, 0.75], "properties": {"magmom": -0.0}, "label": "Au", "xyz": [1.4302658399448993, 0.8257672896748858, 7.306973085000001]}, {"species": [{"element": "Au", "occu": 1}], "abc": [0.66496823, 0.83248362, 0.25], "properties": {"magmom": -0.0}, "label": "Au", "xyz": [1.4157672400551018, 4.103704620325114, 2.435657695]}, {"species": [{"element": "Au", "occu": 1}], "abc": [0.16751638, 0.83248362, 0.25], "properties": {"magmom": -0.0}, "label": "Au", "xyz": [-1.4157615965847765, 4.103704620325114, 2.435657695]}, {"species": [{"element": "Au", "occu": 1}], "abc": [0.83248362, 0.66496823, 0.75], "properties": {"magmom": -0.0}, "label": "Au", "xyz": [2.8460302607520975, 3.27794221082742, 7.306973085000001]}, {"species": [{"element": "Au", "occu": 1}], "abc": [0.83248362, 0.16751638, 0.75], "properties": {"magmom": -0.0}, "label": "Au", "xyz": [4.261794676584777, 0.8257672896748858, 7.306973085000001]}, {"species": [{"element": "Au", "occu": 1}], "abc": [0.16751638, 0.33503177, 0.25], "properties": {"magmom": -0.0}, "label": "Au", "xyz": [2.819247903129707e-06, 1.6515296991725807, 2.435657695]}, {"species": [{"element": "Au", "occu": 1}], "abc": [0.0, 0.0, 0.5], "properties": {"magmom": 0.0}, "label": "Au", "xyz": [0.0, 0.0, 4.87131539]}, {"species": [{"element": "Au", "occu": 1}], "abc": [0.0, 0.0, -0.0], "properties": {"magmom": 0.0}, "label": "Au", "xyz": [0.0, 0.0, 0.0]}]}, "task_ids": null, "uncorrected_energy_per_atom": null, "energy_per_atom": -36.07485888916667, "formation_energy_per_atom": -0.345464143750002, "energy_above_hull": 0.0, "is_stable": true, "equilibrium_reaction_energy_per_atom": null, "decomposes_to": null, "xas": null, "grain_boundaries": null, "band_gap": 0.0, "cbm": null, "vbm": null, "efermi": 3.10527717, "is_gap_direct": null, "is_metal": null, "es_source_calc_id": null, "bandstructure": null, "dos": null, "dos_energy_up": null, "dos_energy_down": null, "is_magnetic": null, "ordering": null, "total_magnetization": 0.0, "total_magnetization_normalized_vol": null, "total_magnetization_normalized_formula_units": null, "num_magnetic_sites": null, "num_unique_magnetic_sites": null, "types_of_magnetic_species": null, "bulk_modulus": null, "shear_modulus": null, "universal_anisotropy": null, "homogeneous_poisson": null, "e_total": null, "e_ionic": null, "e_electronic": null, "n": null, "e_ij_max": null, "weighted_surface_energy_EV_PER_ANG2": null, "weighted_surface_energy": null, "weighted_work_function": null, "surface_anisotropy": null, "shape_factor": null, "has_reconstructed": null, "possible_species": null, "has_props": null, "theoretical": null, "database_IDs": null, "fields_not_requested": ["builder_meta", "nsites", "elements", "nelements", "composition", "composition_reduced", "chemsys", "symmetry", "property_name", "deprecated", "deprecation_reasons", "last_updated", "origins", "warnings", "task_ids", "uncorrected_energy_per_atom", "equilibrium_reaction_energy_per_atom", "decomposes_to", "xas", "grain_boundaries", "cbm", "vbm", "is_gap_direct", "is_metal", "es_source_calc_id", "bandstructure", "dos", "dos_energy_up", "dos_energy_down", "is_magnetic", "ordering", "total_magnetization_normalized_vol", "total_magnetization_normalized_formula_units", "num_magnetic_sites", "num_unique_magnetic_sites", "types_of_magnetic_species", "bulk_modulus", "shear_modulus", "universal_anisotropy", "homogeneous_poisson", "e_total", "e_ionic", "e_electronic", "n", "e_ij_max", "weighted_surface_energy_EV_PER_ANG2", "weighted_surface_energy", "weighted_work_function", "surface_anisotropy", "shape_factor", "has_reconstructed", "possible_species", "has_props", "theoretical", "database_IDs"]}