{
  "builder_meta": null,
  "nsites": null,
  "elements": null,
  "nelements": null,
  "composition": null,
  "composition_reduced": null,
  "formula_pretty": "KBa3",
  "formula_anonymous": "AB3",
  "chemsys": null,
  "volume": 532.1100851541418,
  "density": 2.8153377306036242,
  "density_atomic": 66.51376064426772,
  "symmetry": null,
  "property_name": null,
  "material_id": "mp-1185155",
  "deprecated": null,
  "deprecation_reasons": null,
  "last_updated": null,
  "origins": null,
  "warnings": null,
  "structure": {
    "@module": "pymatgen.core.structure",
    "@class": "Structure",
    "charge": 0,
    "lattice": {
      "matrix": [
        [4.540073, -7.863637, 0.0],
        [4.540073, 7.863637, 0.0],
        [0.0, 0.0, 7.452212]
      ],
      "pbc": [true, true, true],
      "a": 9.08014590813925,
      "b": 9.08014590813925,
      "c": 7.452212,
      "alpha": 90.0,
      "beta": 90.0,
      "gamma": 119.9999993306872,
      "volume": 532.1100851541418
    },
    "properties": {},
    "sites": [
      {
        "species": [{ "element": "K", "occu": 1 }],
        "abc": [0.666667, 0.333333, 0.25],
        "properties": { "magmom": 0.001 },
        "label": "K",
        "xyz": [4.540073, -2.621217575758, 1.863053]
      },
      {
        "species": [{ "element": "K", "occu": 1 }],
        "abc": [0.333333, 0.666667, 0.75],
        "properties": { "magmom": 0.001 },
        "label": "K",
        "xyz": [4.540073, 2.621217575758, 5.589159]
      },
      {
        "species": [{ "element": "Ba", "occu": 1 }],
        "abc": [0.8373100000000001, 0.6746200000000001, 0.75],
        "properties": { "magmom": 0.013000000000000001 },
        "label": "Ba",
        "xyz": [6.86427257089, -1.2793351035299994, 5.589159]
      },
      {
        "species": [{ "element": "Ba", "occu": 1 }],
        "abc": [0.16269, 0.8373100000000001, 0.25],
        "properties": { "magmom": 0.013000000000000001 },
        "label": "Ba",
        "xyz": [4.540073, 5.30496679294, 1.863053]
      },
      {
        "species": [{ "element": "Ba", "occu": 1 }],
        "abc": [0.6746200000000001, 0.8373100000000001, 0.25],
        "properties": { "magmom": 0.01 },
        "label": "Ba",
        "xyz": [6.86427257089, 1.2793351035299994, 1.863053]
      },
      {
        "species": [{ "element": "Ba", "occu": 1 }],
        "abc": [0.16269, 0.32538, 0.25],
        "properties": { "magmom": 0.013000000000000001 },
        "label": "Ba",
        "xyz": [2.2158734291099997, 1.27933510353, 1.863053]
      },
      {
        "species": [{ "element": "Ba", "occu": 1 }],
        "abc": [0.32538, 0.16269, 0.75],
        "properties": { "magmom": 0.01 },
        "label": "Ba",
        "xyz": [2.2158734291099997, -1.27933510353, 5.589159]
      },
      {
        "species": [{ "element": "Ba", "occu": 1 }],
        "abc": [0.8373100000000001, 0.16269, 0.75],
        "properties": { "magmom": 0.013000000000000001 },
        "label": "Ba",
        "xyz": [4.540073, -5.30496679294, 5.589159]
      }
    ]
  },
  "task_ids": null,
  "uncorrected_energy_per_atom": null,
  "energy_per_atom": -1.62527440875,
  "formation_energy_per_atom": 0.09679922693750001,
  "energy_above_hull": 0.09679922693750001,
  "is_stable": false,
  "equilibrium_reaction_energy_per_atom": null,
  "decomposes_to": null,
  "xas": null,
  "grain_boundaries": null,
  "band_gap": 0.0,
  "cbm": null,
  "vbm": null,
  "efermi": 1.1181318,
  "is_gap_direct": null,
  "is_metal": null,
  "es_source_calc_id": null,
  "bandstructure": null,
  "dos": null,
  "dos_energy_up": null,
  "dos_energy_down": null,
  "is_magnetic": null,
  "ordering": null,
  "total_magnetization": 0.237092299999999,
  "total_magnetization_normalized_vol": null,
  "total_magnetization_normalized_formula_units": null,
  "num_magnetic_sites": null,
  "num_unique_magnetic_sites": null,
  "types_of_magnetic_species": null,
  "bulk_modulus": null,
  "shear_modulus": null,
  "universal_anisotropy": null,
  "homogeneous_poisson": null,
  "e_total": null,
  "e_ionic": null,
  "e_electronic": null,
  "n": null,
  "e_ij_max": null,
  "weighted_surface_energy_EV_PER_ANG2": null,
  "weighted_surface_energy": null,
  "weighted_work_function": null,
  "surface_anisotropy": null,
  "shape_factor": null,
  "has_reconstructed": null,
  "possible_species": null,
  "has_props": null,
  "theoretical": null,
  "database_IDs": null,
  "fields_not_requested": [
    "builder_meta",
    "nsites",
    "elements",
    "nelements",
    "composition",
    "composition_reduced",
    "chemsys",
    "symmetry",
    "property_name",
    "deprecated",
    "deprecation_reasons",
    "last_updated",
    "origins",
    "warnings",
    "task_ids",
    "uncorrected_energy_per_atom",
    "equilibrium_reaction_energy_per_atom",
    "decomposes_to",
    "xas",
    "grain_boundaries",
    "cbm",
    "vbm",
    "is_gap_direct",
    "is_metal",
    "es_source_calc_id",
    "bandstructure",
    "dos",
    "dos_energy_up",
    "dos_energy_down",
    "is_magnetic",
    "ordering",
    "total_magnetization_normalized_vol",
    "total_magnetization_normalized_formula_units",
    "num_magnetic_sites",
    "num_unique_magnetic_sites",
    "types_of_magnetic_species",
    "bulk_modulus",
    "shear_modulus",
    "universal_anisotropy",
    "homogeneous_poisson",
    "e_total",
    "e_ionic",
    "e_electronic",
    "n",
    "e_ij_max",
    "weighted_surface_energy_EV_PER_ANG2",
    "weighted_surface_energy",
    "weighted_work_function",
    "surface_anisotropy",
    "shape_factor",
    "has_reconstructed",
    "possible_species",
    "has_props",
    "theoretical",
    "database_IDs"
  ]
}
