{
  "builder_meta": null,
  "nsites": null,
  "elements": null,
  "nelements": null,
  "composition": null,
  "composition_reduced": null,
  "formula_pretty": "KBi",
  "formula_anonymous": "AB",
  "chemsys": null,
  "volume": 1317.3994207253545,
  "density": 5.003121956310277,
  "density_atomic": 41.16873189766733,
  "symmetry": null,
  "property_name": null,
  "material_id": "mp-31104",
  "deprecated": null,
  "deprecation_reasons": null,
  "last_updated": null,
  "origins": null,
  "warnings": null,
  "structure": {
    "@module": "pymatgen.core.structure",
    "@class": "Structure",
    "charge": 0,
    "lattice": {
      "matrix": [
        [7.30720651, 0.0, 0.0],
        [0.0, 12.50802519, -5.36028023],
        [0.0, -0.03861133, 14.43030855]
      ],
      "pbc": [true, true, true],
      "a": 7.30720651,
      "b": 13.60820701994952,
      "c": 14.430360206280627,
      "alpha": 113.35072837025693,
      "beta": 90.0,
      "gamma": 90.0,
      "volume": 1317.3994207253547
    },
    "properties": {},
    "sites": [
      {
        "species": [{ "element": "K", "occu": 1 }],
        "abc": [0.13946513, 0.55327048, 0.84932748],
        "properties": { "magmom": 0.0 },
        "label": "K",
        "xyz": [1.0191005058539964, 6.887527437115042, 9.290372780607342]
      },
      {
        "species": [{ "element": "K", "occu": 1 }],
        "abc": [0.63946513, 0.94672952, 0.15067252],
        "properties": { "magmom": 0.0 },
        "label": "K",
        "xyz": [4.672703760853997, 11.835899017884957, -2.900484575607343]
      },
      {
        "species": [{ "element": "K", "occu": 1 }],
        "abc": [0.8605348700000001, 0.44672952, 0.15067252],
        "properties": { "magmom": 0.0 },
        "label": "K",
        "xyz": [6.288106004146004, 5.581886422884957, -0.2203444606073437]
      },
      {
        "species": [{ "element": "K", "occu": 1 }],
        "abc": [0.36053487, 0.05327048, 0.84932748],
        "properties": { "magmom": 0.0 },
        "label": "K",
        "xyz": [2.634502749146004, 0.6335148421150427, 11.970512895607342]
      },
      {
        "species": [{ "element": "K", "occu": 1 }],
        "abc": [0.427180399999999, 0.69124448, 0.65411357],
        "properties": { "magmom": -0.0 },
        "label": "K",
        "xyz": [3.121495399824397, 8.620847173379705, 5.733796521601394]
      },
      {
        "species": [{ "element": "K", "occu": 1 }],
        "abc": [0.9271803999999991, 0.8087555200000001, 0.34588643],
        "properties": { "magmom": -0.0 },
        "label": "K",
        "xyz": [6.775098654824398, 10.102579281620297, 0.656091683398607]
      },
      {
        "species": [{ "element": "K", "occu": 1 }],
        "abc": [0.5728196, 0.30875552, 0.34588643],
        "properties": { "magmom": -0.0 },
        "label": "K",
        "xyz": [4.185711110175596, 3.848566686620297, 3.3362317983986074]
      },
      {
        "species": [{ "element": "K", "occu": 1 }],
        "abc": [0.0728196, 0.19124448, 0.65411357],
        "properties": { "magmom": -0.0 },
        "label": "K",
        "xyz": [0.532107855175596, 2.366834578379703, 8.413936636601393]
      },
      {
        "species": [{ "element": "K", "occu": 1 }],
        "abc": [0.19937431, 0.5376848, 0.3956576],
        "properties": { "magmom": -0.0 },
        "label": "K",
        "xyz": [1.4568692559587582, 6.7100981565195035, 2.827320044740976]
      },
      {
        "species": [{ "element": "K", "occu": 1 }],
        "abc": [0.69937431, 0.962315199999999, 0.6043424],
        "properties": { "magmom": -0.0 },
        "label": "K",
        "xyz": [5.1104725109587585, 12.013328298480484, 3.562568160259028]
      },
      {
        "species": [{ "element": "K", "occu": 1 }],
        "abc": [0.8006256900000001, 0.4623152, 0.6043424],
        "properties": { "magmom": -0.0 },
        "label": "K",
        "xyz": [5.850337254041243, 5.759315703480496, 6.242708275259023]
      },
      {
        "species": [{ "element": "K", "occu": 1 }],
        "abc": [0.30062569, 0.0376848, 0.3956576],
        "properties": { "magmom": -0.0 },
        "label": "K",
        "xyz": [2.1967339990412422, 0.45608556151950397, 5.507460159740976]
      },
      {
        "species": [{ "element": "K", "occu": 1 }],
        "abc": [0.38169697, 0.64689607, 0.12019765],
        "properties": { "magmom": 0.0 },
        "label": "K",
        "xyz": [2.789138584031275, 8.086751347742629, -1.7330550384007886]
      },
      {
        "species": [{ "element": "K", "occu": 1 }],
        "abc": [0.88169697, 0.8531039300000001, 0.8798023500000001],
        "properties": { "magmom": 0.0 },
        "label": "K",
        "xyz": [6.442741839031275, 10.636675107257371, 8.122943243400789]
      },
      {
        "species": [{ "element": "K", "occu": 1 }],
        "abc": [0.61830303, 0.35310393, 0.8798023500000001],
        "properties": { "magmom": 0.0 },
        "label": "K",
        "xyz": [4.518067925968725, 4.382662512257371, 10.803083358400789]
      },
      {
        "species": [{ "element": "K", "occu": 1 }],
        "abc": [0.11830303, 0.14689607, 0.12019765],
        "properties": { "magmom": 0.0 },
        "label": "K",
        "xyz": [0.8644646709687254, 1.8327387527426287, 0.9470850765992115]
      },
      {
        "species": [{ "element": "Bi", "occu": 1 }],
        "abc": [0.20324973000000002, 0.88739596, 0.57870934],
        "properties": { "magmom": 0.0 },
        "label": "Bi",
        "xyz": [1.4851877502117425, 11.07722628388341, 3.5942633163969857]
      },
      {
        "species": [{ "element": "Bi", "occu": 1 }],
        "abc": [0.70324973, 0.61260404, 0.42129066],
        "properties": { "magmom": 0.0 },
        "label": "Bi",
        "xyz": [5.1387910052117425, 7.64620017111659, 2.7956248886030135]
      },
      {
        "species": [{ "element": "Bi", "occu": 1 }],
        "abc": [0.79675027, 0.11260404, 0.42129066],
        "properties": { "magmom": 0.0 },
        "label": "Bi",
        "xyz": [5.822018759788258, 1.3921875761165898, 5.475765003603014]
      },
      {
        "species": [{ "element": "Bi", "occu": 1 }],
        "abc": [0.29675027, 0.38739496, 0.57870934],
        "properties": { "magmom": 0.0 },
        "label": "Bi",
        "xyz": [2.168415504788258, 4.82320118085822, 6.2744087916772155]
      },
      {
        "species": [{ "element": "Bi", "occu": 1 }],
        "abc": [0.43518203, 0.77259657, 0.39251152],
        "properties": { "magmom": -0.0 },
        "label": "Bi",
        "xyz": [3.1799649626510154, 9.648501967440078, 1.5227282230926846]
      },
      {
        "species": [{ "element": "Bi", "occu": 1 }],
        "abc": [0.93518203, 0.72740343, 0.60748848],
        "properties": { "magmom": -0.0 },
        "label": "Bi",
        "xyz": [6.833568217651016, 9.074924487559922, 4.8671599819073155]
      },
      {
        "species": [{ "element": "Bi", "occu": 1 }],
        "abc": [0.56481797, 0.22740343000000002, 0.60748848],
        "properties": { "magmom": -0.0 },
        "label": "Bi",
        "xyz": [4.1272415473489845, 2.820911892559923, 7.547300096907315]
      },
      {
        "species": [{ "element": "Bi", "occu": 1 }],
        "abc": [0.06481797, 0.27259657, 0.39251152],
        "properties": { "magmom": -0.0 },
        "label": "Bi",
        "xyz": [0.47363829234898475, 3.3944893724400766, 4.202868338092685]
      },
      {
        "species": [{ "element": "Bi", "occu": 1 }],
        "abc": [0.12769162, 0.87115039, 0.11070862000000001],
        "properties": { "magmom": -0.0 },
        "label": "Bi",
        "xyz": [0.9330690369364463, 10.89209641533766, -3.072050667129089]
      },
      {
        "species": [{ "element": "Bi", "occu": 1 }],
        "abc": [0.62769162, 0.6288496100000001, 0.88929138],
        "properties": { "magmom": -0.0 },
        "label": "Bi",
        "xyz": [4.586672291936447, 7.83133003966234, 9.461938872129087]
      },
      {
        "species": [{ "element": "Bi", "occu": 1 }],
        "abc": [0.87230838, 0.12884961, 0.88929138],
        "properties": { "magmom": -0.0 },
        "label": "Bi",
        "xyz": [6.374137473063554, 1.5773174446623404, 12.142078987129088]
      },
      {
        "species": [{ "element": "Bi", "occu": 1 }],
        "abc": [0.37230838, 0.37115039, 0.11070862000000001],
        "properties": { "magmom": -0.0 },
        "label": "Bi",
        "xyz": [2.7205342180635537, 4.638083820337659, -0.39191055212908843]
      },
      {
        "species": [{ "element": "Bi", "occu": 1 }],
        "abc": [0.87019124, 0.68350709, 0.07460851],
        "properties": { "magmom": 0.0 },
        "label": "Bi",
        "xyz": [6.358667093872973, 8.546443165463177, -2.5871657218360697]
      },
      {
        "species": [{ "element": "Bi", "occu": 1 }],
        "abc": [0.37019124000000003, 0.81649291, 0.92539149],
        "properties": { "magmom": 0.0 },
        "label": "Bi",
        "xyz": [2.705063838872973, 10.176983289536821, 8.97705392683607]
      },
      {
        "species": [{ "element": "Bi", "occu": 1 }],
        "abc": [0.12980876, 0.31649291, 0.92539149],
        "properties": { "magmom": 0.0 },
        "label": "Bi",
        "xyz": [0.9485394161270276, 3.9229706945368212, 11.657194041836071]
      },
      {
        "species": [{ "element": "Bi", "occu": 1 }],
        "abc": [0.62980876, 0.18350709, 0.07460851],
        "properties": { "magmom": 0.0 },
        "label": "Bi",
        "xyz": [4.6021426711270275, 2.292430570463179, 0.09297439316392975]
      }
    ]
  },
  "task_ids": null,
  "uncorrected_energy_per_atom": null,
  "energy_per_atom": -32.7361899709375,
  "formation_energy_per_atom": -0.47592113031250705,
  "energy_above_hull": 0.0,
  "is_stable": true,
  "equilibrium_reaction_energy_per_atom": null,
  "decomposes_to": null,
  "xas": null,
  "grain_boundaries": null,
  "band_gap": 0.4308,
  "cbm": null,
  "vbm": null,
  "efermi": 2.05112833,
  "is_gap_direct": null,
  "is_metal": null,
  "es_source_calc_id": null,
  "bandstructure": null,
  "dos": null,
  "dos_energy_up": null,
  "dos_energy_down": null,
  "is_magnetic": null,
  "ordering": null,
  "total_magnetization": 0.0,
  "total_magnetization_normalized_vol": null,
  "total_magnetization_normalized_formula_units": null,
  "num_magnetic_sites": null,
  "num_unique_magnetic_sites": null,
  "types_of_magnetic_species": null,
  "bulk_modulus": null,
  "shear_modulus": null,
  "universal_anisotropy": null,
  "homogeneous_poisson": null,
  "e_total": null,
  "e_ionic": null,
  "e_electronic": null,
  "n": null,
  "e_ij_max": null,
  "weighted_surface_energy_EV_PER_ANG2": null,
  "weighted_surface_energy": null,
  "weighted_work_function": null,
  "surface_anisotropy": null,
  "shape_factor": null,
  "has_reconstructed": null,
  "possible_species": null,
  "has_props": null,
  "theoretical": null,
  "database_IDs": null,
  "fields_not_requested": [
    "builder_meta",
    "nsites",
    "elements",
    "nelements",
    "composition",
    "composition_reduced",
    "chemsys",
    "symmetry",
    "property_name",
    "deprecated",
    "deprecation_reasons",
    "last_updated",
    "origins",
    "warnings",
    "task_ids",
    "uncorrected_energy_per_atom",
    "equilibrium_reaction_energy_per_atom",
    "decomposes_to",
    "xas",
    "grain_boundaries",
    "cbm",
    "vbm",
    "is_gap_direct",
    "is_metal",
    "es_source_calc_id",
    "bandstructure",
    "dos",
    "dos_energy_up",
    "dos_energy_down",
    "is_magnetic",
    "ordering",
    "total_magnetization_normalized_vol",
    "total_magnetization_normalized_formula_units",
    "num_magnetic_sites",
    "num_unique_magnetic_sites",
    "types_of_magnetic_species",
    "bulk_modulus",
    "shear_modulus",
    "universal_anisotropy",
    "homogeneous_poisson",
    "e_total",
    "e_ionic",
    "e_electronic",
    "n",
    "e_ij_max",
    "weighted_surface_energy_EV_PER_ANG2",
    "weighted_surface_energy",
    "weighted_work_function",
    "surface_anisotropy",
    "shape_factor",
    "has_reconstructed",
    "possible_species",
    "has_props",
    "theoretical",
    "database_IDs"
  ]
}
