{"builder_meta": null, "nsites": null, "elements": null, "nelements": null, "composition": null, "composition_reduced": null, "formula_pretty": "KBi2", "formula_anonymous": "AB2", "chemsys": null, "volume": 214.2175775234317, "density": 7.085921706980542, "density_atomic": 35.702929587238614, "symmetry": null, "property_name": null, "material_id": "mp-23279", "deprecated": null, "deprecation_reasons": null, "last_updated": null, "origins": null, "warnings": null, "structure": {"@module": "pymatgen.core.structure", "@class": "Structure", "charge": 0, "lattice": {"matrix": [[5.81639681, -1e-08, 3.3580973800000002], [1.93879826, 5.48375101, 3.3580973800000002], [-1e-08, -0.0, 6.71619579]], "pbc": [true, true, true], "a": 6.7161960859508145, "b": 6.716195488981683, "c": 6.71619579, "alpha": 60.00000361893954, "beta": 60.00000661610467, "gamma": 60.00000726663657, "volume": 214.2175775234317}, "properties": {}, "sites": [{"species": [{"element": "K", "occu": 1}], "abc": [0.625, 0.625, 0.625], "properties": {"magmom": -0.0}, "label": "K", "xyz": [4.8469969125, 3.4273443749999997, 8.395244093750001]}, {"species": [{"element": "K", "occu": 1}], "abc": [0.375, 0.375, 0.375], "properties": {"magmom": -0.0}, "label": "K", "xyz": [2.9081981475, 2.056406625, 5.03714645625]}, {"species": [{"element": "Bi", "occu": 1}], "abc": [0.5, 0.0, -0.0], "properties": {"magmom": -0.0}, "label": "Bi", "xyz": [2.908198405, -5e-09, 1.6790486900000001]}, {"species": [{"element": "Bi", "occu": 1}], "abc": [0.0, 0.5, -0.0], "properties": {"magmom": -0.0}, "label": "Bi", "xyz": [0.96939913, 2.741875505, 1.6790486900000001]}, {"species": [{"element": "Bi", "occu": 1}], "abc": [0.0, 0.0, 0.5], "properties": {"magmom": -0.0}, "label": "Bi", "xyz": [-5e-09, 0.0, 3.358097895]}, {"species": [{"element": "Bi", "occu": 1}], "abc": [0.0, 0.0, -0.0], "properties": {"magmom": -0.0}, "label": "Bi", "xyz": [0.0, 0.0, 0.0]}]}, "task_ids": null, "uncorrected_energy_per_atom": null, "energy_per_atom": -41.399047448333334, "formation_energy_per_atom": -0.39144363958333805, "energy_above_hull": 0.0, "is_stable": true, "equilibrium_reaction_energy_per_atom": null, "decomposes_to": null, "xas": null, "grain_boundaries": null, "band_gap": 0.0, "cbm": null, "vbm": null, "efermi": 3.5346924, "is_gap_direct": null, "is_metal": null, "es_source_calc_id": null, "bandstructure": null, "dos": null, "dos_energy_up": null, "dos_energy_down": null, "is_magnetic": null, "ordering": null, "total_magnetization": 0.0, "total_magnetization_normalized_vol": null, "total_magnetization_normalized_formula_units": null, "num_magnetic_sites": null, "num_unique_magnetic_sites": null, "types_of_magnetic_species": null, "bulk_modulus": null, "shear_modulus": null, "universal_anisotropy": null, "homogeneous_poisson": null, "e_total": null, "e_ionic": null, "e_electronic": null, "n": null, "e_ij_max": null, "weighted_surface_energy_EV_PER_ANG2": null, "weighted_surface_energy": null, "weighted_work_function": null, "surface_anisotropy": null, "shape_factor": null, "has_reconstructed": null, "possible_species": null, "has_props": null, "theoretical": null, "database_IDs": null, "fields_not_requested": ["builder_meta", "nsites", "elements", "nelements", "composition", "composition_reduced", "chemsys", "symmetry", "property_name", "deprecated", "deprecation_reasons", "last_updated", "origins", "warnings", "task_ids", "uncorrected_energy_per_atom", "equilibrium_reaction_energy_per_atom", "decomposes_to", "xas", "grain_boundaries", "cbm", "vbm", "is_gap_direct", "is_metal", "es_source_calc_id", "bandstructure", "dos", "dos_energy_up", "dos_energy_down", "is_magnetic", "ordering", "total_magnetization_normalized_vol", "total_magnetization_normalized_formula_units", "num_magnetic_sites", "num_unique_magnetic_sites", "types_of_magnetic_species", "bulk_modulus", "shear_modulus", "universal_anisotropy", "homogeneous_poisson", "e_total", "e_ionic", "e_electronic", "n", "e_ij_max", "weighted_surface_energy_EV_PER_ANG2", "weighted_surface_energy", "weighted_work_function", "surface_anisotropy", "shape_factor", "has_reconstructed", "possible_species", "has_props", "theoretical", "database_IDs"]}