{
  "builder_meta": null,
  "nsites": null,
  "elements": null,
  "nelements": null,
  "composition": null,
  "composition_reduced": null,
  "formula_pretty": "KBr3",
  "formula_anonymous": "AB3",
  "chemsys": null,
  "volume": 252.36809357700304,
  "density": 3.669048561237413,
  "density_atomic": 31.54601169712538,
  "symmetry": null,
  "property_name": null,
  "material_id": "mp-1185135",
  "deprecated": null,
  "deprecation_reasons": null,
  "last_updated": null,
  "origins": null,
  "warnings": null,
  "structure": {
    "@module": "pymatgen.core.structure",
    "@class": "Structure",
    "charge": 0,
    "lattice": {
      "matrix": [
        [3.2061404, -5.55325101, 4.49e-6],
        [3.20624998, 5.55331345, -2.294e-5],
        [-2.086e-5, -1.7970000000000002e-5, 7.08703777]
      ],
      "pbc": [true, true, true],
      "a": 6.4123266483078,
      "b": 6.412435513026789,
      "c": 7.087037770053483,
      "alpha": 90.0004151101764,
      "beta": 89.99991838584099,
      "gamma": 119.99990405824998,
      "volume": 252.36809357700304
    },
    "properties": {},
    "sites": [
      {
        "species": [{ "element": "K", "occu": 1 }],
        "abc": [0.66667648, 0.33333941, 0.25000153],
        "properties": { "magmom": -0.0 },
        "label": "K",
        "xyz": [3.206222657871588, -1.8510880994626746, 1.7717656322391182]
      },
      {
        "species": [{ "element": "K", "occu": 1 }],
        "abc": [0.33328893, 0.66660866, 0.7500028200000001],
        "properties": { "magmom": -0.0 },
        "label": "K",
        "xyz": [3.2058694610797733, 1.851036272769482, 5.315284517411147]
      },
      {
        "species": [{ "element": "Br", "occu": 1 }],
        "abc": [0.83250558, 0.1675461, 0.75000119],
        "properties": { "magmom": 0.083 },
        "label": "Br",
        "xyz": [3.2063088080126865, -3.6926899198619747, 5.3152866555174665]
      },
      {
        "species": [{ "element": "Br", "occu": 1 }],
        "abc": [0.33512821, 0.16758386, 0.75000104],
        "properties": { "magmom": 0.083 },
        "label": "Br",
        "xyz": [1.6117681960123122, -0.9304188444397639, 5.315283358371195]
      },
      {
        "species": [{ "element": "Br", "occu": 1 }],
        "abc": [0.83247447, 0.66492774, 0.7499995500000001],
        "properties": { "magmom": 0.083 },
        "label": "Br",
        "xyz": [4.800938938321419, -0.930401006998525, 5.3152636227010195]
      },
      {
        "species": [{ "element": "Br", "occu": 1 }],
        "abc": [0.16752499, 0.83251591, 0.24999768],
        "properties": { "magmom": 0.083 },
        "label": "Br",
        "xyz": [3.2063575432841733, 3.6929089879659402, 1.7717246548446033]
      },
      {
        "species": [{ "element": "Br", "occu": 1 }],
        "abc": [0.66487906, 0.83245294, 0.24999785],
        "properties": { "magmom": 0.083 },
        "label": "Br",
        "xyz": [4.800742622650814, 0.9306273042598281, 1.7717280942053304]
      },
      {
        "species": [{ "element": "Br", "occu": 1 }],
        "abc": [0.16752228, 0.33502639, 0.24999934000000001],
        "properties": { "magmom": 0.083 },
        "label": "Br",
        "xyz": [1.6112730910588517, 0.9302087945963029, 1.7717478317247226]
      }
    ]
  },
  "task_ids": null,
  "uncorrected_energy_per_atom": null,
  "energy_per_atom": -2.5370557225,
  "formation_energy_per_atom": -1.026503390562499,
  "energy_above_hull": 0.0,
  "is_stable": true,
  "equilibrium_reaction_energy_per_atom": null,
  "decomposes_to": null,
  "xas": null,
  "grain_boundaries": null,
  "band_gap": 0.0,
  "cbm": null,
  "vbm": null,
  "efermi": -0.45354361,
  "is_gap_direct": null,
  "is_metal": null,
  "es_source_calc_id": null,
  "bandstructure": null,
  "dos": null,
  "dos_energy_up": null,
  "dos_energy_down": null,
  "is_magnetic": null,
  "ordering": null,
  "total_magnetization": 0.6128788,
  "total_magnetization_normalized_vol": null,
  "total_magnetization_normalized_formula_units": null,
  "num_magnetic_sites": null,
  "num_unique_magnetic_sites": null,
  "types_of_magnetic_species": null,
  "bulk_modulus": null,
  "shear_modulus": null,
  "universal_anisotropy": null,
  "homogeneous_poisson": null,
  "e_total": null,
  "e_ionic": null,
  "e_electronic": null,
  "n": null,
  "e_ij_max": null,
  "weighted_surface_energy_EV_PER_ANG2": null,
  "weighted_surface_energy": null,
  "weighted_work_function": null,
  "surface_anisotropy": null,
  "shape_factor": null,
  "has_reconstructed": null,
  "possible_species": null,
  "has_props": null,
  "theoretical": null,
  "database_IDs": null,
  "fields_not_requested": [
    "builder_meta",
    "nsites",
    "elements",
    "nelements",
    "composition",
    "composition_reduced",
    "chemsys",
    "symmetry",
    "property_name",
    "deprecated",
    "deprecation_reasons",
    "last_updated",
    "origins",
    "warnings",
    "task_ids",
    "uncorrected_energy_per_atom",
    "equilibrium_reaction_energy_per_atom",
    "decomposes_to",
    "xas",
    "grain_boundaries",
    "cbm",
    "vbm",
    "is_gap_direct",
    "is_metal",
    "es_source_calc_id",
    "bandstructure",
    "dos",
    "dos_energy_up",
    "dos_energy_down",
    "is_magnetic",
    "ordering",
    "total_magnetization_normalized_vol",
    "total_magnetization_normalized_formula_units",
    "num_magnetic_sites",
    "num_unique_magnetic_sites",
    "types_of_magnetic_species",
    "bulk_modulus",
    "shear_modulus",
    "universal_anisotropy",
    "homogeneous_poisson",
    "e_total",
    "e_ionic",
    "e_electronic",
    "n",
    "e_ij_max",
    "weighted_surface_energy_EV_PER_ANG2",
    "weighted_surface_energy",
    "weighted_work_function",
    "surface_anisotropy",
    "shape_factor",
    "has_reconstructed",
    "possible_species",
    "has_props",
    "theoretical",
    "database_IDs"
  ]
}
