{"builder_meta": null, "nsites": null, "elements": null, "nelements": null, "composition": null, "composition_reduced": null, "formula_pretty": "KC", "formula_anonymous": "AB", "chemsys": null, "volume": 430.7189152459967, "density": 1.576313240970871, "density_atomic": 26.919932202874794, "symmetry": null, "property_name": null, "material_id": "mp-243", "deprecated": null, "deprecation_reasons": null, "last_updated": null, "origins": null, "warnings": null, "structure": {"@module": "pymatgen.core.structure", "@class": "Structure", "charge": 0, "lattice": {"matrix": [[-3.832774, 3.832774, 7.33006], [3.832774, -3.832774, 7.33006], [3.832774, 3.832774, -7.33006]], "pbc": [true, true, true], "a": 9.11647369731038, "b": 9.11647369731038, "c": 9.11647369731038, "alpha": 130.2774246689034, "beta": 130.2774246689034, "gamma": 72.96364381160711, "volume": 430.7189152459967}, "properties": {}, "sites": [{"species": [{"element": "K", "occu": 1}], "abc": [0.125, 0.066759, 0.441758999999999], "properties": {"magmom": 0.0}, "label": "K", "xyz": [1.4699378189319963, 1.9163869999999963, -1.8325149999999926]}, {"species": [{"element": "K", "occu": 1}], "abc": [0.816759, 0.875, 0.441758999999999], "properties": {"magmom": 0.0}, "label": "K", "xyz": [1.9163869999999963, 1.4699378189319963, 9.162575000000006]}, {"species": [{"element": "K", "occu": 1}], "abc": [0.433241, 0.375, 0.558241], "properties": {"magmom": 0.0}, "label": "K", "xyz": [1.9163869999999998, 2.362836181068, 1.832515]}, {"species": [{"element": "K", "occu": 1}], "abc": [0.625, 0.683241, 0.558241], "properties": {"magmom": 0.0}, "label": "K", "xyz": [2.362836181068, 1.9163869999999998, 5.497545000000001]}, {"species": [{"element": "K", "occu": 1}], "abc": [0.625, 0.183241, 0.058240999999999], "properties": {"magmom": 0.0}, "label": "K", "xyz": [-1.4699378189320036, 1.916386999999996, 5.497545000000008]}, {"species": [{"element": "K", "occu": 1}], "abc": [0.933241, 0.375, 0.058240999999999], "properties": {"magmom": 0.0}, "label": "K", "xyz": [-1.9163870000000036, 2.362836181067996, 9.162575000000007]}, {"species": [{"element": "K", "occu": 1}], "abc": [0.316759, 0.875, 0.941759], "properties": {"magmom": 0.0}, "label": "K", "xyz": [5.749161, 1.4699378189320003, 1.832514999999999]}, {"species": [{"element": "K", "occu": 1}], "abc": [0.125, 0.566759, 0.941759], "properties": {"magmom": 0.0}, "label": "K", "xyz": [5.302711818932, 1.9163870000000003, -1.8325150000000008]}, {"species": [{"element": "C", "occu": 1}], "abc": [0.558479, 0.058478999999999004, 0.616958], "properties": {"magmom": 0.0}, "label": "C", "xyz": [0.4482735814919965, 4.281047581492004, -7.105427357601002e-15]}, {"species": [{"element": "C", "occu": 1}], "abc": [0.808479, 0.691520999999999, 0.0], "properties": {"magmom": 0.0}, "label": "C", "xyz": [-0.44827358149200336, 0.44827358149200336, 10.995089999999992]}, {"species": [{"element": "C", "occu": 1}], "abc": [0.691520999999999, 0.808479, 0.0], "properties": {"magmom": 0.0}, "label": "C", "xyz": [0.44827358149200336, -0.44827358149200336, 10.995089999999992]}, {"species": [{"element": "C", "occu": 1}], "abc": [0.441521, 0.941520999999999, 0.383042], "properties": {"magmom": 0.0}, "label": "C", "xyz": [3.3845004185079968, -0.4482735814919967, 7.3300599999999925]}, {"species": [{"element": "C", "occu": 1}], "abc": [0.191521, 0.191521, 0.883042], "properties": {"magmom": 0.0}, "label": "C", "xyz": [3.384500418508, 3.384500418508, -3.6650300000000002]}, {"species": [{"element": "C", "occu": 1}], "abc": [0.941520999999999, 0.558479, 0.5], "properties": {"magmom": 0.0}, "label": "C", "xyz": [0.44827358149200314, 3.384500418507997, 7.3300599999999925]}, {"species": [{"element": "C", "occu": 1}], "abc": [0.058478999999999004, 0.441521, 0.5], "properties": {"magmom": 0.0}, "label": "C", "xyz": [3.384500418508004, 0.44827358149199625, -7.105427357601002e-15]}, {"species": [{"element": "C", "occu": 1}], "abc": [0.308479, 0.308479, 0.11695799999999901], "properties": {"magmom": 0.0}, "label": "C", "xyz": [0.4482735814919962, 0.4482735814919962, 3.665030000000007]}]}, "task_ids": null, "uncorrected_energy_per_atom": null, "energy_per_atom": -4.920572198125, "formation_energy_per_atom": 0.2594454095, "energy_above_hull": 0.275237593703125, "is_stable": false, "equilibrium_reaction_energy_per_atom": null, "decomposes_to": null, "xas": null, "grain_boundaries": null, "band_gap": 3.274899999999999, "cbm": null, "vbm": null, "efermi": -0.95354131, "is_gap_direct": null, "is_metal": null, "es_source_calc_id": null, "bandstructure": null, "dos": null, "dos_energy_up": null, "dos_energy_down": null, "is_magnetic": null, "ordering": null, "total_magnetization": 0.00040639999999900005, "total_magnetization_normalized_vol": null, "total_magnetization_normalized_formula_units": null, "num_magnetic_sites": null, "num_unique_magnetic_sites": null, "types_of_magnetic_species": null, "bulk_modulus": null, "shear_modulus": null, "universal_anisotropy": null, "homogeneous_poisson": null, "e_total": null, "e_ionic": null, "e_electronic": null, "n": null, "e_ij_max": null, "weighted_surface_energy_EV_PER_ANG2": null, "weighted_surface_energy": null, "weighted_work_function": null, "surface_anisotropy": null, "shape_factor": null, "has_reconstructed": null, "possible_species": null, "has_props": null, "theoretical": null, "database_IDs": null, "fields_not_requested": ["builder_meta", "nsites", "elements", "nelements", "composition", "composition_reduced", "chemsys", "symmetry", "property_name", "deprecated", "deprecation_reasons", "last_updated", "origins", "warnings", "task_ids", "uncorrected_energy_per_atom", "equilibrium_reaction_energy_per_atom", "decomposes_to", "xas", "grain_boundaries", "cbm", "vbm", "is_gap_direct", "is_metal", "es_source_calc_id", "bandstructure", "dos", "dos_energy_up", "dos_energy_down", "is_magnetic", "ordering", "total_magnetization_normalized_vol", "total_magnetization_normalized_formula_units", "num_magnetic_sites", "num_unique_magnetic_sites", "types_of_magnetic_species", "bulk_modulus", "shear_modulus", "universal_anisotropy", "homogeneous_poisson", "e_total", "e_ionic", "e_electronic", "n", "e_ij_max", "weighted_surface_energy_EV_PER_ANG2", "weighted_surface_energy", "weighted_work_function", "surface_anisotropy", "shape_factor", "has_reconstructed", "possible_species", "has_props", "theoretical", "database_IDs"]}