{"builder_meta": null, "nsites": null, "elements": null, "nelements": null, "composition": null, "composition_reduced": null, "formula_pretty": "KC8", "formula_anonymous": "AB8", "chemsys": null, "volume": 223.9683440211453, "density": 2.004552456789646, "density_atomic": 12.442685778952516, "symmetry": null, "property_name": null, "material_id": "mp-28930", "deprecated": null, "deprecation_reasons": null, "last_updated": null, "origins": null, "warnings": null, "structure": {"@module": "pymatgen.core.structure", "@class": "Structure", "charge": 0, "lattice": {"matrix": [[4.92402049, -0.00226728, -0.55417068], [-2.55288661, 4.21055158, -0.55417068], [-0.02490924, -0.04420886, 10.81724758]], "pbc": [true, true, true], "a": 4.955107271197073, "b": 4.95510643618575, "c": 10.817366597308041, "alpha": 96.55307009090775, "beta": 96.5530691477137, "gamma": 119.99020679040079, "volume": 223.96834402114527}, "properties": {}, "sites": [{"species": [{"element": "K", "occu": 1}], "abc": [0.87498849, 0.12501151, 0.25], "properties": {"magmom": 0.0}, "label": "K", "xyz": [3.9830937332992793, 0.5133313520450786, 2.150141215]}, {"species": [{"element": "K", "occu": 1}], "abc": [0.12501151, 0.87498849, 0.75], "properties": {"magmom": 0.0}, "label": "K", "xyz": [-1.6368690932992789, 3.650744087954921, 7.558765005]}, {"species": [{"element": "C", "occu": 1}], "abc": [0.08406012, 0.16762028, 7.627e-05], "properties": {"magmom": 0.0}, "label": "C", "xyz": [-0.014003714932326775, 0.7055798751554166, -0.13864886693774542]}, {"species": [{"element": "C", "occu": 1}], "abc": [0.16753202, 0.583967599999999, 0.49991828], "properties": {"magmom": 0.0}, "label": "C", "xyz": [-0.6783245519196508, 2.4363450415985377, 4.9912807490926205]}, {"species": [{"element": "C", "occu": 1}], "abc": [0.83237972, 0.91593988, 0.49992373], "properties": {"magmom": 0.0}, "label": "C", "xyz": [1.7479114213511917, 3.832623812837201, 4.438931296937746]}, {"species": [{"element": "C", "occu": 1}], "abc": [0.416032399999999, 0.83246698, 8.172000000000001e-05], "properties": {"magmom": 0.0}, "label": "C", "xyz": [-0.07664377998835907, 3.504198283248917, -0.6909977649219403]}, {"species": [{"element": "C", "occu": 1}], "abc": [0.91593988, 0.83237972, 0.99992373], "properties": {"magmom": 0.0}, "label": "C", "xyz": [2.3602283549323277, 3.4584955648445836, 9.847555086937746]}, {"species": [{"element": "C", "occu": 1}], "abc": [0.83246698, 0.416032399999999, 0.50008272], "properties": {"magmom": 0.0}, "label": "C", "xyz": [3.0245442429899256, 1.7277303564598743, 4.717636842325639]}, {"species": [{"element": "C", "occu": 1}], "abc": [0.16762028, 0.08406012, 0.50007627], "properties": {"magmom": 0.0}, "label": "C", "xyz": [0.5983132186488093, 0.331451627162799, 5.269974923062255]}, {"species": [{"element": "C", "occu": 1}], "abc": [0.583967599999999, 0.16753302, 0.99991828], "properties": {"magmom": 0.0}, "label": "C", "xyz": [2.42286841998835, 0.6598771567510827, 10.399903984921941]}, {"species": [{"element": "C", "occu": 1}], "abc": [0.58271375, 0.66620437, 0.99761621], "properties": {"magmom": 0.0}, "label": "C", "xyz": [1.143700367505472, 2.7596632121136837, 10.099347729566551]}, {"species": [{"element": "C", "occu": 1}], "abc": [0.66855846, 0.08506397, 0.50239213], "properties": {"magmom": 0.0}, "label": "C", "xyz": [3.0623226796561225, 0.334440240719112, 5.016864597957194]}, {"species": [{"element": "C", "occu": 1}], "abc": [0.33379563, 0.41728625, 0.50238379], "properties": {"magmom": 0.0}, "label": "C", "xyz": [0.5658180430331268, 1.7340386564554093, 5.01818228043345]}, {"species": [{"element": "C", "occu": 1}], "abc": [0.91493603, 0.33144154000000003, 0.9976078700000001], "properties": {"magmom": 0.0}, "label": "C", "xyz": [3.6341814354357567, 1.3493741771028067, 10.100665412042806]}, {"species": [{"element": "C", "occu": 1}], "abc": [0.41728625, 0.33379563, 0.00238379], "properties": {"magmom": 0.0}, "label": "C", "xyz": [1.2025242724945289, 1.404412227886316, -0.3904415095665502]}, {"species": [{"element": "C", "occu": 1}], "abc": [0.33144154000000003, 0.91493603, 0.49760787], "properties": {"magmom": 0.0}, "label": "C", "xyz": [-0.716098039656122, 3.829635199280888, 4.692041622042807]}, {"species": [{"element": "C", "occu": 1}], "abc": [0.66620437, 0.58271375, 0.49761621], "properties": {"magmom": 0.0}, "label": "C", "xyz": [1.7804065969668736, 2.4300367835445904, 4.69072393956655]}, {"species": [{"element": "C", "occu": 1}], "abc": [0.08506397, 0.66855846, 0.00239213], "properties": {"magmom": 0.0}, "label": "C", "xyz": [-1.2879567954357563, 2.8147012628971932, -0.391759192042807]}]}, "task_ids": null, "uncorrected_energy_per_atom": null, "energy_per_atom": -8.357040956666667, "formation_energy_per_atom": -0.028074994138890003, "energy_above_hull": 0.0, "is_stable": true, "equilibrium_reaction_energy_per_atom": null, "decomposes_to": null, "xas": null, "grain_boundaries": null, "band_gap": 0.0, "cbm": null, "vbm": null, "efermi": 4.35346854, "is_gap_direct": null, "is_metal": null, "es_source_calc_id": null, "bandstructure": null, "dos": null, "dos_energy_up": null, "dos_energy_down": null, "is_magnetic": null, "ordering": null, "total_magnetization": 7.25e-05, "total_magnetization_normalized_vol": null, "total_magnetization_normalized_formula_units": null, "num_magnetic_sites": null, "num_unique_magnetic_sites": null, "types_of_magnetic_species": null, "bulk_modulus": null, "shear_modulus": null, "universal_anisotropy": null, "homogeneous_poisson": null, "e_total": null, "e_ionic": null, "e_electronic": null, "n": null, "e_ij_max": null, "weighted_surface_energy_EV_PER_ANG2": null, "weighted_surface_energy": null, "weighted_work_function": null, "surface_anisotropy": null, "shape_factor": null, "has_reconstructed": null, "possible_species": null, "has_props": null, "theoretical": null, "database_IDs": null, "fields_not_requested": ["builder_meta", "nsites", "elements", "nelements", "composition", "composition_reduced", "chemsys", "symmetry", "property_name", "deprecated", "deprecation_reasons", "last_updated", "origins", "warnings", "task_ids", "uncorrected_energy_per_atom", "equilibrium_reaction_energy_per_atom", "decomposes_to", "xas", "grain_boundaries", "cbm", "vbm", "is_gap_direct", "is_metal", "es_source_calc_id", "bandstructure", "dos", "dos_energy_up", "dos_energy_down", "is_magnetic", "ordering", "total_magnetization_normalized_vol", "total_magnetization_normalized_formula_units", "num_magnetic_sites", "num_unique_magnetic_sites", "types_of_magnetic_species", "bulk_modulus", "shear_modulus", "universal_anisotropy", "homogeneous_poisson", "e_total", "e_ionic", "e_electronic", "n", "e_ij_max", "weighted_surface_energy_EV_PER_ANG2", "weighted_surface_energy", "weighted_work_function", "surface_anisotropy", "shape_factor", "has_reconstructed", "possible_species", "has_props", "theoretical", "database_IDs"]}