{
  "builder_meta": null,
  "nsites": null,
  "elements": null,
  "nelements": null,
  "composition": null,
  "composition_reduced": null,
  "formula_pretty": "KCo",
  "formula_anonymous": "AB",
  "chemsys": null,
  "volume": 115.84211013516122,
  "density": 2.810465503688936,
  "density_atomic": 28.960527533790305,
  "symmetry": null,
  "property_name": null,
  "material_id": "mp-1978358",
  "deprecated": null,
  "deprecation_reasons": null,
  "last_updated": null,
  "origins": null,
  "warnings": null,
  "structure": {
    "@module": "pymatgen.core.structure",
    "@class": "Structure",
    "charge": 0,
    "lattice": {
      "matrix": [
        [0.0, -3.699782, 0.0],
        [-5.719238, 0.0, 0.0],
        [2.859619, 1.849891, -5.474597]
      ],
      "pbc": [true, true, true],
      "a": 3.699782,
      "b": 5.719238,
      "c": 6.447536727266546,
      "alpha": 116.32876208065348,
      "beta": 106.6733142945522,
      "gamma": 90.0,
      "volume": 115.84211013516122
    },
    "properties": {},
    "sites": [
      {
        "species": [{ "element": "K", "occu": 1 }],
        "abc": [0.097805999999999, 0.347806, 0.695612],
        "properties": { "magmom": -0.008 },
        "label": "K",
        "xyz": [0.0, 0.9249455000000038, -3.808195368364]
      },
      {
        "species": [{ "element": "K", "occu": 1 }],
        "abc": [0.902193999999999, 0.652193999999999, 0.304388],
        "properties": { "magmom": -0.008 },
        "label": "K",
        "xyz": [-2.8596189999999946, -2.774836499999996, -1.666401631636]
      },
      {
        "species": [{ "element": "Co", "occu": 1 }],
        "abc": [0.695265, 0.945264999999999, 0.890529],
        "properties": { "magmom": 1.767 },
        "label": "Co",
        "xyz": [-2.8596218596189944, -0.9249473498910001, -4.875287391813]
      },
      {
        "species": [{ "element": "Co", "occu": 1 }],
        "abc": [0.304735, 0.054735, 0.109471],
        "properties": { "magmom": 1.767 },
        "label": "Co",
        "xyz": [2.8596189999841037e-6, -0.9249436501089998, -0.599309608187]
      }
    ]
  },
  "task_ids": null,
  "uncorrected_energy_per_atom": null,
  "energy_per_atom": -8.816228117125,
  "formation_energy_per_atom": 0.810019415999999,
  "energy_above_hull": 0.810019415999999,
  "is_stable": false,
  "equilibrium_reaction_energy_per_atom": null,
  "decomposes_to": null,
  "xas": null,
  "grain_boundaries": null,
  "band_gap": 0.0,
  "cbm": null,
  "vbm": null,
  "efermi": 1.29256861,
  "is_gap_direct": null,
  "is_metal": null,
  "es_source_calc_id": null,
  "bandstructure": null,
  "dos": null,
  "dos_energy_up": null,
  "dos_energy_down": null,
  "is_magnetic": null,
  "ordering": null,
  "total_magnetization": 3.51742,
  "total_magnetization_normalized_vol": null,
  "total_magnetization_normalized_formula_units": null,
  "num_magnetic_sites": null,
  "num_unique_magnetic_sites": null,
  "types_of_magnetic_species": null,
  "bulk_modulus": null,
  "shear_modulus": null,
  "universal_anisotropy": null,
  "homogeneous_poisson": null,
  "e_total": null,
  "e_ionic": null,
  "e_electronic": null,
  "n": null,
  "e_ij_max": null,
  "weighted_surface_energy_EV_PER_ANG2": null,
  "weighted_surface_energy": null,
  "weighted_work_function": null,
  "surface_anisotropy": null,
  "shape_factor": null,
  "has_reconstructed": null,
  "possible_species": null,
  "has_props": null,
  "theoretical": null,
  "database_IDs": null,
  "fields_not_requested": [
    "builder_meta",
    "nsites",
    "elements",
    "nelements",
    "composition",
    "composition_reduced",
    "chemsys",
    "symmetry",
    "property_name",
    "deprecated",
    "deprecation_reasons",
    "last_updated",
    "origins",
    "warnings",
    "task_ids",
    "uncorrected_energy_per_atom",
    "equilibrium_reaction_energy_per_atom",
    "decomposes_to",
    "xas",
    "grain_boundaries",
    "cbm",
    "vbm",
    "is_gap_direct",
    "is_metal",
    "es_source_calc_id",
    "bandstructure",
    "dos",
    "dos_energy_up",
    "dos_energy_down",
    "is_magnetic",
    "ordering",
    "total_magnetization_normalized_vol",
    "total_magnetization_normalized_formula_units",
    "num_magnetic_sites",
    "num_unique_magnetic_sites",
    "types_of_magnetic_species",
    "bulk_modulus",
    "shear_modulus",
    "universal_anisotropy",
    "homogeneous_poisson",
    "e_total",
    "e_ionic",
    "e_electronic",
    "n",
    "e_ij_max",
    "weighted_surface_energy_EV_PER_ANG2",
    "weighted_surface_energy",
    "weighted_work_function",
    "surface_anisotropy",
    "shape_factor",
    "has_reconstructed",
    "possible_species",
    "has_props",
    "theoretical",
    "database_IDs"
  ]
}
