{"builder_meta": null, "nsites": null, "elements": null, "nelements": null, "composition": null, "composition_reduced": null, "formula_pretty": "KF2", "formula_anonymous": "AB2", "chemsys": null, "volume": 120.93884935973416, "density": 2.117093666735462, "density_atomic": 20.156474893289026, "symmetry": null, "property_name": null, "material_id": "mp-976802", "deprecated": null, "deprecation_reasons": null, "last_updated": null, "origins": null, "warnings": null, "structure": {"@module": "pymatgen.core.structure", "@class": "Structure", "charge": 0, "lattice": {"matrix": [[4.94757198, -7.75e-06, 0.0], [-7.75e-06, 4.94728542, 0.0], [0.0, 0.0, 4.94090774]], "pbc": [true, true, true], "a": 4.94757198000607, "b": 4.947285420006071, "c": 4.94090774, "alpha": 90.0, "beta": 90.0, "gamma": 90.00017950427122, "volume": 120.93884935973416}, "properties": {}, "sites": [{"species": [{"element": "K", "occu": 1}], "abc": [0.9999852100000001, 3.16e-06, 0.0], "properties": {"magmom": 0.007}, "label": "K", "xyz": [4.947498805385926, 7.8835365497e-06, 0.0]}, {"species": [{"element": "K", "occu": 1}], "abc": [0.49998635, 0.49999801, 0.5], "properties": {"magmom": 0.007}, "label": "K", "xyz": [2.4737145806578957, 2.4736289900078017, 2.47045387]}, {"species": [{"element": "F", "occu": 1}], "abc": [0.36178345, 0.36178425000000003, -0.0], "properties": {"magmom": 0.464}, "label": "F", "xyz": [1.7899468562197935, 1.7898471413888977, 0.0]}, {"species": [{"element": "F", "occu": 1}], "abc": [0.63823031, 0.63818453, -0.0], "properties": {"magmom": 0.464}, "label": "F", "xyz": [3.157685452612606, 3.15727607425365, 0.0]}, {"species": [{"element": "F", "occu": 1}], "abc": [0.86178323, 0.13821585, 0.5], "properties": {"magmom": 0.464}, "label": "F", "xyz": [4.2637334904090585, 0.6837865806978746, 2.47045387]}, {"species": [{"element": "F", "occu": 1}], "abc": [0.13823045, 0.8618152, 0.5], "properties": {"magmom": 0.464}, "label": "F", "xyz": [0.683898422134991, 4.2636447024083965, 2.47045387]}]}, "task_ids": null, "uncorrected_energy_per_atom": null, "energy_per_atom": -3.770486013333333, "formation_energy_per_atom": -2.117461189083333, "energy_above_hull": 0.0, "is_stable": true, "equilibrium_reaction_energy_per_atom": null, "decomposes_to": null, "xas": null, "grain_boundaries": null, "band_gap": 1.445599999999999, "cbm": null, "vbm": null, "efermi": -4.11251049, "is_gap_direct": null, "is_metal": null, "es_source_calc_id": null, "bandstructure": null, "dos": null, "dos_energy_up": null, "dos_energy_down": null, "is_magnetic": null, "ordering": null, "total_magnetization": 1.9999994, "total_magnetization_normalized_vol": null, "total_magnetization_normalized_formula_units": null, "num_magnetic_sites": null, "num_unique_magnetic_sites": null, "types_of_magnetic_species": null, "bulk_modulus": null, "shear_modulus": null, "universal_anisotropy": null, "homogeneous_poisson": null, "e_total": null, "e_ionic": null, "e_electronic": null, "n": null, "e_ij_max": null, "weighted_surface_energy_EV_PER_ANG2": null, "weighted_surface_energy": null, "weighted_work_function": null, "surface_anisotropy": null, "shape_factor": null, "has_reconstructed": null, "possible_species": null, "has_props": null, "theoretical": null, "database_IDs": null, "fields_not_requested": ["builder_meta", "nsites", "elements", "nelements", "composition", "composition_reduced", "chemsys", "symmetry", "property_name", "deprecated", "deprecation_reasons", "last_updated", "origins", "warnings", "task_ids", "uncorrected_energy_per_atom", "equilibrium_reaction_energy_per_atom", "decomposes_to", "xas", "grain_boundaries", "cbm", "vbm", "is_gap_direct", "is_metal", "es_source_calc_id", "bandstructure", "dos", "dos_energy_up", "dos_energy_down", "is_magnetic", "ordering", "total_magnetization_normalized_vol", "total_magnetization_normalized_formula_units", "num_magnetic_sites", "num_unique_magnetic_sites", "types_of_magnetic_species", "bulk_modulus", "shear_modulus", "universal_anisotropy", "homogeneous_poisson", "e_total", "e_ionic", "e_electronic", "n", "e_ij_max", "weighted_surface_energy_EV_PER_ANG2", "weighted_surface_energy", "weighted_work_function", "surface_anisotropy", "shape_factor", "has_reconstructed", "possible_species", "has_props", "theoretical", "database_IDs"]}