{"builder_meta": null, "nsites": null, "elements": null, "nelements": null, "composition": null, "composition_reduced": null, "formula_pretty": "KF3", "formula_anonymous": "AB3", "chemsys": null, "volume": 554.2412690328064, "density": 2.303213934479601, "density_atomic": 17.3200396572752, "symmetry": null, "property_name": null, "material_id": "mp-867934", "deprecated": null, "deprecation_reasons": null, "last_updated": null, "origins": null, "warnings": null, "structure": {"@module": "pymatgen.core.structure", "@class": "Structure", "charge": 0, "lattice": {"matrix": [[7.371247, 0.0, 0.0], [0.0, 7.5964849999999995, 0.0], [0.0, 0.0, 9.897949]], "pbc": [true, true, true], "a": 7.371247, "b": 7.5964849999999995, "c": 9.897949, "alpha": 90.0, "beta": 90.0, "gamma": 90.0, "volume": 554.2412690328064}, "properties": {}, "sites": [{"species": [{"element": "K", "occu": 1}], "abc": [0.428413, 0.773065, 0.647482], "properties": {"magmom": 0.001}, "label": "K", "xyz": [3.157938041011, 5.872576676525, 6.408743814418]}, {"species": [{"element": "K", "occu": 1}], "abc": [0.928412999999999, 0.726935, 0.352518], "properties": {"magmom": 0.001}, "label": "K", "xyz": [6.843561541010994, 5.522150823474999, 3.489205185582]}, {"species": [{"element": "K", "occu": 1}], "abc": [0.571587, 0.273065, 0.852518], "properties": {"magmom": 0.001}, "label": "K", "xyz": [4.213308958989, 2.074334176525, 8.438179685582]}, {"species": [{"element": "K", "occu": 1}], "abc": [0.071587, 0.226935, 0.147482], "properties": {"magmom": 0.001}, "label": "K", "xyz": [0.527685458989, 1.723908323475, 1.4597693144180002]}, {"species": [{"element": "K", "occu": 1}], "abc": [0.467892, 0.825793, 0.129422999999999], "properties": {"magmom": -0.001}, "label": "K", "xyz": [3.448947501324, 6.2731241376049995, 1.2810222534269904]}, {"species": [{"element": "K", "occu": 1}], "abc": [0.967892, 0.674207, 0.870576999999999], "properties": {"magmom": -0.001}, "label": "K", "xyz": [7.134571001324, 5.121603362395, 8.616926746572991]}, {"species": [{"element": "K", "occu": 1}], "abc": [0.532108, 0.325793, 0.370577], "properties": {"magmom": -0.001}, "label": "K", "xyz": [3.9222994986760003, 2.474881637605, 3.667952246573]}, {"species": [{"element": "K", "occu": 1}], "abc": [0.032108, 0.174207, 0.629423], "properties": {"magmom": -0.001}, "label": "K", "xyz": [0.236675998676, 1.323360862395, 6.229996753427]}, {"species": [{"element": "F", "occu": 1}], "abc": [0.789308999999999, 0.693151, 0.624304], "properties": {"magmom": 0.716}, "label": "F", "xyz": [5.8181915983229935, 5.265511174234999, 6.179329152496]}, {"species": [{"element": "F", "occu": 1}], "abc": [0.289309, 0.806848999999999, 0.375696], "properties": {"magmom": 0.716}, "label": "F", "xyz": [2.132568098323, 6.129216325764992, 3.7186198475039998]}, {"species": [{"element": "F", "occu": 1}], "abc": [0.210691, 0.193151, 0.875695999999999], "properties": {"magmom": 0.716}, "label": "F", "xyz": [1.553055401677, 1.4672686742349998, 8.667594347503991]}, {"species": [{"element": "F", "occu": 1}], "abc": [0.710691, 0.306849, 0.124304], "properties": {"magmom": 0.716}, "label": "F", "xyz": [5.238678901677, 2.3309738257649997, 1.230354652496]}, {"species": [{"element": "F", "occu": 1}], "abc": [0.039162999999999004, 0.796704, 0.610530999999999], "properties": {"magmom": 0.53}, "label": "F", "xyz": [0.2886801462609927, 6.052149985439999, 6.043004700918991]}, {"species": [{"element": "F", "occu": 1}], "abc": [0.539163, 0.703295999999999, 0.389469], "properties": {"magmom": 0.53}, "label": "F", "xyz": [3.9743036462609997, 5.342577514559992, 3.854944299081]}, {"species": [{"element": "F", "occu": 1}], "abc": [0.960836999999999, 0.296703999999999, 0.889469], "properties": {"magmom": 0.53}, "label": "F", "xyz": [7.082566853738993, 2.2539074854399925, 8.803918799081]}, {"species": [{"element": "F", "occu": 1}], "abc": [0.460837, 0.203296, 0.110530999999999], "properties": {"magmom": 0.53}, "label": "F", "xyz": [3.396943353739, 1.5443350145599999, 1.0940302009189902]}, {"species": [{"element": "F", "occu": 1}], "abc": [0.268445, 0.938215999999999, 0.871618999999999], "properties": {"magmom": 0.553}, "label": "F", "xyz": [1.978774400915, 7.127143770759992, 8.627240409430991]}, {"species": [{"element": "F", "occu": 1}], "abc": [0.768444999999999, 0.561784, 0.128381], "properties": {"magmom": 0.553}, "label": "F", "xyz": [5.664397900914993, 4.267583729239999, 1.270708590569]}, {"species": [{"element": "F", "occu": 1}], "abc": [0.731555, 0.438216, 0.628381], "properties": {"magmom": 0.553}, "label": "F", "xyz": [5.392472599085, 3.32890127076, 6.219683090569]}, {"species": [{"element": "F", "occu": 1}], "abc": [0.231554999999999, 0.061784, 0.371619], "properties": {"magmom": 0.553}, "label": "F", "xyz": [1.7068490990849927, 0.46934122923999994, 3.678265909431]}, {"species": [{"element": "F", "occu": 1}], "abc": [0.766237, 0.966849, 0.009682], "properties": {"magmom": 0.73}, "label": "F", "xyz": [5.648122187539, 7.344653925764999, 0.095831942218]}, {"species": [{"element": "F", "occu": 1}], "abc": [0.266237, 0.533150999999999, 0.990317], "properties": {"magmom": 0.73}, "label": "F", "xyz": [1.962498687539, 4.050073574234992, 9.802107159833001]}, {"species": [{"element": "F", "occu": 1}], "abc": [0.233763, 0.466848999999999, 0.490318], "properties": {"magmom": 0.73}, "label": "F", "xyz": [1.7231248124610001, 3.546411425764992, 4.853142557782]}, {"species": [{"element": "F", "occu": 1}], "abc": [0.733762999999999, 0.033151, 0.509683], "properties": {"magmom": 0.73}, "label": "F", "xyz": [5.408748312460993, 0.251831074235, 5.044816340167]}, {"species": [{"element": "F", "occu": 1}], "abc": [0.234612, 0.463258, 0.689418], "properties": {"magmom": 0.5670000000000001}, "label": "F", "xyz": [1.729383001164, 3.5191324481299997, 6.823824203682]}, {"species": [{"element": "F", "occu": 1}], "abc": [0.734611999999999, 0.036742, 0.310581999999999], "properties": {"magmom": 0.5670000000000001}, "label": "F", "xyz": [5.415006501163993, 0.27911005186999993, 3.0741247963179905]}, {"species": [{"element": "F", "occu": 1}], "abc": [0.765388, 0.963258, 0.810581999999999], "properties": {"magmom": 0.5670000000000001}, "label": "F", "xyz": [5.6418639988359995, 7.3173749481299994, 8.02309929631799]}, {"species": [{"element": "F", "occu": 1}], "abc": [0.265388, 0.536741999999999, 0.189418], "properties": {"magmom": 0.5670000000000001}, "label": "F", "xyz": [1.9562404988360003, 4.077352551869993, 1.8748497036820002]}, {"species": [{"element": "F", "occu": 1}], "abc": [0.493067, 0.621258, 0.905354999999999], "properties": {"magmom": 0.54}, "label": "F", "xyz": [3.634518644549, 4.719377078129999, 8.96115761689499]}, {"species": [{"element": "F", "occu": 1}], "abc": [0.993066999999999, 0.878741999999999, 0.09464499999999901], "properties": {"magmom": 0.54}, "label": "F", "xyz": [7.320142144548993, 6.675350421869992, 0.9367913831049902]}, {"species": [{"element": "F", "occu": 1}], "abc": [0.506933, 0.121257999999999, 0.594645], "properties": {"magmom": 0.54}, "label": "F", "xyz": [3.736728355451, 0.9211345781299923, 5.885765883105]}, {"species": [{"element": "F", "occu": 1}], "abc": [0.006933, 0.378741999999999, 0.405354999999999], "properties": {"magmom": 0.54}, "label": "F", "xyz": [0.051104855451, 2.8771079218699924, 4.012183116894991]}]}, "task_ids": null, "uncorrected_energy_per_atom": null, "energy_per_atom": -3.3569040821875, "formation_energy_per_atom": -1.6386723702500001, "energy_above_hull": 0.0, "is_stable": true, "equilibrium_reaction_energy_per_atom": null, "decomposes_to": null, "xas": null, "grain_boundaries": null, "band_gap": 0.09240000000000001, "cbm": null, "vbm": null, "efermi": -3.91580577, "is_gap_direct": null, "is_metal": null, "es_source_calc_id": null, "bandstructure": null, "dos": null, "dos_energy_up": null, "dos_energy_down": null, "is_magnetic": null, "ordering": null, "total_magnetization": 15.9974639, "total_magnetization_normalized_vol": null, "total_magnetization_normalized_formula_units": null, "num_magnetic_sites": null, "num_unique_magnetic_sites": null, "types_of_magnetic_species": null, "bulk_modulus": null, "shear_modulus": null, "universal_anisotropy": null, "homogeneous_poisson": null, "e_total": null, "e_ionic": null, "e_electronic": null, "n": null, "e_ij_max": null, "weighted_surface_energy_EV_PER_ANG2": null, "weighted_surface_energy": null, "weighted_work_function": null, "surface_anisotropy": null, "shape_factor": null, "has_reconstructed": null, "possible_species": null, "has_props": null, "theoretical": null, "database_IDs": null, "fields_not_requested": ["builder_meta", "nsites", "elements", "nelements", "composition", "composition_reduced", "chemsys", "symmetry", "property_name", "deprecated", "deprecation_reasons", "last_updated", "origins", "warnings", "task_ids", "uncorrected_energy_per_atom", "equilibrium_reaction_energy_per_atom", "decomposes_to", "xas", "grain_boundaries", "cbm", "vbm", "is_gap_direct", "is_metal", "es_source_calc_id", "bandstructure", "dos", "dos_energy_up", "dos_energy_down", "is_magnetic", "ordering", "total_magnetization_normalized_vol", "total_magnetization_normalized_formula_units", "num_magnetic_sites", "num_unique_magnetic_sites", "types_of_magnetic_species", "bulk_modulus", "shear_modulus", "universal_anisotropy", "homogeneous_poisson", "e_total", "e_ionic", "e_electronic", "n", "e_ij_max", "weighted_surface_energy_EV_PER_ANG2", "weighted_surface_energy", "weighted_work_function", "surface_anisotropy", "shape_factor", "has_reconstructed", "possible_species", "has_props", "theoretical", "database_IDs"]}