{"builder_meta": null, "nsites": null, "elements": null, "nelements": null, "composition": null, "composition_reduced": null, "formula_pretty": "KF5", "formula_anonymous": "AB5", "chemsys": null, "volume": 206.23630890128948, "density": 2.159292021438489, "density_atomic": 17.186359075107458, "symmetry": null, "property_name": null, "material_id": "mp-1095521", "deprecated": null, "deprecation_reasons": null, "last_updated": null, "origins": null, "warnings": null, "structure": {"@module": "pymatgen.core.structure", "@class": "Structure", "charge": 0, "lattice": {"matrix": [[-2.736856, 2.736856, 6.883372], [2.736856, -2.736856, 6.883372], [2.736856, 2.736856, -6.883372]], "pbc": [true, true, true], "a": 7.89693431781321, "b": 7.89693431781321, "c": 7.89693431781321, "alpha": 139.4444328329013, "beta": 139.4444328329013, "gamma": 58.69782766807982, "volume": 206.23630890128948}, "properties": {}, "sites": [{"species": [{"element": "K", "occu": 1}], "abc": [0.25, 0.75, 0.5], "properties": {"magmom": 0.003}, "label": "K", "xyz": [2.7368560000000004, -2.220446049250313e-16, 3.441686]}, {"species": [{"element": "K", "occu": 1}], "abc": [0.5, 0.5, 0.0], "properties": {"magmom": 0.003}, "label": "K", "xyz": [0.0, 0.0, 6.883372]}, {"species": [{"element": "F", "occu": 1}], "abc": [0.75, 0.25, 0.5], "properties": {"magmom": 1.021}, "label": "F", "xyz": [-2.220446049250313e-16, 2.7368560000000004, 3.441686]}, {"species": [{"element": "F", "occu": 1}], "abc": [0.0, 0.0, 0.0], "properties": {"magmom": 1.021}, "label": "F", "xyz": [0.0, 0.0, 0.0]}, {"species": [{"element": "F", "occu": 1}], "abc": [0.138348, 0.067241, 0.394167999999999], "properties": {"magmom": 0.653}, "label": "F", "xyz": [0.8841714362159974, 1.2733906753999973, -1.298059408387993]}, {"species": [{"element": "F", "occu": 1}], "abc": [0.673072999999999, 0.744181, 0.605831999999999], "properties": {"magmom": 0.656}, "label": "F", "xyz": [1.8526873006399998, 1.4634625877439948, 5.585319474984001]}, {"species": [{"element": "F", "occu": 1}], "abc": [0.494181, 0.388347999999999, 0.571106999999999], "properties": {"magmom": 0.656}, "label": "F", "xyz": [1.2733879385439948, 1.8526873006399998, 2.1436334749839996]}, {"species": [{"element": "F", "occu": 1}], "abc": [0.817241, 0.923072999999999, 0.428892999999999], "properties": {"magmom": 0.65}, "label": "F", "xyz": [1.4634653245999947, 0.884171436216, 9.026998591612001]}, {"species": [{"element": "F", "occu": 1}], "abc": [0.611652, 0.182759, 0.105832], "properties": {"magmom": 0.653}, "label": "F", "xyz": [-0.884171436216, 1.4634653246, 4.739745408387999]}, {"species": [{"element": "F", "occu": 1}], "abc": [0.076926, 0.505819, 0.894168], "properties": {"magmom": 0.658}, "label": "F", "xyz": [3.621027436216, 1.2733906754, -2.1436403583559995]}, {"species": [{"element": "F", "occu": 1}], "abc": [0.255818999999999, 0.861652, 0.928893], "properties": {"magmom": 0.655}, "label": "F", "xyz": [4.200324061456002, 0.8841686993599971, 1.2980525250159927]}, {"species": [{"element": "F", "occu": 1}], "abc": [0.932759, 0.326926, 0.071107], "properties": {"magmom": 0.648}, "label": "F", "xyz": [-1.4634680614559998, 1.8526873006399998, 8.181424525015998]}]}, "task_ids": null, "uncorrected_energy_per_atom": null, "energy_per_atom": -2.773480116666666, "formation_energy_per_atom": -0.9900415170416661, "energy_above_hull": 0.10240672979166601, "is_stable": false, "equilibrium_reaction_energy_per_atom": null, "decomposes_to": null, "xas": null, "grain_boundaries": null, "band_gap": 0.0, "cbm": null, "vbm": null, "efermi": -4.68552765, "is_gap_direct": null, "is_metal": null, "es_source_calc_id": null, "bandstructure": null, "dos": null, "dos_energy_up": null, "dos_energy_down": null, "is_magnetic": null, "ordering": null, "total_magnetization": 8.0067085, "total_magnetization_normalized_vol": null, "total_magnetization_normalized_formula_units": null, "num_magnetic_sites": null, "num_unique_magnetic_sites": null, "types_of_magnetic_species": null, "bulk_modulus": null, "shear_modulus": null, "universal_anisotropy": null, "homogeneous_poisson": null, "e_total": null, "e_ionic": null, "e_electronic": null, "n": null, "e_ij_max": null, "weighted_surface_energy_EV_PER_ANG2": null, "weighted_surface_energy": null, "weighted_work_function": null, "surface_anisotropy": null, "shape_factor": null, "has_reconstructed": null, "possible_species": null, "has_props": null, "theoretical": null, "database_IDs": null, "fields_not_requested": ["builder_meta", "nsites", "elements", "nelements", "composition", "composition_reduced", "chemsys", "symmetry", "property_name", "deprecated", "deprecation_reasons", "last_updated", "origins", "warnings", "task_ids", "uncorrected_energy_per_atom", "equilibrium_reaction_energy_per_atom", "decomposes_to", "xas", "grain_boundaries", "cbm", "vbm", "is_gap_direct", "is_metal", "es_source_calc_id", "bandstructure", "dos", "dos_energy_up", "dos_energy_down", "is_magnetic", "ordering", "total_magnetization_normalized_vol", "total_magnetization_normalized_formula_units", "num_magnetic_sites", "num_unique_magnetic_sites", "types_of_magnetic_species", "bulk_modulus", "shear_modulus", "universal_anisotropy", "homogeneous_poisson", "e_total", "e_ionic", "e_electronic", "n", "e_ij_max", "weighted_surface_energy_EV_PER_ANG2", "weighted_surface_energy", "weighted_work_function", "surface_anisotropy", "shape_factor", "has_reconstructed", "possible_species", "has_props", "theoretical", "database_IDs"]}