{"builder_meta": null, "nsites": null, "elements": null, "nelements": null, "composition": null, "composition_reduced": null, "formula_pretty": "KFe", "formula_anonymous": "AB", "chemsys": null, "volume": 137.5291199746164, "density": 2.292708028540026, "density_atomic": 34.3822799936541, "symmetry": null, "property_name": null, "material_id": "mp-1097017", "deprecated": null, "deprecation_reasons": null, "last_updated": null, "origins": null, "warnings": null, "structure": {"@module": "pymatgen.core.structure", "@class": "Structure", "charge": 0, "lattice": {"matrix": [[5.033829, 3.238126, 0.0], [-5.033829, 3.238126, 0.0], [0.0, 1.302969, 4.21864]], "pbc": [true, true, true], "a": 5.9853900786094965, "b": 5.9853900786094965, "c": 4.415274811895744, "alpha": 80.81323270951746, "beta": 80.81323270951746, "gamma": 114.49583950311248, "volume": 137.5291199746164}, "properties": {}, "sites": [{"species": [{"element": "K", "occu": 1}], "abc": [0.163571, 0.836429, 0.25], "properties": {"magmom": -0.013000000000000001}, "label": "K", "xyz": [-3.3870521132820004, 3.5638682499999996, 1.05466]}, {"species": [{"element": "K", "occu": 1}], "abc": [0.836429, 0.163571, 0.75], "properties": {"magmom": -0.013000000000000001}, "label": "K", "xyz": [3.3870521132820004, 4.215352749999999, 3.1639799999999996]}, {"species": [{"element": "Fe", "occu": 1}], "abc": [0.523121, 0.476879, 0.25], "properties": {"magmom": 2.865}, "label": "Fe", "xyz": [0.23277432061799974, 3.5638682499999996, 1.05466]}, {"species": [{"element": "Fe", "occu": 1}], "abc": [0.476879, 0.523121, 0.75], "properties": {"magmom": 2.865}, "label": "Fe", "xyz": [-0.23277432061799974, 4.215352749999999, 3.1639799999999996]}]}, "task_ids": null, "uncorrected_energy_per_atom": null, "energy_per_atom": -3.7744912075, "formation_energy_per_atom": 1.026204258875, "energy_above_hull": 1.026204258875, "is_stable": false, "equilibrium_reaction_energy_per_atom": null, "decomposes_to": null, "xas": null, "grain_boundaries": null, "band_gap": 0.0, "cbm": null, "vbm": null, "efermi": 0.70564359, "is_gap_direct": null, "is_metal": null, "es_source_calc_id": null, "bandstructure": null, "dos": null, "dos_energy_up": null, "dos_energy_down": null, "is_magnetic": null, "ordering": null, "total_magnetization": 5.7274289, "total_magnetization_normalized_vol": null, "total_magnetization_normalized_formula_units": null, "num_magnetic_sites": null, "num_unique_magnetic_sites": null, "types_of_magnetic_species": null, "bulk_modulus": null, "shear_modulus": null, "universal_anisotropy": null, "homogeneous_poisson": null, "e_total": null, "e_ionic": null, "e_electronic": null, "n": null, "e_ij_max": null, "weighted_surface_energy_EV_PER_ANG2": null, "weighted_surface_energy": null, "weighted_work_function": null, "surface_anisotropy": null, "shape_factor": null, "has_reconstructed": null, "possible_species": null, "has_props": null, "theoretical": null, "database_IDs": null, "fields_not_requested": ["builder_meta", "nsites", "elements", "nelements", "composition", "composition_reduced", "chemsys", "symmetry", "property_name", "deprecated", "deprecation_reasons", "last_updated", "origins", "warnings", "task_ids", "uncorrected_energy_per_atom", "equilibrium_reaction_energy_per_atom", "decomposes_to", "xas", "grain_boundaries", "cbm", "vbm", "is_gap_direct", "is_metal", "es_source_calc_id", "bandstructure", "dos", "dos_energy_up", "dos_energy_down", "is_magnetic", "ordering", "total_magnetization_normalized_vol", "total_magnetization_normalized_formula_units", "num_magnetic_sites", "num_unique_magnetic_sites", "types_of_magnetic_species", "bulk_modulus", "shear_modulus", "universal_anisotropy", "homogeneous_poisson", "e_total", "e_ionic", "e_electronic", "n", "e_ij_max", "weighted_surface_energy_EV_PER_ANG2", "weighted_surface_energy", "weighted_work_function", "surface_anisotropy", "shape_factor", "has_reconstructed", "possible_species", "has_props", "theoretical", "database_IDs"]}