{"builder_meta": null, "nsites": null, "elements": null, "nelements": null, "composition": null, "composition_reduced": null, "formula_pretty": "KGa", "formula_anonymous": "AB", "chemsys": null, "volume": 294.7437573953012, "density": 2.45232701822209, "density_atomic": 36.84296967441265, "symmetry": null, "property_name": null, "material_id": "mp-1078864", "deprecated": null, "deprecation_reasons": null, "last_updated": null, "origins": null, "warnings": null, "structure": {"@module": "pymatgen.core.structure", "@class": "Structure", "charge": 0, "lattice": {"matrix": [[4.528455, 0.0, 0.0], [0.0, 6.840872, 0.0], [0.0, 0.0, 9.514437]], "pbc": [true, true, true], "a": 4.528455, "b": 6.840872, "c": 9.514437, "alpha": 90.0, "beta": 90.0, "gamma": 90.0, "volume": 294.7437573953012}, "properties": {}, "sites": [{"species": [{"element": "K", "occu": 1}], "abc": [0.25, 0.380584, 0.677227999999999], "properties": {"magmom": 0.0}, "label": "K", "xyz": [1.13211375, 2.603526429248, 6.44344314063599]}, {"species": [{"element": "K", "occu": 1}], "abc": [0.25, 0.119416, 0.177228], "properties": {"magmom": 0.0}, "label": "K", "xyz": [1.13211375, 0.816909570752, 1.6862246406359997]}, {"species": [{"element": "K", "occu": 1}], "abc": [0.75, 0.619416, 0.322772], "properties": {"magmom": 0.0}, "label": "K", "xyz": [3.39634125, 4.237345570752, 3.0709938593639996]}, {"species": [{"element": "K", "occu": 1}], "abc": [0.75, 0.880583999999999, 0.822772], "properties": {"magmom": 0.0}, "label": "K", "xyz": [3.39634125, 6.023962429247994, 7.828212359363999]}, {"species": [{"element": "Ga", "occu": 1}], "abc": [0.25, 0.568835, 0.022878], "properties": {"magmom": -0.0}, "label": "Ga", "xyz": [1.13211375, 3.89132742412, 0.21767128968599997]}, {"species": [{"element": "Ga", "occu": 1}], "abc": [0.25, 0.931164999999999, 0.522878], "properties": {"magmom": -0.0}, "label": "Ga", "xyz": [1.13211375, 6.3699805758799934, 4.974889789685999]}, {"species": [{"element": "Ga", "occu": 1}], "abc": [0.75, 0.431164999999999, 0.977121999999999], "properties": {"magmom": -0.0}, "label": "Ga", "xyz": [3.39634125, 2.9495445758799934, 9.29676571031399]}, {"species": [{"element": "Ga", "occu": 1}], "abc": [0.75, 0.06883399999999901, 0.477122], "properties": {"magmom": -0.0}, "label": "Ga", "xyz": [3.39634125, 0.4708845832479932, 4.539547210314]}]}, "task_ids": null, "uncorrected_energy_per_atom": null, "energy_per_atom": -2.11801724, "formation_energy_per_atom": -0.038284367374999004, "energy_above_hull": 0.076792982583334, "is_stable": false, "equilibrium_reaction_energy_per_atom": null, "decomposes_to": null, "xas": null, "grain_boundaries": null, "band_gap": 0.0, "cbm": null, "vbm": null, "efermi": 0.7508458100000001, "is_gap_direct": null, "is_metal": null, "es_source_calc_id": null, "bandstructure": null, "dos": null, "dos_energy_up": null, "dos_energy_down": null, "is_magnetic": null, "ordering": null, "total_magnetization": 0.00037079999999900005, "total_magnetization_normalized_vol": null, "total_magnetization_normalized_formula_units": null, "num_magnetic_sites": null, "num_unique_magnetic_sites": null, "types_of_magnetic_species": null, "bulk_modulus": null, "shear_modulus": null, "universal_anisotropy": null, "homogeneous_poisson": null, "e_total": null, "e_ionic": null, "e_electronic": null, "n": null, "e_ij_max": null, "weighted_surface_energy_EV_PER_ANG2": null, "weighted_surface_energy": null, "weighted_work_function": null, "surface_anisotropy": null, "shape_factor": null, "has_reconstructed": null, "possible_species": null, "has_props": null, "theoretical": null, "database_IDs": null, "fields_not_requested": ["builder_meta", "nsites", "elements", "nelements", "composition", "composition_reduced", "chemsys", "symmetry", "property_name", "deprecated", "deprecation_reasons", "last_updated", "origins", "warnings", "task_ids", "uncorrected_energy_per_atom", "equilibrium_reaction_energy_per_atom", "decomposes_to", "xas", "grain_boundaries", "cbm", "vbm", "is_gap_direct", "is_metal", "es_source_calc_id", "bandstructure", "dos", "dos_energy_up", "dos_energy_down", "is_magnetic", "ordering", "total_magnetization_normalized_vol", "total_magnetization_normalized_formula_units", "num_magnetic_sites", "num_unique_magnetic_sites", "types_of_magnetic_species", "bulk_modulus", "shear_modulus", "universal_anisotropy", "homogeneous_poisson", "e_total", "e_ionic", "e_electronic", "n", "e_ij_max", "weighted_surface_energy_EV_PER_ANG2", "weighted_surface_energy", "weighted_work_function", "surface_anisotropy", "shape_factor", "has_reconstructed", "possible_species", "has_props", "theoretical", "database_IDs"]}