{
  "builder_meta": null,
  "nsites": null,
  "elements": null,
  "nelements": null,
  "composition": null,
  "composition_reduced": null,
  "formula_pretty": "KGa3",
  "formula_anonymous": "AB3",
  "chemsys": null,
  "volume": 285.75435797216085,
  "density": 4.328097253195336,
  "density_atomic": 23.812863164346737,
  "symmetry": null,
  "property_name": null,
  "material_id": "mp-181",
  "deprecated": null,
  "deprecation_reasons": null,
  "last_updated": null,
  "origins": null,
  "warnings": null,
  "structure": {
    "@module": "pymatgen.core.structure",
    "@class": "Structure",
    "charge": 0,
    "lattice": {
      "matrix": [
        [5.80582767, -0.0, -2.26735369],
        [-0.88547114, 5.73790651, -2.26735369],
        [0.0031171700000000003, 0.00363539, 8.57491394]
      ],
      "pbc": [true, true, true],
      "a": 6.232858709235614,
      "b": 6.232858334089578,
      "c": 8.57491527720336,
      "alpha": 111.31133846693237,
      "beta": 111.31133897660578,
      "gamma": 90.00000013279825,
      "volume": 285.75435797216085
    },
    "properties": {},
    "sites": [
      {
        "species": [{ "element": "K", "occu": 1 }],
        "abc": [0.12654546, 0.62654546, 0.25308892],
        "properties": { "magmom": -0.0 },
        "label": "K",
        "xyz": [0.1807021316416102, 3.595979350673823, 0.4626922318000499]
      },
      {
        "species": [{ "element": "K", "occu": 1 }],
        "abc": [0.37345454, 0.87345454, 0.7469110800000001],
        "properties": { "magmom": -0.0 },
        "label": "K",
        "xyz": [1.39712216335839, 5.014515804326177, 3.5775143281999506]
      },
      {
        "species": [{ "element": "K", "occu": 1 }],
        "abc": [-0.0, -0.0, -0.0],
        "properties": { "magmom": -0.0 },
        "label": "K",
        "xyz": [0.0, 0.0, 0.0]
      },
      {
        "species": [{ "element": "Ga", "occu": 1 }],
        "abc": [0.77816955, 0.9838762, 0.5563381],
        "properties": { "magmom": -0.0 },
        "label": "Ga",
        "xyz": [3.6484585253437576, 5.647412158979421, 0.7753703958317963]
      },
      {
        "species": [{ "element": "Ga", "occu": 1 }],
        "abc": [0.0161238, 0.22183045, 0.4436619],
        "properties": { "magmom": -0.0 },
        "label": "Ga",
        "xyz": [-0.101429487697844, 1.2744552672058707, 3.2648361641682038]
      },
      {
        "species": [{ "element": "Ga", "occu": 1 }],
        "abc": [0.6982619, 0.3922023, 0.78440561],
        "properties": { "magmom": -0.0 },
        "label": "Ga",
        "xyz": [3.7091495678704747, 2.253271750717511, 4.253742572120306]
      },
      {
        "species": [{ "element": "Ga", "occu": 1 }],
        "abc": [0.6077977, 0.3017381, 0.21559439],
        "properties": { "magmom": -0.0 },
        "label": "Ga",
        "xyz": [3.262260369398601, 1.7321287779944932, -0.2135360121203056]
      },
      {
        "species": [{ "element": "Ga", "occu": 1 }],
        "abc": [0.6077977, 0.9138582900000001, 0.21559439],
        "properties": { "magmom": -0.0 },
        "label": "Ga",
        "xyz": [2.7202456069422842, 5.24441720109793, -1.6014289836403073]
      },
      {
        "species": [{ "element": "Ga", "occu": 1 }],
        "abc": [0.08614171, 0.3922023, 0.78440561],
        "properties": { "magmom": -0.0 },
        "label": "Ga",
        "xyz": [0.1552852314028174, 2.253271750717511, 5.641635543640307]
      },
      {
        "species": [{ "element": "Ga", "occu": 1 }],
        "abc": [0.77816955, 0.572460899999999, 0.5563381],
        "properties": { "magmom": -0.0 },
        "label": "Ga",
        "xyz": [4.012754900048201, 3.286749630795813, 1.7081943944092552]
      },
      {
        "species": [{ "element": "Ga", "occu": 1 }],
        "abc": [0.4275391, 0.22183045, 0.4436619],
        "properties": { "magmom": -0.0 },
        "label": "Ga",
        "xyz": [2.2871768449035073, 1.2744552672058707, 2.3320121655907466]
      },
      {
        "species": [{ "element": "Ga", "occu": 1 }],
        "abc": [0.5, 0.5, -0.0],
        "properties": { "magmom": 0.0 },
        "label": "Ga",
        "xyz": [2.460178265, 2.868953255, -2.26735369]
      }
    ]
  },
  "task_ids": null,
  "uncorrected_energy_per_atom": null,
  "energy_per_atom": -2.7265304725000012,
  "formation_energy_per_atom": -0.1726160249375,
  "energy_above_hull": 0.0,
  "is_stable": true,
  "equilibrium_reaction_energy_per_atom": null,
  "decomposes_to": null,
  "xas": null,
  "grain_boundaries": null,
  "band_gap": 0.21629999999999902,
  "cbm": null,
  "vbm": null,
  "efermi": 2.29525423,
  "is_gap_direct": null,
  "is_metal": null,
  "es_source_calc_id": null,
  "bandstructure": null,
  "dos": null,
  "dos_energy_up": null,
  "dos_energy_down": null,
  "is_magnetic": null,
  "ordering": null,
  "total_magnetization": 0.0,
  "total_magnetization_normalized_vol": null,
  "total_magnetization_normalized_formula_units": null,
  "num_magnetic_sites": null,
  "num_unique_magnetic_sites": null,
  "types_of_magnetic_species": null,
  "bulk_modulus": null,
  "shear_modulus": null,
  "universal_anisotropy": null,
  "homogeneous_poisson": null,
  "e_total": null,
  "e_ionic": null,
  "e_electronic": null,
  "n": null,
  "e_ij_max": null,
  "weighted_surface_energy_EV_PER_ANG2": null,
  "weighted_surface_energy": null,
  "weighted_work_function": null,
  "surface_anisotropy": null,
  "shape_factor": null,
  "has_reconstructed": null,
  "possible_species": null,
  "has_props": null,
  "theoretical": null,
  "database_IDs": null,
  "fields_not_requested": [
    "builder_meta",
    "nsites",
    "elements",
    "nelements",
    "composition",
    "composition_reduced",
    "chemsys",
    "symmetry",
    "property_name",
    "deprecated",
    "deprecation_reasons",
    "last_updated",
    "origins",
    "warnings",
    "task_ids",
    "uncorrected_energy_per_atom",
    "equilibrium_reaction_energy_per_atom",
    "decomposes_to",
    "xas",
    "grain_boundaries",
    "cbm",
    "vbm",
    "is_gap_direct",
    "is_metal",
    "es_source_calc_id",
    "bandstructure",
    "dos",
    "dos_energy_up",
    "dos_energy_down",
    "is_magnetic",
    "ordering",
    "total_magnetization_normalized_vol",
    "total_magnetization_normalized_formula_units",
    "num_magnetic_sites",
    "num_unique_magnetic_sites",
    "types_of_magnetic_species",
    "bulk_modulus",
    "shear_modulus",
    "universal_anisotropy",
    "homogeneous_poisson",
    "e_total",
    "e_ionic",
    "e_electronic",
    "n",
    "e_ij_max",
    "weighted_surface_energy_EV_PER_ANG2",
    "weighted_surface_energy",
    "weighted_work_function",
    "surface_anisotropy",
    "shape_factor",
    "has_reconstructed",
    "possible_species",
    "has_props",
    "theoretical",
    "database_IDs"
  ]
}
