{"builder_meta": null, "nsites": null, "elements": null, "nelements": null, "composition": null, "composition_reduced": null, "formula_pretty": "KHg", "formula_anonymous": "AB", "chemsys": null, "volume": 296.5296418527992, "density": 5.368930855884127, "density_atomic": 37.0662052315999, "symmetry": null, "property_name": null, "material_id": "mp-11462", "deprecated": null, "deprecation_reasons": null, "last_updated": null, "origins": null, "warnings": null, "structure": {"@module": "pymatgen.core.structure", "@class": "Structure", "charge": 0, "lattice": {"matrix": [[6.4888187, 0.043084120000000004, -1.36795355], [-0.69153885, 6.46927353, -1.92790069], [0.012546199999999001, -0.031029090000000002, 7.06625002]], "pbc": [true, true, true], "a": 6.631585125580722, "b": 6.785759136420954, "c": 7.066329284480781, "alpha": 106.76661118081533, "beta": 101.80418003275392, "gamma": 92.00099305834163, "volume": 296.5296418527992}, "properties": {}, "sites": [{"species": [{"element": "K", "occu": 1}], "abc": [0.33088311, 0.20062418, 0.85322938], "properties": {"magmom": 0.0}, "label": "K", "xyz": [2.019005883410119, 1.2856735735465044, 5.189715903477364]}, {"species": [{"element": "K", "occu": 1}], "abc": [0.66911689, 0.7993758200000001, 0.14677062], "properties": {"magmom": 0.0}, "label": "K", "xyz": [3.7908201665898797, 5.195654986453496, -1.419320123477363]}, {"species": [{"element": "K", "occu": 1}], "abc": [0.75720201, 0.34061303, 0.53403046], "properties": {"magmom": 0.0}, "label": "K", "xyz": [4.684499472061622, 2.2195717620090956, 2.0811074754489827]}, {"species": [{"element": "K", "occu": 1}], "abc": [0.24279799, 0.65938697, 0.46596954], "properties": {"magmom": 0.0}, "label": "K", "xyz": [1.1253265779383759, 4.261756797990904, 1.6892883045510172]}, {"species": [{"element": "Hg", "occu": 1}], "abc": [0.117056299999999, 0.70056843, 0.9515438900000001], "properties": {"magmom": -0.0}, "label": "Hg", "xyz": [0.28702508191701503, 4.507686526826853, 5.213093091019298]}, {"species": [{"element": "Hg", "occu": 1}], "abc": [0.8829437, 0.29943157, 0.048456110000000004], "properties": {"magmom": -0.0}, "label": "Hg", "xyz": [5.5228009680829775, 1.9736420331731461, -1.442697311019296]}, {"species": [{"element": "Hg", "occu": 1}], "abc": [0.80003354, 0.8981584300000001, 0.70816092], "properties": {"magmom": 0.0}, "label": "Hg", "xyz": [4.579045875713696, 5.82292770906558, 2.1780731370248345]}, {"species": [{"element": "Hg", "occu": 1}], "abc": [0.19996646, 0.10184157, 0.29183908000000003], "properties": {"magmom": 0.0}, "label": "Hg", "xyz": [1.2307801742863034, 0.65840085093442, 1.5923226429751656]}]}, "task_ids": null, "uncorrected_energy_per_atom": null, "energy_per_atom": -27.95422504, "formation_energy_per_atom": -0.261189810625001, "energy_above_hull": 0.0, "is_stable": true, "equilibrium_reaction_energy_per_atom": null, "decomposes_to": null, "xas": null, "grain_boundaries": null, "band_gap": 0.0, "cbm": null, "vbm": null, "efermi": 1.07535346, "is_gap_direct": null, "is_metal": null, "es_source_calc_id": null, "bandstructure": null, "dos": null, "dos_energy_up": null, "dos_energy_down": null, "is_magnetic": null, "ordering": null, "total_magnetization": 0.0, "total_magnetization_normalized_vol": null, "total_magnetization_normalized_formula_units": null, "num_magnetic_sites": null, "num_unique_magnetic_sites": null, "types_of_magnetic_species": null, "bulk_modulus": null, "shear_modulus": null, "universal_anisotropy": null, "homogeneous_poisson": null, "e_total": null, "e_ionic": null, "e_electronic": null, "n": null, "e_ij_max": null, "weighted_surface_energy_EV_PER_ANG2": null, "weighted_surface_energy": null, "weighted_work_function": null, "surface_anisotropy": null, "shape_factor": null, "has_reconstructed": null, "possible_species": null, "has_props": null, "theoretical": null, "database_IDs": null, "fields_not_requested": ["builder_meta", "nsites", "elements", "nelements", "composition", "composition_reduced", "chemsys", "symmetry", "property_name", "deprecated", "deprecation_reasons", "last_updated", "origins", "warnings", "task_ids", "uncorrected_energy_per_atom", "equilibrium_reaction_energy_per_atom", "decomposes_to", "xas", "grain_boundaries", "cbm", "vbm", "is_gap_direct", "is_metal", "es_source_calc_id", "bandstructure", "dos", "dos_energy_up", "dos_energy_down", "is_magnetic", "ordering", "total_magnetization_normalized_vol", "total_magnetization_normalized_formula_units", "num_magnetic_sites", "num_unique_magnetic_sites", "types_of_magnetic_species", "bulk_modulus", "shear_modulus", "universal_anisotropy", "homogeneous_poisson", "e_total", "e_ionic", "e_electronic", "n", "e_ij_max", "weighted_surface_energy_EV_PER_ANG2", "weighted_surface_energy", "weighted_work_function", "surface_anisotropy", "shape_factor", "has_reconstructed", "possible_species", "has_props", "theoretical", "database_IDs"]}