{"builder_meta": null, "nsites": null, "elements": null, "nelements": null, "composition": null, "composition_reduced": null, "formula_pretty": "KHg2", "formula_anonymous": "AB2", "chemsys": null, "volume": 190.57900672888712, "density": 7.672401382239105, "density_atomic": 31.763167788147854, "symmetry": null, "property_name": null, "material_id": "mp-30717", "deprecated": null, "deprecation_reasons": null, "last_updated": null, "origins": null, "warnings": null, "structure": {"@module": "pymatgen.core.structure", "@class": "Structure", "charge": 0, "lattice": {"matrix": [[4.82002148, 1e-08, 2.08332154], [2.14527554, 6.01788616, 1.65415943], [0.0089462, 0.18790736, 6.59681816]], "pbc": [true, true, true], "a": 5.250984260754299, "b": 6.5995003141980195, "c": 6.599499908822061, "alpha": 73.92164687643155, "beta": 66.55729150167613, "gamma": 66.55728227202549, "volume": 190.57900672888712}, "properties": {}, "sites": [{"species": [{"element": "K", "occu": 1}], "abc": [0.04916555, 0.70083445, 0.70083445], "properties": {"magmom": -0.0}, "label": "K", "xyz": [1.746731815406957, 4.349233888894419, 5.884996990590922]}, {"species": [{"element": "K", "occu": 1}], "abc": [0.95083445, 0.29916555, 0.29916555], "properties": {"magmom": -0.0}, "label": "K", "xyz": [5.227511404593042, 1.8565596411055807, 4.4493021394090775]}, {"species": [{"element": "Hg", "occu": 1}], "abc": [0.66285669, 0.28371158, 0.89057403], "properties": {"magmom": 0.0}, "label": "Hg", "xyz": [3.811590250337641, 1.8746894122041604, 7.725202739595687]}, {"species": [{"element": "Hg", "occu": 1}], "abc": [0.33714431, 0.71628842, 0.10942597], "properties": {"magmom": 0.0}, "label": "Hg", "xyz": [3.1626577896838395, 4.331104117795849, 2.609098473725853]}, {"species": [{"element": "Hg", "occu": 1}], "abc": [0.66285669, 0.89057403, 0.28371158], "properties": {"magmom": 0.0}, "label": "Hg", "xyz": [5.108048307616923, 5.4126846302202205, 4.725688753193999]}, {"species": [{"element": "Hg", "occu": 1}], "abc": [0.33714431, 0.10942597, 0.71628842], "properties": {"magmom": 0.0}, "label": "Hg", "xyz": [1.8661997324045567, 0.7931088997797895, 5.608612460127542]}]}, "task_ids": null, "uncorrected_energy_per_atom": null, "energy_per_atom": -35.21447772333333, "formation_energy_per_atom": -0.29651872958333503, "energy_above_hull": 0.0, "is_stable": true, "equilibrium_reaction_energy_per_atom": null, "decomposes_to": null, "xas": null, "grain_boundaries": null, "band_gap": 0.0, "cbm": null, "vbm": null, "efermi": 1.38397829, "is_gap_direct": null, "is_metal": null, "es_source_calc_id": null, "bandstructure": null, "dos": null, "dos_energy_up": null, "dos_energy_down": null, "is_magnetic": null, "ordering": null, "total_magnetization": 0.0, "total_magnetization_normalized_vol": null, "total_magnetization_normalized_formula_units": null, "num_magnetic_sites": null, "num_unique_magnetic_sites": null, "types_of_magnetic_species": null, "bulk_modulus": null, "shear_modulus": null, "universal_anisotropy": null, "homogeneous_poisson": null, "e_total": null, "e_ionic": null, "e_electronic": null, "n": null, "e_ij_max": null, "weighted_surface_energy_EV_PER_ANG2": null, "weighted_surface_energy": null, "weighted_work_function": null, "surface_anisotropy": null, "shape_factor": null, "has_reconstructed": null, "possible_species": null, "has_props": null, "theoretical": null, "database_IDs": null, "fields_not_requested": ["builder_meta", "nsites", "elements", "nelements", "composition", "composition_reduced", "chemsys", "symmetry", "property_name", "deprecated", "deprecation_reasons", "last_updated", "origins", "warnings", "task_ids", "uncorrected_energy_per_atom", "equilibrium_reaction_energy_per_atom", "decomposes_to", "xas", "grain_boundaries", "cbm", "vbm", "is_gap_direct", "is_metal", "es_source_calc_id", "bandstructure", "dos", "dos_energy_up", "dos_energy_down", "is_magnetic", "ordering", "total_magnetization_normalized_vol", "total_magnetization_normalized_formula_units", "num_magnetic_sites", "num_unique_magnetic_sites", "types_of_magnetic_species", "bulk_modulus", "shear_modulus", "universal_anisotropy", "homogeneous_poisson", "e_total", "e_ionic", "e_electronic", "n", "e_ij_max", "weighted_surface_energy_EV_PER_ANG2", "weighted_surface_energy", "weighted_work_function", "surface_anisotropy", "shape_factor", "has_reconstructed", "possible_species", "has_props", "theoretical", "database_IDs"]}