{"builder_meta": null, "nsites": null, "elements": null, "nelements": null, "composition": null, "composition_reduced": null, "formula_pretty": "KHg3", "formula_anonymous": "AB3", "chemsys": null, "volume": 239.14602957918154, "density": 8.899891422560081, "density_atomic": 29.893253697397693, "symmetry": null, "property_name": null, "material_id": "mp-1185099", "deprecated": null, "deprecation_reasons": null, "last_updated": null, "origins": null, "warnings": null, "structure": {"@module": "pymatgen.core.structure", "@class": "Structure", "charge": 0, "lattice": {"matrix": [[7.11381718, 0.0, 0.0], [-3.55690859, 6.16074677, 0.0], [0.0, 0.0, 5.4566628]], "pbc": [true, true, true], "a": 7.11381718, "b": 7.113817504102928, "c": 5.4566628, "alpha": 90.0, "beta": 90.0, "gamma": 119.99999849289942, "volume": 239.14602957918154}, "properties": {}, "sites": [{"species": [{"element": "K", "occu": 1}], "abc": [0.666667, 0.333333, 0.249999], "properties": {"magmom": -0.0}, "label": "K", "xyz": [3.5569121469085903, 2.05358020308441, 1.3641602433372]}, {"species": [{"element": "K", "occu": 1}], "abc": [0.333333999999999, 0.666667, 0.75], "properties": {"magmom": -0.0}, "label": "K", "xyz": [3.5569085827802382e-06, 4.10716656691559, 4.0924971]}, {"species": [{"element": "Hg", "occu": 1}], "abc": [0.30688443, 0.15344222, 0.75], "properties": {"magmom": -0.0}, "label": "Hg", "xyz": [1.6373397800218372, 0.9453186612466293, 4.0924971]}, {"species": [{"element": "Hg", "occu": 1}], "abc": [0.8465587800000001, 0.69311657, 0.75], "properties": {"magmom": -0.0}, "label": "Hg", "xyz": [3.5569121113395044, 4.27011566986098, 4.0924971]}, {"species": [{"element": "Hg", "occu": 1}], "abc": [0.15344222, 0.8465587800000001, 0.249999], "properties": {"magmom": -0.0}, "label": "Hg", "xyz": [-1.919572295748581, 5.215434269500141, 1.3641602433372]}, {"species": [{"element": "Hg", "occu": 1}], "abc": [0.69311657, 0.8465587800000001, 0.249999], "properties": {"magmom": -0.0}, "label": "Hg", "xyz": [1.9195723668867526, 5.215434269500141, 1.3641602433372]}, {"species": [{"element": "Hg", "occu": 1}], "abc": [0.15344222, 0.30688343, 0.249999], "properties": {"magmom": -0.0}, "label": "Hg", "xyz": [3.5924776757845223e-06, 1.8906311001390212, 1.3641602433372]}, {"species": [{"element": "Hg", "occu": 1}], "abc": [0.84655978, 0.15344222, 0.75], "properties": {"magmom": -0.0}, "label": "Hg", "xyz": [5.47649155647435, 0.9453186612466293, 4.0924971]}]}, "task_ids": null, "uncorrected_energy_per_atom": null, "energy_per_atom": -38.77268659, "formation_energy_per_atom": -0.24226571406249703, "energy_above_hull": 0.010135949166659, "is_stable": false, "equilibrium_reaction_energy_per_atom": null, "decomposes_to": null, "xas": null, "grain_boundaries": null, "band_gap": 0.0, "cbm": null, "vbm": null, "efermi": 1.5500333, "is_gap_direct": null, "is_metal": null, "es_source_calc_id": null, "bandstructure": null, "dos": null, "dos_energy_up": null, "dos_energy_down": null, "is_magnetic": null, "ordering": null, "total_magnetization": 0.0, "total_magnetization_normalized_vol": null, "total_magnetization_normalized_formula_units": null, "num_magnetic_sites": null, "num_unique_magnetic_sites": null, "types_of_magnetic_species": null, "bulk_modulus": null, "shear_modulus": null, "universal_anisotropy": null, "homogeneous_poisson": null, "e_total": null, "e_ionic": null, "e_electronic": null, "n": null, "e_ij_max": null, "weighted_surface_energy_EV_PER_ANG2": null, "weighted_surface_energy": null, "weighted_work_function": null, "surface_anisotropy": null, "shape_factor": null, "has_reconstructed": null, "possible_species": null, "has_props": null, "theoretical": null, "database_IDs": null, "fields_not_requested": ["builder_meta", "nsites", "elements", "nelements", "composition", "composition_reduced", "chemsys", "symmetry", "property_name", "deprecated", "deprecation_reasons", "last_updated", "origins", "warnings", "task_ids", "uncorrected_energy_per_atom", "equilibrium_reaction_energy_per_atom", "decomposes_to", "xas", "grain_boundaries", "cbm", "vbm", "is_gap_direct", "is_metal", "es_source_calc_id", "bandstructure", "dos", "dos_energy_up", "dos_energy_down", "is_magnetic", "ordering", "total_magnetization_normalized_vol", "total_magnetization_normalized_formula_units", "num_magnetic_sites", "num_unique_magnetic_sites", "types_of_magnetic_species", "bulk_modulus", "shear_modulus", "universal_anisotropy", "homogeneous_poisson", "e_total", "e_ionic", "e_electronic", "n", "e_ij_max", "weighted_surface_energy_EV_PER_ANG2", "weighted_surface_energy", "weighted_work_function", "surface_anisotropy", "shape_factor", "has_reconstructed", "possible_species", "has_props", "theoretical", "database_IDs"]}