{"builder_meta": null, "nsites": null, "elements": null, "nelements": null, "composition": null, "composition_reduced": null, "formula_pretty": "KN3", "formula_anonymous": "AB3", "chemsys": null, "volume": 130.91489535524028, "density": 2.057829582410366, "density_atomic": 16.364361919405034, "symmetry": null, "property_name": null, "material_id": "mp-827", "deprecated": null, "deprecation_reasons": null, "last_updated": null, "origins": null, "warnings": null, "structure": {"@module": "pymatgen.core.structure", "@class": "Structure", "charge": 0, "lattice": {"matrix": [[5.10588696, -0.00962363, -2.21572828], [-2.9050651800000002, 4.61011881, -1.13446449], [-0.00606413, 0.00962363, 5.56592207]], "pbc": [true, true, true], "a": 5.565934429486587, "b": 5.565932879709853, "c": 5.565933693212678, "alpha": 101.64350722893107, "beta": 113.52123972774162, "gamma": 113.52126179591957, "volume": 130.91489535524028}, "properties": {}, "sites": [{"species": [{"element": "K", "occu": 1}], "abc": [0.0, 0.75, 0.75], "properties": {"magmom": -0.0}, "label": "K", "xyz": [-2.1833469825, 3.4648068300000006, 3.323593185]}, {"species": [{"element": "K", "occu": 1}], "abc": [0.0, 0.25, 0.25], "properties": {"magmom": -0.0}, "label": "K", "xyz": [-0.7277823275, 1.1549356100000001, 1.107864395]}, {"species": [{"element": "N", "occu": 1}], "abc": [0.5, 0.0, 0.5], "properties": {"magmom": -0.0}, "label": "N", "xyz": [2.549911415, 0.0, 1.675096895]}, {"species": [{"element": "N", "occu": 1}], "abc": [0.5, 0.5, 0.0], "properties": {"magmom": -0.0}, "label": "N", "xyz": [1.10041089, 2.30024759, -1.675096385]}, {"species": [{"element": "N", "occu": 1}], "abc": [0.77388763, 0.63694281, 0.13694281], "properties": {"magmom": 0.0}, "label": "N", "xyz": [2.100191940537544, 2.930252307997159, -1.675100698932177]}, {"species": [{"element": "N", "occu": 1}], "abc": [0.5, 0.13694281, 0.36305719000000003], "properties": {"magmom": 0.0}, "label": "N", "xyz": [2.15291406502005, 0.6300047373406558, 0.7575271313873666]}, {"species": [{"element": "N", "occu": 1}], "abc": [0.5, 0.86305719, 0.63694281], "properties": {"magmom": 0.0}, "label": "N", "xyz": [0.04184358497995043, 3.9801140726593447, 1.4582021686126336]}, {"species": [{"element": "N", "occu": 1}], "abc": [0.22611237, 0.36305719000000003, 0.86305719], "properties": {"magmom": 0.0}, "label": "N", "xyz": [0.09456570946245639, 1.6798665020028407, 3.8908299989321766]}]}, "task_ids": null, "uncorrected_energy_per_atom": null, "energy_per_atom": -8.57224132125, "formation_energy_per_atom": -0.22111233375000103, "energy_above_hull": 0.0, "is_stable": true, "equilibrium_reaction_energy_per_atom": null, "decomposes_to": null, "xas": null, "grain_boundaries": null, "band_gap": 3.8956, "cbm": null, "vbm": null, "efermi": -0.18786629, "is_gap_direct": null, "is_metal": null, "es_source_calc_id": null, "bandstructure": null, "dos": null, "dos_energy_up": null, "dos_energy_down": null, "is_magnetic": null, "ordering": null, "total_magnetization": 0.0, "total_magnetization_normalized_vol": null, "total_magnetization_normalized_formula_units": null, "num_magnetic_sites": null, "num_unique_magnetic_sites": null, "types_of_magnetic_species": null, "bulk_modulus": null, "shear_modulus": null, "universal_anisotropy": null, "homogeneous_poisson": null, "e_total": null, "e_ionic": null, "e_electronic": null, "n": null, "e_ij_max": null, "weighted_surface_energy_EV_PER_ANG2": null, "weighted_surface_energy": null, "weighted_work_function": null, "surface_anisotropy": null, "shape_factor": null, "has_reconstructed": null, "possible_species": null, "has_props": null, "theoretical": null, "database_IDs": null, "fields_not_requested": ["builder_meta", "nsites", "elements", "nelements", "composition", "composition_reduced", "chemsys", "symmetry", "property_name", "deprecated", "deprecation_reasons", "last_updated", "origins", "warnings", "task_ids", "uncorrected_energy_per_atom", "equilibrium_reaction_energy_per_atom", "decomposes_to", "xas", "grain_boundaries", "cbm", "vbm", "is_gap_direct", "is_metal", "es_source_calc_id", "bandstructure", "dos", "dos_energy_up", "dos_energy_down", "is_magnetic", "ordering", "total_magnetization_normalized_vol", "total_magnetization_normalized_formula_units", "num_magnetic_sites", "num_unique_magnetic_sites", "types_of_magnetic_species", "bulk_modulus", "shear_modulus", "universal_anisotropy", "homogeneous_poisson", "e_total", "e_ionic", "e_electronic", "n", "e_ij_max", "weighted_surface_energy_EV_PER_ANG2", "weighted_surface_energy", "weighted_work_function", "surface_anisotropy", "shape_factor", "has_reconstructed", "possible_species", "has_props", "theoretical", "database_IDs"]}