{
  "builder_meta": null,
  "nsites": null,
  "elements": null,
  "nelements": null,
  "composition": null,
  "composition_reduced": null,
  "formula_pretty": "KNa2",
  "formula_anonymous": "AB2",
  "chemsys": null,
  "volume": 587.2814842483351,
  "density": 0.9622307422927631,
  "density_atomic": 48.94012368736126,
  "symmetry": null,
  "property_name": null,
  "material_id": "mp-570786",
  "deprecated": null,
  "deprecation_reasons": null,
  "last_updated": null,
  "origins": null,
  "warnings": null,
  "structure": {
    "@module": "pymatgen.core.structure",
    "@class": "Structure",
    "charge": 0,
    "lattice": {
      "matrix": [
        [7.38878315, -2.149999999999999e-6, -0.0],
        [-3.69439371, 6.39887659, -0.0],
        [-0.0, 0.0, 12.42137652]
      ],
      "pbc": [true, true, true],
      "a": 7.388783150000314,
      "b": 7.388786537621559,
      "c": 12.42137652,
      "alpha": 90.0,
      "beta": 90.0,
      "gamma": 120.00002062244269,
      "volume": 587.2814842483351
    },
    "properties": {},
    "sites": [
      {
        "species": [{ "element": "K", "occu": 1 }],
        "abc": [0.666667, 0.333333, 0.93782803],
        "properties": { "magmom": 0.0 },
        "label": "K",
        "xyz": [3.6943945577256203, 2.1329552970404198, 11.649115071639857]
      },
      {
        "species": [{ "element": "K", "occu": 1 }],
        "abc": [0.333333, 0.666667, 0.43782803000000003],
        "properties": { "magmom": 0.0 },
        "label": "K",
        "xyz": [-5.117725619729896e-6, 4.26591914295958, 5.438426811639856]
      },
      {
        "species": [{ "element": "K", "occu": 1 }],
        "abc": [0.333333, 0.666667, 0.06217197],
        "properties": { "magmom": 0.0 },
        "label": "K",
        "xyz": [-5.117725619729896e-6, 4.26591914295958, 0.7722614483601444]
      },
      {
        "species": [{ "element": "K", "occu": 1 }],
        "abc": [0.666667, 0.333333, 0.56217197],
        "properties": { "magmom": 0.0 },
        "label": "K",
        "xyz": [3.6943945577256203, 2.1329552970404198, 6.982949708360144]
      },
      {
        "species": [{ "element": "Na", "occu": 1 }],
        "abc": [0.33422294, 0.16711097, 0.25],
        "properties": { "magmom": 0.0 },
        "label": "Na",
        "xyz": [1.8521271109754625, 1.0693217552858714, 3.10534413]
      },
      {
        "species": [{ "element": "Na", "occu": 1 }],
        "abc": [0.16711097, 0.83288803, 0.75],
        "properties": { "magmom": 0.0 },
        "label": "Na",
        "xyz": [-1.8422695798501358, 5.329547357969632, 9.31603239]
      },
      {
        "species": [{ "element": "Na", "occu": 1 }],
        "abc": [0.16711097, 0.33422294, 0.75],
        "properties": { "magmom": 0.0 },
        "label": "Na",
        "xyz": [-4.407957552077235e-6, 2.1386509873183894, 9.31603239]
      },
      {
        "species": [{ "element": "Na", "occu": 1 }],
        "abc": [0.83288903, 0.66577706, 0.25],
        "properties": { "magmom": 0.0 },
        "label": "Na",
        "xyz": [3.694393847957552, 4.260223452681611, 3.10534413]
      },
      {
        "species": [{ "element": "Na", "occu": 1 }],
        "abc": [0.83288903, 0.16711197, 0.25],
        "properties": { "magmom": 0.0 },
        "label": "Na",
        "xyz": [5.536659019850136, 1.069327082030368, 3.10534413]
      },
      {
        "species": [{ "element": "Na", "occu": 1 }],
        "abc": [0.0, -0.0, -0.0],
        "properties": { "magmom": 0.0 },
        "label": "Na",
        "xyz": [0.0, 0.0, 0.0]
      },
      {
        "species": [{ "element": "Na", "occu": 1 }],
        "abc": [0.66577706, 0.83288903, 0.75],
        "properties": { "magmom": 0.0 },
        "label": "Na",
        "xyz": [1.8422623290245381, 5.3295526847141295, 9.31603239]
      },
      {
        "species": [{ "element": "Na", "occu": 1 }],
        "abc": [-0.0, 0.0, 0.5],
        "properties": { "magmom": 0.0 },
        "label": "Na",
        "xyz": [0.0, 0.0, 6.21068826]
      }
    ]
  },
  "task_ids": null,
  "uncorrected_energy_per_atom": null,
  "energy_per_atom": -4.3793062375,
  "formation_energy_per_atom": 0.0029021212500000004,
  "energy_above_hull": 0.0029021212500000004,
  "is_stable": false,
  "equilibrium_reaction_energy_per_atom": null,
  "decomposes_to": null,
  "xas": null,
  "grain_boundaries": null,
  "band_gap": 0.0,
  "cbm": null,
  "vbm": null,
  "efermi": 0.19853817,
  "is_gap_direct": null,
  "is_metal": null,
  "es_source_calc_id": null,
  "bandstructure": null,
  "dos": null,
  "dos_energy_up": null,
  "dos_energy_down": null,
  "is_magnetic": null,
  "ordering": null,
  "total_magnetization": 0.0006581,
  "total_magnetization_normalized_vol": null,
  "total_magnetization_normalized_formula_units": null,
  "num_magnetic_sites": null,
  "num_unique_magnetic_sites": null,
  "types_of_magnetic_species": null,
  "bulk_modulus": null,
  "shear_modulus": null,
  "universal_anisotropy": null,
  "homogeneous_poisson": null,
  "e_total": null,
  "e_ionic": null,
  "e_electronic": null,
  "n": null,
  "e_ij_max": null,
  "weighted_surface_energy_EV_PER_ANG2": null,
  "weighted_surface_energy": null,
  "weighted_work_function": null,
  "surface_anisotropy": null,
  "shape_factor": null,
  "has_reconstructed": null,
  "possible_species": null,
  "has_props": null,
  "theoretical": null,
  "database_IDs": null,
  "fields_not_requested": [
    "builder_meta",
    "nsites",
    "elements",
    "nelements",
    "composition",
    "composition_reduced",
    "chemsys",
    "symmetry",
    "property_name",
    "deprecated",
    "deprecation_reasons",
    "last_updated",
    "origins",
    "warnings",
    "task_ids",
    "uncorrected_energy_per_atom",
    "equilibrium_reaction_energy_per_atom",
    "decomposes_to",
    "xas",
    "grain_boundaries",
    "cbm",
    "vbm",
    "is_gap_direct",
    "is_metal",
    "es_source_calc_id",
    "bandstructure",
    "dos",
    "dos_energy_up",
    "dos_energy_down",
    "is_magnetic",
    "ordering",
    "total_magnetization_normalized_vol",
    "total_magnetization_normalized_formula_units",
    "num_magnetic_sites",
    "num_unique_magnetic_sites",
    "types_of_magnetic_species",
    "bulk_modulus",
    "shear_modulus",
    "universal_anisotropy",
    "homogeneous_poisson",
    "e_total",
    "e_ionic",
    "e_electronic",
    "n",
    "e_ij_max",
    "weighted_surface_energy_EV_PER_ANG2",
    "weighted_surface_energy",
    "weighted_work_function",
    "surface_anisotropy",
    "shape_factor",
    "has_reconstructed",
    "possible_species",
    "has_props",
    "theoretical",
    "database_IDs"
  ]
}
