{"builder_meta": null, "nsites": null, "elements": null, "nelements": null, "composition": null, "composition_reduced": null, "formula_pretty": "KO2", "formula_anonymous": "AB2", "chemsys": null, "volume": 200.88566885284993, "density": 2.350780177523688, "density_atomic": 16.740472404404162, "symmetry": null, "property_name": null, "material_id": "mp-2035026", "deprecated": null, "deprecation_reasons": null, "last_updated": null, "origins": null, "warnings": null, "structure": {"@module": "pymatgen.core.structure", "@class": "Structure", "charge": 0, "lattice": {"matrix": [[4.13633276, -0.13725186, -1.29720924], [-0.22838612, 5.47708435, -0.14882576], [0.87303908, -0.26997454, 8.61535306]], "pbc": [true, true, true], "a": 4.337146364473311, "b": 5.483863811553234, "c": 8.663682348511333, "alpha": 93.5722612778283, "beta": 101.55648954586732, "gamma": 93.62397606064974, "volume": 200.88566885284993}, "properties": {}, "sites": [{"species": [{"element": "K", "occu": 1}], "abc": [0.25276739, 0.24909676, 0.62515517], "properties": {"magmom": -0.004}, "label": "K", "xyz": [1.5344246878697687, 1.160855191957489, 5.0209682983351]}, {"species": [{"element": "K", "occu": 1}], "abc": [0.75004888, 0.74892691, 0.87588857], "properties": {"magmom": -0.004}, "label": "K", "xyz": [3.6960921941421354, 3.762522640406934, 6.461659317615672]}, {"species": [{"element": "K", "occu": 1}], "abc": [0.74723361, 0.75090324, 0.37484483], "properties": {"magmom": -0.004}, "label": "K", "xyz": [3.2465651684629915, 3.909002620790651, 2.1483484644556614]}, {"species": [{"element": "K", "occu": 1}], "abc": [0.24995112, 0.25107309, 0.12411143000000001], "properties": {"magmom": -0.004}, "label": "K", "xyz": [1.0848935258578647, 1.3073353095930662, 0.7076587423843288]}, {"species": [{"element": "O", "occu": 1}], "abc": [0.34840908, 0.74931344, 0.57592825], "properties": {"magmom": 0.421}, "label": "O", "xyz": [1.772810971786018, 3.90074715683102, 4.398348590915832]}, {"species": [{"element": "O", "occu": 1}], "abc": [0.65138057, 0.24910983, 0.9252001200000001], "properties": {"magmom": 0.42}, "label": "O", "xyz": [3.4451694249716036, 1.0252118797188556, 7.08887483102068]}, {"species": [{"element": "O", "occu": 1}], "abc": [0.65159092, 0.25068656, 0.42407175], "properties": {"magmom": 0.421}, "label": "O", "xyz": [3.008174748213982, 1.16911079316898, 2.770969469084169]}, {"species": [{"element": "O", "occu": 1}], "abc": [0.34861943, 0.75089017, 0.07479988], "properties": {"magmom": 0.42}, "label": "O", "xyz": [1.3358162950283967, 4.044646070281145, 0.08044322897932044]}, {"species": [{"element": "O", "occu": 1}], "abc": [0.85060866, 0.24829484000000002, 0.82451279], "properties": {"magmom": 0.422}, "label": "O", "xyz": [4.181525258803914, 1.0205867004282798, 5.963098706692541]}, {"species": [{"element": "O", "occu": 1}], "abc": [0.14795889, 0.74787718, 0.6759947], "properties": {"magmom": 0.424}, "label": "O", "xyz": [1.0313722274363708, 3.8933774072691607, 5.5206959782404805]}, {"species": [{"element": "O", "occu": 1}], "abc": [0.14939134, 0.75170516, 0.17548721], "properties": {"magmom": 0.422}, "label": "O", "xyz": [0.5994604611960861, 4.049271249571721, 1.2062193533074597]}, {"species": [{"element": "O", "occu": 1}], "abc": [0.85204111, 0.25212282, 0.3240053], "properties": {"magmom": 0.424}, "label": "O", "xyz": [3.749613492563629, 1.1764805427308405, 1.6486220817595183]}]}, "task_ids": null, "uncorrected_energy_per_atom": null, "energy_per_atom": -4.6732043175000015, "formation_energy_per_atom": -0.9974404065833331, "energy_above_hull": 0.0, "is_stable": true, "equilibrium_reaction_energy_per_atom": null, "decomposes_to": null, "xas": null, "grain_boundaries": null, "band_gap": 0.0, "cbm": null, "vbm": null, "efermi": 0.67016724, "is_gap_direct": null, "is_metal": null, "es_source_calc_id": null, "bandstructure": null, "dos": null, "dos_energy_up": null, "dos_energy_down": null, "is_magnetic": null, "ordering": null, "total_magnetization": 3.9999998, "total_magnetization_normalized_vol": null, "total_magnetization_normalized_formula_units": null, "num_magnetic_sites": null, "num_unique_magnetic_sites": null, "types_of_magnetic_species": null, "bulk_modulus": null, "shear_modulus": null, "universal_anisotropy": null, "homogeneous_poisson": null, "e_total": null, "e_ionic": null, "e_electronic": null, "n": null, "e_ij_max": null, "weighted_surface_energy_EV_PER_ANG2": null, "weighted_surface_energy": null, "weighted_work_function": null, "surface_anisotropy": null, "shape_factor": null, "has_reconstructed": null, "possible_species": null, "has_props": null, "theoretical": null, "database_IDs": null, "fields_not_requested": ["builder_meta", "nsites", "elements", "nelements", "composition", "composition_reduced", "chemsys", "symmetry", "property_name", "deprecated", "deprecation_reasons", "last_updated", "origins", "warnings", "task_ids", "uncorrected_energy_per_atom", "equilibrium_reaction_energy_per_atom", "decomposes_to", "xas", "grain_boundaries", "cbm", "vbm", "is_gap_direct", "is_metal", "es_source_calc_id", "bandstructure", "dos", "dos_energy_up", "dos_energy_down", "is_magnetic", "ordering", "total_magnetization_normalized_vol", "total_magnetization_normalized_formula_units", "num_magnetic_sites", "num_unique_magnetic_sites", "types_of_magnetic_species", "bulk_modulus", "shear_modulus", "universal_anisotropy", "homogeneous_poisson", "e_total", "e_ionic", "e_electronic", "n", "e_ij_max", "weighted_surface_energy_EV_PER_ANG2", "weighted_surface_energy", "weighted_work_function", "surface_anisotropy", "shape_factor", "has_reconstructed", "possible_species", "has_props", "theoretical", "database_IDs"]}