{"builder_meta": null, "nsites": null, "elements": null, "nelements": null, "composition": null, "composition_reduced": null, "formula_pretty": "KO3", "formula_anonymous": "AB3", "chemsys": null, "volume": 78.2140364421973, "density": 1.8491200223506041, "density_atomic": 19.553509110549324, "symmetry": null, "property_name": null, "material_id": "mp-998913", "deprecated": null, "deprecation_reasons": null, "last_updated": null, "origins": null, "warnings": null, "structure": {"@module": "pymatgen.core.structure", "@class": "Structure", "charge": 0, "lattice": {"matrix": [[-2.074211, 2.942415999999999, 3.203817], [2.074211, -2.942415999999999, 3.203817], [2.074211, 2.942415999999999, -3.203817]], "pbc": [true, true, true], "a": 4.819191483959315, "b": 4.819191483959315, "c": 4.819191483959315, "alpha": 129.0132881082372, "beta": 104.73967505463142, "gamma": 96.66544354700217, "volume": 78.21403644219725}, "properties": {}, "sites": [{"species": [{"element": "K", "occu": 1}], "abc": [0.489498999999999, 0.489498999999999, 0.0], "properties": {"magmom": 0.005}, "label": "K", "xyz": [0.0, 0.0, 3.1365304353659935]}, {"species": [{"element": "O", "occu": 1}], "abc": [0.888675999999999, 0.08368, 0.804995999999999], "properties": {"magmom": 0.23600000000000002}, "label": "O", "xyz": [0.0, 4.737266220671993, 0.5361908131199997]}, {"species": [{"element": "O", "occu": 1}], "abc": [0.967541, 0.967541, 0.0], "properties": {"magmom": 0.336}, "label": "O", "xyz": [0.0, 0.0, 6.199648607994]}, {"species": [{"element": "O", "occu": 1}], "abc": [0.278684, 0.08368, 0.195003999999999], "properties": {"magmom": 0.241}, "label": "O", "xyz": [-2.0539125955565396e-15, 1.1475657793279965, 0.536190813120003]}]}, "task_ids": null, "uncorrected_energy_per_atom": null, "energy_per_atom": -4.6486416925, "formation_energy_per_atom": -0.654828508062499, "energy_above_hull": 0.093251796875, "is_stable": false, "equilibrium_reaction_energy_per_atom": null, "decomposes_to": null, "xas": null, "grain_boundaries": null, "band_gap": 0.8697, "cbm": null, "vbm": null, "efermi": -0.8196384, "is_gap_direct": null, "is_metal": null, "es_source_calc_id": null, "bandstructure": null, "dos": null, "dos_energy_up": null, "dos_energy_down": null, "is_magnetic": null, "ordering": null, "total_magnetization": 1.0000194, "total_magnetization_normalized_vol": null, "total_magnetization_normalized_formula_units": null, "num_magnetic_sites": null, "num_unique_magnetic_sites": null, "types_of_magnetic_species": null, "bulk_modulus": null, "shear_modulus": null, "universal_anisotropy": null, "homogeneous_poisson": null, "e_total": null, "e_ionic": null, "e_electronic": null, "n": null, "e_ij_max": null, "weighted_surface_energy_EV_PER_ANG2": null, "weighted_surface_energy": null, "weighted_work_function": null, "surface_anisotropy": null, "shape_factor": null, "has_reconstructed": null, "possible_species": null, "has_props": null, "theoretical": null, "database_IDs": null, "fields_not_requested": ["builder_meta", "nsites", "elements", "nelements", "composition", "composition_reduced", "chemsys", "symmetry", "property_name", "deprecated", "deprecation_reasons", "last_updated", "origins", "warnings", "task_ids", "uncorrected_energy_per_atom", "equilibrium_reaction_energy_per_atom", "decomposes_to", "xas", "grain_boundaries", "cbm", "vbm", "is_gap_direct", "is_metal", "es_source_calc_id", "bandstructure", "dos", "dos_energy_up", "dos_energy_down", "is_magnetic", "ordering", "total_magnetization_normalized_vol", "total_magnetization_normalized_formula_units", "num_magnetic_sites", "num_unique_magnetic_sites", "types_of_magnetic_species", "bulk_modulus", "shear_modulus", "universal_anisotropy", "homogeneous_poisson", "e_total", "e_ionic", "e_electronic", "n", "e_ij_max", "weighted_surface_energy_EV_PER_ANG2", "weighted_surface_energy", "weighted_work_function", "surface_anisotropy", "shape_factor", "has_reconstructed", "possible_species", "has_props", "theoretical", "database_IDs"]}