{
  "builder_meta": null,
  "nsites": null,
  "elements": null,
  "nelements": null,
  "composition": null,
  "composition_reduced": null,
  "formula_pretty": "KP",
  "formula_anonymous": "AB",
  "chemsys": null,
  "volume": 447.6799113986769,
  "density": 2.079296273351812,
  "density_atomic": 27.979994462417306,
  "symmetry": null,
  "property_name": null,
  "material_id": "mp-7441",
  "deprecated": null,
  "deprecation_reasons": null,
  "last_updated": null,
  "origins": null,
  "warnings": null,
  "structure": {
    "@module": "pymatgen.core.structure",
    "@class": "Structure",
    "charge": 0,
    "lattice": {
      "matrix": [
        [6.02809154, 0.0, 0.0],
        [0.0, 6.54114017, 0.0],
        [0.0, 0.0, 11.3536189]
      ],
      "pbc": [true, true, true],
      "a": 6.02809154,
      "b": 6.54114017,
      "c": 11.3536189,
      "alpha": 90.0,
      "beta": 90.0,
      "gamma": 90.0,
      "volume": 447.6799113986769
    },
    "properties": {},
    "sites": [
      {
        "species": [{ "element": "K", "occu": 1 }],
        "abc": [0.64897447, 0.63223304, 0.16530262],
        "properties": { "magmom": 0.0 },
        "label": "K",
        "xyz": [3.9120775122829836, 4.135524934745217, 1.8767829506515183]
      },
      {
        "species": [{ "element": "K", "occu": 1 }],
        "abc": [0.14897447, 0.36776696000000003, 0.33469738],
        "properties": { "magmom": 0.0 },
        "label": "K",
        "xyz": [0.8980317422829838, 2.4056152352547837, 3.800026499348482]
      },
      {
        "species": [{ "element": "K", "occu": 1 }],
        "abc": [0.85102553, 0.13223304, 0.83469738],
        "properties": { "magmom": 0.0 },
        "label": "K",
        "xyz": [5.130059797717016, 0.8649548497452169, 9.476835949348484]
      },
      {
        "species": [{ "element": "K", "occu": 1 }],
        "abc": [0.35102553000000003, 0.86776696, 0.6653026200000001],
        "properties": { "magmom": 0.0 },
        "label": "K",
        "xyz": [2.1160140277170165, 5.676185320254783, 7.553592400651519]
      },
      {
        "species": [{ "element": "K", "occu": 1 }],
        "abc": [0.91653845, 0.89686774, 0.46795346],
        "properties": { "magmom": 0.0 },
        "label": "K",
        "xyz": [5.524977676529713, 5.866537601291117, 5.312965247776394]
      },
      {
        "species": [{ "element": "K", "occu": 1 }],
        "abc": [0.41653845, 0.10313226, 0.03204654],
        "properties": { "magmom": 0.0 },
        "label": "K",
        "xyz": [2.510931906529713, 0.6746025687088842, 0.36384420222360603]
      },
      {
        "species": [{ "element": "K", "occu": 1 }],
        "abc": [0.58346155, 0.39686774, 0.53204654],
        "properties": { "magmom": 0.0 },
        "label": "K",
        "xyz": [3.5171596334702873, 2.595967516291116, 6.040653652223606]
      },
      {
        "species": [{ "element": "K", "occu": 1 }],
        "abc": [0.08346155, 0.60313226, 0.96795346],
        "properties": { "magmom": 0.0 },
        "label": "K",
        "xyz": [0.503113863470287, 3.9451726537088843, 10.989774697776395]
      },
      {
        "species": [{ "element": "P", "occu": 1 }],
        "abc": [0.41697426, 0.93735871, 0.35104444],
        "properties": { "magmom": 0.0 },
        "label": "P",
        "xyz": [2.5135590091037603, 6.1313947116803815, 3.9856247887239165]
      },
      {
        "species": [{ "element": "P", "occu": 1 }],
        "abc": [0.91697426, 0.06264129, 0.14895556000000001],
        "properties": { "magmom": 0.0 },
        "label": "P",
        "xyz": [5.52760477910376, 0.40974545831961934, 1.6911846612760844]
      },
      {
        "species": [{ "element": "P", "occu": 1 }],
        "abc": [0.08302574, 0.43735871, 0.64895556],
        "properties": { "magmom": 0.0 },
        "label": "P",
        "xyz": [0.5004867608962397, 2.8608246266803805, 7.367994111276085]
      },
      {
        "species": [{ "element": "P", "occu": 1 }],
        "abc": [0.58302574, 0.56264129, 0.85104444],
        "properties": { "magmom": 0.0 },
        "label": "P",
        "xyz": [3.5145325308962394, 3.6803155433196193, 9.662434238723916]
      },
      {
        "species": [{ "element": "P", "occu": 1 }],
        "abc": [0.15627434, 0.83225368, 0.22094829],
        "properties": { "magmom": -0.0 },
        "label": "P",
        "xyz": [0.9420360268730837, 5.443887977878326, 2.5085626812666812]
      },
      {
        "species": [{ "element": "P", "occu": 1 }],
        "abc": [0.6562743400000001, 0.16774632, 0.27905171],
        "properties": { "magmom": -0.0 },
        "label": "P",
        "xyz": [3.956081796873084, 1.0972521921216745, 3.168246768733319]
      },
      {
        "species": [{ "element": "P", "occu": 1 }],
        "abc": [0.34372566, 0.33225368, 0.7790517100000001],
        "properties": { "magmom": -0.0 },
        "label": "P",
        "xyz": [2.0720097431269164, 2.1733178928783254, 8.84505621873332]
      },
      {
        "species": [{ "element": "P", "occu": 1 }],
        "abc": [0.84372566, 0.66774632, 0.72094829],
        "properties": { "magmom": -0.0 },
        "label": "P",
        "xyz": [5.086055513126917, 4.367822277121674, 8.185372131266682]
      }
    ]
  },
  "task_ids": null,
  "uncorrected_energy_per_atom": null,
  "energy_per_atom": -8.04675768125,
  "formation_energy_per_atom": -0.536587557113094,
  "energy_above_hull": 0.0,
  "is_stable": true,
  "equilibrium_reaction_energy_per_atom": null,
  "decomposes_to": null,
  "xas": null,
  "grain_boundaries": null,
  "band_gap": 1.034999999999999,
  "cbm": null,
  "vbm": null,
  "efermi": 2.39110254,
  "is_gap_direct": null,
  "is_metal": null,
  "es_source_calc_id": null,
  "bandstructure": null,
  "dos": null,
  "dos_energy_up": null,
  "dos_energy_down": null,
  "is_magnetic": null,
  "ordering": null,
  "total_magnetization": 0.0,
  "total_magnetization_normalized_vol": null,
  "total_magnetization_normalized_formula_units": null,
  "num_magnetic_sites": null,
  "num_unique_magnetic_sites": null,
  "types_of_magnetic_species": null,
  "bulk_modulus": null,
  "shear_modulus": null,
  "universal_anisotropy": null,
  "homogeneous_poisson": null,
  "e_total": null,
  "e_ionic": null,
  "e_electronic": null,
  "n": null,
  "e_ij_max": null,
  "weighted_surface_energy_EV_PER_ANG2": null,
  "weighted_surface_energy": null,
  "weighted_work_function": null,
  "surface_anisotropy": null,
  "shape_factor": null,
  "has_reconstructed": null,
  "possible_species": null,
  "has_props": null,
  "theoretical": null,
  "database_IDs": null,
  "fields_not_requested": [
    "builder_meta",
    "nsites",
    "elements",
    "nelements",
    "composition",
    "composition_reduced",
    "chemsys",
    "symmetry",
    "property_name",
    "deprecated",
    "deprecation_reasons",
    "last_updated",
    "origins",
    "warnings",
    "task_ids",
    "uncorrected_energy_per_atom",
    "equilibrium_reaction_energy_per_atom",
    "decomposes_to",
    "xas",
    "grain_boundaries",
    "cbm",
    "vbm",
    "is_gap_direct",
    "is_metal",
    "es_source_calc_id",
    "bandstructure",
    "dos",
    "dos_energy_up",
    "dos_energy_down",
    "is_magnetic",
    "ordering",
    "total_magnetization_normalized_vol",
    "total_magnetization_normalized_formula_units",
    "num_magnetic_sites",
    "num_unique_magnetic_sites",
    "types_of_magnetic_species",
    "bulk_modulus",
    "shear_modulus",
    "universal_anisotropy",
    "homogeneous_poisson",
    "e_total",
    "e_ionic",
    "e_electronic",
    "n",
    "e_ij_max",
    "weighted_surface_energy_EV_PER_ANG2",
    "weighted_surface_energy",
    "weighted_work_function",
    "surface_anisotropy",
    "shape_factor",
    "has_reconstructed",
    "possible_species",
    "has_props",
    "theoretical",
    "database_IDs"
  ]
}
