{"builder_meta": null, "nsites": null, "elements": null, "nelements": null, "composition": null, "composition_reduced": null, "formula_pretty": "KPb", "formula_anonymous": "AB", "chemsys": null, "volume": 1281.2615838509246, "density": 5.107315531405211, "density_atomic": 40.03942449534139, "symmetry": null, "property_name": null, "material_id": "mp-21526", "deprecated": null, "deprecation_reasons": null, "last_updated": null, "origins": null, "warnings": null, "structure": {"@module": "pymatgen.core.structure", "@class": "Structure", "charge": 0, "lattice": {"matrix": [[10.29365944, 0.0, -5.36815643], [-2.7994998300000002, 9.9056667, -5.36815643], [0.00367022, 0.00485086, 12.5603731]], "pbc": [true, true, true], "a": 11.609329357187326, "b": 11.609329676023902, "c": 12.56037457294014, "alpha": 117.52535442386583, "beta": 117.52535357230305, "gamma": 89.99999761739312, "volume": 1281.2615838509246}, "properties": {}, "sites": [{"species": [{"element": "K", "occu": 1}], "abc": [0.61874301, 0.25, 0.5], "properties": {"magmom": -0.0}, "label": "K", "xyz": [5.671089978320515, 2.478842105, 1.6166381748509453]}, {"species": [{"element": "K", "occu": 1}], "abc": [0.75, 0.61874301, -0.0], "properties": {"magmom": -0.0}, "label": "K", "xyz": [5.988073628691312, 6.129062030014766, -7.347626590149055]}, {"species": [{"element": "K", "occu": 1}], "abc": [0.25, 0.88125699, 0.0], "properties": {"magmom": -0.0}, "label": "K", "xyz": [0.10633606630868808, 8.729438019985233, -6.072764484850945]}, {"species": [{"element": "K", "occu": 1}], "abc": [0.88125699, 0.75, 0.5], "properties": {"magmom": -0.0}, "label": "K", "xyz": [6.973569571679487, 7.431675455, -2.476656149850946]}, {"species": [{"element": "K", "occu": 1}], "abc": [0.38125699, 0.75, 0.5], "properties": {"magmom": -0.0}, "label": "K", "xyz": [1.826739851679486, 7.431675455, 0.20742206514905348]}, {"species": [{"element": "K", "occu": 1}], "abc": [0.25, 0.38125699, 0.0], "properties": {"magmom": -0.0}, "label": "K", "xyz": [1.5060859813086884, 3.776604669985233, -3.388686269850946]}, {"species": [{"element": "K", "occu": 1}], "abc": [0.75, 0.11874301, -0.0], "properties": {"magmom": -0.0}, "label": "K", "xyz": [7.3878235436913124, 1.176228680014767, -4.6635483751490545]}, {"species": [{"element": "K", "occu": 1}], "abc": [0.11874301, 0.25, 0.5], "properties": {"magmom": -0.0}, "label": "K", "xyz": [0.5242602583205145, 2.478842105, 4.300716389850946]}, {"species": [{"element": "K", "occu": 1}], "abc": [0.49793047, 0.24793047000000001, 0.75], "properties": {"magmom": -0.0}, "label": "K", "xyz": [4.434198039362317, 2.459554745594349, 5.416381624053155]}, {"species": [{"element": "K", "occu": 1}], "abc": [0.00206953, 0.49793047, 0.25], "properties": {"magmom": -0.0}, "label": "K", "xyz": [-1.3717356740959572, 4.933545990594349, 0.4560150599999999]}, {"species": [{"element": "K", "occu": 1}], "abc": [0.24793047000000001, 0.25206953, 0.25], "properties": {"magmom": -0.0}, "label": "K", "xyz": [1.8473607715959575, 2.4981294644056504, 0.4560150599999999]}, {"species": [{"element": "K", "occu": 1}], "abc": [0.25206953, 0.00206953, 0.75], "properties": {"magmom": -0.0}, "label": "K", "xyz": [2.5916769131376833, 0.024138219405650998, 8.056021595946843]}, {"species": [{"element": "K", "occu": 1}], "abc": [0.50206953, 0.75206953, 0.25], "properties": {"magmom": -0.0}, "label": "K", "xyz": [3.0636317906376838, 7.450962814405651, -3.5923213840531556]}, {"species": [{"element": "K", "occu": 1}], "abc": [0.99793047, 0.50206953, 0.75], "properties": {"magmom": -0.0}, "label": "K", "xyz": [8.869565504095958, 4.97697156940565, 1.3680451799999993]}, {"species": [{"element": "K", "occu": 1}], "abc": [0.75206953, 0.74793047, 0.75], "properties": {"magmom": -0.0}, "label": "K", "xyz": [5.650469058404043, 7.412388095594348, 1.368045180000001]}, {"species": [{"element": "K", "occu": 1}], "abc": [0.74793047, 0.99793047, 0.25], "properties": {"magmom": -0.0}, "label": "K", "xyz": [4.906152916862317, 9.886379340594347, -6.231961355946845]}, {"species": [{"element": "Pb", "occu": 1}], "abc": [0.12852508, 0.69768991, 0.13329206], "properties": {"magmom": -0.0}, "label": "Pb", "xyz": [-0.6297001702345071, 6.911730289535169, -2.7610533062632996]}, {"species": [{"element": "Pb", "occu": 1}], "abc": [0.56439786, 0.49523302, 0.36670794], "properties": {"magmom": -0.0}, "label": "Pb", "xyz": [4.424660503019959, 4.907392083832263, -1.0822757767661448]}, {"species": [{"element": "Pb", "occu": 1}], "abc": [0.80231009, 0.37147492, 0.36670794], "properties": {"magmom": -0.0}, "label": "Pb", "xyz": [7.220108755162034, 3.681485593806992, -1.6950730037366997]}, {"species": [{"element": "Pb", "occu": 1}], "abc": [0.49523302, 0.80231009, 0.8667079400000001], "properties": {"magmom": -0.0}, "label": "Pb", "xyz": [2.8548740995759716, 7.95162062046483, 3.9207607059837173]}, {"species": [{"element": "Pb", "occu": 1}], "abc": [0.37147492, 0.56439786, 0.8667079400000001], "properties": {"magmom": -0.0}, "label": "Pb", "xyz": [2.2469856126744276, 5.59494136623109, 5.862263613513438]}, {"species": [{"element": "Pb", "occu": 1}], "abc": [0.93560214, 0.12852508, 0.63329206], "properties": {"magmom": -0.0}, "label": "Pb", "xyz": [9.273288182068917, 1.2761986161930077, 2.2419831764865625]}, {"species": [{"element": "Pb", "occu": 1}], "abc": [0.69768991, 0.0047669800000000005, 0.63329206], "properties": {"magmom": -0.0}, "label": "Pb", "xyz": [7.170761489749091, 0.0502921261677376, 4.183486084016284]}, {"species": [{"element": "Pb", "occu": 1}], "abc": [0.0047669800000000005, 0.93560214, 0.13329206], "properties": {"magmom": -0.0}, "label": "Pb", "xyz": [-2.569659152015892, 9.26840954376891, -3.3738505332338553]}, {"species": [{"element": "Pb", "occu": 1}], "abc": [0.87147492, 0.30231009000000003, 0.8667079400000001], "properties": {"magmom": -0.0}, "label": "Pb", "xyz": [8.127530000234508, 2.9987872704648315, 4.585113546263299]}, {"species": [{"element": "Pb", "occu": 1}], "abc": [0.43560214, 0.50476698, 0.63329206], "properties": {"magmom": -0.0}, "label": "Pb", "xyz": [3.0731693269800417, 5.003125476167737, 2.9063360167661445]}, {"species": [{"element": "Pb", "occu": 1}], "abc": [0.19768991, 0.62852508, 0.63329206], "properties": {"magmom": -0.0}, "label": "Pb", "xyz": [0.27772107483796743, 6.229031966193007, 3.519133243736701]}, {"species": [{"element": "Pb", "occu": 1}], "abc": [0.50476698, 0.19768991, 0.13329206], "properties": {"magmom": -0.0}, "label": "Pb", "xyz": [4.6429557304240285, 1.9588969395351685, -2.0967004659837167]}, {"species": [{"element": "Pb", "occu": 1}], "abc": [0.62852508, 0.43560214, 0.13329206], "properties": {"magmom": -0.0}, "label": "Pb", "xyz": [5.250844217325572, 4.315576193768909, -4.038203373513438]}, {"species": [{"element": "Pb", "occu": 1}], "abc": [0.06439786, 0.87147492, 0.36670794], "properties": {"magmom": -0.0}, "label": "Pb", "xyz": [-1.7754583520689184, 8.634318943806992, -0.417922936486562]}, {"species": [{"element": "Pb", "occu": 1}], "abc": [0.30231009000000003, 0.99523302, 0.36670794], "properties": {"magmom": -0.0}, "label": "Pb", "xyz": [0.32706834025091003, 9.860225433832262, -2.3594258440162834]}, {"species": [{"element": "Pb", "occu": 1}], "abc": [0.99523302, 0.06439786, 0.8667079400000001], "properties": {"magmom": -0.0}, "label": "Pb", "xyz": [10.067488982015893, 0.6421080162310904, 5.197910773233855]}]}, "task_ids": null, "uncorrected_energy_per_atom": null, "energy_per_atom": -31.5138882703125, "formation_energy_per_atom": -0.362189247187497, "energy_above_hull": 0.0, "is_stable": true, "equilibrium_reaction_energy_per_atom": null, "decomposes_to": null, "xas": null, "grain_boundaries": null, "band_gap": 0.5708000000000001, "cbm": null, "vbm": null, "efermi": 2.70175683, "is_gap_direct": null, "is_metal": null, "es_source_calc_id": null, "bandstructure": null, "dos": null, "dos_energy_up": null, "dos_energy_down": null, "is_magnetic": null, "ordering": null, "total_magnetization": 0.0, "total_magnetization_normalized_vol": null, "total_magnetization_normalized_formula_units": null, "num_magnetic_sites": null, "num_unique_magnetic_sites": null, "types_of_magnetic_species": null, "bulk_modulus": null, "shear_modulus": null, "universal_anisotropy": null, "homogeneous_poisson": null, "e_total": null, "e_ionic": null, "e_electronic": null, "n": null, "e_ij_max": null, "weighted_surface_energy_EV_PER_ANG2": null, "weighted_surface_energy": null, "weighted_work_function": null, "surface_anisotropy": null, "shape_factor": null, "has_reconstructed": null, "possible_species": null, "has_props": null, "theoretical": null, "database_IDs": null, "fields_not_requested": ["builder_meta", "nsites", "elements", "nelements", "composition", "composition_reduced", "chemsys", "symmetry", "property_name", "deprecated", "deprecation_reasons", "last_updated", "origins", "warnings", "task_ids", "uncorrected_energy_per_atom", "equilibrium_reaction_energy_per_atom", "decomposes_to", "xas", "grain_boundaries", "cbm", "vbm", "is_gap_direct", "is_metal", "es_source_calc_id", "bandstructure", "dos", "dos_energy_up", "dos_energy_down", "is_magnetic", "ordering", "total_magnetization_normalized_vol", "total_magnetization_normalized_formula_units", "num_magnetic_sites", "num_unique_magnetic_sites", "types_of_magnetic_species", "bulk_modulus", "shear_modulus", "universal_anisotropy", "homogeneous_poisson", "e_total", "e_ionic", "e_electronic", "n", "e_ij_max", "weighted_surface_energy_EV_PER_ANG2", "weighted_surface_energy", "weighted_work_function", "surface_anisotropy", "shape_factor", "has_reconstructed", "possible_species", "has_props", "theoretical", "database_IDs"]}