{"builder_meta": null, "nsites": null, "elements": null, "nelements": null, "composition": null, "composition_reduced": null, "formula_pretty": "KPr3", "formula_anonymous": "AB3", "chemsys": null, "volume": 328.98619591184195, "density": 4.662032856944204, "density_atomic": 41.12327448898024, "symmetry": null, "property_name": null, "material_id": "mp-1185158", "deprecated": null, "deprecation_reasons": null, "last_updated": null, "origins": null, "warnings": null, "structure": {"@module": "pymatgen.core.structure", "@class": "Structure", "charge": 0, "lattice": {"matrix": [[3.9832710000000002, -6.899228, 0.0], [3.9832710000000002, 6.899228, 0.0], [0.0, 0.0, 5.985595]], "pbc": [true, true, true], "a": 7.966542214500906, "b": 7.966542214500906, "c": 5.985595, "alpha": 90.0, "beta": 90.0, "gamma": 120.00000178135825, "volume": 328.98619591184195}, "properties": {}, "sites": [{"species": [{"element": "K", "occu": 1}], "abc": [0.333333, 0.666667, 0.75], "properties": {"magmom": 0.005}, "label": "K", "xyz": [3.9832710000000002, 2.2997472661520004, 4.48919625]}, {"species": [{"element": "K", "occu": 1}], "abc": [0.666667, 0.333333, 0.25], "properties": {"magmom": 0.005}, "label": "K", "xyz": [3.9832710000000002, -2.2997472661520004, 1.49639875]}, {"species": [{"element": "Pr", "occu": 1}], "abc": [0.15462, 0.309239, 0.25], "properties": {"magmom": 0.056}, "label": "Pr", "xyz": [1.8476761027890003, 1.0667517341319996, 1.49639875]}, {"species": [{"element": "Pr", "occu": 1}], "abc": [0.690761, 0.84538, 0.25], "properties": {"magmom": 0.059000000000000004}, "label": "Pr", "xyz": [6.118865897211, 1.0667517341320005, 1.49639875]}, {"species": [{"element": "Pr", "occu": 1}], "abc": [0.15462, 0.84538, 0.25], "properties": {"magmom": 0.055}, "label": "Pr", "xyz": [3.9832710000000002, 4.76571073328, 1.49639875]}, {"species": [{"element": "Pr", "occu": 1}], "abc": [0.84538, 0.690761, 0.75], "properties": {"magmom": 0.056}, "label": "Pr", "xyz": [6.118865897211, -1.0667517341320005, 4.48919625]}, {"species": [{"element": "Pr", "occu": 1}], "abc": [0.309239, 0.15462, 0.75], "properties": {"magmom": 0.059000000000000004}, "label": "Pr", "xyz": [1.8476761027890003, -1.0667517341319996, 4.48919625]}, {"species": [{"element": "Pr", "occu": 1}], "abc": [0.84538, 0.15462, 0.75], "properties": {"magmom": 0.055}, "label": "Pr", "xyz": [3.9832710000000002, -4.76571073328, 4.48919625]}]}, "task_ids": null, "uncorrected_energy_per_atom": null, "energy_per_atom": -23.1335500010625, "formation_energy_per_atom": 0.423983259249999, "energy_above_hull": 0.423983259249999, "is_stable": false, "equilibrium_reaction_energy_per_atom": null, "decomposes_to": null, "xas": null, "grain_boundaries": null, "band_gap": 0.0, "cbm": null, "vbm": null, "efermi": 2.38648094, "is_gap_direct": null, "is_metal": null, "es_source_calc_id": null, "bandstructure": null, "dos": null, "dos_energy_up": null, "dos_energy_down": null, "is_magnetic": null, "ordering": null, "total_magnetization": 0.8328945, "total_magnetization_normalized_vol": null, "total_magnetization_normalized_formula_units": null, "num_magnetic_sites": null, "num_unique_magnetic_sites": null, "types_of_magnetic_species": null, "bulk_modulus": null, "shear_modulus": null, "universal_anisotropy": null, "homogeneous_poisson": null, "e_total": null, "e_ionic": null, "e_electronic": null, "n": null, "e_ij_max": null, "weighted_surface_energy_EV_PER_ANG2": null, "weighted_surface_energy": null, "weighted_work_function": null, "surface_anisotropy": null, "shape_factor": null, "has_reconstructed": null, "possible_species": null, "has_props": null, "theoretical": null, "database_IDs": null, "fields_not_requested": ["builder_meta", "nsites", "elements", "nelements", "composition", "composition_reduced", "chemsys", "symmetry", "property_name", "deprecated", "deprecation_reasons", "last_updated", "origins", "warnings", "task_ids", "uncorrected_energy_per_atom", "equilibrium_reaction_energy_per_atom", "decomposes_to", "xas", "grain_boundaries", "cbm", "vbm", "is_gap_direct", "is_metal", "es_source_calc_id", "bandstructure", "dos", "dos_energy_up", "dos_energy_down", "is_magnetic", "ordering", "total_magnetization_normalized_vol", "total_magnetization_normalized_formula_units", "num_magnetic_sites", "num_unique_magnetic_sites", "types_of_magnetic_species", "bulk_modulus", "shear_modulus", "universal_anisotropy", "homogeneous_poisson", "e_total", "e_ionic", "e_electronic", "n", "e_ij_max", "weighted_surface_energy_EV_PER_ANG2", "weighted_surface_energy", "weighted_work_function", "surface_anisotropy", "shape_factor", "has_reconstructed", "possible_species", "has_props", "theoretical", "database_IDs"]}