{"builder_meta": null, "nsites": null, "elements": null, "nelements": null, "composition": null, "composition_reduced": null, "formula_pretty": "KPt3", "formula_anonymous": "AB3", "chemsys": null, "volume": 169.06288326745758, "density": 12.26476260615144, "density_atomic": 21.132860408432197, "symmetry": null, "property_name": null, "material_id": "mp-1185053", "deprecated": null, "deprecation_reasons": null, "last_updated": null, "origins": null, "warnings": null, "structure": {"@module": "pymatgen.core.structure", "@class": "Structure", "charge": 0, "lattice": {"matrix": [[3.263351, -5.65229, 0.0], [3.263351, 5.65229, 0.0], [0.0, 0.0, 4.582791]], "pbc": [true, true, true], "a": 6.526702229556746, "b": 6.526702229556746, "c": 4.582791, "alpha": 90.0, "beta": 90.0, "gamma": 120.00000232695646, "volume": 169.06288326745758}, "properties": {}, "sites": [{"species": [{"element": "K", "occu": 1}], "abc": [0.666667, 0.333333, 0.25], "properties": {"magmom": -0.0}, "label": "K", "xyz": [3.263351, -1.88410043486, 1.14569775]}, {"species": [{"element": "K", "occu": 1}], "abc": [0.333333, 0.666667, 0.75], "properties": {"magmom": 0.0}, "label": "K", "xyz": [3.263351, 1.88410043486, 3.43709325]}, {"species": [{"element": "Pt", "occu": 1}], "abc": [0.861255, 0.138745, 0.75], "properties": {"magmom": 0.012}, "label": "Pt", "xyz": [3.263351, -4.083836047899999, 3.43709325]}, {"species": [{"element": "Pt", "occu": 1}], "abc": [0.27749, 0.138745, 0.75], "properties": {"magmom": 0.009000000000000001}, "label": "Pt", "xyz": [1.3583209034850001, -0.78422697605, 3.43709325]}, {"species": [{"element": "Pt", "occu": 1}], "abc": [0.861255, 0.7225100000000001, 0.75], "properties": {"magmom": 0.012}, "label": "Pt", "xyz": [5.1683810965150006, -0.7842269760499994, 3.43709325]}, {"species": [{"element": "Pt", "occu": 1}], "abc": [0.138745, 0.861255, 0.25], "properties": {"magmom": -0.012}, "label": "Pt", "xyz": [3.263351, 4.083836047899999, 1.14569775]}, {"species": [{"element": "Pt", "occu": 1}], "abc": [0.7225100000000001, 0.861255, 0.25], "properties": {"magmom": -0.01}, "label": "Pt", "xyz": [5.1683810965150006, 0.7842269760499994, 1.14569775]}, {"species": [{"element": "Pt", "occu": 1}], "abc": [0.138745, 0.27749, 0.25], "properties": {"magmom": -0.013000000000000001}, "label": "Pt", "xyz": [1.3583209034850001, 0.78422697605, 1.14569775]}]}, "task_ids": null, "uncorrected_energy_per_atom": null, "energy_per_atom": -39.69679597075001, "formation_energy_per_atom": 0.423557688312492, "energy_above_hull": 0.43515006799999806, "is_stable": false, "equilibrium_reaction_energy_per_atom": null, "decomposes_to": null, "xas": null, "grain_boundaries": null, "band_gap": 0.0, "cbm": null, "vbm": null, "efermi": 3.36696862, "is_gap_direct": null, "is_metal": null, "es_source_calc_id": null, "bandstructure": null, "dos": null, "dos_energy_up": null, "dos_energy_down": null, "is_magnetic": null, "ordering": null, "total_magnetization": 0.0047145, "total_magnetization_normalized_vol": null, "total_magnetization_normalized_formula_units": null, "num_magnetic_sites": null, "num_unique_magnetic_sites": null, "types_of_magnetic_species": null, "bulk_modulus": null, "shear_modulus": null, "universal_anisotropy": null, "homogeneous_poisson": null, "e_total": null, "e_ionic": null, "e_electronic": null, "n": null, "e_ij_max": null, "weighted_surface_energy_EV_PER_ANG2": null, "weighted_surface_energy": null, "weighted_work_function": null, "surface_anisotropy": null, "shape_factor": null, "has_reconstructed": null, "possible_species": null, "has_props": null, "theoretical": null, "database_IDs": null, "fields_not_requested": ["builder_meta", "nsites", "elements", "nelements", "composition", "composition_reduced", "chemsys", "symmetry", "property_name", "deprecated", "deprecation_reasons", "last_updated", "origins", "warnings", "task_ids", "uncorrected_energy_per_atom", "equilibrium_reaction_energy_per_atom", "decomposes_to", "xas", "grain_boundaries", "cbm", "vbm", "is_gap_direct", "is_metal", "es_source_calc_id", "bandstructure", "dos", "dos_energy_up", "dos_energy_down", "is_magnetic", "ordering", "total_magnetization_normalized_vol", "total_magnetization_normalized_formula_units", "num_magnetic_sites", "num_unique_magnetic_sites", "types_of_magnetic_species", "bulk_modulus", "shear_modulus", "universal_anisotropy", "homogeneous_poisson", "e_total", "e_ionic", "e_electronic", "n", "e_ij_max", "weighted_surface_energy_EV_PER_ANG2", "weighted_surface_energy", "weighted_work_function", "surface_anisotropy", "shape_factor", "has_reconstructed", "possible_species", "has_props", "theoretical", "database_IDs"]}