{"builder_meta": null, "nsites": null, "elements": null, "nelements": null, "composition": null, "composition_reduced": null, "formula_pretty": "KPu", "formula_anonymous": "AB", "chemsys": null, "volume": 512.3192833806963, "density": 5.505501769162095, "density_atomic": 42.693273615058025, "symmetry": null, "property_name": null, "material_id": "mp-1182556", "deprecated": null, "deprecation_reasons": null, "last_updated": null, "origins": null, "warnings": null, "structure": {"@module": "pymatgen.core.structure", "@class": "Structure", "charge": 0, "lattice": {"matrix": [[4.572264, 3.871177, -0.010458], [-8.264464, 7.879998, 7.307506], [-1.8633600000000001, -6.539479, 5.104976]], "pbc": [true, true, true], "a": 5.9909697729824165, "b": 13.557115387402144, "c": 8.502804010537758, "alpha": 89.41684376920706, "beta": 131.7026819815699, "gamma": 95.19834501402345, "volume": 512.3192833806963}, "properties": {}, "sites": [{"species": [{"element": "K", "occu": 1}], "abc": [0.185556, 0.85599, 0.201762], "properties": {"magmom": 0.0}, "label": "K", "xyz": [-6.601842760896001, 6.144101245433999, 7.283201684004]}, {"species": [{"element": "K", "occu": 1}], "abc": [0.424450999999999, 0.330980999999999, 0.892281], "properties": {"magmom": 0.001}, "label": "K", "xyz": [-2.457319256279997, -1.5837982947340121, 6.969279825083993]}, {"species": [{"element": "K", "occu": 1}], "abc": [0.12796000000000002, 0.868252999999999, 0.685479], "properties": {"magmom": -0.0}, "label": "K", "xyz": [-7.867872909391992, 2.8545121869729932, 9.842779644841993]}, {"species": [{"element": "K", "occu": 1}], "abc": [0.814444, 0.14401, 0.798238], "properties": {"magmom": 0.0}, "label": "K", "xyz": [1.0462827608959995, -0.9324052454340004, 5.118822315996001]}, {"species": [{"element": "K", "occu": 1}], "abc": [0.575549, 0.669018999999999, 0.107719], "properties": {"magmom": 0.001}, "label": "K", "xyz": [-3.098240743719993, 6.7954942947339925, 5.432744174915992]}, {"species": [{"element": "K", "occu": 1}], "abc": [0.87204, 0.131747, 0.314521], "properties": {"magmom": -0.0}, "label": "K", "xyz": [2.3123129093919994, 2.357183813027, 2.559244355158]}, {"species": [{"element": "Pu", "occu": 1}], "abc": [0.088882, 0.490257, 0.169577999999999], "properties": {"magmom": 1.333}, "label": "Pu", "xyz": [-3.9613042204799984, 3.0983503637380063, 4.447318061213995]}, {"species": [{"element": "Pu", "occu": 1}], "abc": [0.457171999999999, 0.385359, 0.325714], "properties": {"magmom": -0.021}, "label": "Pu", "xyz": [-1.7013969442080048, 2.676422017719996, 4.473994252742001]}, {"species": [{"element": "Pu", "occu": 1}], "abc": [0.174038, 0.483963, 0.485944999999999], "properties": {"magmom": 0.227}, "label": "Pu", "xyz": [-4.1094375839999975, 1.3095322521450061, 6.015479999193994]}, {"species": [{"element": "Pu", "occu": 1}], "abc": [0.911118, 0.509743, 0.830422], "properties": {"magmom": 1.333}, "label": "Pu", "xyz": [-1.5942557795200005, 2.1133456362619993, 7.954705938786]}, {"species": [{"element": "Pu", "occu": 1}], "abc": [0.542828, 0.614641, 0.674285999999999], "properties": {"magmom": -0.021}, "label": "Pu", "xyz": [-3.8541630557919984, 2.535273982280006, 7.928029747257995]}, {"species": [{"element": "Pu", "occu": 1}], "abc": [0.825962, 0.516037, 0.514054999999999], "properties": {"magmom": 0.227}, "label": "Pu", "xyz": [-1.4461224159999984, 3.9021637478550057, 6.386544000805994]}]}, "task_ids": null, "uncorrected_energy_per_atom": null, "energy_per_atom": -45.55812194275, "formation_energy_per_atom": 0.629184101000002, "energy_above_hull": 0.629184100999999, "is_stable": false, "equilibrium_reaction_energy_per_atom": null, "decomposes_to": null, "xas": null, "grain_boundaries": null, "band_gap": 0.0, "cbm": null, "vbm": null, "efermi": 3.53341198, "is_gap_direct": null, "is_metal": null, "es_source_calc_id": null, "bandstructure": null, "dos": null, "dos_energy_up": null, "dos_energy_down": null, "is_magnetic": null, "ordering": null, "total_magnetization": 3.145009, "total_magnetization_normalized_vol": null, "total_magnetization_normalized_formula_units": null, "num_magnetic_sites": null, "num_unique_magnetic_sites": null, "types_of_magnetic_species": null, "bulk_modulus": null, "shear_modulus": null, "universal_anisotropy": null, "homogeneous_poisson": null, "e_total": null, "e_ionic": null, "e_electronic": null, "n": null, "e_ij_max": null, "weighted_surface_energy_EV_PER_ANG2": null, "weighted_surface_energy": null, "weighted_work_function": null, "surface_anisotropy": null, "shape_factor": null, "has_reconstructed": null, "possible_species": null, "has_props": null, "theoretical": null, "database_IDs": null, "fields_not_requested": ["builder_meta", "nsites", "elements", "nelements", "composition", "composition_reduced", "chemsys", "symmetry", "property_name", "deprecated", "deprecation_reasons", "last_updated", "origins", "warnings", "task_ids", "uncorrected_energy_per_atom", "equilibrium_reaction_energy_per_atom", "decomposes_to", "xas", "grain_boundaries", "cbm", "vbm", "is_gap_direct", "is_metal", "es_source_calc_id", "bandstructure", "dos", "dos_energy_up", "dos_energy_down", "is_magnetic", "ordering", "total_magnetization_normalized_vol", "total_magnetization_normalized_formula_units", "num_magnetic_sites", "num_unique_magnetic_sites", "types_of_magnetic_species", "bulk_modulus", "shear_modulus", "universal_anisotropy", "homogeneous_poisson", "e_total", "e_ionic", "e_electronic", "n", "e_ij_max", "weighted_surface_energy_EV_PER_ANG2", "weighted_surface_energy", "weighted_work_function", "surface_anisotropy", "shape_factor", "has_reconstructed", "possible_species", "has_props", "theoretical", "database_IDs"]}