{"builder_meta": null, "nsites": null, "elements": null, "nelements": null, "composition": null, "composition_reduced": null, "formula_pretty": "KS", "formula_anonymous": "AB", "chemsys": null, "volume": 366.8753970696398, "density": 1.932581590949447, "density_atomic": 30.572949755803318, "symmetry": null, "property_name": null, "material_id": "mp-1287", "deprecated": null, "deprecation_reasons": null, "last_updated": null, "origins": null, "warnings": null, "structure": {"@module": "pymatgen.core.structure", "@class": "Structure", "charge": 0, "lattice": {"matrix": [[8.51254391, 1e-08, 0.0], [-4.25627094, 7.37207938, 0.0], [0.0, -0.0, 5.84614012]], "pbc": [true, true, true], "a": 8.51254391, "b": 8.512543491795485, "c": 5.84614012, "alpha": 90.0, "beta": 90.0, "gamma": 119.99999366925745, "volume": 366.8753970696398}, "properties": {}, "sites": [{"species": [{"element": "K", "occu": 1}], "abc": [-0.0, 0.64213592, 0.5], "properties": {"magmom": -0.0}, "label": "K", "xyz": [-2.733104455826165, 4.733876974989329, 2.92307006]}, {"species": [{"element": "K", "occu": 1}], "abc": [0.35786408000000003, 0.35786408000000003, 0.5], "properties": {"magmom": -0.0}, "label": "K", "xyz": [1.5231672106379173, 2.6382024085893114, 2.92307006]}, {"species": [{"element": "K", "occu": 1}], "abc": [0.64213592, -0.0, 0.5], "properties": {"magmom": -0.0}, "label": "K", "xyz": [5.466210215188247, 6.4213591999999996e-09, 2.92307006]}, {"species": [{"element": "K", "occu": 1}], "abc": [-0.0, 0.30714325, 0.0], "properties": {"magmom": 0.0}, "label": "K", "xyz": [-1.307284889392155, 2.264284420031185, 0.0]}, {"species": [{"element": "K", "occu": 1}], "abc": [0.69285675, 0.69285675, 0.0], "properties": {"magmom": 0.0}, "label": "K", "xyz": [2.9489874571070476, 5.107794966897383, 0.0]}, {"species": [{"element": "K", "occu": 1}], "abc": [0.30714325, -0.0, 0.0], "properties": {"magmom": 0.0}, "label": "K", "xyz": [2.614570402285107, 3.0714325e-09, 0.0]}, {"species": [{"element": "S", "occu": 1}], "abc": [0.666667, 0.333333, 0.18223921], "properties": {"magmom": -0.0}, "label": "S", "xyz": [4.25627654960495, 2.4573573426402096, 1.0653959570181053]}, {"species": [{"element": "S", "occu": 1}], "abc": [0.666667, 0.333333, 0.81776079], "properties": {"magmom": -0.0}, "label": "S", "xyz": [4.25627654960495, 2.4573573426402096, 4.780744162981895]}, {"species": [{"element": "S", "occu": 1}], "abc": [0.333333, 0.666667, 0.81776079], "properties": {"magmom": -0.0}, "label": "S", "xyz": [-3.5796049502323513e-06, 4.91472204735979, 4.780744162981895]}, {"species": [{"element": "S", "occu": 1}], "abc": [0.333333, 0.666667, 0.18223921], "properties": {"magmom": -0.0}, "label": "S", "xyz": [-3.5796049502323513e-06, 4.91472204735979, 1.0653959570181053]}, {"species": [{"element": "S", "occu": 1}], "abc": [0.0, -0.0, 0.68097611], "properties": {"magmom": 0.0}, "label": "S", "xyz": [0.0, 0.0, 3.9810817574325337]}, {"species": [{"element": "S", "occu": 1}], "abc": [0.0, -0.0, 0.31902389000000003], "properties": {"magmom": 0.0}, "label": "S", "xyz": [0.0, 0.0, 1.865058362567467]}]}, "task_ids": null, "uncorrected_energy_per_atom": null, "energy_per_atom": -8.125630696666667, "formation_energy_per_atom": -1.098999187447916, "energy_above_hull": 0.0, "is_stable": true, "equilibrium_reaction_energy_per_atom": null, "decomposes_to": null, "xas": null, "grain_boundaries": null, "band_gap": 1.469, "cbm": null, "vbm": null, "efermi": 0.84383388, "is_gap_direct": null, "is_metal": null, "es_source_calc_id": null, "bandstructure": null, "dos": null, "dos_energy_up": null, "dos_energy_down": null, "is_magnetic": null, "ordering": null, "total_magnetization": 0.0, "total_magnetization_normalized_vol": null, "total_magnetization_normalized_formula_units": null, "num_magnetic_sites": null, "num_unique_magnetic_sites": null, "types_of_magnetic_species": null, "bulk_modulus": null, "shear_modulus": null, "universal_anisotropy": null, "homogeneous_poisson": null, "e_total": null, "e_ionic": null, "e_electronic": null, "n": null, "e_ij_max": null, "weighted_surface_energy_EV_PER_ANG2": null, "weighted_surface_energy": null, "weighted_work_function": null, "surface_anisotropy": null, "shape_factor": null, "has_reconstructed": null, "possible_species": null, "has_props": null, "theoretical": null, "database_IDs": null, "fields_not_requested": ["builder_meta", "nsites", "elements", "nelements", "composition", "composition_reduced", "chemsys", "symmetry", "property_name", "deprecated", "deprecation_reasons", "last_updated", "origins", "warnings", "task_ids", "uncorrected_energy_per_atom", "equilibrium_reaction_energy_per_atom", "decomposes_to", "xas", "grain_boundaries", "cbm", "vbm", "is_gap_direct", "is_metal", "es_source_calc_id", "bandstructure", "dos", "dos_energy_up", "dos_energy_down", "is_magnetic", "ordering", "total_magnetization_normalized_vol", "total_magnetization_normalized_formula_units", "num_magnetic_sites", "num_unique_magnetic_sites", "types_of_magnetic_species", "bulk_modulus", "shear_modulus", "universal_anisotropy", "homogeneous_poisson", "e_total", "e_ionic", "e_electronic", "n", "e_ij_max", "weighted_surface_energy_EV_PER_ANG2", "weighted_surface_energy", "weighted_work_function", "surface_anisotropy", "shape_factor", "has_reconstructed", "possible_species", "has_props", "theoretical", "database_IDs"]}