{"builder_meta": null, "nsites": null, "elements": null, "nelements": null, "composition": null, "composition_reduced": null, "formula_pretty": "KS3", "formula_anonymous": "AB3", "chemsys": null, "volume": 903.0720894865419, "density": 1.990182734819924, "density_atomic": 28.221002796454435, "symmetry": null, "property_name": null, "material_id": "mp-1196514", "deprecated": null, "deprecation_reasons": null, "last_updated": null, "origins": null, "warnings": null, "structure": {"@module": "pymatgen.core.structure", "@class": "Structure", "charge": 0, "lattice": {"matrix": [[-0.01782506, 0.0, -6.49781305], [0.0, -11.94969858, 0.0], [-11.62202422, 0.0, 3.08844461]], "pbc": [true, true, true], "a": 6.4978374991618795, "b": 11.94969858, "c": 12.025387190411154, "alpha": 90.0, "beta": 104.72469725664638, "gamma": 90.0, "volume": 903.0720894865419}, "properties": {}, "sites": [{"species": [{"element": "K", "occu": 1}], "abc": [0.8020476200000001, 0.63818096, 0.01946372], "properties": {"magmom": -0.0}, "label": "K", "xyz": [-0.2405043722006556, -7.626070111495037, -5.151442870832892]}, {"species": [{"element": "K", "occu": 1}], "abc": [0.30204762, 0.86181904, 0.51946372], "properties": {"magmom": -0.0}, "label": "K", "xyz": [-6.042603952200655, -10.298477758504962, -0.3583140408328922]}, {"species": [{"element": "K", "occu": 1}], "abc": [0.19795238, 0.36181904, 0.98053628], "properties": {"magmom": -0.0}, "label": "K", "xyz": [-11.399344907799346, -4.323628468504963, 1.7420744308328913]}, {"species": [{"element": "K", "occu": 1}], "abc": [0.69795238, 0.13818096, 0.48053628], "properties": {"magmom": -0.0}, "label": "K", "xyz": [-5.597245327799344, -1.6512208214950366, -3.051054399167109]}, {"species": [{"element": "K", "occu": 1}], "abc": [0.71456674, 0.61493062, 0.41718328], "properties": {"magmom": -0.0}, "label": "K", "xyz": [-4.861251379353546, -7.3482355566125195, -3.354673635769837]}, {"species": [{"element": "K", "occu": 1}], "abc": [0.21456674, 0.88506938, 0.91718328], "properties": {"magmom": -0.0}, "label": "K", "xyz": [-10.663350959353545, -10.576312313387481, 1.4384551942301635]}, {"species": [{"element": "K", "occu": 1}], "abc": [0.28543326, 0.38506938, 0.5828167200000001], "properties": {"magmom": -0.0}, "label": "K", "xyz": [-6.778597900646455, -4.60146302338748, -0.05469480423016382]}, {"species": [{"element": "K", "occu": 1}], "abc": [0.78543326, 0.11493062, 0.08281672], "properties": {"magmom": -0.0}, "label": "K", "xyz": [-0.9764983206464539, -1.3733862666125196, -4.847823634230164]}, {"species": [{"element": "S", "occu": 1}], "abc": [0.70370919, 0.37419769, 0.99466728], "properties": {"magmom": 0.0}, "label": "S", "xyz": [-11.572590877535823, -4.471549604832281, -1.500595958527569]}, {"species": [{"element": "S", "occu": 1}], "abc": [0.20370919, 0.12580231, 0.49466728], "properties": {"magmom": 0.0}, "label": "S", "xyz": [-5.7526662375358235, -1.5032996851677198, 0.20408826147243087]}, {"species": [{"element": "S", "occu": 1}], "abc": [0.29629081, 0.62580231, 0.00533272], "properties": {"magmom": 0.0}, "label": "S", "xyz": [-0.067258402464177, -7.478148975167719, -1.9087724814724316]}, {"species": [{"element": "S", "occu": 1}], "abc": [0.79629081, 0.87419769, 0.50533272], "properties": {"magmom": 0.0}, "label": "S", "xyz": [-5.8871830424641765, -10.44639889483228, -3.6134567014724324]}, {"species": [{"element": "S", "occu": 1}], "abc": [0.68978375, 0.41735216, 0.15717635], "properties": {"magmom": 0.0}, "label": "S", "xyz": [-1.839002783241972, -4.987232513711933, -3.996655401450964]}, {"species": [{"element": "S", "occu": 1}], "abc": [0.18978375, 0.08264784, 0.65717635], "properties": {"magmom": 0.0}, "label": "S", "xyz": [-7.641102363241972, -0.9876167762880672, 0.7964734285490358]}, {"species": [{"element": "S", "occu": 1}], "abc": [0.31021625, 0.58264784, 0.84282365], "properties": {"magmom": 0.0}, "label": "S", "xyz": [-9.800846496758028, -6.9624660662880675, 0.5872869614509635]}, {"species": [{"element": "S", "occu": 1}], "abc": [0.81021625, 0.91735216, 0.34282365], "properties": {"magmom": 0.0}, "label": "S", "xyz": [-3.998746916758028, -10.962081803711932, -4.205841868549037]}, {"species": [{"element": "S", "occu": 1}], "abc": [0.89761556, 0.325947, 0.27696648], "properties": {"magmom": -0.0}, "label": "S", "xyz": [-3.2349111899020793, -3.89496840305526, -4.977142467344386]}, {"species": [{"element": "S", "occu": 1}], "abc": [0.39761556000000003, 0.17405299999999901, 0.77696648], "properties": {"magmom": -0.0}, "label": "S", "xyz": [-9.037010769902079, -2.079880886944728, -0.18401363734438547]}, {"species": [{"element": "S", "occu": 1}], "abc": [0.10238444000000001, 0.674053, 0.72303352], "properties": {"magmom": -0.0}, "label": "S", "xyz": [-8.404938090097922, -8.05473017694474, 1.5677740273443848]}, {"species": [{"element": "S", "occu": 1}], "abc": [0.60238444, 0.825947, 0.22303352], "properties": {"magmom": -0.0}, "label": "S", "xyz": [-2.602838510097921, -9.869817693055259, -3.225354802655615]}, {"species": [{"element": "S", "occu": 1}], "abc": [0.21286413, 0.38611033, 0.273077], "properties": {"magmom": 0.0}, "label": "S", "xyz": [-3.177501823814038, -4.613902062124331, -0.5397681330259266]}, {"species": [{"element": "S", "occu": 1}], "abc": [0.71286413, 0.11388967, 0.773077], "properties": {"magmom": 0.0}, "label": "S", "xyz": [-8.997426463814037, -1.3609472278756685, -2.2444523530259275]}, {"species": [{"element": "S", "occu": 1}], "abc": [0.7871358700000001, 0.61388967, 0.726923], "properties": {"magmom": 0.0}, "label": "S", "xyz": [-8.462347456185963, -7.335796517875669, -2.8696003069740748]}, {"species": [{"element": "S", "occu": 1}], "abc": [0.28713587, 0.8861103300000001, 0.22692299999999901], "properties": {"magmom": 0.0}, "label": "S", "xyz": [-2.6424228161859507, -10.588751352124332, -1.164916086974077]}, {"species": [{"element": "S", "occu": 1}], "abc": [0.20234362, 0.55507662, 0.27639591], "properties": {"magmom": -0.0}, "label": "S", "xyz": [-3.2158867474960577, -6.6329982978052, -0.4611575561546959]}, {"species": [{"element": "S", "occu": 1}], "abc": [0.7023436200000001, 0.94492338, 0.77639591], "properties": {"magmom": -0.0}, "label": "S", "xyz": [-9.035811387496057, -11.2915495721948, -2.1658417761546964]}, {"species": [{"element": "S", "occu": 1}], "abc": [0.79765638, 0.44492338000000003, 0.72360409], "properties": {"magmom": -0.0}, "label": "S", "xyz": [-8.423962532503943, -5.316700282194801, -2.948210883845305]}, {"species": [{"element": "S", "occu": 1}], "abc": [0.29765638, 0.05507662, 0.22360409], "properties": {"magmom": -0.0}, "label": "S", "xyz": [-2.6040378925039427, -0.6581490078051996, -1.2435266638453042]}, {"species": [{"element": "S", "occu": 1}], "abc": [0.219376599999999, 0.6108696100000001, 0.43877878000000003], "properties": {"magmom": -0.0}, "label": "S", "xyz": [-5.103408009439648, -7.299707711182155, -0.07032417627124787]}, {"species": [{"element": "S", "occu": 1}], "abc": [0.719376599999999, 0.88913039, 0.93877878], "properties": {"magmom": -0.0}, "label": "S", "xyz": [-10.923332649439647, -10.624840158817847, -1.775008396271248]}, {"species": [{"element": "S", "occu": 1}], "abc": [0.7806234, 0.38913039, 0.56122122], "properties": {"magmom": -0.0}, "label": "S", "xyz": [-6.536441270560353, -4.649990868817846, -3.3390442637287463]}, {"species": [{"element": "S", "occu": 1}], "abc": [0.280623399999999, 0.11086961000000001, 0.06122122], "properties": {"magmom": -0.0}, "label": "S", "xyz": [-0.7165166305603523, -1.324858421182154, -1.6343600437287396]}]}, "task_ids": null, "uncorrected_energy_per_atom": null, "energy_per_atom": -8.14850550625, "formation_energy_per_atom": -0.617690210546874, "energy_above_hull": 0.0, "is_stable": true, "equilibrium_reaction_energy_per_atom": null, "decomposes_to": null, "xas": null, "grain_boundaries": null, "band_gap": 1.8888999999999991, "cbm": null, "vbm": null, "efermi": 1.29984238, "is_gap_direct": null, "is_metal": null, "es_source_calc_id": null, "bandstructure": null, "dos": null, "dos_energy_up": null, "dos_energy_down": null, "is_magnetic": null, "ordering": null, "total_magnetization": 0.0, "total_magnetization_normalized_vol": null, "total_magnetization_normalized_formula_units": null, "num_magnetic_sites": null, "num_unique_magnetic_sites": null, "types_of_magnetic_species": null, "bulk_modulus": null, "shear_modulus": null, "universal_anisotropy": null, "homogeneous_poisson": null, "e_total": null, "e_ionic": null, "e_electronic": null, "n": null, "e_ij_max": null, "weighted_surface_energy_EV_PER_ANG2": null, "weighted_surface_energy": null, "weighted_work_function": null, "surface_anisotropy": null, "shape_factor": null, "has_reconstructed": null, "possible_species": null, "has_props": null, "theoretical": null, "database_IDs": null, "fields_not_requested": ["builder_meta", "nsites", "elements", "nelements", "composition", "composition_reduced", "chemsys", "symmetry", "property_name", "deprecated", "deprecation_reasons", "last_updated", "origins", "warnings", "task_ids", "uncorrected_energy_per_atom", "equilibrium_reaction_energy_per_atom", "decomposes_to", "xas", "grain_boundaries", "cbm", "vbm", "is_gap_direct", "is_metal", "es_source_calc_id", "bandstructure", "dos", "dos_energy_up", "dos_energy_down", "is_magnetic", "ordering", "total_magnetization_normalized_vol", "total_magnetization_normalized_formula_units", "num_magnetic_sites", "num_unique_magnetic_sites", "types_of_magnetic_species", "bulk_modulus", "shear_modulus", "universal_anisotropy", "homogeneous_poisson", "e_total", "e_ionic", "e_electronic", "n", "e_ij_max", "weighted_surface_energy_EV_PER_ANG2", "weighted_surface_energy", "weighted_work_function", "surface_anisotropy", "shape_factor", "has_reconstructed", "possible_species", "has_props", "theoretical", "database_IDs"]}