{
  "builder_meta": null,
  "nsites": null,
  "elements": null,
  "nelements": null,
  "composition": null,
  "composition_reduced": null,
  "formula_pretty": "KSb",
  "formula_anonymous": "AB",
  "chemsys": null,
  "volume": 618.1228513850983,
  "density": 3.457066707542885,
  "density_atomic": 38.632678211568646,
  "symmetry": null,
  "property_name": null,
  "material_id": "mp-1536",
  "deprecated": null,
  "deprecation_reasons": null,
  "last_updated": null,
  "origins": null,
  "warnings": null,
  "structure": {
    "@module": "pymatgen.core.structure",
    "@class": "Structure",
    "charge": 0,
    "lattice": {
      "matrix": [
        [6.99911076, 0.0, 0.0],
        [0.0, 7.17304913, -0.88126051],
        [0.0, -0.01728783, 12.31411035]
      ],
      "pbc": [true, true, true],
      "a": 6.99911076,
      "b": 7.226980967726372,
      "c": 12.314122485221723,
      "alpha": 97.08453604769419,
      "beta": 90.0,
      "gamma": 90.0,
      "volume": 618.1228513850983
    },
    "properties": {},
    "sites": [
      {
        "species": [{ "element": "K", "occu": 1 }],
        "abc": [0.39938013, 0.11108419, 0.33067805],
        "properties": { "magmom": -0.0 },
        "label": "K",
        "xyz": [2.7953057652131985, 0.7910956465231233, 3.9741118880904804]
      },
      {
        "species": [{ "element": "K", "occu": 1 }],
        "abc": [0.89938013, 0.38891581000000003, 0.16932195],
        "properties": { "magmom": -0.0 },
        "label": "K",
        "xyz": [6.294861145213199, 2.786785003476877, 1.7423130319095192]
      },
      {
        "species": [{ "element": "K", "occu": 1 }],
        "abc": [0.6006198700000001, 0.88891581, 0.66932295],
        "properties": { "magmom": -0.0 },
        "label": "K",
        "xyz": [4.203804994786801, 6.364665636189047, 7.4587502660198695]
      },
      {
        "species": [{ "element": "K", "occu": 1 }],
        "abc": [0.10061987, 0.61108419, 0.83067705],
        "properties": { "magmom": -0.0 },
        "label": "K",
        "xyz": [0.7042496147868011, 4.368976313810953, 9.69052449398013]
      },
      {
        "species": [{ "element": "K", "occu": 1 }],
        "abc": [0.66647237, 0.79118522, 0.03366973],
        "properties": { "magmom": 0.0 },
        "label": "K",
        "xyz": [4.664713936109702, 5.674628377421473, -0.2826275198069567]
      },
      {
        "species": [{ "element": "K", "occu": 1 }],
        "abc": [0.16647237, 0.70881478, 0.46633027],
        "properties": { "magmom": 0.0 },
        "label": "K",
        "xyz": [1.1651585561097013, 5.076301402578527, 5.117791929806957]
      },
      {
        "species": [{ "element": "K", "occu": 1 }],
        "abc": [0.33352763, 0.20881478, 0.96633027],
        "properties": { "magmom": 0.0 },
        "label": "K",
        "xyz": [2.334396823890299, 1.4811329225785272, 11.715477359806957]
      },
      {
        "species": [{ "element": "K", "occu": 1 }],
        "abc": [0.83352763, 0.29118522, 0.5336697300000001],
        "properties": { "magmom": 0.0 },
        "label": "K",
        "xyz": [5.8339522038902984, 2.0794598974214726, 6.315057910193044]
      },
      {
        "species": [{ "element": "Sb", "occu": 1 }],
        "abc": [0.89955077, 0.96428864, 0.28684116],
        "properties": { "magmom": -0.0 },
        "label": "Sb",
        "xyz": [6.296055473473285, 6.9119309290098006, 2.6824041984883995]
      },
      {
        "species": [{ "element": "Sb", "occu": 1 }],
        "abc": [0.39955077, 0.53571136, 0.21315884000000002],
        "properties": { "magmom": -0.0 },
        "label": "Sb",
        "xyz": [2.796500093473285, 3.8389988509901993, 2.1527602115116005]
      },
      {
        "species": [{ "element": "Sb", "occu": 1 }],
        "abc": [0.10044923, 0.03571136, 0.71315884],
        "properties": { "magmom": -0.0 },
        "label": "Sb",
        "xyz": [0.7030552865267148, 0.24383037099019955, 8.7504456415116]
      },
      {
        "species": [{ "element": "Sb", "occu": 1 }],
        "abc": [0.6004492300000001, 0.46428864000000003, 0.78684116],
        "properties": { "magmom": -0.0 },
        "label": "Sb",
        "xyz": [4.202610666526715, 3.3167624490098007, 9.2800896284884]
      },
      {
        "species": [{ "element": "Sb", "occu": 1 }],
        "abc": [0.16564109, 0.80284797, 0.12294882],
        "properties": { "magmom": -0.0 },
        "label": "Sb",
        "xyz": [1.1593403353171283, 5.756742414431906, 0.8064871253876222]
      },
      {
        "species": [{ "element": "Sb", "occu": 1 }],
        "abc": [0.66564109, 0.69715203, 0.37705118],
        "properties": { "magmom": -0.0 },
        "label": "Sb",
        "xyz": [4.658895715317128, 4.994187365568095, 4.028677284612377]
      },
      {
        "species": [{ "element": "Sb", "occu": 1 }],
        "abc": [0.8343589100000001, 0.19715203, 0.87705118],
        "properties": { "magmom": -0.0 },
        "label": "Sb",
        "xyz": [5.839770424682872, 1.3990188855680945, 10.626362714612378]
      },
      {
        "species": [{ "element": "Sb", "occu": 1 }],
        "abc": [0.33435891, 0.30284797, 0.62294882],
        "properties": { "magmom": -0.0 },
        "label": "Sb",
        "xyz": [2.340215044682872, 2.161573934431906, 7.404172555387622]
      }
    ]
  },
  "task_ids": null,
  "uncorrected_energy_per_atom": null,
  "energy_per_atom": -16.43342724125,
  "formation_energy_per_atom": -0.571137408125,
  "energy_above_hull": 0.0,
  "is_stable": true,
  "equilibrium_reaction_energy_per_atom": null,
  "decomposes_to": null,
  "xas": null,
  "grain_boundaries": null,
  "band_gap": 0.8246000000000001,
  "cbm": null,
  "vbm": null,
  "efermi": 2.43856309,
  "is_gap_direct": null,
  "is_metal": null,
  "es_source_calc_id": null,
  "bandstructure": null,
  "dos": null,
  "dos_energy_up": null,
  "dos_energy_down": null,
  "is_magnetic": null,
  "ordering": null,
  "total_magnetization": 0.0,
  "total_magnetization_normalized_vol": null,
  "total_magnetization_normalized_formula_units": null,
  "num_magnetic_sites": null,
  "num_unique_magnetic_sites": null,
  "types_of_magnetic_species": null,
  "bulk_modulus": null,
  "shear_modulus": null,
  "universal_anisotropy": null,
  "homogeneous_poisson": null,
  "e_total": null,
  "e_ionic": null,
  "e_electronic": null,
  "n": null,
  "e_ij_max": null,
  "weighted_surface_energy_EV_PER_ANG2": null,
  "weighted_surface_energy": null,
  "weighted_work_function": null,
  "surface_anisotropy": null,
  "shape_factor": null,
  "has_reconstructed": null,
  "possible_species": null,
  "has_props": null,
  "theoretical": null,
  "database_IDs": null,
  "fields_not_requested": [
    "builder_meta",
    "nsites",
    "elements",
    "nelements",
    "composition",
    "composition_reduced",
    "chemsys",
    "symmetry",
    "property_name",
    "deprecated",
    "deprecation_reasons",
    "last_updated",
    "origins",
    "warnings",
    "task_ids",
    "uncorrected_energy_per_atom",
    "equilibrium_reaction_energy_per_atom",
    "decomposes_to",
    "xas",
    "grain_boundaries",
    "cbm",
    "vbm",
    "is_gap_direct",
    "is_metal",
    "es_source_calc_id",
    "bandstructure",
    "dos",
    "dos_energy_up",
    "dos_energy_down",
    "is_magnetic",
    "ordering",
    "total_magnetization_normalized_vol",
    "total_magnetization_normalized_formula_units",
    "num_magnetic_sites",
    "num_unique_magnetic_sites",
    "types_of_magnetic_species",
    "bulk_modulus",
    "shear_modulus",
    "universal_anisotropy",
    "homogeneous_poisson",
    "e_total",
    "e_ionic",
    "e_electronic",
    "n",
    "e_ij_max",
    "weighted_surface_energy_EV_PER_ANG2",
    "weighted_surface_energy",
    "weighted_work_function",
    "surface_anisotropy",
    "shape_factor",
    "has_reconstructed",
    "possible_species",
    "has_props",
    "theoretical",
    "database_IDs"
  ]
}
