{"builder_meta": null, "nsites": null, "elements": null, "nelements": null, "composition": null, "composition_reduced": null, "formula_pretty": "KSb2", "formula_anonymous": "AB2", "chemsys": null, "volume": 216.3583998787304, "density": 4.338160462908972, "density_atomic": 36.05973331312173, "symmetry": null, "property_name": null, "material_id": "mp-29055", "deprecated": null, "deprecation_reasons": null, "last_updated": null, "origins": null, "warnings": null, "structure": {"@module": "pymatgen.core.structure", "@class": "Structure", "charge": 0, "lattice": {"matrix": [[4.09859435, -0.0, -1.23438942], [-0.18238485000000002, 7.08895023, -0.60557924], [0.00701384, -0.00407248, 7.4448477]], "pbc": [true, true, true], "a": 4.280443071232213, "b": 7.117106561858236, "c": 7.444852117754938, "alpha": 94.91379390568629, "beta": 106.70694608706945, "gamma": 90.00000170942614, "volume": 216.3583998787304}, "properties": {}, "sites": [{"species": [{"element": "K", "occu": 1}], "abc": [0.63174195, 0.6279030600000001, 0.26348491], "properties": {"magmom": 0.0}, "label": "K", "xyz": [2.4765820225164954, 4.450100504578427, 0.8015443890795637]}, {"species": [{"element": "K", "occu": 1}], "abc": [0.36825805, 0.37209694, 0.73651509], "properties": {"magmom": 0.0}, "label": "K", "xyz": [1.446641317483504, 2.634777245421573, 4.803334650920437]}, {"species": [{"element": "Sb", "occu": 1}], "abc": [0.31378668, 0.8710633, 0.62757236], "properties": {"magmom": -0.0}, "label": "Sb", "xyz": [1.1316172565637153, 6.172368604994906, 3.757347831794755]}, {"species": [{"element": "Sb", "occu": 1}], "abc": [0.68621332, 0.1289367, 0.37242764], "properties": {"magmom": -0.0}, "label": "Sb", "xyz": [2.791606083436285, 0.9125091450050937, 1.847531208205246]}, {"species": [{"element": "Sb", "occu": 1}], "abc": [0.05430257, 0.18135909, 0.10860513000000001], "properties": {"magmom": 0.0}, "label": "Sb", "xyz": [0.1902487951716922, 1.2852032705482683, 0.6316908345126001]}, {"species": [{"element": "Sb", "occu": 1}], "abc": [0.9456974300000001, 0.81864091, 0.8913948700000001], "properties": {"magmom": 0.0}, "label": "Sb", "xyz": [3.732974544828308, 5.799674479451732, 4.973188205487401]}]}, "task_ids": null, "uncorrected_energy_per_atom": null, "energy_per_atom": -19.535252163333332, "formation_energy_per_atom": -0.39162036458333205, "energy_above_hull": 0.0, "is_stable": true, "equilibrium_reaction_energy_per_atom": null, "decomposes_to": null, "xas": null, "grain_boundaries": null, "band_gap": 0.21530000000000002, "cbm": null, "vbm": null, "efermi": 3.85547746, "is_gap_direct": null, "is_metal": null, "es_source_calc_id": null, "bandstructure": null, "dos": null, "dos_energy_up": null, "dos_energy_down": null, "is_magnetic": null, "ordering": null, "total_magnetization": 0.0, "total_magnetization_normalized_vol": null, "total_magnetization_normalized_formula_units": null, "num_magnetic_sites": null, "num_unique_magnetic_sites": null, "types_of_magnetic_species": null, "bulk_modulus": null, "shear_modulus": null, "universal_anisotropy": null, "homogeneous_poisson": null, "e_total": null, "e_ionic": null, "e_electronic": null, "n": null, "e_ij_max": null, "weighted_surface_energy_EV_PER_ANG2": null, "weighted_surface_energy": null, "weighted_work_function": null, "surface_anisotropy": null, "shape_factor": null, "has_reconstructed": null, "possible_species": null, "has_props": null, "theoretical": null, "database_IDs": null, "fields_not_requested": ["builder_meta", "nsites", "elements", "nelements", "composition", "composition_reduced", "chemsys", "symmetry", "property_name", "deprecated", "deprecation_reasons", "last_updated", "origins", "warnings", "task_ids", "uncorrected_energy_per_atom", "equilibrium_reaction_energy_per_atom", "decomposes_to", "xas", "grain_boundaries", "cbm", "vbm", "is_gap_direct", "is_metal", "es_source_calc_id", "bandstructure", "dos", "dos_energy_up", "dos_energy_down", "is_magnetic", "ordering", "total_magnetization_normalized_vol", "total_magnetization_normalized_formula_units", "num_magnetic_sites", "num_unique_magnetic_sites", "types_of_magnetic_species", "bulk_modulus", "shear_modulus", "universal_anisotropy", "homogeneous_poisson", "e_total", "e_ionic", "e_electronic", "n", "e_ij_max", "weighted_surface_energy_EV_PER_ANG2", "weighted_surface_energy", "weighted_work_function", "surface_anisotropy", "shape_factor", "has_reconstructed", "possible_species", "has_props", "theoretical", "database_IDs"]}