{"builder_meta": null, "nsites": null, "elements": null, "nelements": null, "composition": null, "composition_reduced": null, "formula_pretty": "KSb3", "formula_anonymous": "AB3", "chemsys": null, "volume": 259.8007113155575, "density": 5.1692388480006795, "density_atomic": 32.47508891444469, "symmetry": null, "property_name": null, "material_id": "mp-1206096", "deprecated": null, "deprecation_reasons": null, "last_updated": null, "origins": null, "warnings": null, "structure": {"@module": "pymatgen.core.structure", "@class": "Structure", "charge": 0, "lattice": {"matrix": [[2.766539, -4.791786, 0.0], [2.766539, 4.791786, 0.0], [0.0, 0.0, 9.798873]], "pbc": [true, true, true], "a": 5.5330779054986206, "b": 5.5330779054986206, "c": 9.798873, "alpha": 90.0, "beta": 90.0, "gamma": 119.99999887003924, "volume": 259.8007113155575}, "properties": {}, "sites": [{"species": [{"element": "K", "occu": 1}], "abc": [0.333333, 0.666667, 0.25], "properties": {"magmom": 0.0}, "label": "K", "xyz": [2.766539, 1.597265194524, 2.44971825]}, {"species": [{"element": "K", "occu": 1}], "abc": [0.666667, 0.333333, 0.75], "properties": {"magmom": 0.0}, "label": "K", "xyz": [2.766539, -1.597265194524, 7.34915475]}, {"species": [{"element": "Sb", "occu": 1}], "abc": [0.333333, 0.666667, 0.5985600000000001], "properties": {"magmom": 0.0}, "label": "Sb", "xyz": [2.766539, 1.597265194524, 5.865213422880001]}, {"species": [{"element": "Sb", "occu": 1}], "abc": [0.666667, 0.333333, 0.40144], "properties": {"magmom": 0.0}, "label": "Sb", "xyz": [2.766539, -1.597265194524, 3.9336595771200003]}, {"species": [{"element": "Sb", "occu": 1}], "abc": [0.666667, 0.333333, 0.09856000000000001], "properties": {"magmom": 0.0}, "label": "Sb", "xyz": [2.766539, -1.597265194524, 0.9657769228800002]}, {"species": [{"element": "Sb", "occu": 1}], "abc": [0.333333, 0.666667, 0.90144], "properties": {"magmom": 0.0}, "label": "Sb", "xyz": [2.766539, 1.597265194524, 8.83309607712]}, {"species": [{"element": "Sb", "occu": 1}], "abc": [0.0, 0.0, 0.25], "properties": {"magmom": 0.001}, "label": "Sb", "xyz": [0.0, 0.0, 2.44971825]}, {"species": [{"element": "Sb", "occu": 1}], "abc": [0.0, 0.0, 0.75], "properties": {"magmom": 0.001}, "label": "Sb", "xyz": [0.0, 0.0, 7.34915475]}]}, "task_ids": null, "uncorrected_energy_per_atom": null, "energy_per_atom": -20.496697595, "formation_energy_per_atom": 0.287605186562498, "energy_above_hull": 0.58132046, "is_stable": false, "equilibrium_reaction_energy_per_atom": null, "decomposes_to": null, "xas": null, "grain_boundaries": null, "band_gap": 0.0, "cbm": null, "vbm": null, "efermi": 4.68446054, "is_gap_direct": null, "is_metal": null, "es_source_calc_id": null, "bandstructure": null, "dos": null, "dos_energy_up": null, "dos_energy_down": null, "is_magnetic": null, "ordering": null, "total_magnetization": 0.0083076, "total_magnetization_normalized_vol": null, "total_magnetization_normalized_formula_units": null, "num_magnetic_sites": null, "num_unique_magnetic_sites": null, "types_of_magnetic_species": null, "bulk_modulus": null, "shear_modulus": null, "universal_anisotropy": null, "homogeneous_poisson": null, "e_total": null, "e_ionic": null, "e_electronic": null, "n": null, "e_ij_max": null, "weighted_surface_energy_EV_PER_ANG2": null, "weighted_surface_energy": null, "weighted_work_function": null, "surface_anisotropy": null, "shape_factor": null, "has_reconstructed": null, "possible_species": null, "has_props": null, "theoretical": null, "database_IDs": null, "fields_not_requested": ["builder_meta", "nsites", "elements", "nelements", "composition", "composition_reduced", "chemsys", "symmetry", "property_name", "deprecated", "deprecation_reasons", "last_updated", "origins", "warnings", "task_ids", "uncorrected_energy_per_atom", "equilibrium_reaction_energy_per_atom", "decomposes_to", "xas", "grain_boundaries", "cbm", "vbm", "is_gap_direct", "is_metal", "es_source_calc_id", "bandstructure", "dos", "dos_energy_up", "dos_energy_down", "is_magnetic", "ordering", "total_magnetization_normalized_vol", "total_magnetization_normalized_formula_units", "num_magnetic_sites", "num_unique_magnetic_sites", "types_of_magnetic_species", "bulk_modulus", "shear_modulus", "universal_anisotropy", "homogeneous_poisson", "e_total", "e_ionic", "e_electronic", "n", "e_ij_max", "weighted_surface_energy_EV_PER_ANG2", "weighted_surface_energy", "weighted_work_function", "surface_anisotropy", "shape_factor", "has_reconstructed", "possible_species", "has_props", "theoretical", "database_IDs"]}