{
  "builder_meta": null,
  "nsites": null,
  "elements": null,
  "nelements": null,
  "composition": null,
  "composition_reduced": null,
  "formula_pretty": "KSe",
  "formula_anonymous": "AB",
  "chemsys": null,
  "volume": 418.7520947407349,
  "density": 2.80892329970684,
  "density_atomic": 34.89600789506124,
  "symmetry": null,
  "property_name": null,
  "material_id": "mp-9268",
  "deprecated": null,
  "deprecation_reasons": null,
  "last_updated": null,
  "origins": null,
  "warnings": null,
  "structure": {
    "@module": "pymatgen.core.structure",
    "@class": "Structure",
    "charge": 0,
    "lattice": {
      "matrix": [
        [8.93686956, -3.732e-5, 1.06e-6],
        [-4.4684674300000005, 7.7395375, 1e-8],
        [1.04e-6, 1.04e-6, 6.05421182]
      ],
      "pbc": [true, true, true],
      "a": 8.936869560077985,
      "b": 8.936869803621235,
      "c": 6.054211820000178,
      "alpha": 89.99999633339837,
      "beta": 89.99998336186223,
      "gamma": 120.00048007064437,
      "volume": 418.75209474073495
    },
    "properties": {},
    "sites": [
      {
        "species": [{ "element": "K", "occu": 1 }],
        "abc": [0.649470099999999, 0.0, -0.0],
        "properties": { "magmom": 0.0 },
        "label": "K",
        "xyz": [5.804229566820148, -2.4238224131999965e-5, 6.88438305999999e-7]
      },
      {
        "species": [{ "element": "K", "occu": 1 }],
        "abc": [0.3505279, 0.3505279, 0.0],
        "properties": { "magmom": 0.0 },
        "label": "K",
        "xyz": [1.5662996149844268, 2.712910745145022, 3.75064853e-7]
      },
      {
        "species": [{ "element": "K", "occu": 1 }],
        "abc": [0.0, 0.649470099999999, -0.0],
        "properties": { "magmom": 0.0 },
        "label": "K",
        "xyz": [-2.902135988608839, 5.026598194078742, 6.49470099999999e-9]
      },
      {
        "species": [{ "element": "K", "occu": 1 }],
        "abc": [0.31523676, 1e-6, 0.5],
        "properties": { "magmom": 0.0 },
        "label": "K",
        "xyz": [2.8172258561695958, -3.5050983832e-6, 3.0271062441509757]
      },
      {
        "species": [{ "element": "K", "occu": 1 }],
        "abc": [0.68476424, 0.68476424, 0.5],
        "properties": { "magmom": 0.0 },
        "label": "K",
        "xyz": [3.0598025085638305, 5.299733478737564, 3.0271066426977367]
      },
      {
        "species": [{ "element": "K", "occu": 1 }],
        "abc": [1e-6, 0.31523676, 0.5],
        "properties": { "magmom": 0.0 },
        "label": "K",
        "xyz": [-1.408615737929167, 2.43978724536118, 3.0271059131534277]
      },
      {
        "species": [{ "element": "Se", "occu": 1 }],
        "abc": [0.0, 0.0, 0.19896903],
        "properties": { "magmom": 0.0 },
        "label": "Se",
        "xyz": [
          2.0692779119999998e-7, 2.0692779119999998e-7, 1.2046006532399345
        ]
      },
      {
        "species": [{ "element": "Se", "occu": 1 }],
        "abc": [-0.0, -0.0, 0.80103097],
        "properties": { "magmom": 0.0 },
        "label": "Se",
        "xyz": [8.330722088e-7, 8.330722088e-7, 4.849611166760066]
      },
      {
        "species": [{ "element": "Se", "occu": 1 }],
        "abc": [0.333333, 0.666667, 0.30002218],
        "properties": { "magmom": -0.0 },
        "label": "Se",
        "xyz": [-2.592308926337485e-5, 5.159682118548007, 1.8163981884178177]
      },
      {
        "species": [{ "element": "Se", "occu": 1 }],
        "abc": [0.333333, 0.666667, 0.69997782],
        "properties": { "magmom": -0.0 },
        "label": "Se",
        "xyz": [-2.5507135397774852e-5, 5.159682534501873, 4.2378143515814815]
      },
      {
        "species": [{ "element": "Se", "occu": 1 }],
        "abc": [0.666667, 0.333333, 0.69997782],
        "properties": { "magmom": -0.0 },
        "label": "Se",
        "xyz": [4.468429093089263, 2.5798191014519927, 4.237814701582182]
      },
      {
        "species": [{ "element": "Se", "occu": 1 }],
        "abc": [0.666667, 0.333333, 0.30002218],
        "properties": { "magmom": -0.0 },
        "label": "Se",
        "xyz": [4.468428677135397, 2.579818685498127, 1.8163985384185177]
      }
    ]
  },
  "task_ids": null,
  "uncorrected_energy_per_atom": null,
  "energy_per_atom": -3.48159502,
  "formation_energy_per_atom": -1.167954419796875,
  "energy_above_hull": 0.0,
  "is_stable": true,
  "equilibrium_reaction_energy_per_atom": null,
  "decomposes_to": null,
  "xas": null,
  "grain_boundaries": null,
  "band_gap": 0.7039000000000001,
  "cbm": null,
  "vbm": null,
  "efermi": 0.400119699999999,
  "is_gap_direct": null,
  "is_metal": null,
  "es_source_calc_id": null,
  "bandstructure": null,
  "dos": null,
  "dos_energy_up": null,
  "dos_energy_down": null,
  "is_magnetic": null,
  "ordering": null,
  "total_magnetization": 0.0,
  "total_magnetization_normalized_vol": null,
  "total_magnetization_normalized_formula_units": null,
  "num_magnetic_sites": null,
  "num_unique_magnetic_sites": null,
  "types_of_magnetic_species": null,
  "bulk_modulus": null,
  "shear_modulus": null,
  "universal_anisotropy": null,
  "homogeneous_poisson": null,
  "e_total": null,
  "e_ionic": null,
  "e_electronic": null,
  "n": null,
  "e_ij_max": null,
  "weighted_surface_energy_EV_PER_ANG2": null,
  "weighted_surface_energy": null,
  "weighted_work_function": null,
  "surface_anisotropy": null,
  "shape_factor": null,
  "has_reconstructed": null,
  "possible_species": null,
  "has_props": null,
  "theoretical": null,
  "database_IDs": null,
  "fields_not_requested": [
    "builder_meta",
    "nsites",
    "elements",
    "nelements",
    "composition",
    "composition_reduced",
    "chemsys",
    "symmetry",
    "property_name",
    "deprecated",
    "deprecation_reasons",
    "last_updated",
    "origins",
    "warnings",
    "task_ids",
    "uncorrected_energy_per_atom",
    "equilibrium_reaction_energy_per_atom",
    "decomposes_to",
    "xas",
    "grain_boundaries",
    "cbm",
    "vbm",
    "is_gap_direct",
    "is_metal",
    "es_source_calc_id",
    "bandstructure",
    "dos",
    "dos_energy_up",
    "dos_energy_down",
    "is_magnetic",
    "ordering",
    "total_magnetization_normalized_vol",
    "total_magnetization_normalized_formula_units",
    "num_magnetic_sites",
    "num_unique_magnetic_sites",
    "types_of_magnetic_species",
    "bulk_modulus",
    "shear_modulus",
    "universal_anisotropy",
    "homogeneous_poisson",
    "e_total",
    "e_ionic",
    "e_electronic",
    "n",
    "e_ij_max",
    "weighted_surface_energy_EV_PER_ANG2",
    "weighted_surface_energy",
    "weighted_work_function",
    "surface_anisotropy",
    "shape_factor",
    "has_reconstructed",
    "possible_species",
    "has_props",
    "theoretical",
    "database_IDs"
  ]
}
