{
  "builder_meta": null,
  "nsites": null,
  "elements": null,
  "nelements": null,
  "composition": null,
  "composition_reduced": null,
  "formula_pretty": "KSe3",
  "formula_anonymous": "AB3",
  "chemsys": null,
  "volume": 293.278708700202,
  "density": 3.125168892858938,
  "density_atomic": 36.65983858752525,
  "symmetry": null,
  "property_name": null,
  "material_id": "mp-726032",
  "deprecated": null,
  "deprecation_reasons": null,
  "last_updated": null,
  "origins": null,
  "warnings": null,
  "structure": {
    "@module": "pymatgen.core.structure",
    "@class": "Structure",
    "charge": 0,
    "lattice": {
      "matrix": [
        [3.245083, 5.653658, 0.0],
        [-3.245083, 5.653658, 0.0],
        [0.0, 1.432389, 7.992731]
      ],
      "pbc": [true, true, true],
      "a": 6.518773846196308,
      "b": 6.518773846196308,
      "c": 8.120066938497613,
      "alpha": 81.19971892288257,
      "beta": 81.19971892288257,
      "gamma": 59.709868817957606,
      "volume": 293.278708700202
    },
    "properties": {},
    "sites": [
      {
        "species": [{ "element": "K", "occu": 1 }],
        "abc": [0.910418, 0.875745, 0.732317999999999],
        "properties": { "magmom": -0.0 },
        "label": "K",
        "xyz": [0.11251676285899981, 11.147318981955998, 5.853220780457992]
      },
      {
        "species": [{ "element": "K", "occu": 1 }],
        "abc": [0.124254999999999, 0.089582, 0.267682],
        "properties": { "magmom": -0.0 },
        "label": "K",
        "xyz": [0.11251676285899681, 1.5923860180439944, 2.1395102195419997]
      },
      {
        "species": [{ "element": "Se", "occu": 1 }],
        "abc": [0.981417, 0.643976, 0.362208],
        "properties": { "magmom": 0.0 },
        "label": "Se",
        "xyz": [1.0950240526029997, 9.708238892506, 2.895031110048]
      },
      {
        "species": [{ "element": "Se", "occu": 1 }],
        "abc": [0.356024, 0.018583, 0.637792],
        "properties": { "magmom": 0.0 },
        "label": "Se",
        "xyz": [1.095024052603, 3.031466107494, 5.0976998899520005]
      },
      {
        "species": [{ "element": "Se", "occu": 1 }],
        "abc": [0.71306, 0.85567, 0.156412],
        "properties": { "magmom": 0.0 },
        "label": "Se",
        "xyz": [-0.4627812866300003, 9.093105742608001, 1.250159041172]
      },
      {
        "species": [{ "element": "Se", "occu": 1 }],
        "abc": [0.14433, 0.28694000000000003, 0.843588],
        "properties": { "magmom": 0.0 },
        "label": "Se",
        "xyz": [-0.46278128663000007, 3.6465992573920003, 6.742571958828]
      },
      {
        "species": [{ "element": "Se", "occu": 1 }],
        "abc": [0.722509, 0.414012999999999, 0.865942],
        "properties": { "magmom": 0.0 },
        "label": "Se",
        "xyz": [1.001095125168003, 7.665872492913993, 6.921241467602]
      },
      {
        "species": [{ "element": "Se", "occu": 1 }],
        "abc": [0.585986999999999, 0.277491, 0.134057999999999],
        "properties": { "magmom": 0.0 },
        "label": "Se",
        "xyz": [1.0010951251679971, 5.073832507085993, 1.071489532397992]
      }
    ]
  },
  "task_ids": null,
  "uncorrected_energy_per_atom": null,
  "energy_per_atom": -3.70046917125,
  "formation_energy_per_atom": -0.795693132320312,
  "energy_above_hull": 0.0,
  "is_stable": true,
  "equilibrium_reaction_energy_per_atom": null,
  "decomposes_to": null,
  "xas": null,
  "grain_boundaries": null,
  "band_gap": 0.7469999999999991,
  "cbm": null,
  "vbm": null,
  "efermi": 0.86957045,
  "is_gap_direct": null,
  "is_metal": null,
  "es_source_calc_id": null,
  "bandstructure": null,
  "dos": null,
  "dos_energy_up": null,
  "dos_energy_down": null,
  "is_magnetic": null,
  "ordering": null,
  "total_magnetization": 0.0016709,
  "total_magnetization_normalized_vol": null,
  "total_magnetization_normalized_formula_units": null,
  "num_magnetic_sites": null,
  "num_unique_magnetic_sites": null,
  "types_of_magnetic_species": null,
  "bulk_modulus": null,
  "shear_modulus": null,
  "universal_anisotropy": null,
  "homogeneous_poisson": null,
  "e_total": null,
  "e_ionic": null,
  "e_electronic": null,
  "n": null,
  "e_ij_max": null,
  "weighted_surface_energy_EV_PER_ANG2": null,
  "weighted_surface_energy": null,
  "weighted_work_function": null,
  "surface_anisotropy": null,
  "shape_factor": null,
  "has_reconstructed": null,
  "possible_species": null,
  "has_props": null,
  "theoretical": null,
  "database_IDs": null,
  "fields_not_requested": [
    "builder_meta",
    "nsites",
    "elements",
    "nelements",
    "composition",
    "composition_reduced",
    "chemsys",
    "symmetry",
    "property_name",
    "deprecated",
    "deprecation_reasons",
    "last_updated",
    "origins",
    "warnings",
    "task_ids",
    "uncorrected_energy_per_atom",
    "equilibrium_reaction_energy_per_atom",
    "decomposes_to",
    "xas",
    "grain_boundaries",
    "cbm",
    "vbm",
    "is_gap_direct",
    "is_metal",
    "es_source_calc_id",
    "bandstructure",
    "dos",
    "dos_energy_up",
    "dos_energy_down",
    "is_magnetic",
    "ordering",
    "total_magnetization_normalized_vol",
    "total_magnetization_normalized_formula_units",
    "num_magnetic_sites",
    "num_unique_magnetic_sites",
    "types_of_magnetic_species",
    "bulk_modulus",
    "shear_modulus",
    "universal_anisotropy",
    "homogeneous_poisson",
    "e_total",
    "e_ionic",
    "e_electronic",
    "n",
    "e_ij_max",
    "weighted_surface_energy_EV_PER_ANG2",
    "weighted_surface_energy",
    "weighted_work_function",
    "surface_anisotropy",
    "shape_factor",
    "has_reconstructed",
    "possible_species",
    "has_props",
    "theoretical",
    "database_IDs"
  ]
}
