{"builder_meta": null, "nsites": null, "elements": null, "nelements": null, "composition": null, "composition_reduced": null, "formula_pretty": "KSn", "formula_anonymous": "AB", "chemsys": null, "volume": 1228.855549246432, "density": 3.411914083401286, "density_atomic": 38.401735913951, "symmetry": null, "property_name": null, "material_id": "mp-542374", "deprecated": null, "deprecation_reasons": null, "last_updated": null, "origins": null, "warnings": null, "structure": {"@module": "pymatgen.core.structure", "@class": "Structure", "charge": 0, "lattice": {"matrix": [[10.13897764, -1e-08, -5.3112163500000005], [-2.7822356, 9.74977007, -5.31121634], [0.02924158, 0.03875439, 12.38895557]], "pbc": [true, true, true], "a": 11.445867669203908, "b": 11.445866955458557, "c": 12.389050693583394, "alpha": 117.512025712071, "beta": 117.51202832731589, "gamma": 90.00000243676739, "volume": 1228.855549246432}, "properties": {}, "sites": [{"species": [{"element": "K", "occu": 1}], "abc": [0.25, 0.88707468, -0.0], "properties": {"magmom": 0.0}, "label": "K", "xyz": [0.06669365544539207, 8.648774162418828, -6.039249622716271]}, {"species": [{"element": "K", "occu": 1}], "abc": [0.61292532, 0.25, 0.5], "properties": {"magmom": 0.0}, "label": "K", "xyz": [5.533498004469846, 2.456819706370747, 1.6112947190870184]}, {"species": [{"element": "K", "occu": 1}], "abc": [0.88707468, 0.75, 0.5], "properties": {"magmom": 0.0}, "label": "K", "xyz": [6.9219744355301565, 7.331704738629253, -2.5003800140870176]}, {"species": [{"element": "K", "occu": 1}], "abc": [0.75, 0.61292532, 0.0], "properties": {"magmom": 0.0}, "label": "K", "xyz": [5.898930584554608, 5.975880932581172, -7.2387912372837295]}, {"species": [{"element": "K", "occu": 1}], "abc": [0.75, 0.11292532, 0.0], "properties": {"magmom": 0.0}, "label": "K", "xyz": [7.290048384554608, 1.1009958975811724, -4.583183067283729]}, {"species": [{"element": "K", "occu": 1}], "abc": [0.38707468, 0.75, 0.5], "properties": {"magmom": 0.0}, "label": "K", "xyz": [1.8524856155301554, 7.3317047436292535, 0.15522816091298175]}, {"species": [{"element": "K", "occu": 1}], "abc": [0.11292532, 0.25, 0.5], "properties": {"magmom": 0.0}, "label": "K", "xyz": [0.4640091844698449, 2.456819711370747, 4.266902894087018]}, {"species": [{"element": "K", "occu": 1}], "abc": [0.25, 0.38707468, -0.0], "properties": {"magmom": 0.0}, "label": "K", "xyz": [1.457811455445392, 3.7738891274188275, -3.383641452716271]}, {"species": [{"element": "K", "occu": 1}], "abc": [0.747567499999999, 0.997567499999999, 0.25], "properties": {"magmom": 0.0}, "label": "K", "xyz": [4.811412749987694, 9.735742344329042, -6.171550642481565]}, {"species": [{"element": "K", "occu": 1}], "abc": [0.7524325, 0.747567499999999, 0.75], "properties": {"magmom": 0.0}, "label": "K", "xyz": [5.570918566206302, 7.317677021780391, 1.3248921599756809]}, {"species": [{"element": "K", "occu": 1}], "abc": [0.997567499999999, 0.5024325, 0.75], "properties": {"magmom": 0.0}, "label": "K", "xyz": [8.73836017379369, 4.927667133219599, 1.3248921575243298]}, {"species": [{"element": "K", "occu": 1}], "abc": [0.5024325, 0.7524325, 0.25], "properties": {"magmom": 0.0}, "label": "K", "xyz": [3.0080177900122997, 7.34573246067095, -3.5676206050184245]}, {"species": [{"element": "K", "occu": 1}], "abc": [0.2524325, 0.002432499999999, 0.75], "properties": {"magmom": 0.0}, "label": "K", "xyz": [2.5745708700123027, 0.05278210567094026, 7.938073522481581]}, {"species": [{"element": "K", "occu": 1}], "abc": [0.2475675, 0.2524325, 0.25], "properties": {"magmom": 0.0}, "label": "K", "xyz": [1.8150650537937, 2.4708474282196, 0.441630720024325]}, {"species": [{"element": "K", "occu": 1}], "abc": [0.002432499999999, 0.4975675, 0.25], "properties": {"magmom": 0.0}, "label": "K", "xyz": [-1.35237655379371, 4.8608573167804, 0.4416307224756806]}, {"species": [{"element": "K", "occu": 1}], "abc": [0.4975675, 0.2475675, 0.75], "properties": {"magmom": 0.0}, "label": "K", "xyz": [4.3779658299877, 2.44279198932905, 5.3341434850184255]}, {"species": [{"element": "Sn", "occu": 1}], "abc": [0.93165654, 0.13379167, 0.6384092], "properties": {"magmom": -0.0}, "label": "Sn", "xyz": [9.09247297365685, 1.3291791695811397, 2.250397262586927]}, {"species": [{"element": "Sn", "occu": 1}], "abc": [0.00461653, 0.93165654, 0.138409199999999], "properties": {"magmom": -0.0}, "label": "Sn", "xyz": [-2.5412337944218986, 9.08880101328198, -3.258003398852897]}, {"species": [{"element": "Sn", "occu": 1}], "abc": [0.13379167, 0.70675167, 0.138409199999999], "properties": {"magmom": -0.0}, "label": "Sn", "xyz": [-0.6057916023906574, 6.896030241866989, -2.749562093944861]}, {"species": [{"element": "Sn", "occu": 1}], "abc": [0.7932483300000001, 0.36620833, 0.361589799999999], "properties": {"magmom": -0.0}, "label": "Sn", "xyz": [7.034422685158677, 3.5844601994154224, -1.6784051992811344]}, {"species": [{"element": "Sn", "occu": 1}], "abc": [0.56834346, 0.49538347, 0.361589799999999], "properties": {"magmom": -0.0}, "label": "Sn", "xyz": [4.394721563958587, 4.843888115424531, -1.169963890832297]}, {"species": [{"element": "Sn", "occu": 1}], "abc": [0.49538347, 0.7932483300000001, 0.8615908], "properties": {"magmom": -0.0}, "label": "Sn", "xyz": [2.840872458494527, 7.767379246841261, 3.83000786336331]}, {"species": [{"element": "Sn", "occu": 1}], "abc": [0.36620833, 0.56834346, 0.8615908], "properties": {"magmom": -0.0}, "label": "Sn", "xyz": [2.156906938318029, 5.574608478009771, 5.710603399434424]}, {"species": [{"element": "Sn", "occu": 1}], "abc": [0.70675167, 0.00461653, 0.6384092], "properties": {"magmom": -0.0}, "label": "Sn", "xyz": [7.171563198742727, 0.0697512580701284, 4.130992799615338]}, {"species": [{"element": "Sn", "occu": 1}], "abc": [0.06834346, 0.86620833, 0.361589799999999], "properties": {"magmom": -0.0}, "label": "Sn", "xyz": [-1.7064893828984296, 8.45934524166447, -0.48388677154250903]}, {"species": [{"element": "Sn", "occu": 1}], "abc": [0.99538347, 0.06834346, 0.8615908], "properties": {"magmom": -0.0}, "label": "Sn", "xyz": [9.9272174144219, 0.6997234367180195, 5.024526278852885]}, {"species": [{"element": "Sn", "occu": 1}], "abc": [0.86620833, 0.29324833, 0.8615908], "properties": {"magmom": -0.0}, "label": "Sn", "xyz": [7.9917752223906575, 2.892494208133012, 4.516084973944849]}, {"species": [{"element": "Sn", "occu": 1}], "abc": [0.20675167, 0.63379167, 0.6384092], "properties": {"magmom": -0.0}, "label": "Sn", "xyz": [0.3515609055997428, 6.204064211830189, 3.4449156903255513]}, {"species": [{"element": "Sn", "occu": 1}], "abc": [0.43165654000000003, 0.5046165300000001, 0.6384092], "properties": {"magmom": -0.0}, "label": "Sn", "xyz": [2.9912620267998338, 4.9446362958210806, 2.936474381876714]}, {"species": [{"element": "Sn", "occu": 1}], "abc": [0.5046165300000001, 0.20675167, 0.138409199999999], "properties": {"magmom": -0.0}, "label": "Sn", "xyz": [4.545111161505474, 2.02114520315874, -2.063484983363322]}, {"species": [{"element": "Sn", "occu": 1}], "abc": [0.63379167, 0.43165654000000003, 0.138409199999999], "properties": {"magmom": -0.0}, "label": "Sn", "xyz": [5.229076681681971, 4.213915971990229, -3.9440805194344373]}, {"species": [{"element": "Sn", "occu": 1}], "abc": [0.29324833, 0.99538347, 0.361589799999999], "properties": {"magmom": -0.0}, "label": "Sn", "xyz": [0.21442039201569324, 9.718773153175482, -2.3644823085709206]}]}, "task_ids": null, "uncorrected_energy_per_atom": null, "energy_per_atom": -2.851468627499999, "formation_energy_per_atom": -0.280997838624998, "energy_above_hull": 0.0, "is_stable": true, "equilibrium_reaction_energy_per_atom": null, "decomposes_to": null, "xas": null, "grain_boundaries": null, "band_gap": 0.7321000000000001, "cbm": null, "vbm": null, "efermi": 2.61104551, "is_gap_direct": null, "is_metal": null, "es_source_calc_id": null, "bandstructure": null, "dos": null, "dos_energy_up": null, "dos_energy_down": null, "is_magnetic": null, "ordering": null, "total_magnetization": 4e-07, "total_magnetization_normalized_vol": null, "total_magnetization_normalized_formula_units": null, "num_magnetic_sites": null, "num_unique_magnetic_sites": null, "types_of_magnetic_species": null, "bulk_modulus": null, "shear_modulus": null, "universal_anisotropy": null, "homogeneous_poisson": null, "e_total": null, "e_ionic": null, "e_electronic": null, "n": null, "e_ij_max": null, "weighted_surface_energy_EV_PER_ANG2": null, "weighted_surface_energy": null, "weighted_work_function": null, "surface_anisotropy": null, "shape_factor": null, "has_reconstructed": null, "possible_species": null, "has_props": null, "theoretical": null, "database_IDs": null, "fields_not_requested": ["builder_meta", "nsites", "elements", "nelements", "composition", "composition_reduced", "chemsys", "symmetry", "property_name", "deprecated", "deprecation_reasons", "last_updated", "origins", "warnings", "task_ids", "uncorrected_energy_per_atom", "equilibrium_reaction_energy_per_atom", "decomposes_to", "xas", "grain_boundaries", "cbm", "vbm", "is_gap_direct", "is_metal", "es_source_calc_id", "bandstructure", "dos", "dos_energy_up", "dos_energy_down", "is_magnetic", "ordering", "total_magnetization_normalized_vol", "total_magnetization_normalized_formula_units", "num_magnetic_sites", "num_unique_magnetic_sites", "types_of_magnetic_species", "bulk_modulus", "shear_modulus", "universal_anisotropy", "homogeneous_poisson", "e_total", "e_ionic", "e_electronic", "n", "e_ij_max", "weighted_surface_energy_EV_PER_ANG2", "weighted_surface_energy", "weighted_work_function", "surface_anisotropy", "shape_factor", "has_reconstructed", "possible_species", "has_props", "theoretical", "database_IDs"]}