{"builder_meta": null, "nsites": null, "elements": null, "nelements": null, "composition": null, "composition_reduced": null, "formula_pretty": "KSn2", "formula_anonymous": "AB2", "chemsys": null, "volume": 374.8410941221773, "density": 4.8998836784971616, "density_atomic": 31.236757843514777, "symmetry": null, "property_name": null, "material_id": "mp-1103373", "deprecated": null, "deprecation_reasons": null, "last_updated": null, "origins": null, "warnings": null, "structure": {"@module": "pymatgen.core.structure", "@class": "Structure", "charge": 0, "lattice": {"matrix": [[-3.26347114, -5.65051395, -0.0], [-3.26347114, 5.65051395, 0.0], [0.0, -0.0, -10.16364467]], "pbc": [true, true, true], "a": 6.525224270533351, "b": 6.525224270533351, "c": 10.16364467, "alpha": 90.0, "beta": 90.0, "gamma": 119.98258027997097, "volume": 374.8410941221773}, "properties": {}, "sites": [{"species": [{"element": "K", "occu": 1}], "abc": [0.666635, 0.333364999999999, 0.56719614], "properties": {"magmom": -0.0}, "label": "K", "xyz": [-3.263471139999997, -1.8831467841165053, -5.764780025155574]}, {"species": [{"element": "K", "occu": 1}], "abc": [0.333364999999999, 0.666635, 0.43280386], "properties": {"magmom": -0.0}, "label": "K", "xyz": [-3.263471139999997, 1.8831467841165053, -4.398864644844426]}, {"species": [{"element": "K", "occu": 1}], "abc": [0.333364999999999, 0.666635, 0.06719614], "properties": {"magmom": -0.0}, "label": "K", "xyz": [-3.263471139999997, 1.8831467841165053, -0.6829576901555738]}, {"species": [{"element": "K", "occu": 1}], "abc": [0.666635, 0.333364999999999, 0.93280386], "properties": {"magmom": -0.0}, "label": "K", "xyz": [-3.263471139999997, -1.8831467841165053, -9.480686979844426]}, {"species": [{"element": "Sn", "occu": 1}], "abc": [-0.0, 0.0, 0.5], "properties": {"magmom": -0.0}, "label": "Sn", "xyz": [0.0, 0.0, -5.081822335]}, {"species": [{"element": "Sn", "occu": 1}], "abc": [-0.0, 0.0, 0.0], "properties": {"magmom": -0.0}, "label": "Sn", "xyz": [0.0, 0.0, 0.0]}, {"species": [{"element": "Sn", "occu": 1}], "abc": [0.16762168, 0.33535293, 0.75], "properties": {"magmom": -0.0}, "label": "Sn", "xyz": [-1.6414431238877554, 0.9477677679759375, -7.6227335025]}, {"species": [{"element": "Sn", "occu": 1}], "abc": [0.16780886, 0.83219114, 0.75], "properties": {"magmom": 0.0}, "label": "Sn", "xyz": [-3.26347114, 3.7541013412728064, -7.6227335025]}, {"species": [{"element": "Sn", "occu": 1}], "abc": [0.66464707, 0.83237832, 0.75], "properties": {"magmom": -0.0}, "label": "Sn", "xyz": [-4.885499156112244, 0.9477677679759369, -7.6227335025]}, {"species": [{"element": "Sn", "occu": 1}], "abc": [0.83237832, 0.66464707, 0.25], "properties": {"magmom": -0.0}, "label": "Sn", "xyz": [-4.885499156112244, -0.9477677679759369, -2.5409111675]}, {"species": [{"element": "Sn", "occu": 1}], "abc": [0.83219114, 0.16780886, 0.25], "properties": {"magmom": 0.0}, "label": "Sn", "xyz": [-3.26347114, -3.7541013412728064, -2.5409111675]}, {"species": [{"element": "Sn", "occu": 1}], "abc": [0.33535293, 0.16762168, 0.25], "properties": {"magmom": -0.0}, "label": "Sn", "xyz": [-1.6414431238877554, -0.9477677679759375, -2.5409111675]}]}, "task_ids": null, "uncorrected_energy_per_atom": null, "energy_per_atom": -3.20187499, "formation_energy_per_atom": -0.151703845749998, "energy_above_hull": 0.07330974700000001, "is_stable": false, "equilibrium_reaction_energy_per_atom": null, "decomposes_to": null, "xas": null, "grain_boundaries": null, "band_gap": 0.0, "cbm": null, "vbm": null, "efermi": 4.71617597, "is_gap_direct": null, "is_metal": null, "es_source_calc_id": null, "bandstructure": null, "dos": null, "dos_energy_up": null, "dos_energy_down": null, "is_magnetic": null, "ordering": null, "total_magnetization": 2.6e-06, "total_magnetization_normalized_vol": null, "total_magnetization_normalized_formula_units": null, "num_magnetic_sites": null, "num_unique_magnetic_sites": null, "types_of_magnetic_species": null, "bulk_modulus": null, "shear_modulus": null, "universal_anisotropy": null, "homogeneous_poisson": null, "e_total": null, "e_ionic": null, "e_electronic": null, "n": null, "e_ij_max": null, "weighted_surface_energy_EV_PER_ANG2": null, "weighted_surface_energy": null, "weighted_work_function": null, "surface_anisotropy": null, "shape_factor": null, "has_reconstructed": null, "possible_species": null, "has_props": null, "theoretical": null, "database_IDs": null, "fields_not_requested": ["builder_meta", "nsites", "elements", "nelements", "composition", "composition_reduced", "chemsys", "symmetry", "property_name", "deprecated", "deprecation_reasons", "last_updated", "origins", "warnings", "task_ids", "uncorrected_energy_per_atom", "equilibrium_reaction_energy_per_atom", "decomposes_to", "xas", "grain_boundaries", "cbm", "vbm", "is_gap_direct", "is_metal", "es_source_calc_id", "bandstructure", "dos", "dos_energy_up", "dos_energy_down", "is_magnetic", "ordering", "total_magnetization_normalized_vol", "total_magnetization_normalized_formula_units", "num_magnetic_sites", "num_unique_magnetic_sites", "types_of_magnetic_species", "bulk_modulus", "shear_modulus", "universal_anisotropy", "homogeneous_poisson", "e_total", "e_ionic", "e_electronic", "n", "e_ij_max", "weighted_surface_energy_EV_PER_ANG2", "weighted_surface_energy", "weighted_work_function", "surface_anisotropy", "shape_factor", "has_reconstructed", "possible_species", "has_props", "theoretical", "database_IDs"]}