{
  "builder_meta": null,
  "nsites": null,
  "elements": null,
  "nelements": null,
  "composition": null,
  "composition_reduced": null,
  "formula_pretty": "KTe",
  "formula_anonymous": "AB",
  "chemsys": null,
  "volume": 337.06176277484184,
  "density": 3.284965191031958,
  "density_atomic": 42.13272034685523,
  "symmetry": null,
  "property_name": null,
  "material_id": "mp-2072",
  "deprecated": null,
  "deprecation_reasons": null,
  "last_updated": null,
  "origins": null,
  "warnings": null,
  "structure": {
    "@module": "pymatgen.core.structure",
    "@class": "Structure",
    "charge": 0,
    "lattice": {
      "matrix": [
        [5.62797144, 0.0, -0.0],
        [-2.81398572, 4.87396695, 0.0],
        [-0.0, -0.0, 12.28782515]
      ],
      "pbc": [true, true, true],
      "a": 5.62797144,
      "b": 5.6279720559057695,
      "c": 12.28782515,
      "alpha": 90.0,
      "beta": 90.0,
      "gamma": 119.99999637986858,
      "volume": 337.06176277484184
    },
    "properties": {},
    "sites": [
      {
        "species": [{ "element": "K", "occu": 1 }],
        "abc": [-0.0, 0.0, 0.0],
        "properties": { "magmom": 0.0 },
        "label": "K",
        "xyz": [0.0, 0.0, 0.0]
      },
      {
        "species": [{ "element": "K", "occu": 1 }],
        "abc": [-0.0, 0.0, 0.5],
        "properties": { "magmom": 0.0 },
        "label": "K",
        "xyz": [0.0, 0.0, 6.143912575]
      },
      {
        "species": [{ "element": "K", "occu": 1 }],
        "abc": [0.333333, 0.666667, 0.25],
        "properties": { "magmom": -0.0 },
        "label": "K",
        "xyz": [-2.8139857202180707e-6, 3.24931292465565, 3.0719562875]
      },
      {
        "species": [{ "element": "K", "occu": 1 }],
        "abc": [0.666667, 0.333333, 0.75],
        "properties": { "magmom": -0.0 },
        "label": "K",
        "xyz": [2.81398853398572, 1.62465402534435, 9.215868862499999]
      },
      {
        "species": [{ "element": "Te", "occu": 1 }],
        "abc": [0.333333, 0.666667, 0.63538675],
        "properties": { "magmom": 0.0 },
        "label": "Te",
        "xyz": [-2.8139857202180707e-6, 3.24931292465565, 7.807521286626763]
      },
      {
        "species": [{ "element": "Te", "occu": 1 }],
        "abc": [0.666667, 0.333333, 0.13538675],
        "properties": { "magmom": 0.0 },
        "label": "Te",
        "xyz": [2.81398853398572, 1.62465402534435, 1.6636087116267624]
      },
      {
        "species": [{ "element": "Te", "occu": 1 }],
        "abc": [0.666667, 0.333333, 0.36461325],
        "properties": { "magmom": 0.0 },
        "label": "Te",
        "xyz": [2.81398853398572, 1.62465402534435, 4.480303863373237]
      },
      {
        "species": [{ "element": "Te", "occu": 1 }],
        "abc": [0.333333, 0.666667, 0.86461325],
        "properties": { "magmom": 0.0 },
        "label": "Te",
        "xyz": [-2.8139857202180707e-6, 3.24931292465565, 10.624216438373237]
      }
    ]
  },
  "task_ids": null,
  "uncorrected_energy_per_atom": null,
  "energy_per_atom": -16.73129673625,
  "formation_energy_per_atom": -1.013552613124998,
  "energy_above_hull": 0.0,
  "is_stable": true,
  "equilibrium_reaction_energy_per_atom": null,
  "decomposes_to": null,
  "xas": null,
  "grain_boundaries": null,
  "band_gap": 0.670899999999999,
  "cbm": null,
  "vbm": null,
  "efermi": 1.41087109,
  "is_gap_direct": null,
  "is_metal": null,
  "es_source_calc_id": null,
  "bandstructure": null,
  "dos": null,
  "dos_energy_up": null,
  "dos_energy_down": null,
  "is_magnetic": null,
  "ordering": null,
  "total_magnetization": 0.0,
  "total_magnetization_normalized_vol": null,
  "total_magnetization_normalized_formula_units": null,
  "num_magnetic_sites": null,
  "num_unique_magnetic_sites": null,
  "types_of_magnetic_species": null,
  "bulk_modulus": null,
  "shear_modulus": null,
  "universal_anisotropy": null,
  "homogeneous_poisson": null,
  "e_total": null,
  "e_ionic": null,
  "e_electronic": null,
  "n": null,
  "e_ij_max": null,
  "weighted_surface_energy_EV_PER_ANG2": null,
  "weighted_surface_energy": null,
  "weighted_work_function": null,
  "surface_anisotropy": null,
  "shape_factor": null,
  "has_reconstructed": null,
  "possible_species": null,
  "has_props": null,
  "theoretical": null,
  "database_IDs": null,
  "fields_not_requested": [
    "builder_meta",
    "nsites",
    "elements",
    "nelements",
    "composition",
    "composition_reduced",
    "chemsys",
    "symmetry",
    "property_name",
    "deprecated",
    "deprecation_reasons",
    "last_updated",
    "origins",
    "warnings",
    "task_ids",
    "uncorrected_energy_per_atom",
    "equilibrium_reaction_energy_per_atom",
    "decomposes_to",
    "xas",
    "grain_boundaries",
    "cbm",
    "vbm",
    "is_gap_direct",
    "is_metal",
    "es_source_calc_id",
    "bandstructure",
    "dos",
    "dos_energy_up",
    "dos_energy_down",
    "is_magnetic",
    "ordering",
    "total_magnetization_normalized_vol",
    "total_magnetization_normalized_formula_units",
    "num_magnetic_sites",
    "num_unique_magnetic_sites",
    "types_of_magnetic_species",
    "bulk_modulus",
    "shear_modulus",
    "universal_anisotropy",
    "homogeneous_poisson",
    "e_total",
    "e_ionic",
    "e_electronic",
    "n",
    "e_ij_max",
    "weighted_surface_energy_EV_PER_ANG2",
    "weighted_surface_energy",
    "weighted_work_function",
    "surface_anisotropy",
    "shape_factor",
    "has_reconstructed",
    "possible_species",
    "has_props",
    "theoretical",
    "database_IDs"
  ]
}
