{"builder_meta": null, "nsites": null, "elements": null, "nelements": null, "composition": null, "composition_reduced": null, "formula_pretty": "KTe3", "formula_anonymous": "AB3", "chemsys": null, "volume": 256.87907817065206, "density": 5.454540044843296, "density_atomic": 32.10988477133151, "symmetry": null, "property_name": null, "material_id": "mp-1185106", "deprecated": null, "deprecation_reasons": null, "last_updated": null, "origins": null, "warnings": null, "structure": {"@module": "pymatgen.core.structure", "@class": "Structure", "charge": 0, "lattice": {"matrix": [[3.39114, -5.873628, 0.0], [3.39114, 5.873628, 0.0], [0.0, 0.0, 6.44832]], "pbc": [true, true, true], "a": 6.782281060379613, "b": 6.782281060379613, "c": 6.44832, "alpha": 90.0, "beta": 90.0, "gamma": 120.00001034373952, "volume": 256.87907817065206}, "properties": {}, "sites": [{"species": [{"element": "K", "occu": 1}], "abc": [0.333333, 0.666667, 0.75], "properties": {"magmom": -0.0}, "label": "K", "xyz": [3.39114, 1.957879915752, 4.83624]}, {"species": [{"element": "K", "occu": 1}], "abc": [0.666667, 0.333333, 0.25], "properties": {"magmom": -0.0}, "label": "K", "xyz": [3.39114, -1.957879915752, 1.61208]}, {"species": [{"element": "Te", "occu": 1}], "abc": [0.823955999999999, 0.176043999999999, 0.75], "properties": {"magmom": 0.0}, "label": "Te", "xyz": [3.391139999999993, -3.805594064736, 4.83624]}, {"species": [{"element": "Te", "occu": 1}], "abc": [0.352087999999999, 0.176043999999999, 0.75], "properties": {"magmom": 0.0}, "label": "Te", "xyz": [1.7909695504799932, -1.034016967632, 4.83624]}, {"species": [{"element": "Te", "occu": 1}], "abc": [0.823955999999999, 0.647911999999999, 0.75], "properties": {"magmom": 0.0}, "label": "Te", "xyz": [4.991310449519993, -1.0340169676319997, 4.83624]}, {"species": [{"element": "Te", "occu": 1}], "abc": [0.176043999999999, 0.823955999999999, 0.25], "properties": {"magmom": 0.0}, "label": "Te", "xyz": [3.391139999999993, 3.805594064736, 1.61208]}, {"species": [{"element": "Te", "occu": 1}], "abc": [0.647911999999999, 0.823955999999999, 0.25], "properties": {"magmom": 0.0}, "label": "Te", "xyz": [4.991310449519993, 1.0340169676319997, 1.61208]}, {"species": [{"element": "Te", "occu": 1}], "abc": [0.176043999999999, 0.352087999999999, 0.25], "properties": {"magmom": 0.0}, "label": "Te", "xyz": [1.7909695504799932, 1.034016967632, 1.61208]}]}, "task_ids": null, "uncorrected_energy_per_atom": null, "energy_per_atom": -21.0049089471875, "formation_energy_per_atom": -0.43742473062500004, "energy_above_hull": 0.102011502500001, "is_stable": false, "equilibrium_reaction_energy_per_atom": null, "decomposes_to": null, "xas": null, "grain_boundaries": null, "band_gap": 0.0, "cbm": null, "vbm": null, "efermi": 4.71478412, "is_gap_direct": null, "is_metal": null, "es_source_calc_id": null, "bandstructure": null, "dos": null, "dos_energy_up": null, "dos_energy_down": null, "is_magnetic": null, "ordering": null, "total_magnetization": 0.002053499999999, "total_magnetization_normalized_vol": null, "total_magnetization_normalized_formula_units": null, "num_magnetic_sites": null, "num_unique_magnetic_sites": null, "types_of_magnetic_species": null, "bulk_modulus": null, "shear_modulus": null, "universal_anisotropy": null, "homogeneous_poisson": null, "e_total": null, "e_ionic": null, "e_electronic": null, "n": null, "e_ij_max": null, "weighted_surface_energy_EV_PER_ANG2": null, "weighted_surface_energy": null, "weighted_work_function": null, "surface_anisotropy": null, "shape_factor": null, "has_reconstructed": null, "possible_species": null, "has_props": null, "theoretical": null, "database_IDs": null, "fields_not_requested": ["builder_meta", "nsites", "elements", "nelements", "composition", "composition_reduced", "chemsys", "symmetry", "property_name", "deprecated", "deprecation_reasons", "last_updated", "origins", "warnings", "task_ids", "uncorrected_energy_per_atom", "equilibrium_reaction_energy_per_atom", "decomposes_to", "xas", "grain_boundaries", "cbm", "vbm", "is_gap_direct", "is_metal", "es_source_calc_id", "bandstructure", "dos", "dos_energy_up", "dos_energy_down", "is_magnetic", "ordering", "total_magnetization_normalized_vol", "total_magnetization_normalized_formula_units", "num_magnetic_sites", "num_unique_magnetic_sites", "types_of_magnetic_species", "bulk_modulus", "shear_modulus", "universal_anisotropy", "homogeneous_poisson", "e_total", "e_ionic", "e_electronic", "n", "e_ij_max", "weighted_surface_energy_EV_PER_ANG2", "weighted_surface_energy", "weighted_work_function", "surface_anisotropy", "shape_factor", "has_reconstructed", "possible_species", "has_props", "theoretical", "database_IDs"]}