{
  "builder_meta": null,
  "nsites": null,
  "elements": null,
  "nelements": null,
  "composition": null,
  "composition_reduced": null,
  "formula_pretty": "KTh3",
  "formula_anonymous": "AB3",
  "chemsys": null,
  "volume": 286.1362659477062,
  "density": 8.53334016398321,
  "density_atomic": 35.767033243463274,
  "symmetry": null,
  "property_name": null,
  "material_id": "mp-1185144",
  "deprecated": null,
  "deprecation_reasons": null,
  "last_updated": null,
  "origins": null,
  "warnings": null,
  "structure": {
    "@module": "pymatgen.core.structure",
    "@class": "Structure",
    "charge": 0,
    "lattice": {
      "matrix": [
        [3.706709, -6.420208, 0.0],
        [3.706709, 6.420208, 0.0],
        [0.0, 0.0, 6.011811]
      ],
      "pbc": [true, true, true],
      "a": 7.413417725580085,
      "b": 7.413417725580085,
      "c": 6.011811,
      "alpha": 90.0,
      "beta": 90.0,
      "gamma": 119.9999975509979,
      "volume": 286.1362659477062
    },
    "properties": {},
    "sites": [
      {
        "species": [{ "element": "K", "occu": 1 }],
        "abc": [0.666667, 0.333333, 0.25],
        "properties": { "magmom": -0.0 },
        "label": "K",
        "xyz": [3.706709, -2.1400736134720004, 1.50295275]
      },
      {
        "species": [{ "element": "K", "occu": 1 }],
        "abc": [0.333333, 0.666667, 0.75],
        "properties": { "magmom": -0.0 },
        "label": "K",
        "xyz": [3.706709, 2.1400736134720004, 4.508858249999999]
      },
      {
        "species": [{ "element": "Th", "occu": 1 }],
        "abc": [0.844175999999999, 0.155824, 0.75],
        "properties": { "magmom": -0.0 },
        "label": "Th",
        "xyz": [3.7067089999999965, -4.419363017215993, 4.508858249999999]
      },
      {
        "species": [{ "element": "Th", "occu": 1 }],
        "abc": [0.311648, 0.155824, 0.75],
        "properties": { "magmom": 0.0 },
        "label": "Th",
        "xyz": [1.732782669648, -1.000422491392, 4.508858249999999]
      },
      {
        "species": [{ "element": "Th", "occu": 1 }],
        "abc": [0.844175999999999, 0.688352, 0.75],
        "properties": { "magmom": -0.0 },
        "label": "Th",
        "xyz": [5.680635330351997, -1.0004224913919932, 4.508858249999999]
      },
      {
        "species": [{ "element": "Th", "occu": 1 }],
        "abc": [0.155824, 0.844175999999999, 0.25],
        "properties": { "magmom": -0.0 },
        "label": "Th",
        "xyz": [3.7067089999999965, 4.419363017215993, 1.50295275]
      },
      {
        "species": [{ "element": "Th", "occu": 1 }],
        "abc": [0.688352, 0.844175999999999, 0.25],
        "properties": { "magmom": 0.0 },
        "label": "Th",
        "xyz": [5.680635330351997, 1.0004224913919932, 1.50295275]
      },
      {
        "species": [{ "element": "Th", "occu": 1 }],
        "abc": [0.155824, 0.311648, 0.25],
        "properties": { "magmom": -0.0 },
        "label": "Th",
        "xyz": [1.732782669648, 1.000422491392, 1.50295275]
      }
    ]
  },
  "task_ids": null,
  "uncorrected_energy_per_atom": null,
  "energy_per_atom": -55.93048173606251,
  "formation_energy_per_atom": 0.680530860499999,
  "energy_above_hull": 0.680530860499999,
  "is_stable": false,
  "equilibrium_reaction_energy_per_atom": null,
  "decomposes_to": null,
  "xas": null,
  "grain_boundaries": null,
  "band_gap": 0.0,
  "cbm": null,
  "vbm": null,
  "efermi": 5.37535839,
  "is_gap_direct": null,
  "is_metal": null,
  "es_source_calc_id": null,
  "bandstructure": null,
  "dos": null,
  "dos_energy_up": null,
  "dos_energy_down": null,
  "is_magnetic": null,
  "ordering": null,
  "total_magnetization": 0.0008633,
  "total_magnetization_normalized_vol": null,
  "total_magnetization_normalized_formula_units": null,
  "num_magnetic_sites": null,
  "num_unique_magnetic_sites": null,
  "types_of_magnetic_species": null,
  "bulk_modulus": null,
  "shear_modulus": null,
  "universal_anisotropy": null,
  "homogeneous_poisson": null,
  "e_total": null,
  "e_ionic": null,
  "e_electronic": null,
  "n": null,
  "e_ij_max": null,
  "weighted_surface_energy_EV_PER_ANG2": null,
  "weighted_surface_energy": null,
  "weighted_work_function": null,
  "surface_anisotropy": null,
  "shape_factor": null,
  "has_reconstructed": null,
  "possible_species": null,
  "has_props": null,
  "theoretical": null,
  "database_IDs": null,
  "fields_not_requested": [
    "builder_meta",
    "nsites",
    "elements",
    "nelements",
    "composition",
    "composition_reduced",
    "chemsys",
    "symmetry",
    "property_name",
    "deprecated",
    "deprecation_reasons",
    "last_updated",
    "origins",
    "warnings",
    "task_ids",
    "uncorrected_energy_per_atom",
    "equilibrium_reaction_energy_per_atom",
    "decomposes_to",
    "xas",
    "grain_boundaries",
    "cbm",
    "vbm",
    "is_gap_direct",
    "is_metal",
    "es_source_calc_id",
    "bandstructure",
    "dos",
    "dos_energy_up",
    "dos_energy_down",
    "is_magnetic",
    "ordering",
    "total_magnetization_normalized_vol",
    "total_magnetization_normalized_formula_units",
    "num_magnetic_sites",
    "num_unique_magnetic_sites",
    "types_of_magnetic_species",
    "bulk_modulus",
    "shear_modulus",
    "universal_anisotropy",
    "homogeneous_poisson",
    "e_total",
    "e_ionic",
    "e_electronic",
    "n",
    "e_ij_max",
    "weighted_surface_energy_EV_PER_ANG2",
    "weighted_surface_energy",
    "weighted_work_function",
    "surface_anisotropy",
    "shape_factor",
    "has_reconstructed",
    "possible_species",
    "has_props",
    "theoretical",
    "database_IDs"
  ]
}
