{"builder_meta": null, "nsites": null, "elements": null, "nelements": null, "composition": null, "composition_reduced": null, "formula_pretty": "KTl", "formula_anonymous": "AB", "chemsys": null, "volume": 962.9383633582352, "density": 5.038462159362883, "density_atomic": 40.122431806593134, "symmetry": null, "property_name": null, "material_id": "mp-863730", "deprecated": null, "deprecation_reasons": null, "last_updated": null, "origins": null, "warnings": null, "structure": {"@module": "pymatgen.core.structure", "@class": "Structure", "charge": 0, "lattice": {"matrix": [[7.66365572, -7.81765301, -0.0], [7.66365572, 7.81765301, -0.0], [0.0, 0.0, 8.03629956]], "pbc": [true, true, true], "a": 10.947479964788736, "b": 10.947479964788736, "c": 8.03629956, "alpha": 90.0, "beta": 90.0, "gamma": 91.13983952170665, "volume": 962.9383633582352}, "properties": {}, "sites": [{"species": [{"element": "K", "occu": 1}], "abc": [0.9720828300000001, 0.47208283, 0.75], "properties": {"magmom": 0.0}, "label": "K", "xyz": [11.067588420886576, -3.908826505, 6.02722467]}, {"species": [{"element": "K", "occu": 1}], "abc": [0.52791717, 0.02791717, 0.25], "properties": {"magmom": 0.0}, "label": "K", "xyz": [4.259723019113425, -3.9088265050000004, 2.00907489]}, {"species": [{"element": "K", "occu": 1}], "abc": [0.02791717, 0.52791717, 0.25], "properties": {"magmom": 0.0}, "label": "K", "xyz": [4.259723019113425, 3.9088265050000004, 2.00907489]}, {"species": [{"element": "K", "occu": 1}], "abc": [0.47208283, 0.9720828300000001, 0.75], "properties": {"magmom": 0.0}, "label": "K", "xyz": [11.067588420886576, 3.908826505, 6.02722467]}, {"species": [{"element": "K", "occu": 1}], "abc": [0.179512, 0.820488, 0.0], "properties": {"magmom": 0.0}, "label": "K", "xyz": [7.663655720000001, 5.01092795573776, 0.0]}, {"species": [{"element": "K", "occu": 1}], "abc": [0.320488, 0.679512, 0.5], "properties": {"magmom": 0.0}, "label": "K", "xyz": [7.66365572, 2.80672505426224, 4.01814978]}, {"species": [{"element": "K", "occu": 1}], "abc": [0.820488, 0.179512, 0.0], "properties": {"magmom": 0.0}, "label": "K", "xyz": [7.663655720000001, -5.01092795573776, 0.0]}, {"species": [{"element": "K", "occu": 1}], "abc": [0.679512, 0.320488, 0.5], "properties": {"magmom": 0.0}, "label": "K", "xyz": [7.66365572, -2.80672505426224, 4.01814978]}, {"species": [{"element": "K", "occu": 1}], "abc": [0.20043878, 0.20043878, 0.07414347], "properties": {"magmom": 0.0}, "label": "K", "xyz": [3.0721876057136437, 0.0, 0.5958391353378732]}, {"species": [{"element": "K", "occu": 1}], "abc": [0.29956122, 0.29956122, 0.57414347], "properties": {"magmom": 0.0}, "label": "K", "xyz": [4.591468114286357, 0.0, 4.613988915337873]}, {"species": [{"element": "K", "occu": 1}], "abc": [0.70043878, 0.70043878, 0.42585653], "properties": {"magmom": 0.0}, "label": "K", "xyz": [10.735843325713644, 0.0, 3.4223106446621268]}, {"species": [{"element": "K", "occu": 1}], "abc": [0.79956122, 0.79956122, 0.92585653], "properties": {"magmom": 0.0}, "label": "K", "xyz": [12.255123834286357, 0.0, 7.440460424662127]}, {"species": [{"element": "Tl", "occu": 1}], "abc": [0.53784712, 0.53784712, 0.78049005], "properties": {"magmom": -0.0}, "label": "Tl", "xyz": [8.243750315347054, 0.0, 6.272251845399378]}, {"species": [{"element": "Tl", "occu": 1}], "abc": [0.96215288, 0.96215288, 0.28049005], "properties": {"magmom": -0.0}, "label": "Tl", "xyz": [14.747216844652948, 0.0, 2.254102065399378]}, {"species": [{"element": "Tl", "occu": 1}], "abc": [0.46215288, 0.46215288, 0.21950995], "properties": {"magmom": -0.0}, "label": "Tl", "xyz": [7.083561124652947, 0.0, 1.764047714600622]}, {"species": [{"element": "Tl", "occu": 1}], "abc": [0.03784712, 0.03784712, 0.7195099500000001], "properties": {"magmom": -0.0}, "label": "Tl", "xyz": [0.5800945953470528, 0.0, 5.782197494600623]}, {"species": [{"element": "Tl", "occu": 1}], "abc": [0.4933048, 0.72007961, 0.06433556], "properties": {"magmom": -0.0}, "label": "Tl", "xyz": [9.298960374255326, 1.7728467759886781, 0.5170198325203536]}, {"species": [{"element": "Tl", "occu": 1}], "abc": [0.0066952, 0.77992039, 0.56433556], "properties": {"magmom": -0.0}, "label": "Tl", "xyz": [6.028351065744675, 6.044806234011323, 4.535169612520353]}, {"species": [{"element": "Tl", "occu": 1}], "abc": [0.27992039, 0.5066952, 0.93566444], "properties": {"magmom": -0.0}, "label": "Tl", "xyz": [6.028351065744676, 1.7728467759886781, 7.519279727479646]}, {"species": [{"element": "Tl", "occu": 1}], "abc": [0.22007961, 0.9933048, 0.43566444], "properties": {"magmom": -0.0}, "label": "Tl", "xyz": [9.298960374255326, 6.044806234011322, 3.501129947479646]}, {"species": [{"element": "Tl", "occu": 1}], "abc": [0.5066952, 0.27992039, 0.93566444], "properties": {"magmom": -0.0}, "label": "Tl", "xyz": [6.028351065744676, -1.7728467759886781, 7.519279727479646]}, {"species": [{"element": "Tl", "occu": 1}], "abc": [0.9933048, 0.22007961, 0.43566444], "properties": {"magmom": -0.0}, "label": "Tl", "xyz": [9.298960374255326, -6.044806234011322, 3.501129947479646]}, {"species": [{"element": "Tl", "occu": 1}], "abc": [0.72007961, 0.4933048, 0.06433556], "properties": {"magmom": -0.0}, "label": "Tl", "xyz": [9.298960374255326, -1.7728467759886781, 0.5170198325203536]}, {"species": [{"element": "Tl", "occu": 1}], "abc": [0.77992039, 0.0066952, 0.56433556], "properties": {"magmom": -0.0}, "label": "Tl", "xyz": [6.028351065744675, -6.044806234011323, 4.535169612520353]}]}, "task_ids": null, "uncorrected_energy_per_atom": null, "energy_per_atom": -1.8524300195833332, "formation_energy_per_atom": -0.101009099875003, "energy_above_hull": 0.0026281431944440003, "is_stable": false, "equilibrium_reaction_energy_per_atom": null, "decomposes_to": null, "xas": null, "grain_boundaries": null, "band_gap": 0.0, "cbm": null, "vbm": null, "efermi": 2.42469472, "is_gap_direct": null, "is_metal": null, "es_source_calc_id": null, "bandstructure": null, "dos": null, "dos_energy_up": null, "dos_energy_down": null, "is_magnetic": null, "ordering": null, "total_magnetization": 0.0, "total_magnetization_normalized_vol": null, "total_magnetization_normalized_formula_units": null, "num_magnetic_sites": null, "num_unique_magnetic_sites": null, "types_of_magnetic_species": null, "bulk_modulus": null, "shear_modulus": null, "universal_anisotropy": null, "homogeneous_poisson": null, "e_total": null, "e_ionic": null, "e_electronic": null, "n": null, "e_ij_max": null, "weighted_surface_energy_EV_PER_ANG2": null, "weighted_surface_energy": null, "weighted_work_function": null, "surface_anisotropy": null, "shape_factor": null, "has_reconstructed": null, "possible_species": null, "has_props": null, "theoretical": null, "database_IDs": null, "fields_not_requested": ["builder_meta", "nsites", "elements", "nelements", "composition", "composition_reduced", "chemsys", "symmetry", "property_name", "deprecated", "deprecation_reasons", "last_updated", "origins", "warnings", "task_ids", "uncorrected_energy_per_atom", "equilibrium_reaction_energy_per_atom", "decomposes_to", "xas", "grain_boundaries", "cbm", "vbm", "is_gap_direct", "is_metal", "es_source_calc_id", "bandstructure", "dos", "dos_energy_up", "dos_energy_down", "is_magnetic", "ordering", "total_magnetization_normalized_vol", "total_magnetization_normalized_formula_units", "num_magnetic_sites", "num_unique_magnetic_sites", "types_of_magnetic_species", "bulk_modulus", "shear_modulus", "universal_anisotropy", "homogeneous_poisson", "e_total", "e_ionic", "e_electronic", "n", "e_ij_max", "weighted_surface_energy_EV_PER_ANG2", "weighted_surface_energy", "weighted_work_function", "surface_anisotropy", "shape_factor", "has_reconstructed", "possible_species", "has_props", "theoretical", "database_IDs"]}