{
  "builder_meta": null,
  "nsites": null,
  "elements": null,
  "nelements": null,
  "composition": null,
  "composition_reduced": null,
  "formula_pretty": "KTl3",
  "formula_anonymous": "AB3",
  "chemsys": null,
  "volume": 272.8414496885846,
  "density": 7.939289418493696,
  "density_atomic": 34.105181211073074,
  "symmetry": null,
  "property_name": null,
  "material_id": "mp-862783",
  "deprecated": null,
  "deprecation_reasons": null,
  "last_updated": null,
  "origins": null,
  "warnings": null,
  "structure": {
    "@module": "pymatgen.core.structure",
    "@class": "Structure",
    "charge": 0,
    "lattice": {
      "matrix": [
        [7.74774359, 1e-8, 0.0],
        [-3.87387128, 6.70974141, 0.0],
        [0.0, -0.0, 5.24842899]
      ],
      "pbc": [true, true, true],
      "a": 7.74774359,
      "b": 7.747742153884422,
      "c": 5.24842899,
      "alpha": 90.0,
      "beta": 90.0,
      "gamma": 120.00000165999815,
      "volume": 272.8414496885846
    },
    "properties": {},
    "sites": [
      {
        "species": [{ "element": "K", "occu": 1 }],
        "abc": [0.666667, 0.333333, 0.25],
        "properties": { "magmom": -0.0 },
        "label": "K",
        "xyz": [3.8738758405382896, 2.2365782400862, 1.3121072475]
      },
      {
        "species": [{ "element": "K", "occu": 1 }],
        "abc": [0.333333, 0.666667, 0.75],
        "properties": { "magmom": -0.0 },
        "label": "K",
        "xyz": [-3.5305382901640314e-6, 4.473163179913801, 3.9363217424999997]
      },
      {
        "species": [{ "element": "Tl", "occu": 1 }],
        "abc": [0.8533948, 0.1466032, 0.75],
        "properties": { "magmom": 0.0 },
        "label": "Tl",
        "xyz": [6.043962165403236, 0.98366957041246, 3.9363217424999997]
      },
      {
        "species": [{ "element": "Tl", "occu": 1 }],
        "abc": [0.29320841000000003, 0.1466032, 0.75],
        "properties": { "magmom": 0.0 },
        "label": "Tl",
        "xyz": [1.7037816530754961, 0.9836695648105961, 3.9363217424999997]
      },
      {
        "species": [{ "element": "Tl", "occu": 1 }],
        "abc": [0.8533948, 0.70679059, 0.75],
        "properties": { "magmom": 0.0 },
        "label": "Tl",
        "xyz": [3.8738683238640763, 4.74238209845528, 3.9363217424999997]
      },
      {
        "species": [{ "element": "Tl", "occu": 1 }],
        "abc": [0.1466042, 0.8533968, 0.25],
        "properties": { "magmom": 0.0 },
        "label": "Tl",
        "xyz": [-2.170097603146826, 5.72607184958753, 1.3121072475]
      },
      {
        "species": [{ "element": "Tl", "occu": 1 }],
        "abc": [0.70679059, 0.853395799999999, 0.25],
        "properties": { "magmom": 0.0 },
        "label": "Tl",
        "xyz": [2.1700867830521977, 5.726065145447978, 1.3121072475]
      },
      {
        "species": [{ "element": "Tl", "occu": 1 }],
        "abc": [0.1466042, 0.29320941, 0.25],
        "properties": { "magmom": 0.0 },
        "label": "Tl",
        "xyz": [-3.761607666907807e-6, 1.9673593215447103, 1.3121072475]
      }
    ]
  },
  "task_ids": null,
  "uncorrected_energy_per_atom": null,
  "energy_per_atom": -2.12949185875,
  "formation_energy_per_atom": -0.06804534056250501,
  "energy_above_hull": 0.016269070892855002,
  "is_stable": false,
  "equilibrium_reaction_energy_per_atom": null,
  "decomposes_to": null,
  "xas": null,
  "grain_boundaries": null,
  "band_gap": 0.0,
  "cbm": null,
  "vbm": null,
  "efermi": 3.66751927,
  "is_gap_direct": null,
  "is_metal": null,
  "es_source_calc_id": null,
  "bandstructure": null,
  "dos": null,
  "dos_energy_up": null,
  "dos_energy_down": null,
  "is_magnetic": null,
  "ordering": null,
  "total_magnetization": 0.0,
  "total_magnetization_normalized_vol": null,
  "total_magnetization_normalized_formula_units": null,
  "num_magnetic_sites": null,
  "num_unique_magnetic_sites": null,
  "types_of_magnetic_species": null,
  "bulk_modulus": null,
  "shear_modulus": null,
  "universal_anisotropy": null,
  "homogeneous_poisson": null,
  "e_total": null,
  "e_ionic": null,
  "e_electronic": null,
  "n": null,
  "e_ij_max": null,
  "weighted_surface_energy_EV_PER_ANG2": null,
  "weighted_surface_energy": null,
  "weighted_work_function": null,
  "surface_anisotropy": null,
  "shape_factor": null,
  "has_reconstructed": null,
  "possible_species": null,
  "has_props": null,
  "theoretical": null,
  "database_IDs": null,
  "fields_not_requested": [
    "builder_meta",
    "nsites",
    "elements",
    "nelements",
    "composition",
    "composition_reduced",
    "chemsys",
    "symmetry",
    "property_name",
    "deprecated",
    "deprecation_reasons",
    "last_updated",
    "origins",
    "warnings",
    "task_ids",
    "uncorrected_energy_per_atom",
    "equilibrium_reaction_energy_per_atom",
    "decomposes_to",
    "xas",
    "grain_boundaries",
    "cbm",
    "vbm",
    "is_gap_direct",
    "is_metal",
    "es_source_calc_id",
    "bandstructure",
    "dos",
    "dos_energy_up",
    "dos_energy_down",
    "is_magnetic",
    "ordering",
    "total_magnetization_normalized_vol",
    "total_magnetization_normalized_formula_units",
    "num_magnetic_sites",
    "num_unique_magnetic_sites",
    "types_of_magnetic_species",
    "bulk_modulus",
    "shear_modulus",
    "universal_anisotropy",
    "homogeneous_poisson",
    "e_total",
    "e_ionic",
    "e_electronic",
    "n",
    "e_ij_max",
    "weighted_surface_energy_EV_PER_ANG2",
    "weighted_surface_energy",
    "weighted_work_function",
    "surface_anisotropy",
    "shape_factor",
    "has_reconstructed",
    "possible_species",
    "has_props",
    "theoretical",
    "database_IDs"
  ]
}
