{
  "builder_meta": null,
  "nsites": null,
  "elements": null,
  "nelements": null,
  "composition": null,
  "composition_reduced": null,
  "formula_pretty": "KU3",
  "formula_anonymous": "AB3",
  "chemsys": null,
  "volume": 595.5600897369039,
  "density": 8.400114032125975,
  "density_atomic": 37.222505608556496,
  "symmetry": null,
  "property_name": null,
  "material_id": "mp-1224693",
  "deprecated": null,
  "deprecation_reasons": null,
  "last_updated": null,
  "origins": null,
  "warnings": null,
  "structure": {
    "@module": "pymatgen.core.structure",
    "@class": "Structure",
    "charge": 0,
    "lattice": {
      "matrix": [
        [4.844836, 0.007607, 0.0],
        [-0.00485, 8.288762, 0.0],
        [0.0, 0.0, 14.830522]
      ],
      "pbc": [true, true, true],
      "a": 4.844841971968229,
      "b": 8.28876341893916,
      "c": 14.830522,
      "alpha": 90.0,
      "beta": 90.0,
      "gamma": 89.9435639687058,
      "volume": 595.5600897369039
    },
    "properties": {},
    "sites": [
      {
        "species": [{ "element": "K", "occu": 1 }],
        "abc": [0.780774, 0.712706, 0.524389],
        "properties": { "magmom": 0.003 },
        "label": "K",
        "xyz": [3.779265358964, 5.913389757789999, 7.776962601058]
      },
      {
        "species": [{ "element": "K", "occu": 1 }],
        "abc": [0.719225999999999, 0.787293999999999, 0.024388999999999002],
        "properties": { "magmom": 0.003 },
        "label": "K",
        "xyz": [3.4807136410359956, 6.531163742209992, 0.3617016010579852]
      },
      {
        "species": [{ "element": "K", "occu": 1 }],
        "abc": [0.219225999999999, 0.287294, 0.475611],
        "properties": { "magmom": 0.003 },
        "label": "K",
        "xyz": [1.060720641035995, 2.38297924221, 7.053559398942]
      },
      {
        "species": [{ "element": "K", "occu": 1 }],
        "abc": [0.280773999999999, 0.212705999999999, 0.975611],
        "properties": { "magmom": 0.003 },
        "label": "K",
        "xyz": [1.3592723589639955, 1.765205257789992, 14.468820398942]
      },
      {
        "species": [{ "element": "U", "occu": 1 }],
        "abc": [0.488257999999999, 0.6561100000000001, 0.267445999999999],
        "properties": { "magmom": 1.721 },
        "label": "U",
        "xyz": [2.362347802187995, 5.442053814426001, 3.9663637868119856]
      },
      {
        "species": [{ "element": "U", "occu": 1 }],
        "abc": [0.509293, 0.673694999999999, 0.779265],
        "properties": { "magmom": 1.705 },
        "label": "U",
        "xyz": [2.464173640198, 5.587971707440992, 11.55690672633]
      },
      {
        "species": [{ "element": "U", "occu": 1 }],
        "abc": [0.990707, 0.826305, 0.279265],
        "properties": { "magmom": 1.705 },
        "label": "U",
        "xyz": [4.795805359802, 6.856581792558999, 4.14164572633]
      },
      {
        "species": [{ "element": "U", "occu": 1 }],
        "abc": [0.011741999999999001, 0.84389, 0.767446],
        "properties": { "magmom": 1.721 },
        "label": "U",
        "xyz": [0.05279519781199516, 6.994892685574, 11.381624786811999]
      },
      {
        "species": [{ "element": "U", "occu": 1 }],
        "abc": [0.511742, 0.34389000000000003, 0.732553999999999],
        "properties": { "magmom": 1.721 },
        "label": "U",
        "xyz": [2.477638197812, 2.8543151855740003, 10.864158213187986]
      },
      {
        "species": [{ "element": "U", "occu": 1 }],
        "abc": [0.490707, 0.326305, 0.220735],
        "properties": { "magmom": 1.705 },
        "label": "U",
        "xyz": [2.375812359802, 2.7083972925590003, 3.27361527367]
      },
      {
        "species": [{ "element": "U", "occu": 1 }],
        "abc": [0.009293, 0.173695, 0.720735],
        "properties": { "magmom": 1.705 },
        "label": "U",
        "xyz": [0.04418064019799999, 1.439787207441, 10.688876273670001]
      },
      {
        "species": [{ "element": "U", "occu": 1 }],
        "abc": [0.988258, 0.15611000000000003, 0.232553999999999],
        "properties": { "magmom": 1.721 },
        "label": "U",
        "xyz": [4.787190802188, 1.3014763144260002, 3.4488972131879856]
      },
      {
        "species": [{ "element": "U", "occu": 1 }],
        "abc": [0.9890700000000001, 0.495703, 0.231008],
        "properties": { "magmom": 1.724 },
        "label": "U",
        "xyz": [4.789477782970001, 4.116288045176, 3.425969226176]
      },
      {
        "species": [{ "element": "U", "occu": 1 }],
        "abc": [0.01093, 0.504297, 0.768992],
        "properties": { "magmom": 1.724 },
        "label": "U",
        "xyz": [0.050508217030000004, 4.180080954824, 11.404552773824001]
      },
      {
        "species": [{ "element": "U", "occu": 1 }],
        "abc": [0.48907000000000006, 0.995703, 0.268992],
        "properties": { "magmom": 1.724 },
        "label": "U",
        "xyz": [2.3646347829700005, 8.256865545176, 3.989291773824]
      },
      {
        "species": [{ "element": "U", "occu": 1 }],
        "abc": [0.51093, 0.004297, 0.731008],
        "properties": { "magmom": 1.724 },
        "label": "U",
        "xyz": [2.47535121703, 0.039503454824, 10.841230226176]
      }
    ]
  },
  "task_ids": null,
  "uncorrected_energy_per_atom": null,
  "energy_per_atom": -60.5831238666875,
  "formation_energy_per_atom": 0.8779695861249971,
  "energy_above_hull": 0.8779695861249971,
  "is_stable": false,
  "equilibrium_reaction_energy_per_atom": null,
  "decomposes_to": null,
  "xas": null,
  "grain_boundaries": null,
  "band_gap": 0.0,
  "cbm": null,
  "vbm": null,
  "efermi": 5.29923114,
  "is_gap_direct": null,
  "is_metal": null,
  "es_source_calc_id": null,
  "bandstructure": null,
  "dos": null,
  "dos_energy_up": null,
  "dos_energy_down": null,
  "is_magnetic": null,
  "ordering": null,
  "total_magnetization": 22.0596445,
  "total_magnetization_normalized_vol": null,
  "total_magnetization_normalized_formula_units": null,
  "num_magnetic_sites": null,
  "num_unique_magnetic_sites": null,
  "types_of_magnetic_species": null,
  "bulk_modulus": null,
  "shear_modulus": null,
  "universal_anisotropy": null,
  "homogeneous_poisson": null,
  "e_total": null,
  "e_ionic": null,
  "e_electronic": null,
  "n": null,
  "e_ij_max": null,
  "weighted_surface_energy_EV_PER_ANG2": null,
  "weighted_surface_energy": null,
  "weighted_work_function": null,
  "surface_anisotropy": null,
  "shape_factor": null,
  "has_reconstructed": null,
  "possible_species": null,
  "has_props": null,
  "theoretical": null,
  "database_IDs": null,
  "fields_not_requested": [
    "builder_meta",
    "nsites",
    "elements",
    "nelements",
    "composition",
    "composition_reduced",
    "chemsys",
    "symmetry",
    "property_name",
    "deprecated",
    "deprecation_reasons",
    "last_updated",
    "origins",
    "warnings",
    "task_ids",
    "uncorrected_energy_per_atom",
    "equilibrium_reaction_energy_per_atom",
    "decomposes_to",
    "xas",
    "grain_boundaries",
    "cbm",
    "vbm",
    "is_gap_direct",
    "is_metal",
    "es_source_calc_id",
    "bandstructure",
    "dos",
    "dos_energy_up",
    "dos_energy_down",
    "is_magnetic",
    "ordering",
    "total_magnetization_normalized_vol",
    "total_magnetization_normalized_formula_units",
    "num_magnetic_sites",
    "num_unique_magnetic_sites",
    "types_of_magnetic_species",
    "bulk_modulus",
    "shear_modulus",
    "universal_anisotropy",
    "homogeneous_poisson",
    "e_total",
    "e_ionic",
    "e_electronic",
    "n",
    "e_ij_max",
    "weighted_surface_energy_EV_PER_ANG2",
    "weighted_surface_energy",
    "weighted_work_function",
    "surface_anisotropy",
    "shape_factor",
    "has_reconstructed",
    "possible_species",
    "has_props",
    "theoretical",
    "database_IDs"
  ]
}
