{"builder_meta": null, "nsites": null, "elements": null, "nelements": null, "composition": null, "composition_reduced": null, "formula_pretty": "KY", "formula_anonymous": "AB", "chemsys": null, "volume": 83.58129657904976, "density": 2.543103546627739, "density_atomic": 41.79064828952488, "symmetry": null, "property_name": null, "material_id": "mp-1185083", "deprecated": null, "deprecation_reasons": null, "last_updated": null, "origins": null, "warnings": null, "structure": {"@module": "pymatgen.core.structure", "@class": "Structure", "charge": 0, "lattice": {"matrix": [[3.669761, -0.000654, 1e-06], [-1.835448, 3.178063, -1e-06], [1e-06, -2e-06, 7.167266]], "pbc": [true, true, true], "a": 3.6697610582758653, "b": 3.6700073286948625, "c": 7.167266000000349, "alpha": 90.00003345496611, "beta": 89.99997639011389, "gamma": 120.01822125826456, "volume": 83.58129657904976}, "properties": {}, "sites": [{"species": [{"element": "K", "occu": 1}], "abc": [0.6666569999999991, 0.33334199999999903, 0.749999], "properties": {"magmom": 0.001}, "label": "K", "xyz": [1.8346407017599982, 1.0589443828699967, 5.375442666049]}, {"species": [{"element": "Y", "occu": 1}], "abc": [0.333343, 0.666661, 0.25], "properties": {"magmom": -0.003}, "label": "Y", "xyz": [-0.00033220810499993313, 2.1184721513209994, 1.7918161666819998]}]}, "task_ids": null, "uncorrected_energy_per_atom": null, "energy_per_atom": -12.666383462958333, "formation_energy_per_atom": 0.499548985166667, "energy_above_hull": 0.499548985166667, "is_stable": false, "equilibrium_reaction_energy_per_atom": null, "decomposes_to": null, "xas": null, "grain_boundaries": null, "band_gap": 0.0, "cbm": null, "vbm": null, "efermi": 1.657243499999999, "is_gap_direct": null, "is_metal": null, "es_source_calc_id": null, "bandstructure": null, "dos": null, "dos_energy_up": null, "dos_energy_down": null, "is_magnetic": null, "ordering": null, "total_magnetization": 0.0115529, "total_magnetization_normalized_vol": null, "total_magnetization_normalized_formula_units": null, "num_magnetic_sites": null, "num_unique_magnetic_sites": null, "types_of_magnetic_species": null, "bulk_modulus": null, "shear_modulus": null, "universal_anisotropy": null, "homogeneous_poisson": null, "e_total": null, "e_ionic": null, "e_electronic": null, "n": null, "e_ij_max": null, "weighted_surface_energy_EV_PER_ANG2": null, "weighted_surface_energy": null, "weighted_work_function": null, "surface_anisotropy": null, "shape_factor": null, "has_reconstructed": null, "possible_species": null, "has_props": null, "theoretical": null, "database_IDs": null, "fields_not_requested": ["builder_meta", "nsites", "elements", "nelements", "composition", "composition_reduced", "chemsys", "symmetry", "property_name", "deprecated", "deprecation_reasons", "last_updated", "origins", "warnings", "task_ids", "uncorrected_energy_per_atom", "equilibrium_reaction_energy_per_atom", "decomposes_to", "xas", "grain_boundaries", "cbm", "vbm", "is_gap_direct", "is_metal", "es_source_calc_id", "bandstructure", "dos", "dos_energy_up", "dos_energy_down", "is_magnetic", "ordering", "total_magnetization_normalized_vol", "total_magnetization_normalized_formula_units", "num_magnetic_sites", "num_unique_magnetic_sites", "types_of_magnetic_species", "bulk_modulus", "shear_modulus", "universal_anisotropy", "homogeneous_poisson", "e_total", "e_ionic", "e_electronic", "n", "e_ij_max", "weighted_surface_energy_EV_PER_ANG2", "weighted_surface_energy", "weighted_work_function", "surface_anisotropy", "shape_factor", "has_reconstructed", "possible_species", "has_props", "theoretical", "database_IDs"]}