{"builder_meta": null, "nsites": null, "elements": null, "nelements": null, "composition": null, "composition_reduced": null, "formula_pretty": "La2Au", "formula_anonymous": "AB2", "chemsys": null, "volume": 366.6364438820535, "density": 8.60129007678414, "density_atomic": 30.553036990171126, "symmetry": null, "property_name": null, "material_id": "mp-1103395", "deprecated": null, "deprecation_reasons": null, "last_updated": null, "origins": null, "warnings": null, "structure": {"@module": "pymatgen.core.structure", "@class": "Structure", "charge": 0, "lattice": {"matrix": [[-0.0, -5.17786487, 0.0], [-7.46244189, -0.0, 0.0], [0.0, 0.0, -9.48863973]], "pbc": [true, true, true], "a": 5.17786487, "b": 7.46244189, "c": 9.48863973, "alpha": 90.0, "beta": 90.0, "gamma": 90.0, "volume": 366.6364438820535}, "properties": {}, "sites": [{"species": [{"element": "La", "occu": 1}], "abc": [0.75, 0.64917738, 0.59280031], "properties": {"magmom": -0.0}, "label": "La", "xyz": [-4.844448474552449, -3.8833986524999995, -5.624868573422316]}, {"species": [{"element": "La", "occu": 1}], "abc": [0.75, 0.14917738, 0.90719969], "properties": {"magmom": -0.0}, "label": "La", "xyz": [-1.113227529552448, -3.8833986524999995, -8.608091021577684]}, {"species": [{"element": "La", "occu": 1}], "abc": [0.25, 0.35082262000000003, 0.40719969], "properties": {"magmom": -0.0}, "label": "La", "xyz": [-2.617993415447552, -1.2944662175, -3.8637711565776836]}, {"species": [{"element": "La", "occu": 1}], "abc": [0.25, 0.85082262, 0.09280031], "properties": {"magmom": -0.0}, "label": "La", "xyz": [-6.349214360447552, -1.2944662175, -0.8805487084223161]}, {"species": [{"element": "La", "occu": 1}], "abc": [0.75, 1.648e-05, 0.32784647], "properties": {"magmom": 0.0}, "label": "La", "xyz": [-0.0001229810423472, -3.8833986524999995, -3.1108170405822526]}, {"species": [{"element": "La", "occu": 1}], "abc": [0.75, 0.50001648, 0.17215353], "properties": {"magmom": 0.0}, "label": "La", "xyz": [-3.731343926042347, -3.8833986524999995, -1.6335028244177467]}, {"species": [{"element": "La", "occu": 1}], "abc": [0.25, 0.99998352, 0.67215353], "properties": {"magmom": 0.0}, "label": "La", "xyz": [-7.462318908957653, -1.2944662175, -6.377822689417746]}, {"species": [{"element": "La", "occu": 1}], "abc": [0.25, 0.49998352, 0.82784647], "properties": {"magmom": 0.0}, "label": "La", "xyz": [-3.731097963957653, -1.2944662175, -7.855136905582253]}, {"species": [{"element": "Au", "occu": 1}], "abc": [0.75, 0.24158727, 0.59088224], "properties": {"magmom": 0.0}, "label": "Au", "xyz": [-1.8028309637387403, -3.8833986524999995, -5.606668698215395]}, {"species": [{"element": "Au", "occu": 1}], "abc": [0.75, 0.74158727, 0.90911776], "properties": {"magmom": 0.0}, "label": "Au", "xyz": [-5.53405190873874, -3.8833986524999995, -8.626290896784605]}, {"species": [{"element": "Au", "occu": 1}], "abc": [0.25, 0.75841273, 0.40911776], "properties": {"magmom": 0.0}, "label": "Au", "xyz": [-5.6596109262612595, -1.2944662175, -3.8819710317846043]}, {"species": [{"element": "Au", "occu": 1}], "abc": [0.25, 0.25841273, 0.09088224], "properties": {"magmom": 0.0}, "label": "Au", "xyz": [-1.9283899812612595, -1.2944662175, -0.8623488332153951]}]}, "task_ids": null, "uncorrected_energy_per_atom": null, "energy_per_atom": -4.935749613333338, "formation_energy_per_atom": -0.553784210000005, "energy_above_hull": 0.0, "is_stable": true, "equilibrium_reaction_energy_per_atom": null, "decomposes_to": null, "xas": null, "grain_boundaries": null, "band_gap": 0.0, "cbm": null, "vbm": null, "efermi": 7.5576577, "is_gap_direct": null, "is_metal": null, "es_source_calc_id": null, "bandstructure": null, "dos": null, "dos_energy_up": null, "dos_energy_down": null, "is_magnetic": null, "ordering": null, "total_magnetization": 7e-07, "total_magnetization_normalized_vol": null, "total_magnetization_normalized_formula_units": null, "num_magnetic_sites": null, "num_unique_magnetic_sites": null, "types_of_magnetic_species": null, "bulk_modulus": null, "shear_modulus": null, "universal_anisotropy": null, "homogeneous_poisson": null, "e_total": null, "e_ionic": null, "e_electronic": null, "n": null, "e_ij_max": null, "weighted_surface_energy_EV_PER_ANG2": null, "weighted_surface_energy": null, "weighted_work_function": null, "surface_anisotropy": null, "shape_factor": null, "has_reconstructed": null, "possible_species": null, "has_props": null, "theoretical": null, "database_IDs": null, "fields_not_requested": ["builder_meta", "nsites", "elements", "nelements", "composition", "composition_reduced", "chemsys", "symmetry", "property_name", "deprecated", "deprecation_reasons", "last_updated", "origins", "warnings", "task_ids", "uncorrected_energy_per_atom", "equilibrium_reaction_energy_per_atom", "decomposes_to", "xas", "grain_boundaries", "cbm", "vbm", "is_gap_direct", "is_metal", "es_source_calc_id", "bandstructure", "dos", "dos_energy_up", "dos_energy_down", "is_magnetic", "ordering", "total_magnetization_normalized_vol", "total_magnetization_normalized_formula_units", "num_magnetic_sites", "num_unique_magnetic_sites", "types_of_magnetic_species", "bulk_modulus", "shear_modulus", "universal_anisotropy", "homogeneous_poisson", "e_total", "e_ionic", "e_electronic", "n", "e_ij_max", "weighted_surface_energy_EV_PER_ANG2", "weighted_surface_energy", "weighted_work_function", "surface_anisotropy", "shape_factor", "has_reconstructed", "possible_species", "has_props", "theoretical", "database_IDs"]}