{
  "builder_meta": null,
  "nsites": null,
  "elements": null,
  "nelements": null,
  "composition": null,
  "composition_reduced": null,
  "formula_pretty": "La2Br5",
  "formula_anonymous": "A2B5",
  "chemsys": null,
  "volume": 462.7131798875725,
  "density": 4.861475902459413,
  "density_atomic": 33.050941420540894,
  "symmetry": null,
  "property_name": null,
  "material_id": "mp-28571",
  "deprecated": null,
  "deprecation_reasons": null,
  "last_updated": null,
  "origins": null,
  "warnings": null,
  "structure": {
    "@module": "pymatgen.core.structure",
    "@class": "Structure",
    "charge": 0,
    "lattice": {
      "matrix": [
        [4.29180382, 0.0, 0.0],
        [0.0, 7.91674542, -0.17580503],
        [0.0, 0.07339739, 13.61674633]
      ],
      "pbc": [true, true, true],
      "a": 4.29180382,
      "b": 7.918697206843072,
      "c": 13.6169441429576,
      "alpha": 90.96330841386522,
      "beta": 90.0,
      "gamma": 90.0,
      "volume": 462.7131798875725
    },
    "properties": {},
    "sites": [
      {
        "species": [{ "element": "La", "occu": 1 }],
        "abc": [0.25, 0.93073786, 0.16239221],
        "properties": { "magmom": 0.194 },
        "label": "La",
        "xyz": [1.072950955, 7.380333854745934, 2.047625132138654]
      },
      {
        "species": [{ "element": "La", "occu": 1 }],
        "abc": [0.75, 0.06926214, 0.83760779],
        "properties": { "magmom": 0.194 },
        "label": "La",
        "xyz": [3.218852865, 0.6098089552540669, 11.393316167861347]
      },
      {
        "species": [{ "element": "La", "occu": 1 }],
        "abc": [0.25, 0.42588347, 0.65930664],
        "properties": { "magmom": 0.233 },
        "label": "La",
        "xyz": [1.072950955, 3.420002397161877, 8.902738814344778]
      },
      {
        "species": [{ "element": "La", "occu": 1 }],
        "abc": [0.75, 0.57411653, 0.34069336],
        "properties": { "magmom": 0.233 },
        "label": "La",
        "xyz": [3.218852865, 4.570140412838122, 4.538202485655223]
      },
      {
        "species": [{ "element": "Br", "occu": 1 }],
        "abc": [0.25, 0.3302005, 0.270324399999999],
        "properties": { "magmom": 0.005 },
        "label": "Br",
        "xyz": [1.072950955, 2.633954401470026, 3.622887872800924]
      },
      {
        "species": [{ "element": "Br", "occu": 1 }],
        "abc": [0.75, 0.6697995, 0.7296756],
        "properties": { "magmom": 0.005 },
        "label": "Br",
        "xyz": [3.218852865, 5.356188408529974, 9.818053427199063]
      },
      {
        "species": [{ "element": "Br", "occu": 1 }],
        "abc": [0.25, 0.8504473300000001, 0.93179528],
        "properties": { "magmom": 0.002 },
        "label": "Br",
        "xyz": [1.072950955, 6.801166346295048, 12.538507040887252]
      },
      {
        "species": [{ "element": "Br", "occu": 1 }],
        "abc": [0.75, 0.14955267, 0.06820472],
        "properties": { "magmom": 0.002 },
        "label": "Br",
        "xyz": [3.218852865, 1.1889764637049522, 0.9024342591127474]
      },
      {
        "species": [{ "element": "Br", "occu": 1 }],
        "abc": [0.75, 0.30990943, 0.51218682],
        "properties": { "magmom": 0.006 },
        "label": "Br",
        "xyz": [3.218852865, 2.49106723634771, 6.919834364870938]
      },
      {
        "species": [{ "element": "Br", "occu": 1 }],
        "abc": [0.25, 0.6900905700000001, 0.48781318],
        "properties": { "magmom": 0.006 },
        "label": "Br",
        "xyz": [1.072950955, 5.49907557365229, 6.521106935129062]
      },
      {
        "species": [{ "element": "Br", "occu": 1 }],
        "abc": [0.75, 0.9561026300000001, 0.32284143],
        "properties": { "magmom": 0.004 },
        "label": "Br",
        "xyz": [3.218852865, 7.592916835448323, 4.227962205574223]
      },
      {
        "species": [{ "element": "Br", "occu": 1 }],
        "abc": [0.25, 0.04389737, 0.67715857],
        "properties": { "magmom": 0.004 },
        "label": "Br",
        "xyz": [1.072950955, 0.3972259745516777, 9.212979094425778]
      },
      {
        "species": [{ "element": "Br", "occu": 1 }],
        "abc": [0.75, 0.65758354, 0.12200743],
        "properties": { "magmom": 0.004 },
        "label": "Br",
        "xyz": [3.218852865, 5.214876505484994, 1.5457377307080258]
      },
      {
        "species": [{ "element": "Br", "occu": 1 }],
        "abc": [0.25, 0.34241646000000003, 0.87799257],
        "properties": { "magmom": 0.004 },
        "label": "Br",
        "xyz": [1.072950955, 2.7752663045150054, 11.895203569291974]
      }
    ]
  },
  "task_ids": null,
  "uncorrected_energy_per_atom": null,
  "energy_per_atom": -4.910522248571427,
  "formation_energy_per_atom": -2.330986979285713,
  "energy_above_hull": 0.0,
  "is_stable": true,
  "equilibrium_reaction_energy_per_atom": null,
  "decomposes_to": null,
  "xas": null,
  "grain_boundaries": null,
  "band_gap": 0.0,
  "cbm": null,
  "vbm": null,
  "efermi": 4.5681347500000005,
  "is_gap_direct": null,
  "is_metal": null,
  "es_source_calc_id": null,
  "bandstructure": null,
  "dos": null,
  "dos_energy_up": null,
  "dos_energy_down": null,
  "is_magnetic": null,
  "ordering": null,
  "total_magnetization": 2.0,
  "total_magnetization_normalized_vol": null,
  "total_magnetization_normalized_formula_units": null,
  "num_magnetic_sites": null,
  "num_unique_magnetic_sites": null,
  "types_of_magnetic_species": null,
  "bulk_modulus": null,
  "shear_modulus": null,
  "universal_anisotropy": null,
  "homogeneous_poisson": null,
  "e_total": null,
  "e_ionic": null,
  "e_electronic": null,
  "n": null,
  "e_ij_max": null,
  "weighted_surface_energy_EV_PER_ANG2": null,
  "weighted_surface_energy": null,
  "weighted_work_function": null,
  "surface_anisotropy": null,
  "shape_factor": null,
  "has_reconstructed": null,
  "possible_species": null,
  "has_props": null,
  "theoretical": null,
  "database_IDs": null,
  "fields_not_requested": [
    "builder_meta",
    "nsites",
    "elements",
    "nelements",
    "composition",
    "composition_reduced",
    "chemsys",
    "symmetry",
    "property_name",
    "deprecated",
    "deprecation_reasons",
    "last_updated",
    "origins",
    "warnings",
    "task_ids",
    "uncorrected_energy_per_atom",
    "equilibrium_reaction_energy_per_atom",
    "decomposes_to",
    "xas",
    "grain_boundaries",
    "cbm",
    "vbm",
    "is_gap_direct",
    "is_metal",
    "es_source_calc_id",
    "bandstructure",
    "dos",
    "dos_energy_up",
    "dos_energy_down",
    "is_magnetic",
    "ordering",
    "total_magnetization_normalized_vol",
    "total_magnetization_normalized_formula_units",
    "num_magnetic_sites",
    "num_unique_magnetic_sites",
    "types_of_magnetic_species",
    "bulk_modulus",
    "shear_modulus",
    "universal_anisotropy",
    "homogeneous_poisson",
    "e_total",
    "e_ionic",
    "e_electronic",
    "n",
    "e_ij_max",
    "weighted_surface_energy_EV_PER_ANG2",
    "weighted_surface_energy",
    "weighted_work_function",
    "surface_anisotropy",
    "shape_factor",
    "has_reconstructed",
    "possible_species",
    "has_props",
    "theoretical",
    "database_IDs"
  ]
}
