{"builder_meta": null, "nsites": null, "elements": null, "nelements": null, "composition": null, "composition_reduced": null, "formula_pretty": "La2Co3", "formula_anonymous": "A2B3", "chemsys": null, "volume": 201.1490456219476, "density": 7.505862476413042, "density_atomic": 20.11490456219476, "symmetry": null, "property_name": null, "material_id": "mp-569054", "deprecated": null, "deprecation_reasons": null, "last_updated": null, "origins": null, "warnings": null, "structure": {"@module": "pymatgen.core.structure", "@class": "Structure", "charge": 0, "lattice": {"matrix": [[4.77934409, -0.00396749, -0.0048487800000000005], [-2.39464369, 5.25760289, 0.002696499999999], [0.00819115, 0.00010129, 8.00802983]], "pbc": [true, true, true], "a": 4.779348196382256, "b": 5.777258330913153, "c": 8.008034019868285, "alpha": 89.99688989427243, "beta": 89.99952282798006, "gamma": 114.53508678724577, "volume": 201.1490456219476}, "properties": {}, "sites": [{"species": [{"element": "La", "occu": 1}], "abc": [0.15539791, 0.31114823, 0.58652367], "properties": {"magmom": -0.244}, "label": "La", "xyz": [0.002415240492203618, 1.6353367025949732, 4.696984566285222]}, {"species": [{"element": "La", "occu": 1}], "abc": [0.84464502, 0.6888550800000001, 0.41346924], "properties": {"magmom": -0.244}, "label": "La", "xyz": [2.390673502403713, 3.6184172190281014, 3.308836007550573]}, {"species": [{"element": "La", "occu": 1}], "abc": [0.65533788, 0.31111763000000003, 0.9134259], "properties": {"magmom": -0.244}, "label": "La", "xyz": [2.3945513627646595, 1.6332254250418408, 7.3124031941781045]}, {"species": [{"element": "La", "occu": 1}], "abc": [0.34461698, 0.68885007, 0.08657945], "properties": {"magmom": -0.244}, "label": "La", "xyz": [-0.0017981615430424378, 3.620341624019213, 0.6935173305584634]}, {"species": [{"element": "Co", "occu": 1}], "abc": [0.68678023, 0.87390636, 0.75001737], "properties": {"magmom": 1.488999999999999}, "label": "Co", "xyz": [1.1958081875347482, 4.592003779490065, 6.005187914234266]}, {"species": [{"element": "Co", "occu": 1}], "abc": [0.31324165, 0.12610789, 0.24999094], "properties": {"magmom": 1.488999999999999}, "label": "Co", "xyz": [1.1971538789098155, 0.6618077453841562, 2.000756114827438]}, {"species": [{"element": "Co", "occu": 1}], "abc": [0.18683421, 0.87389655, 0.749945899999999], "properties": {"magmom": 1.488999999999999}, "label": "Co", "xyz": [-1.1935829624381655, 4.5939357260014075, 6.0070396821525]}, {"species": [{"element": "Co", "occu": 1}], "abc": [0.81316922, 0.12613394, 0.25005498], "properties": {"magmom": 1.488999999999999}, "label": "Co", "xyz": [3.5864179001104985, 0.6599612547913529, 1.9988449804987116]}, {"species": [{"element": "Co", "occu": 1}], "abc": [5.457e-05, -1.665e-05, 3.2090000000000006e-05], "properties": {"magmom": 1.469}, "label": "Co", "xyz": [0.0003009424784333, -8.77523436517e-05, 0.00025666818259510005]}, {"species": [{"element": "Co", "occu": 1}], "abc": [0.49992534, 9e-07, 0.49995846], "properties": {"magmom": 1.468}, "label": "Co", "xyz": [2.393408298730549, -0.0019280761521821997, 4.001258235877626]}]}, "task_ids": null, "uncorrected_energy_per_atom": null, "energy_per_atom": -19.852933299, "formation_energy_per_atom": -0.014482538999999002, "energy_above_hull": 0.011483044723682001, "is_stable": false, "equilibrium_reaction_energy_per_atom": null, "decomposes_to": null, "xas": null, "grain_boundaries": null, "band_gap": 0.0, "cbm": null, "vbm": null, "efermi": 7.9397067, "is_gap_direct": null, "is_metal": null, "es_source_calc_id": null, "bandstructure": null, "dos": null, "dos_energy_up": null, "dos_energy_down": null, "is_magnetic": null, "ordering": null, "total_magnetization": 6.5565345, "total_magnetization_normalized_vol": null, "total_magnetization_normalized_formula_units": null, "num_magnetic_sites": null, "num_unique_magnetic_sites": null, "types_of_magnetic_species": null, "bulk_modulus": null, "shear_modulus": null, "universal_anisotropy": null, "homogeneous_poisson": null, "e_total": null, "e_ionic": null, "e_electronic": null, "n": null, "e_ij_max": null, "weighted_surface_energy_EV_PER_ANG2": null, "weighted_surface_energy": null, "weighted_work_function": null, "surface_anisotropy": null, "shape_factor": null, "has_reconstructed": null, "possible_species": null, "has_props": null, "theoretical": null, "database_IDs": null, "fields_not_requested": ["builder_meta", "nsites", "elements", "nelements", "composition", "composition_reduced", "chemsys", "symmetry", "property_name", "deprecated", "deprecation_reasons", "last_updated", "origins", "warnings", "task_ids", "uncorrected_energy_per_atom", "equilibrium_reaction_energy_per_atom", "decomposes_to", "xas", "grain_boundaries", "cbm", "vbm", "is_gap_direct", "is_metal", "es_source_calc_id", "bandstructure", "dos", "dos_energy_up", "dos_energy_down", "is_magnetic", "ordering", "total_magnetization_normalized_vol", "total_magnetization_normalized_formula_units", "num_magnetic_sites", "num_unique_magnetic_sites", "types_of_magnetic_species", "bulk_modulus", "shear_modulus", "universal_anisotropy", "homogeneous_poisson", "e_total", "e_ionic", "e_electronic", "n", "e_ij_max", "weighted_surface_energy_EV_PER_ANG2", "weighted_surface_energy", "weighted_work_function", "surface_anisotropy", "shape_factor", "has_reconstructed", "possible_species", "has_props", "theoretical", "database_IDs"]}