{"builder_meta": null, "nsites": null, "elements": null, "nelements": null, "composition": null, "composition_reduced": null, "formula_pretty": "La2C3", "formula_anonymous": "A2B3", "chemsys": null, "volume": 343.80538860036717, "density": 6.063297970076667, "density_atomic": 17.190269430018358, "symmetry": null, "property_name": null, "material_id": "mp-1184", "deprecated": null, "deprecation_reasons": null, "last_updated": null, "origins": null, "warnings": null, "structure": {"@module": "pymatgen.core.structure", "@class": "Structure", "charge": 0, "lattice": {"matrix": [[7.20667977, -3.0000000000000004e-08, -2.54794649], [-3.60334194, 6.24116835, -2.54794649], [0.0, 0.0, 7.6438394800000005]], "pbc": [true, true, true], "a": 7.643838343609222, "b": 7.643839795908074, "c": 7.6438394800000005, "alpha": 109.47121977079414, "beta": 109.47122361956562, "gamma": 109.47122939901179, "volume": 343.80538860036717}, "properties": {}, "sites": [{"species": [{"element": "La", "occu": 1}], "abc": [0.60438051, 0.60438051, 0.60438051], "properties": {"magmom": -0.0}, "label": "La", "xyz": [2.1777871553976937, 3.772040492237443, 1.5399292051227151]}, {"species": [{"element": "La", "occu": 1}], "abc": [0.39561949, 0.5, 1.0], "properties": {"magmom": -0.0}, "label": "La", "xyz": [1.0494320052007176, 3.120584163131415, 5.36184894407891]}, {"species": [{"element": "La", "occu": 1}], "abc": [0.5, 0.0, 0.39561949], "properties": {"magmom": -0.0}, "label": "La", "xyz": [3.603339885, -1.5000000000000002e-08, 1.7500786317194654]}, {"species": [{"element": "La", "occu": 1}], "abc": [1.0, 0.39561949, 0.5], "properties": {"magmom": -0.0}, "label": "La", "xyz": [5.781127469401589, 2.4691278096311415, 0.26595595907890957]}, {"species": [{"element": "La", "occu": 1}], "abc": [0.5, 0.0, 0.8956194900000001], "properties": {"magmom": -0.0}, "label": "La", "xyz": [3.603339885, -1.5000000000000002e-08, 5.5719983717194665]}, {"species": [{"element": "La", "occu": 1}], "abc": [1.0, 0.8956194900000001, 0.5], "properties": {"magmom": -0.0}, "label": "La", "xyz": [3.9794564994015893, 5.589711984631142, -1.00801728592109]}, {"species": [{"element": "La", "occu": 1}], "abc": [0.8956194900000001, 0.5, 1.0], "properties": {"magmom": -0.0}, "label": "La", "xyz": [4.652771890200718, 3.120584148131415, 4.08787569907891]}, {"species": [{"element": "La", "occu": 1}], "abc": [0.10438051, 0.10438051, 0.10438051], "properties": {"magmom": -0.0}, "label": "La", "xyz": [0.3761182403976933, 0.6514563322374431, 0.26595595512271497]}, {"species": [{"element": "C", "occu": 1}], "abc": [0.75, 0.80013095, 0.05013095], "properties": {"magmom": 0.0}, "label": "C", "xyz": [2.521864417872957, 4.993751938495432, -3.5664577783129596]}, {"species": [{"element": "C", "occu": 1}], "abc": [0.75, 0.94986905, 0.19986905], "properties": {"magmom": 0.0}, "label": "C", "xyz": [1.9823068421270427, 5.928292629004567, -2.803408444187041]}, {"species": [{"element": "C", "occu": 1}], "abc": [0.30013095, 0.25, 0.55013095], "properties": {"magmom": 0.0}, "label": "C", "xyz": [1.2621121607158816, 1.5602920784960714, 2.803408451687041]}, {"species": [{"element": "C", "occu": 1}], "abc": [0.55013095, 0.30013095, 0.25], "properties": {"magmom": 0.0}, "label": "C", "xyz": [2.8831431485888386, 1.873167769491504, -0.25546195368573077]}, {"species": [{"element": "C", "occu": 1}], "abc": [0.19986905, 0.75, 0.94986905], "properties": {"magmom": 0.0}, "label": "C", "xyz": [-1.2621142157158816, 4.680876256503929, 4.84043103331296]}, {"species": [{"element": "C", "occu": 1}], "abc": [0.94986905, 0.19986905, 0.75], "properties": {"magmom": 0.0}, "label": "C", "xyz": [6.125205536411162, 1.2474163605084958, 2.803408453685731]}, {"species": [{"element": "C", "occu": 1}], "abc": [0.25, 0.69986905, 0.44986905], "properties": {"magmom": 0.0}, "label": "C", "xyz": [-0.7201975578729571, 4.368000556504567, 1.0185112933129594]}, {"species": [{"element": "C", "occu": 1}], "abc": [0.69986905, 0.44986905, 0.25], "properties": {"magmom": 0.0}, "label": "C", "xyz": [3.4227001089111617, 2.8077084555084957, -1.0185112863142693]}, {"species": [{"element": "C", "occu": 1}], "abc": [0.25, 0.55013095, 0.30013095], "properties": {"magmom": 0.0}, "label": "C", "xyz": [-0.18063998212704302, 3.4334598659954323, 0.2554619591870404]}, {"species": [{"element": "C", "occu": 1}], "abc": [0.44986905, 0.25, 0.69986905], "properties": {"magmom": 0.0}, "label": "C", "xyz": [2.3412266967841187, 1.5602920740039283, 3.5664577858129594]}, {"species": [{"element": "C", "occu": 1}], "abc": [0.05013095, 0.75, 0.80013095], "properties": {"magmom": 0.0}, "label": "C", "xyz": [-2.3412287517841186, 4.6808762609960715, 4.077381699187041]}, {"species": [{"element": "C", "occu": 1}], "abc": [0.80013095, 0.05013095, 0.75], "properties": {"magmom": 0.0}, "label": "C", "xyz": [5.585648576088838, 0.312875674491504, 3.566457786314269]}]}, "task_ids": null, "uncorrected_energy_per_atom": null, "energy_per_atom": -7.677252511999998, "formation_energy_per_atom": -0.165650374499999, "energy_above_hull": 0.0, "is_stable": true, "equilibrium_reaction_energy_per_atom": null, "decomposes_to": null, "xas": null, "grain_boundaries": null, "band_gap": 0.0, "cbm": null, "vbm": null, "efermi": 8.63082749, "is_gap_direct": null, "is_metal": null, "es_source_calc_id": null, "bandstructure": null, "dos": null, "dos_energy_up": null, "dos_energy_down": null, "is_magnetic": null, "ordering": null, "total_magnetization": 7.02e-05, "total_magnetization_normalized_vol": null, "total_magnetization_normalized_formula_units": null, "num_magnetic_sites": null, "num_unique_magnetic_sites": null, "types_of_magnetic_species": null, "bulk_modulus": null, "shear_modulus": null, "universal_anisotropy": null, "homogeneous_poisson": null, "e_total": null, "e_ionic": null, "e_electronic": null, "n": null, "e_ij_max": null, "weighted_surface_energy_EV_PER_ANG2": null, "weighted_surface_energy": null, "weighted_work_function": null, "surface_anisotropy": null, "shape_factor": null, "has_reconstructed": null, "possible_species": null, "has_props": null, "theoretical": null, "database_IDs": null, "fields_not_requested": ["builder_meta", "nsites", "elements", "nelements", "composition", "composition_reduced", "chemsys", "symmetry", "property_name", "deprecated", "deprecation_reasons", "last_updated", "origins", "warnings", "task_ids", "uncorrected_energy_per_atom", "equilibrium_reaction_energy_per_atom", "decomposes_to", "xas", "grain_boundaries", "cbm", "vbm", "is_gap_direct", "is_metal", "es_source_calc_id", "bandstructure", "dos", "dos_energy_up", "dos_energy_down", "is_magnetic", "ordering", "total_magnetization_normalized_vol", "total_magnetization_normalized_formula_units", "num_magnetic_sites", "num_unique_magnetic_sites", "types_of_magnetic_species", "bulk_modulus", "shear_modulus", "universal_anisotropy", "homogeneous_poisson", "e_total", "e_ionic", "e_electronic", "n", "e_ij_max", "weighted_surface_energy_EV_PER_ANG2", "weighted_surface_energy", "weighted_work_function", "surface_anisotropy", "shape_factor", "has_reconstructed", "possible_species", "has_props", "theoretical", "database_IDs"]}