{
  "builder_meta": null,
  "nsites": null,
  "elements": null,
  "nelements": null,
  "composition": null,
  "composition_reduced": null,
  "formula_pretty": "La2Co7",
  "formula_anonymous": "A2B7",
  "chemsys": null,
  "volume": 271.3637616513849,
  "density": 8.44874805937382,
  "density_atomic": 15.07576453618805,
  "symmetry": null,
  "property_name": null,
  "material_id": "mp-1189382",
  "deprecated": null,
  "deprecation_reasons": null,
  "last_updated": null,
  "origins": null,
  "warnings": null,
  "structure": {
    "@module": "pymatgen.core.structure",
    "@class": "Structure",
    "charge": 0,
    "lattice": {
      "matrix": [
        [-2.515707, -4.357331999999999, 0.0],
        [-5.031414, 0.0, 0.0],
        [-2.515707, -1.452443999999999, -12.377734]
      ],
      "pbc": [true, true, true],
      "a": 5.0314137047228575,
      "b": 5.031414,
      "c": 12.714034538955014,
      "alpha": 78.58765742138188,
      "beta": 78.58765764763287,
      "gamma": 59.99999805865907,
      "volume": 271.3637616513847
    },
    "properties": {},
    "sites": [
      {
        "species": [{ "element": "La", "occu": 1 }],
        "abc": [0.948322, 0.948322, 0.155035],
        "properties": { "magmom": -0.213 },
        "label": "La",
        "xyz": [-7.547123515706999, -4.357333452443998, -1.91898199069]
      },
      {
        "species": [{ "element": "La", "occu": 1 }],
        "abc": [0.051677999999999, 0.051677999999999, 0.844965],
        "properties": { "magmom": -0.213 },
        "label": "La",
        "xyz": [-2.5157044842929923, -1.4524425475559948, -10.45875200931]
      },
      {
        "species": [{ "element": "La", "occu": 1 }],
        "abc": [0.851556, 0.851556, 0.445331],
        "properties": { "magmom": -0.255 },
        "label": "La",
        "xyz": [-7.547118484292999, -4.357330547555998, -5.512188659954]
      },
      {
        "species": [{ "element": "La", "occu": 1 }],
        "abc": [0.148444, 0.148444, 0.554669],
        "properties": { "magmom": -0.255 },
        "label": "La",
        "xyz": [-2.515709515707, -1.4524454524439991, -6.865545340045999]
      },
      {
        "species": [{ "element": "Co", "occu": 1 }],
        "abc": [0.5, 0.5, 0.5],
        "properties": { "magmom": 0.97 },
        "label": "Co",
        "xyz": [-5.031414, -2.904887999999999, -6.188867]
      },
      {
        "species": [{ "element": "Co", "occu": 1 }],
        "abc": [0.721627999999999, 0.721627999999999, 0.835116],
        "properties": { "magmom": 1.429 },
        "label": "Co",
        "xyz": [-7.547120999999992, -4.357331999999994, -10.336843707144]
      },
      {
        "species": [{ "element": "Co", "occu": 1 }],
        "abc": [0.278372, 0.278372, 0.164884],
        "properties": { "magmom": 1.429 },
        "label": "Co",
        "xyz": [-2.515707, -1.4524439999999994, -2.040890292856]
      },
      {
        "species": [{ "element": "Co", "occu": 1 }],
        "abc": [0.612664, 0.612664, 0.162006999999999],
        "properties": { "magmom": 1.488 },
        "label": "Co",
        "xyz": [-5.031411484292997, -2.9048865475559973, -2.005279552137988]
      },
      {
        "species": [{ "element": "Co", "occu": 1 }],
        "abc": [0.387335999999999, 0.387335999999999, 0.837993],
        "properties": { "magmom": 1.488 },
        "label": "Co",
        "xyz": [-5.031416515706993, -2.904889452443994, -10.372454447862]
      },
      {
        "species": [{ "element": "Co", "occu": 1 }],
        "abc": [0.0, 0.5, 0.0],
        "properties": { "magmom": 1.435 },
        "label": "Co",
        "xyz": [-2.515707, 0.0, 0.0]
      },
      {
        "species": [{ "element": "Co", "occu": 1 }],
        "abc": [0.5, 0.0, 0.0],
        "properties": { "magmom": 1.435 },
        "label": "Co",
        "xyz": [-1.2578535, -2.1786659999999993, 0.0]
      },
      {
        "species": [{ "element": "Co", "occu": 1 }],
        "abc": [0.5, 0.5, 0.0],
        "properties": { "magmom": 1.435 },
        "label": "Co",
        "xyz": [-3.7735605, -2.1786659999999993, 0.0]
      },
      {
        "species": [{ "element": "Co", "occu": 1 }],
        "abc": [0.394072, 0.394072, 0.321976],
        "properties": { "magmom": 1.212 },
        "label": "Co",
        "xyz": [-3.784106343744, -2.184754645247999, -3.985333282384]
      },
      {
        "species": [{ "element": "Co", "occu": 1 }],
        "abc": [0.8898800000000001, 0.394072, 0.321976],
        "properties": { "magmom": 1.212 },
        "label": "Co",
        "xyz": [-5.031414, -4.345154709503999, -3.985333282384]
      },
      {
        "species": [{ "element": "Co", "occu": 1 }],
        "abc": [0.394072, 0.8898800000000001, 0.321976],
        "properties": { "magmom": 1.212 },
        "label": "Co",
        "xyz": [-6.278721656256001, -2.184754645247999, -3.985333282384]
      },
      {
        "species": [{ "element": "Co", "occu": 1 }],
        "abc": [0.605928, 0.605928, 0.678024],
        "properties": { "magmom": 1.212 },
        "label": "Co",
        "xyz": [-6.278721656256, -3.6250213547519983, -8.392400717615999]
      },
      {
        "species": [{ "element": "Co", "occu": 1 }],
        "abc": [0.11012000000000001, 0.605928, 0.678024],
        "properties": { "magmom": 1.212 },
        "label": "Co",
        "xyz": [-5.031414, -1.4646212904959992, -8.392400717615999]
      },
      {
        "species": [{ "element": "Co", "occu": 1 }],
        "abc": [0.605928, 0.11012000000000001, 0.678024],
        "properties": { "magmom": 1.212 },
        "label": "Co",
        "xyz": [-3.784106343744, -3.6250213547519983, -8.392400717615999]
      }
    ]
  },
  "task_ids": null,
  "uncorrected_energy_per_atom": null,
  "energy_per_atom": -16.895370713303137,
  "formation_energy_per_atom": 0.007871322252416001,
  "energy_above_hull": 0.029885577391304003,
  "is_stable": false,
  "equilibrium_reaction_energy_per_atom": null,
  "decomposes_to": null,
  "xas": null,
  "grain_boundaries": null,
  "band_gap": 0.0,
  "cbm": null,
  "vbm": null,
  "efermi": 7.2332422,
  "is_gap_direct": null,
  "is_metal": null,
  "es_source_calc_id": null,
  "bandstructure": null,
  "dos": null,
  "dos_energy_up": null,
  "dos_energy_down": null,
  "is_magnetic": null,
  "ordering": null,
  "total_magnetization": 16.2794039,
  "total_magnetization_normalized_vol": null,
  "total_magnetization_normalized_formula_units": null,
  "num_magnetic_sites": null,
  "num_unique_magnetic_sites": null,
  "types_of_magnetic_species": null,
  "bulk_modulus": null,
  "shear_modulus": null,
  "universal_anisotropy": null,
  "homogeneous_poisson": null,
  "e_total": null,
  "e_ionic": null,
  "e_electronic": null,
  "n": null,
  "e_ij_max": null,
  "weighted_surface_energy_EV_PER_ANG2": null,
  "weighted_surface_energy": null,
  "weighted_work_function": null,
  "surface_anisotropy": null,
  "shape_factor": null,
  "has_reconstructed": null,
  "possible_species": null,
  "has_props": null,
  "theoretical": null,
  "database_IDs": null,
  "fields_not_requested": [
    "builder_meta",
    "nsites",
    "elements",
    "nelements",
    "composition",
    "composition_reduced",
    "chemsys",
    "symmetry",
    "property_name",
    "deprecated",
    "deprecation_reasons",
    "last_updated",
    "origins",
    "warnings",
    "task_ids",
    "uncorrected_energy_per_atom",
    "equilibrium_reaction_energy_per_atom",
    "decomposes_to",
    "xas",
    "grain_boundaries",
    "cbm",
    "vbm",
    "is_gap_direct",
    "is_metal",
    "es_source_calc_id",
    "bandstructure",
    "dos",
    "dos_energy_up",
    "dos_energy_down",
    "is_magnetic",
    "ordering",
    "total_magnetization_normalized_vol",
    "total_magnetization_normalized_formula_units",
    "num_magnetic_sites",
    "num_unique_magnetic_sites",
    "types_of_magnetic_species",
    "bulk_modulus",
    "shear_modulus",
    "universal_anisotropy",
    "homogeneous_poisson",
    "e_total",
    "e_ionic",
    "e_electronic",
    "n",
    "e_ij_max",
    "weighted_surface_energy_EV_PER_ANG2",
    "weighted_surface_energy",
    "weighted_work_function",
    "surface_anisotropy",
    "shape_factor",
    "has_reconstructed",
    "possible_species",
    "has_props",
    "theoretical",
    "database_IDs"
  ]
}
