{
  "builder_meta": null,
  "nsites": null,
  "elements": null,
  "nelements": null,
  "composition": null,
  "composition_reduced": null,
  "formula_pretty": "La2Ge3",
  "formula_anonymous": "A2B3",
  "chemsys": null,
  "volume": 132.0966896155183,
  "density": 6.231651942136451,
  "density_atomic": 26.41933792310366,
  "symmetry": null,
  "property_name": null,
  "material_id": "mp-1223265",
  "deprecated": null,
  "deprecation_reasons": null,
  "last_updated": null,
  "origins": null,
  "warnings": null,
  "structure": {
    "@module": "pymatgen.core.structure",
    "@class": "Structure",
    "charge": 0,
    "lattice": {
      "matrix": [
        [4.170893, 0.0, 0.0],
        [0.0, 4.313543, 0.0],
        [2.085447, 2.156772, 7.342243]
      ],
      "pbc": [true, true, true],
      "a": 4.170893,
      "b": 4.313543,
      "c": 7.931537487829329,
      "alpha": 74.22123732933748,
      "beta": 74.7559519700872,
      "gamma": 90.0,
      "volume": 132.0966896155183
    },
    "properties": {},
    "sites": [
      {
        "species": [{ "element": "La", "occu": 1 }],
        "abc": [0.750348999999999, 0.250349, 0.499301999999999],
        "properties": { "magmom": -0.0 },
        "label": "La",
        "xyz": [4.1708932496509945, 2.156771749650998, 3.6659966143859926]
      },
      {
        "species": [{ "element": "La", "occu": 1 }],
        "abc": [0.000312999999999, 0.000312999999999, 0.999373],
        "properties": { "magmom": -0.0 },
        "label": "La",
        "xyz": [2.0854449142399956, 2.1567698429149957, 7.337639413639]
      },
      {
        "species": [{ "element": "Ge", "occu": 1 }],
        "abc": [0.408385999999999, 0.408385999999999, 0.183228],
        "properties": { "magmom": -0.0 },
        "label": "Ge",
        "xyz": [2.085446591613996, 2.156771591613996, 1.345304500404]
      },
      {
        "species": [{ "element": "Ge", "occu": 1 }],
        "abc": [0.178442, 0.678442, 0.643116],
        "properties": { "magmom": -0.0 },
        "label": "Ge",
        "xyz": [2.085446821558, 4.313543321558, 4.721913949188]
      },
      {
        "species": [{ "element": "Ge", "occu": 1 }],
        "abc": [0.577508999999999, 0.577508999999999, 0.844982],
        "properties": { "magmom": -0.0 },
        "label": "Ge",
        "xyz": [4.170893422490996, 4.313543422490996, 6.2040631746259995]
      }
    ]
  },
  "task_ids": null,
  "uncorrected_energy_per_atom": null,
  "energy_per_atom": -21.039953473249998,
  "formation_energy_per_atom": -0.818854843249997,
  "energy_above_hull": 0.06016193674999901,
  "is_stable": false,
  "equilibrium_reaction_energy_per_atom": null,
  "decomposes_to": null,
  "xas": null,
  "grain_boundaries": null,
  "band_gap": 0.0,
  "cbm": null,
  "vbm": null,
  "efermi": 5.90496527,
  "is_gap_direct": null,
  "is_metal": null,
  "es_source_calc_id": null,
  "bandstructure": null,
  "dos": null,
  "dos_energy_up": null,
  "dos_energy_down": null,
  "is_magnetic": null,
  "ordering": null,
  "total_magnetization": 0.0001137,
  "total_magnetization_normalized_vol": null,
  "total_magnetization_normalized_formula_units": null,
  "num_magnetic_sites": null,
  "num_unique_magnetic_sites": null,
  "types_of_magnetic_species": null,
  "bulk_modulus": null,
  "shear_modulus": null,
  "universal_anisotropy": null,
  "homogeneous_poisson": null,
  "e_total": null,
  "e_ionic": null,
  "e_electronic": null,
  "n": null,
  "e_ij_max": null,
  "weighted_surface_energy_EV_PER_ANG2": null,
  "weighted_surface_energy": null,
  "weighted_work_function": null,
  "surface_anisotropy": null,
  "shape_factor": null,
  "has_reconstructed": null,
  "possible_species": null,
  "has_props": null,
  "theoretical": null,
  "database_IDs": null,
  "fields_not_requested": [
    "builder_meta",
    "nsites",
    "elements",
    "nelements",
    "composition",
    "composition_reduced",
    "chemsys",
    "symmetry",
    "property_name",
    "deprecated",
    "deprecation_reasons",
    "last_updated",
    "origins",
    "warnings",
    "task_ids",
    "uncorrected_energy_per_atom",
    "equilibrium_reaction_energy_per_atom",
    "decomposes_to",
    "xas",
    "grain_boundaries",
    "cbm",
    "vbm",
    "is_gap_direct",
    "is_metal",
    "es_source_calc_id",
    "bandstructure",
    "dos",
    "dos_energy_up",
    "dos_energy_down",
    "is_magnetic",
    "ordering",
    "total_magnetization_normalized_vol",
    "total_magnetization_normalized_formula_units",
    "num_magnetic_sites",
    "num_unique_magnetic_sites",
    "types_of_magnetic_species",
    "bulk_modulus",
    "shear_modulus",
    "universal_anisotropy",
    "homogeneous_poisson",
    "e_total",
    "e_ionic",
    "e_electronic",
    "n",
    "e_ij_max",
    "weighted_surface_energy_EV_PER_ANG2",
    "weighted_surface_energy",
    "weighted_work_function",
    "surface_anisotropy",
    "shape_factor",
    "has_reconstructed",
    "possible_species",
    "has_props",
    "theoretical",
    "database_IDs"
  ]
}
