{"builder_meta": null, "nsites": null, "elements": null, "nelements": null, "composition": null, "composition_reduced": null, "formula_pretty": "La2H5", "formula_anonymous": "A2B5", "chemsys": null, "volume": 176.67041528904898, "density": 5.31707062514531, "density_atomic": 12.619315377789212, "symmetry": null, "property_name": null, "material_id": "mp-1104116", "deprecated": null, "deprecation_reasons": null, "last_updated": null, "origins": null, "warnings": null, "structure": {"@module": "pymatgen.core.structure", "@class": "Structure", "charge": 0, "lattice": {"matrix": [[5.58342796, -1.505e-05, -1.321e-05], [-1.505e-05, 5.58342602, -1.3150000000000001e-05], [-2.79171937, -2.79171834, 5.66712976]], "pbc": [true, true, true], "a": 5.583427960035911, "b": 5.583426020035769, "c": 6.906789995895576, "alpha": 113.84100152388706, "beta": 113.84101141776742, "gamma": 90.00030887861234, "volume": 176.670415289049}, "properties": {}, "sites": [{"species": [{"element": "La", "occu": 1}], "abc": [0.00424485, 0.50425009, 0.00843166], "properties": {"magmom": -0.0}, "label": "La", "xyz": [0.00015439666889729628, 2.791904189349705, 0.0477766243490496]}, {"species": [{"element": "La", "occu": 1}], "abc": [0.24575379, 0.24574959000000002, 0.49156418], "properties": {"magmom": 0.0}, "label": "La", "xyz": [-0.00016435907352763124, -0.00018777997726893148, 2.7857515154133226]}, {"species": [{"element": "La", "occu": 1}], "abc": [0.49574967000000003, 0.99575486, 0.99156792], "properties": {"magmom": -0.0}, "label": "La", "xyz": [-0.00021178640648011893, 2.7915377862132713, 5.61932442546375]}, {"species": [{"element": "La", "occu": 1}], "abc": [0.75424851, 0.75424486, 0.50843583], "properties": {"magmom": 0.0}, "label": "La", "xyz": [2.79187071312417, 2.791849394011059, 2.881351941300575]}, {"species": [{"element": "H", "occu": 1}], "abc": [0.62499793, 0.60583963, 0.74999707], "properties": {"magmom": -0.0}, "label": "H", "xyz": [1.3958404516554452, 1.2888707726050619, 4.250314492296013]}, {"species": [{"element": "H", "occu": 1}], "abc": [0.12500154, 0.14416047, 0.75000216], "properties": {"magmom": -0.0}, "label": "H", "xyz": [-1.3958606337498543, -1.2888873471313618, 4.250356014019758]}, {"species": [{"element": "H", "occu": 1}], "abc": [0.12499833, 0.60583944, 0.7499971400000001], "properties": {"magmom": -0.0}, "label": "H", "xyz": [-1.395871490390867, 1.2888770413278143, 4.2503214939923115]}, {"species": [{"element": "H", "occu": 1}], "abc": [0.62500244, 0.14416029, 0.75000219], "properties": {"magmom": -0.0}, "label": "H", "xyz": [1.3958582875864378, -1.2888959609131412, 4.250349579024128]}, {"species": [{"element": "H", "occu": 1}], "abc": [0.39416058, 0.37500185, 0.2500029], "properties": {"magmom": -0.0}, "label": "H", "xyz": [1.5028236208378014, 1.3958514737382224, 1.4167887365407146]}, {"species": [{"element": "H", "occu": 1}], "abc": [0.8558400700000001, 0.8749994400000001, 0.24999793], "properties": {"magmom": -0.0}, "label": "H", "xyz": [4.080584143743881, 4.18755795424534, 1.416747897151436]}, {"species": [{"element": "H", "occu": 1}], "abc": [0.39416066, 0.875002499999999, 0.2500029], "properties": {"magmom": -0.0}, "label": "H", "xyz": [1.5028165425022557, 4.187568112963926, 1.4167821615311103]}, {"species": [{"element": "H", "occu": 1}], "abc": [0.85584012, 0.37499721, 0.24999783], "properties": {"magmom": -0.0}, "label": "H", "xyz": [4.0805922271207775, 1.3958327723763961, 1.416753905467124]}, {"species": [{"element": "H", "occu": 1}], "abc": [0.24999902000000002, 0.75000192, 0.50000024], "properties": {"magmom": -0.0}, "label": "H", "xyz": [-2.0124300945445484e-05, 2.7917166326803056, 2.8335530750988402]}, {"species": [{"element": "H", "occu": 1}], "abc": [2.4900000000000003e-06, -2.149999999999999e-06, 7e-08], "properties": {"magmom": 0.0}, "label": "H", "xyz": [1.3707347622000002e-05, -1.2199823701299993e-05, 3.966944628e-07]}]}, "task_ids": null, "uncorrected_energy_per_atom": null, "energy_per_atom": -11.689831592142857, "formation_energy_per_atom": -0.7233855326785731, "energy_above_hull": 0.0, "is_stable": true, "equilibrium_reaction_energy_per_atom": null, "decomposes_to": null, "xas": null, "grain_boundaries": null, "band_gap": 0.0, "cbm": null, "vbm": null, "efermi": 7.14091414, "is_gap_direct": null, "is_metal": null, "es_source_calc_id": null, "bandstructure": null, "dos": null, "dos_energy_up": null, "dos_energy_down": null, "is_magnetic": null, "ordering": null, "total_magnetization": 8e-07, "total_magnetization_normalized_vol": null, "total_magnetization_normalized_formula_units": null, "num_magnetic_sites": null, "num_unique_magnetic_sites": null, "types_of_magnetic_species": null, "bulk_modulus": null, "shear_modulus": null, "universal_anisotropy": null, "homogeneous_poisson": null, "e_total": null, "e_ionic": null, "e_electronic": null, "n": null, "e_ij_max": null, "weighted_surface_energy_EV_PER_ANG2": null, "weighted_surface_energy": null, "weighted_work_function": null, "surface_anisotropy": null, "shape_factor": null, "has_reconstructed": null, "possible_species": null, "has_props": null, "theoretical": null, "database_IDs": null, "fields_not_requested": ["builder_meta", "nsites", "elements", "nelements", "composition", "composition_reduced", "chemsys", "symmetry", "property_name", "deprecated", "deprecation_reasons", "last_updated", "origins", "warnings", "task_ids", "uncorrected_energy_per_atom", "equilibrium_reaction_energy_per_atom", "decomposes_to", "xas", "grain_boundaries", "cbm", "vbm", "is_gap_direct", "is_metal", "es_source_calc_id", "bandstructure", "dos", "dos_energy_up", "dos_energy_down", "is_magnetic", "ordering", "total_magnetization_normalized_vol", "total_magnetization_normalized_formula_units", "num_magnetic_sites", "num_unique_magnetic_sites", "types_of_magnetic_species", "bulk_modulus", "shear_modulus", "universal_anisotropy", "homogeneous_poisson", "e_total", "e_ionic", "e_electronic", "n", "e_ij_max", "weighted_surface_energy_EV_PER_ANG2", "weighted_surface_energy", "weighted_work_function", "surface_anisotropy", "shape_factor", "has_reconstructed", "possible_species", "has_props", "theoretical", "database_IDs"]}