{"builder_meta": null, "nsites": null, "elements": null, "nelements": null, "composition": null, "composition_reduced": null, "formula_pretty": "La2Ir7", "formula_anonymous": "A2B7", "chemsys": null, "volume": 660.5962330159202, "density": 16.32224132459726, "density_atomic": 18.34989536155334, "symmetry": null, "property_name": null, "material_id": "mp-1195853", "deprecated": null, "deprecation_reasons": null, "last_updated": null, "origins": null, "warnings": null, "structure": {"@module": "pymatgen.core.structure", "@class": "Structure", "charge": 0, "lattice": {"matrix": [[2.68823484, -4.65616126, 0.0], [2.68823484, 4.65616126, -0.0], [0.0, 0.0, 26.38826755]], "pbc": [true, true, true], "a": 5.376471355277048, "b": 5.376471355277048, "c": 26.38826755, "alpha": 90.0, "beta": 90.0, "gamma": 120.00002061490228, "volume": 660.5962330159202}, "properties": {}, "sites": [{"species": [{"element": "La", "occu": 1}], "abc": [0.333333, 0.666667, 0.47121127], "properties": {"magmom": -0.0}, "label": "La", "xyz": [2.68823484, 1.5520568574408402, 12.434449065335288]}, {"species": [{"element": "La", "occu": 1}], "abc": [0.666667, 0.333333, 0.52878873], "properties": {"magmom": -0.0}, "label": "La", "xyz": [2.68823484, -1.5520568574408402, 13.953818484664712]}, {"species": [{"element": "La", "occu": 1}], "abc": [0.666667, 0.333333, 0.9712112700000001], "properties": {"magmom": -0.0}, "label": "La", "xyz": [2.68823484, -1.5520568574408402, 25.628582840335287]}, {"species": [{"element": "La", "occu": 1}], "abc": [0.333333, 0.666667, 0.028788730000000002], "properties": {"magmom": -0.0}, "label": "La", "xyz": [2.68823484, 1.5520568574408402, 0.7596847096647115]}, {"species": [{"element": "La", "occu": 1}], "abc": [0.333333, 0.666667, 0.32556229000000003], "properties": {"magmom": 0.0}, "label": "La", "xyz": [2.68823484, 1.5520568574408402, 8.591024812710689]}, {"species": [{"element": "La", "occu": 1}], "abc": [0.666667, 0.333333, 0.67443771], "properties": {"magmom": 0.0}, "label": "La", "xyz": [2.68823484, -1.5520568574408402, 17.79724273728931]}, {"species": [{"element": "La", "occu": 1}], "abc": [0.666667, 0.333333, 0.82556229], "properties": {"magmom": 0.0}, "label": "La", "xyz": [2.68823484, -1.5520568574408402, 21.78515858771069]}, {"species": [{"element": "La", "occu": 1}], "abc": [0.333333, 0.666667, 0.17443771], "properties": {"magmom": 0.0}, "label": "La", "xyz": [2.68823484, 1.5520568574408402, 4.60310896228931]}, {"species": [{"element": "Ir", "occu": 1}], "abc": [-0.0, -0.0, 0.5], "properties": {"magmom": 0.0}, "label": "Ir", "xyz": [0.0, 0.0, 13.194133775]}, {"species": [{"element": "Ir", "occu": 1}], "abc": [-0.0, -0.0, 0.0], "properties": {"magmom": 0.0}, "label": "Ir", "xyz": [0.0, 0.0, 0.0]}, {"species": [{"element": "Ir", "occu": 1}], "abc": [0.8320968400000001, 0.16790316, 0.25], "properties": {"magmom": -0.0}, "label": "Ir", "xyz": [2.68823484, -3.092592881952837, 6.5970668875]}, {"species": [{"element": "Ir", "occu": 1}], "abc": [0.8320968400000001, 0.66419368, 0.25], "properties": {"magmom": -0.0}, "label": "Ir", "xyz": [4.022380306625717, -0.7817841890235822, 6.5970668875]}, {"species": [{"element": "Ir", "occu": 1}], "abc": [0.33580632, 0.16790316, 0.25], "properties": {"magmom": -0.0}, "label": "Ir", "xyz": [1.3540893733742831, -0.7817841890235816, 6.5970668875]}, {"species": [{"element": "Ir", "occu": 1}], "abc": [0.16790316, 0.8320968400000001, 0.75], "properties": {"magmom": -0.0}, "label": "Ir", "xyz": [2.68823484, 3.092592881952837, 19.7912006625]}, {"species": [{"element": "Ir", "occu": 1}], "abc": [0.16790316, 0.33580632, 0.75], "properties": {"magmom": -0.0}, "label": "Ir", "xyz": [1.3540893733742831, 0.7817841890235816, 19.7912006625]}, {"species": [{"element": "Ir", "occu": 1}], "abc": [0.66419368, 0.8320968400000001, 0.75], "properties": {"magmom": -0.0}, "label": "Ir", "xyz": [4.022380306625717, 0.7817841890235822, 19.7912006625]}, {"species": [{"element": "Ir", "occu": 1}], "abc": [0.83487591, 0.16512409, 0.41281181], "properties": {"magmom": 0.0}, "label": "Ir", "xyz": [2.6882348400000002, -3.118472478098494, 10.893388490079765]}, {"species": [{"element": "Ir", "occu": 1}], "abc": [0.83487591, 0.66975281, 0.41281181], "properties": {"magmom": 0.0}, "label": "Ir", "xyz": [4.044795346368605, -0.7688397813511063, 10.893388490079765]}, {"species": [{"element": "Ir", "occu": 1}], "abc": [0.33024719, 0.16512409, 0.41281181], "properties": {"magmom": 0.0}, "label": "Ir", "xyz": [1.3316743336313952, -0.7688397813511061, 10.893388490079765]}, {"species": [{"element": "Ir", "occu": 1}], "abc": [0.16512409, 0.83487591, 0.58718819], "properties": {"magmom": 0.0}, "label": "Ir", "xyz": [2.6882348400000002, 3.118472478098494, 15.494879059920233]}, {"species": [{"element": "Ir", "occu": 1}], "abc": [0.16512409, 0.33024719, 0.58718819], "properties": {"magmom": 0.0}, "label": "Ir", "xyz": [1.3316743336313952, 0.7688397813511061, 15.494879059920233]}, {"species": [{"element": "Ir", "occu": 1}], "abc": [0.66975281, 0.83487591, 0.58718819], "properties": {"magmom": 0.0}, "label": "Ir", "xyz": [4.044795346368605, 0.7688397813511063, 15.494879059920233]}, {"species": [{"element": "Ir", "occu": 1}], "abc": [0.16512409, 0.83487591, 0.91281181], "properties": {"magmom": 0.0}, "label": "Ir", "xyz": [2.6882348400000002, 3.118472478098494, 24.087522265079762]}, {"species": [{"element": "Ir", "occu": 1}], "abc": [0.16512409, 0.33024719, 0.91281181], "properties": {"magmom": 0.0}, "label": "Ir", "xyz": [1.3316743336313952, 0.7688397813511061, 24.087522265079762]}, {"species": [{"element": "Ir", "occu": 1}], "abc": [0.66975281, 0.83487591, 0.91281181], "properties": {"magmom": 0.0}, "label": "Ir", "xyz": [4.044795346368605, 0.7688397813511063, 24.087522265079762]}, {"species": [{"element": "Ir", "occu": 1}], "abc": [0.83487591, 0.16512409, 0.08718819], "properties": {"magmom": 0.0}, "label": "Ir", "xyz": [2.6882348400000002, -3.118472478098494, 2.300745284920234]}, {"species": [{"element": "Ir", "occu": 1}], "abc": [0.83487591, 0.66975281, 0.08718819], "properties": {"magmom": 0.0}, "label": "Ir", "xyz": [4.044795346368605, -0.7688397813511063, 2.300745284920234]}, {"species": [{"element": "Ir", "occu": 1}], "abc": [0.33024719, 0.16512409, 0.08718819], "properties": {"magmom": 0.0}, "label": "Ir", "xyz": [1.3316743336313952, -0.7688397813511061, 2.300745284920234]}, {"species": [{"element": "Ir", "occu": 1}], "abc": [-0.0, -0.0, 0.33166184], "properties": {"magmom": -0.0}, "label": "Ir", "xyz": [0.0, 0.0, 8.751981370045291]}, {"species": [{"element": "Ir", "occu": 1}], "abc": [-0.0, -0.0, 0.66833816], "properties": {"magmom": -0.0}, "label": "Ir", "xyz": [0.0, 0.0, 17.63628617995471]}, {"species": [{"element": "Ir", "occu": 1}], "abc": [-0.0, -0.0, 0.83166184], "properties": {"magmom": -0.0}, "label": "Ir", "xyz": [0.0, 0.0, 21.94611514504529]}, {"species": [{"element": "Ir", "occu": 1}], "abc": [-0.0, -0.0, 0.16833816000000001], "properties": {"magmom": -0.0}, "label": "Ir", "xyz": [0.0, 0.0, 4.442152404954708]}, {"species": [{"element": "Ir", "occu": 1}], "abc": [0.333333, 0.666667, 0.66641234], "properties": {"magmom": -0.0}, "label": "Ir", "xyz": [2.68823484, 1.5520568574408402, 17.585467126541566]}, {"species": [{"element": "Ir", "occu": 1}], "abc": [0.666667, 0.333333, 0.33358766], "properties": {"magmom": -0.0}, "label": "Ir", "xyz": [2.68823484, -1.5520568574408402, 8.802800423458432]}, {"species": [{"element": "Ir", "occu": 1}], "abc": [0.666667, 0.333333, 0.16641234], "properties": {"magmom": -0.0}, "label": "Ir", "xyz": [2.68823484, -1.5520568574408402, 4.391333351541567]}, {"species": [{"element": "Ir", "occu": 1}], "abc": [0.333333, 0.666667, 0.8335876600000001], "properties": {"magmom": -0.0}, "label": "Ir", "xyz": [2.68823484, 1.5520568574408402, 21.996934198458433]}]}, "task_ids": null, "uncorrected_energy_per_atom": null, "energy_per_atom": -8.448337521666664, "formation_energy_per_atom": -0.47710935833333, "energy_above_hull": 0.015095589444449001, "is_stable": false, "equilibrium_reaction_energy_per_atom": null, "decomposes_to": null, "xas": null, "grain_boundaries": null, "band_gap": 0.0, "cbm": null, "vbm": null, "efermi": 8.84039674, "is_gap_direct": null, "is_metal": null, "es_source_calc_id": null, "bandstructure": null, "dos": null, "dos_energy_up": null, "dos_energy_down": null, "is_magnetic": null, "ordering": null, "total_magnetization": 1.2e-06, "total_magnetization_normalized_vol": null, "total_magnetization_normalized_formula_units": null, "num_magnetic_sites": null, "num_unique_magnetic_sites": null, "types_of_magnetic_species": null, "bulk_modulus": null, "shear_modulus": null, "universal_anisotropy": null, "homogeneous_poisson": null, "e_total": null, "e_ionic": null, "e_electronic": null, "n": null, "e_ij_max": null, "weighted_surface_energy_EV_PER_ANG2": null, "weighted_surface_energy": null, "weighted_work_function": null, "surface_anisotropy": null, "shape_factor": null, "has_reconstructed": null, "possible_species": null, "has_props": null, "theoretical": null, "database_IDs": null, "fields_not_requested": ["builder_meta", "nsites", "elements", "nelements", "composition", "composition_reduced", "chemsys", "symmetry", "property_name", "deprecated", "deprecation_reasons", "last_updated", "origins", "warnings", "task_ids", "uncorrected_energy_per_atom", "equilibrium_reaction_energy_per_atom", "decomposes_to", "xas", "grain_boundaries", "cbm", "vbm", "is_gap_direct", "is_metal", "es_source_calc_id", "bandstructure", "dos", "dos_energy_up", "dos_energy_down", "is_magnetic", "ordering", "total_magnetization_normalized_vol", "total_magnetization_normalized_formula_units", "num_magnetic_sites", "num_unique_magnetic_sites", "types_of_magnetic_species", "bulk_modulus", "shear_modulus", "universal_anisotropy", "homogeneous_poisson", "e_total", "e_ionic", "e_electronic", "n", "e_ij_max", "weighted_surface_energy_EV_PER_ANG2", "weighted_surface_energy", "weighted_work_function", "surface_anisotropy", "shape_factor", "has_reconstructed", "possible_species", "has_props", "theoretical", "database_IDs"]}