{
  "builder_meta": null,
  "nsites": null,
  "elements": null,
  "nelements": null,
  "composition": null,
  "composition_reduced": null,
  "formula_pretty": "La2I5",
  "formula_anonymous": "A2B5",
  "chemsys": null,
  "volume": 592.5353062242065,
  "density": 5.113501436592766,
  "density_atomic": 42.323950444586174,
  "symmetry": null,
  "property_name": null,
  "material_id": "mp-30282",
  "deprecated": null,
  "deprecation_reasons": null,
  "last_updated": null,
  "origins": null,
  "warnings": null,
  "structure": {
    "@module": "pymatgen.core.structure",
    "@class": "Structure",
    "charge": 0,
    "lattice": {
      "matrix": [
        [4.45794898, 0.0, 0.0],
        [0.0, 8.95301152, 0.10989612],
        [0.0, 0.22886668000000002, 14.84882773]
      ],
      "pbc": [true, true, true],
      "a": 4.45794898,
      "b": 8.953685969166205,
      "c": 14.850591399416764,
      "alpha": 88.41370656031134,
      "beta": 90.0,
      "gamma": 90.0,
      "volume": 592.5353062242066
    },
    "properties": {},
    "sites": [
      {
        "species": [{ "element": "La", "occu": 1 }],
        "abc": [0.25, 0.90681395, 0.15635002],
        "properties": { "magmom": 0.2 },
        "label": "La",
        "xyz": [1.114487245, 8.154499050842038, 2.421269847228929]
      },
      {
        "species": [{ "element": "La", "occu": 1 }],
        "abc": [0.75, 0.09318705000000001, 0.84364998],
        "properties": { "magmom": 0.2 },
        "label": "La",
        "xyz": [3.343461735, 1.0273881021694826, 12.537454112667193]
      },
      {
        "species": [{ "element": "La", "occu": 1 }],
        "abc": [0.25, 0.41742404, 0.6578349],
        "properties": { "magmom": 0.202 },
        "label": "La",
        "xyz": [1.114487245, 3.887758728396073, 9.813950387272502]
      },
      {
        "species": [{ "element": "La", "occu": 1 }],
        "abc": [0.75, 0.58257596, 0.3421651],
        "properties": { "magmom": 0.202 },
        "label": "La",
        "xyz": [3.343461735, 5.294119471603928, 5.144773462727498]
      },
      {
        "species": [{ "element": "I", "occu": 1 }],
        "abc": [0.25, 0.34992235, 0.27799397],
        "properties": { "magmom": 0.006 },
        "label": "I",
        "xyz": [1.114487245, 3.1964823876293917, 4.16633967907507]
      },
      {
        "species": [{ "element": "I", "occu": 1 }],
        "abc": [0.75, 0.6500776500000001, 0.72200603],
        "properties": { "magmom": 0.006 },
        "label": "I",
        "xyz": [3.343461735, 5.9853958123706095, 10.79238417092493]
      },
      {
        "species": [{ "element": "I", "occu": 1 }],
        "abc": [0.25, 0.85688387, 0.92809939],
        "properties": { "magmom": -0.0 },
        "label": "I",
        "xyz": [1.114487245, 7.884102185511508, 13.875356171031669]
      },
      {
        "species": [{ "element": "I", "occu": 1 }],
        "abc": [0.75, 0.14311613, 0.07190061],
        "properties": { "magmom": -0.0 },
        "label": "I",
        "xyz": [3.343461735, 1.2977760144884927, 1.0833676789683309]
      },
      {
        "species": [{ "element": "I", "occu": 1 }],
        "abc": [0.75, 0.31072597, 0.51130014],
        "properties": { "magmom": 0.002 },
        "label": "I",
        "xyz": [3.343461735, 2.8989527544985103, 7.626355275671119]
      },
      {
        "species": [{ "element": "I", "occu": 1 }],
        "abc": [0.25, 0.68927403, 0.48869986],
        "properties": { "magmom": 0.002 },
        "label": "I",
        "xyz": [1.114487245, 6.2829254455014905, 7.332368574328881]
      },
      {
        "species": [{ "element": "I", "occu": 1 }],
        "abc": [0.75, 0.94891339, 0.31566237],
        "properties": { "magmom": 0.001 },
        "label": "I",
        "xyz": [3.343461735, 8.567877110775084, 4.791498052750567]
      },
      {
        "species": [{ "element": "I", "occu": 1 }],
        "abc": [0.25, 0.051086610000000005, 0.68433763],
        "properties": { "magmom": 0.001 },
        "label": "I",
        "xyz": [1.114487245, 0.6140010892249157, 10.167225797249433]
      },
      {
        "species": [{ "element": "I", "occu": 1 }],
        "abc": [0.75, 0.64728265, 0.12195058],
        "properties": { "magmom": -0.0 },
        "label": "I",
        "xyz": [3.343461735, 5.8230394465148025, 1.8819570057719015]
      },
      {
        "species": [{ "element": "I", "occu": 1 }],
        "abc": [0.25, 0.35271735, 0.87804942],
        "properties": { "magmom": -0.0 },
        "label": "I",
        "xyz": [1.114487245, 3.358838753485198, 13.076766844228098]
      }
    ]
  },
  "task_ids": null,
  "uncorrected_energy_per_atom": null,
  "energy_per_atom": -4.276749706428569,
  "formation_energy_per_atom": -1.777881522857142,
  "energy_above_hull": 0.0,
  "is_stable": true,
  "equilibrium_reaction_energy_per_atom": null,
  "decomposes_to": null,
  "xas": null,
  "grain_boundaries": null,
  "band_gap": 0.1718,
  "cbm": null,
  "vbm": null,
  "efermi": 4.84889999,
  "is_gap_direct": null,
  "is_metal": null,
  "es_source_calc_id": null,
  "bandstructure": null,
  "dos": null,
  "dos_energy_up": null,
  "dos_energy_down": null,
  "is_magnetic": null,
  "ordering": null,
  "total_magnetization": 1.9999983000000001,
  "total_magnetization_normalized_vol": null,
  "total_magnetization_normalized_formula_units": null,
  "num_magnetic_sites": null,
  "num_unique_magnetic_sites": null,
  "types_of_magnetic_species": null,
  "bulk_modulus": null,
  "shear_modulus": null,
  "universal_anisotropy": null,
  "homogeneous_poisson": null,
  "e_total": null,
  "e_ionic": null,
  "e_electronic": null,
  "n": null,
  "e_ij_max": null,
  "weighted_surface_energy_EV_PER_ANG2": null,
  "weighted_surface_energy": null,
  "weighted_work_function": null,
  "surface_anisotropy": null,
  "shape_factor": null,
  "has_reconstructed": null,
  "possible_species": null,
  "has_props": null,
  "theoretical": null,
  "database_IDs": null,
  "fields_not_requested": [
    "builder_meta",
    "nsites",
    "elements",
    "nelements",
    "composition",
    "composition_reduced",
    "chemsys",
    "symmetry",
    "property_name",
    "deprecated",
    "deprecation_reasons",
    "last_updated",
    "origins",
    "warnings",
    "task_ids",
    "uncorrected_energy_per_atom",
    "equilibrium_reaction_energy_per_atom",
    "decomposes_to",
    "xas",
    "grain_boundaries",
    "cbm",
    "vbm",
    "is_gap_direct",
    "is_metal",
    "es_source_calc_id",
    "bandstructure",
    "dos",
    "dos_energy_up",
    "dos_energy_down",
    "is_magnetic",
    "ordering",
    "total_magnetization_normalized_vol",
    "total_magnetization_normalized_formula_units",
    "num_magnetic_sites",
    "num_unique_magnetic_sites",
    "types_of_magnetic_species",
    "bulk_modulus",
    "shear_modulus",
    "universal_anisotropy",
    "homogeneous_poisson",
    "e_total",
    "e_ionic",
    "e_electronic",
    "n",
    "e_ij_max",
    "weighted_surface_energy_EV_PER_ANG2",
    "weighted_surface_energy",
    "weighted_work_function",
    "surface_anisotropy",
    "shape_factor",
    "has_reconstructed",
    "possible_species",
    "has_props",
    "theoretical",
    "database_IDs"
  ]
}
