{"builder_meta": null, "nsites": null, "elements": null, "nelements": null, "composition": null, "composition_reduced": null, "formula_pretty": "La2In", "formula_anonymous": "AB2", "chemsys": null, "volume": 198.1212885000744, "density": 6.581581398785446, "density_atomic": 33.0202147500124, "symmetry": null, "property_name": null, "material_id": "mp-20760", "deprecated": null, "deprecation_reasons": null, "last_updated": null, "origins": null, "warnings": null, "structure": {"@module": "pymatgen.core.structure", "@class": "Structure", "charge": 0, "lattice": {"matrix": [[2.82688285, -4.89630934, -1.6e-07], [2.82688285, 4.89630934, 1.6e-07], [-0.0, 2.4e-07, 7.15689242]], "pbc": [true, true, true], "a": 5.653769698227491, "b": 5.653769698227491, "c": 7.156892420000004, "alpha": 89.99999671459707, "beta": 90.00000328540293, "gamma": 120.00004678658391, "volume": 198.12128850007437}, "properties": {}, "sites": [{"species": [{"element": "La", "occu": 1}], "abc": [-0.0, 0.0, 0.5], "properties": {"magmom": 0.30000000000000004}, "label": "La", "xyz": [0.0, 1.2e-07, 3.57844621]}, {"species": [{"element": "La", "occu": 1}], "abc": [-0.0, 0.0, -0.0], "properties": {"magmom": 0.30000000000000004}, "label": "La", "xyz": [0.0, 0.0, 0.0]}, {"species": [{"element": "La", "occu": 1}], "abc": [0.3333333, 0.6666667, 0.75005478], "properties": {"magmom": 0.179}, "label": "La", "xyz": [2.82688285, 1.6321036197671033, 5.368061422900112]}, {"species": [{"element": "La", "occu": 1}], "abc": [0.6666667, 0.3333333, 0.24994522], "properties": {"magmom": 0.179}, "label": "La", "xyz": [2.82688285, -1.6321033797671032, 1.7888309970998884]}, {"species": [{"element": "In", "occu": 1}], "abc": [0.66666681, 0.33333319, 0.75002581], "properties": {"magmom": -0.065}, "label": "In", "xyz": [2.8268828500000005, -1.6321043369358166, 5.367853981059981]}, {"species": [{"element": "In", "occu": 1}], "abc": [0.33333319, 0.66666681, 0.24997419], "properties": {"magmom": -0.065}, "label": "In", "xyz": [2.8268828500000005, 1.6321045769358167, 1.7890384389400191]}]}, "task_ids": null, "uncorrected_energy_per_atom": null, "energy_per_atom": -27.84355945333333, "formation_energy_per_atom": -0.48750918999999704, "energy_above_hull": 0.0, "is_stable": true, "equilibrium_reaction_energy_per_atom": null, "decomposes_to": null, "xas": null, "grain_boundaries": null, "band_gap": 0.0, "cbm": null, "vbm": null, "efermi": 7.82932866, "is_gap_direct": null, "is_metal": null, "es_source_calc_id": null, "bandstructure": null, "dos": null, "dos_energy_up": null, "dos_energy_down": null, "is_magnetic": null, "ordering": null, "total_magnetization": 1.847312699999999, "total_magnetization_normalized_vol": null, "total_magnetization_normalized_formula_units": null, "num_magnetic_sites": null, "num_unique_magnetic_sites": null, "types_of_magnetic_species": null, "bulk_modulus": null, "shear_modulus": null, "universal_anisotropy": null, "homogeneous_poisson": null, "e_total": null, "e_ionic": null, "e_electronic": null, "n": null, "e_ij_max": null, "weighted_surface_energy_EV_PER_ANG2": null, "weighted_surface_energy": null, "weighted_work_function": null, "surface_anisotropy": null, "shape_factor": null, "has_reconstructed": null, "possible_species": null, "has_props": null, "theoretical": null, "database_IDs": null, "fields_not_requested": ["builder_meta", "nsites", "elements", "nelements", "composition", "composition_reduced", "chemsys", "symmetry", "property_name", "deprecated", "deprecation_reasons", "last_updated", "origins", "warnings", "task_ids", "uncorrected_energy_per_atom", "equilibrium_reaction_energy_per_atom", "decomposes_to", "xas", "grain_boundaries", "cbm", "vbm", "is_gap_direct", "is_metal", "es_source_calc_id", "bandstructure", "dos", "dos_energy_up", "dos_energy_down", "is_magnetic", "ordering", "total_magnetization_normalized_vol", "total_magnetization_normalized_formula_units", "num_magnetic_sites", "num_unique_magnetic_sites", "types_of_magnetic_species", "bulk_modulus", "shear_modulus", "universal_anisotropy", "homogeneous_poisson", "e_total", "e_ionic", "e_electronic", "n", "e_ij_max", "weighted_surface_energy_EV_PER_ANG2", "weighted_surface_energy", "weighted_work_function", "surface_anisotropy", "shape_factor", "has_reconstructed", "possible_species", "has_props", "theoretical", "database_IDs"]}