{
  "builder_meta": null,
  "nsites": null,
  "elements": null,
  "nelements": null,
  "composition": null,
  "composition_reduced": null,
  "formula_pretty": "La2Mg",
  "formula_anonymous": "AB2",
  "chemsys": null,
  "volume": 198.73988637086708,
  "density": 5.048562019165181,
  "density_atomic": 33.12331439514451,
  "symmetry": null,
  "property_name": null,
  "material_id": "mp-1094177",
  "deprecated": null,
  "deprecation_reasons": null,
  "last_updated": null,
  "origins": null,
  "warnings": null,
  "structure": {
    "@module": "pymatgen.core.structure",
    "@class": "Structure",
    "charge": 0,
    "lattice": {
      "matrix": [
        [1.966734, 6.616, 0.0],
        [-1.966734, 6.616, 0.0],
        [0.0, 2.274254, 7.636844]
      ],
      "pbc": [true, true, true],
      "a": 6.902137250646063,
      "b": 6.902137250646063,
      "c": 7.968288243835811,
      "alpha": 74.1225347279256,
      "beta": 74.1225347279256,
      "gamma": 33.11119996329871,
      "volume": 198.73988637086708
    },
    "properties": {},
    "sites": [
      {
        "species": [{ "element": "La", "occu": 1 }],
        "abc": [0.854297, 0.854297, 0.556578],
        "properties": { "magmom": -0.014 },
        "label": "La",
        "xyz": [0.0, 12.569857646811998, 4.250499359832]
      },
      {
        "species": [{ "element": "La", "occu": 1 }],
        "abc": [0.145703, 0.145703, 0.443422],
        "properties": { "magmom": -0.014 },
        "label": "La",
        "xyz": [0.0, 2.936396353188, 3.3863446401679997]
      },
      {
        "species": [{ "element": "La", "occu": 1 }],
        "abc": [0.832932, 0.832932, 0.09729],
        "properties": { "magmom": -0.003 },
        "label": "La",
        "xyz": [0.0, 11.24261839566, 0.74298855276]
      },
      {
        "species": [{ "element": "La", "occu": 1 }],
        "abc": [0.167068, 0.167068, 0.9027100000000001],
        "properties": { "magmom": -0.003 },
        "label": "La",
        "xyz": [0.0, 4.26363560434, 6.893855447240001]
      },
      {
        "species": [{ "element": "Mg", "occu": 1 }],
        "abc": [0.488043, 0.488043, 0.77612],
        "properties": { "magmom": 0.0 },
        "label": "Mg",
        "xyz": [0.0, 8.22287899048, 5.92710736528]
      },
      {
        "species": [{ "element": "Mg", "occu": 1 }],
        "abc": [0.511957, 0.511957, 0.22388000000000002],
        "properties": { "magmom": 0.0 },
        "label": "Mg",
        "xyz": [0.0, 7.283375009519999, 1.7097366347200003]
      }
    ]
  },
  "task_ids": null,
  "uncorrected_energy_per_atom": null,
  "energy_per_atom": -3.867573061666666,
  "formation_energy_per_atom": -0.033411653333334006,
  "energy_above_hull": 0.033790885000001006,
  "is_stable": false,
  "equilibrium_reaction_energy_per_atom": null,
  "decomposes_to": null,
  "xas": null,
  "grain_boundaries": null,
  "band_gap": 0.0,
  "cbm": null,
  "vbm": null,
  "efermi": 6.56729207,
  "is_gap_direct": null,
  "is_metal": null,
  "es_source_calc_id": null,
  "bandstructure": null,
  "dos": null,
  "dos_energy_up": null,
  "dos_energy_down": null,
  "is_magnetic": null,
  "ordering": null,
  "total_magnetization": 0.0707009,
  "total_magnetization_normalized_vol": null,
  "total_magnetization_normalized_formula_units": null,
  "num_magnetic_sites": null,
  "num_unique_magnetic_sites": null,
  "types_of_magnetic_species": null,
  "bulk_modulus": null,
  "shear_modulus": null,
  "universal_anisotropy": null,
  "homogeneous_poisson": null,
  "e_total": null,
  "e_ionic": null,
  "e_electronic": null,
  "n": null,
  "e_ij_max": null,
  "weighted_surface_energy_EV_PER_ANG2": null,
  "weighted_surface_energy": null,
  "weighted_work_function": null,
  "surface_anisotropy": null,
  "shape_factor": null,
  "has_reconstructed": null,
  "possible_species": null,
  "has_props": null,
  "theoretical": null,
  "database_IDs": null,
  "fields_not_requested": [
    "builder_meta",
    "nsites",
    "elements",
    "nelements",
    "composition",
    "composition_reduced",
    "chemsys",
    "symmetry",
    "property_name",
    "deprecated",
    "deprecation_reasons",
    "last_updated",
    "origins",
    "warnings",
    "task_ids",
    "uncorrected_energy_per_atom",
    "equilibrium_reaction_energy_per_atom",
    "decomposes_to",
    "xas",
    "grain_boundaries",
    "cbm",
    "vbm",
    "is_gap_direct",
    "is_metal",
    "es_source_calc_id",
    "bandstructure",
    "dos",
    "dos_energy_up",
    "dos_energy_down",
    "is_magnetic",
    "ordering",
    "total_magnetization_normalized_vol",
    "total_magnetization_normalized_formula_units",
    "num_magnetic_sites",
    "num_unique_magnetic_sites",
    "types_of_magnetic_species",
    "bulk_modulus",
    "shear_modulus",
    "universal_anisotropy",
    "homogeneous_poisson",
    "e_total",
    "e_ionic",
    "e_electronic",
    "n",
    "e_ij_max",
    "weighted_surface_energy_EV_PER_ANG2",
    "weighted_surface_energy",
    "weighted_work_function",
    "surface_anisotropy",
    "shape_factor",
    "has_reconstructed",
    "possible_species",
    "has_props",
    "theoretical",
    "database_IDs"
  ]
}
