{
  "builder_meta": null,
  "nsites": null,
  "elements": null,
  "nelements": null,
  "composition": null,
  "composition_reduced": null,
  "formula_pretty": "La2Ni3",
  "formula_anonymous": "A2B3",
  "chemsys": null,
  "volume": 189.17572860839246,
  "density": 7.968294616840958,
  "density_atomic": 18.917572860839247,
  "symmetry": null,
  "property_name": null,
  "material_id": "mp-1691",
  "deprecated": null,
  "deprecation_reasons": null,
  "last_updated": null,
  "origins": null,
  "warnings": null,
  "structure": {
    "@module": "pymatgen.core.structure",
    "@class": "Structure",
    "charge": 0,
    "lattice": {
      "matrix": [
        [4.9692883, 0.0, 0.0],
        [-2.48464415, 4.78294014, 0.0],
        [-0.0, -0.0, 7.95932569]
      ],
      "pbc": [true, true, true],
      "a": 4.9692883,
      "b": 5.3898026805211,
      "c": 7.95932569,
      "alpha": 90.0,
      "beta": 90.0,
      "gamma": 117.45099702973039,
      "volume": 189.17572860839246
    },
    "properties": {},
    "sites": [
      {
        "species": [{ "element": "La", "occu": 1 }],
        "abc": [0.15453118, 0.30906135, 0.59515549],
        "properties": { "magmom": 0.0 },
        "label": "La",
        "xyz": [2.5094905914402332e-6, 1.478221936637589, 4.737036381101539]
      },
      {
        "species": [{ "element": "La", "occu": 1 }],
        "abc": [0.84546882, 0.69093865, 0.40484451],
        "properties": { "magmom": 0.0 },
        "label": "La",
        "xyz": [2.4846416405094085, 3.3047182033624107, 3.222289308898462]
      },
      {
        "species": [{ "element": "La", "occu": 1 }],
        "abc": [0.34546882, 0.69093865, 0.09515549],
        "properties": { "magmom": 0.0 },
        "label": "La",
        "xyz": [-2.5094905915512555e-6, 3.3047182033624107, 0.757373536101538]
      },
      {
        "species": [{ "element": "La", "occu": 1 }],
        "abc": [0.65453118, 0.30906135, 0.90484451],
        "properties": { "magmom": 0.0 },
        "label": "La",
        "xyz": [2.484646659490591, 1.478221936637589, 7.201952153898461]
      },
      {
        "species": [{ "element": "Ni", "occu": 1 }],
        "abc": [0.5, -0.0, 0.5],
        "properties": { "magmom": -0.0 },
        "label": "Ni",
        "xyz": [2.48464415, 0.0, 3.979662845]
      },
      {
        "species": [{ "element": "Ni", "occu": 1 }],
        "abc": [-0.0, -0.0, -0.0],
        "properties": { "magmom": -0.0 },
        "label": "Ni",
        "xyz": [0.0, 0.0, 0.0]
      },
      {
        "species": [{ "element": "Ni", "occu": 1 }],
        "abc": [0.66124327, 0.8224855400000001, 0.75],
        "properties": { "magmom": -0.0 },
        "label": "Ni",
        "xyz": [1.2423245596441501, 3.933899103835576, 5.9694942675]
      },
      {
        "species": [{ "element": "Ni", "occu": 1 }],
        "abc": [0.8387567300000001, 0.17751446, 0.25],
        "properties": { "magmom": -0.0 },
        "label": "Ni",
        "xyz": [3.7269637403558504, 0.8490410361644245, 1.9898314225]
      },
      {
        "species": [{ "element": "Ni", "occu": 1 }],
        "abc": [0.16124327, 0.8224855400000001, 0.75],
        "properties": { "magmom": -0.0 },
        "label": "Ni",
        "xyz": [-1.2423195903558502, 3.933899103835576, 5.9694942675]
      },
      {
        "species": [{ "element": "Ni", "occu": 1 }],
        "abc": [0.33875673, 0.17751446, 0.25],
        "properties": { "magmom": -0.0 },
        "label": "Ni",
        "xyz": [1.24231959035585, 0.8490410361644245, 1.9898314225]
      }
    ]
  },
  "task_ids": null,
  "uncorrected_energy_per_atom": null,
  "energy_per_atom": -5.7696555400000005,
  "formation_energy_per_atom": -0.32717068999999904,
  "energy_above_hull": 0.009477530333334,
  "is_stable": false,
  "equilibrium_reaction_energy_per_atom": null,
  "decomposes_to": null,
  "xas": null,
  "grain_boundaries": null,
  "band_gap": 0.0,
  "cbm": null,
  "vbm": null,
  "efermi": 8.91472173,
  "is_gap_direct": null,
  "is_metal": null,
  "es_source_calc_id": null,
  "bandstructure": null,
  "dos": null,
  "dos_energy_up": null,
  "dos_energy_down": null,
  "is_magnetic": null,
  "ordering": null,
  "total_magnetization": 4e-7,
  "total_magnetization_normalized_vol": null,
  "total_magnetization_normalized_formula_units": null,
  "num_magnetic_sites": null,
  "num_unique_magnetic_sites": null,
  "types_of_magnetic_species": null,
  "bulk_modulus": null,
  "shear_modulus": null,
  "universal_anisotropy": null,
  "homogeneous_poisson": null,
  "e_total": null,
  "e_ionic": null,
  "e_electronic": null,
  "n": null,
  "e_ij_max": null,
  "weighted_surface_energy_EV_PER_ANG2": null,
  "weighted_surface_energy": null,
  "weighted_work_function": null,
  "surface_anisotropy": null,
  "shape_factor": null,
  "has_reconstructed": null,
  "possible_species": null,
  "has_props": null,
  "theoretical": null,
  "database_IDs": null,
  "fields_not_requested": [
    "builder_meta",
    "nsites",
    "elements",
    "nelements",
    "composition",
    "composition_reduced",
    "chemsys",
    "symmetry",
    "property_name",
    "deprecated",
    "deprecation_reasons",
    "last_updated",
    "origins",
    "warnings",
    "task_ids",
    "uncorrected_energy_per_atom",
    "equilibrium_reaction_energy_per_atom",
    "decomposes_to",
    "xas",
    "grain_boundaries",
    "cbm",
    "vbm",
    "is_gap_direct",
    "is_metal",
    "es_source_calc_id",
    "bandstructure",
    "dos",
    "dos_energy_up",
    "dos_energy_down",
    "is_magnetic",
    "ordering",
    "total_magnetization_normalized_vol",
    "total_magnetization_normalized_formula_units",
    "num_magnetic_sites",
    "num_unique_magnetic_sites",
    "types_of_magnetic_species",
    "bulk_modulus",
    "shear_modulus",
    "universal_anisotropy",
    "homogeneous_poisson",
    "e_total",
    "e_ionic",
    "e_electronic",
    "n",
    "e_ij_max",
    "weighted_surface_energy_EV_PER_ANG2",
    "weighted_surface_energy",
    "weighted_work_function",
    "surface_anisotropy",
    "shape_factor",
    "has_reconstructed",
    "possible_species",
    "has_props",
    "theoretical",
    "database_IDs"
  ]
}
