{
  "builder_meta": null,
  "nsites": null,
  "elements": null,
  "nelements": null,
  "composition": null,
  "composition_reduced": null,
  "formula_pretty": "La2Ni7",
  "formula_anonymous": "A2B7",
  "chemsys": null,
  "volume": 268.5616719576014,
  "density": 8.516142279159387,
  "density_atomic": 14.92009288653341,
  "symmetry": null,
  "property_name": null,
  "material_id": "mp-1188908",
  "deprecated": null,
  "deprecation_reasons": null,
  "last_updated": null,
  "origins": null,
  "warnings": null,
  "structure": {
    "@module": "pymatgen.core.structure",
    "@class": "Structure",
    "charge": 0,
    "lattice": {
      "matrix": [
        [-2.507991, -4.343968, 0.0],
        [-5.015982, 0.0, 0.0],
        [-2.507991, -1.447989, -12.325412]
      ],
      "pbc": [true, true, true],
      "a": 5.015982141226681,
      "b": 5.015982,
      "c": 12.661061249750986,
      "alpha": 78.57488870756002,
      "beta": 78.57488993165643,
      "gamma": 60.00000093137113,
      "volume": 268.5616719576014
    },
    "properties": {},
    "sites": [
      {
        "species": [{ "element": "La", "occu": 1 }],
        "abc": [0.949417, 0.949417, 0.151749],
        "properties": { "magmom": 0.04 },
        "label": "La",
        "xyz": [-7.523973, -4.343967949416999, -1.870368945588]
      },
      {
        "species": [{ "element": "La", "occu": 1 }],
        "abc": [0.050582999999999004, 0.050582999999999004, 0.848251],
        "properties": { "magmom": 0.04 },
        "label": "La",
        "xyz": [-2.5079909999999925, -1.4479890505829955, -10.455043054412]
      },
      {
        "species": [{ "element": "La", "occu": 1 }],
        "abc": [0.853124, 0.853124, 0.440627999999999],
        "properties": { "magmom": 0.023 },
        "label": "La",
        "xyz": [-7.523972999999997, -4.343967853123999, -5.430921638735988]
      },
      {
        "species": [{ "element": "La", "occu": 1 }],
        "abc": [0.146876, 0.146876, 0.559372],
        "properties": { "magmom": 0.023 },
        "label": "La",
        "xyz": [-2.507991, -1.447989146876, -6.894490361263999]
      },
      {
        "species": [{ "element": "Ni", "occu": 1 }],
        "abc": [0.5, 0.5, 0.5],
        "properties": { "magmom": -0.039 },
        "label": "Ni",
        "xyz": [-5.015982, -2.8959785, -6.162706]
      },
      {
        "species": [{ "element": "Ni", "occu": 1 }],
        "abc": [0.721525, 0.721525, 0.835425],
        "properties": { "magmom": -0.211 },
        "label": "Ni",
        "xyz": [-7.523973, -4.343967721525, -10.296957320099999]
      },
      {
        "species": [{ "element": "Ni", "occu": 1 }],
        "abc": [0.278475, 0.278475, 0.164575],
        "properties": { "magmom": -0.211 },
        "label": "Ni",
        "xyz": [-2.507991, -1.447989278475, -2.0284546799]
      },
      {
        "species": [{ "element": "Ni", "occu": 1 }],
        "abc": [0.6123500000000001, 0.6123500000000001, 0.16295],
        "properties": { "magmom": -0.222 },
        "label": "Ni",
        "xyz": [-5.015982000000001, -2.8959786123500004, -2.0084258854000003]
      },
      {
        "species": [{ "element": "Ni", "occu": 1 }],
        "abc": [0.38765000000000005, 0.38765000000000005, 0.8370500000000001],
        "properties": { "magmom": -0.222 },
        "label": "Ni",
        "xyz": [-5.015982000000001, -2.8959783876500005, -10.3169861146]
      },
      {
        "species": [{ "element": "Ni", "occu": 1 }],
        "abc": [0.0, 0.5, 0.0],
        "properties": { "magmom": -0.332 },
        "label": "Ni",
        "xyz": [-2.507991, 0.0, 0.0]
      },
      {
        "species": [{ "element": "Ni", "occu": 1 }],
        "abc": [0.5, 0.0, 0.0],
        "properties": { "magmom": -0.332 },
        "label": "Ni",
        "xyz": [-1.2539955, -2.171984, 0.0]
      },
      {
        "species": [{ "element": "Ni", "occu": 1 }],
        "abc": [0.5, 0.5, 0.0],
        "properties": { "magmom": -0.332 },
        "label": "Ni",
        "xyz": [-3.7619865, -2.171984, 0.0]
      },
      {
        "species": [{ "element": "Ni", "occu": 1 }],
        "abc": [0.392051, 0.392051, 0.325517],
        "properties": { "magmom": -0.122 },
        "label": "Ni",
        "xyz": [-3.76617484497, -2.174402033681, -4.012131138004]
      },
      {
        "species": [{ "element": "Ni", "occu": 1 }],
        "abc": [0.890381, 0.392051, 0.325517],
        "properties": { "magmom": -0.122 },
        "label": "Ni",
        "xyz": [-5.015982, -4.339131607121001, -4.012131138004]
      },
      {
        "species": [{ "element": "Ni", "occu": 1 }],
        "abc": [0.392051, 0.890381, 0.325517],
        "properties": { "magmom": -0.122 },
        "label": "Ni",
        "xyz": [-6.26578915503, -2.174402033681, -4.012131138004]
      },
      {
        "species": [{ "element": "Ni", "occu": 1 }],
        "abc": [0.607949, 0.607949, 0.6744829999999991],
        "properties": { "magmom": -0.122 },
        "label": "Ni",
        "xyz": [-6.265789155029998, -3.6175549663189983, -8.313280861995988]
      },
      {
        "species": [{ "element": "Ni", "occu": 1 }],
        "abc": [0.109619, 0.607949, 0.6744829999999991],
        "properties": { "magmom": -0.122 },
        "label": "Ni",
        "xyz": [-5.0159819999999975, -1.4528253928789987, -8.313280861995988]
      },
      {
        "species": [{ "element": "Ni", "occu": 1 }],
        "abc": [0.607949, 0.109619, 0.6744829999999991],
        "properties": { "magmom": -0.122 },
        "label": "Ni",
        "xyz": [-3.7661748449699974, -3.6175549663189983, -8.313280861995988]
      }
    ]
  },
  "task_ids": null,
  "uncorrected_energy_per_atom": null,
  "energy_per_atom": -5.907891295,
  "formation_energy_per_atom": -0.315338964999999,
  "energy_above_hull": 0.0,
  "is_stable": true,
  "equilibrium_reaction_energy_per_atom": null,
  "decomposes_to": null,
  "xas": null,
  "grain_boundaries": null,
  "band_gap": 0.0,
  "cbm": null,
  "vbm": null,
  "efermi": 8.76862973,
  "is_gap_direct": null,
  "is_metal": null,
  "es_source_calc_id": null,
  "bandstructure": null,
  "dos": null,
  "dos_energy_up": null,
  "dos_energy_down": null,
  "is_magnetic": null,
  "ordering": null,
  "total_magnetization": 2.2415205,
  "total_magnetization_normalized_vol": null,
  "total_magnetization_normalized_formula_units": null,
  "num_magnetic_sites": null,
  "num_unique_magnetic_sites": null,
  "types_of_magnetic_species": null,
  "bulk_modulus": null,
  "shear_modulus": null,
  "universal_anisotropy": null,
  "homogeneous_poisson": null,
  "e_total": null,
  "e_ionic": null,
  "e_electronic": null,
  "n": null,
  "e_ij_max": null,
  "weighted_surface_energy_EV_PER_ANG2": null,
  "weighted_surface_energy": null,
  "weighted_work_function": null,
  "surface_anisotropy": null,
  "shape_factor": null,
  "has_reconstructed": null,
  "possible_species": null,
  "has_props": null,
  "theoretical": null,
  "database_IDs": null,
  "fields_not_requested": [
    "builder_meta",
    "nsites",
    "elements",
    "nelements",
    "composition",
    "composition_reduced",
    "chemsys",
    "symmetry",
    "property_name",
    "deprecated",
    "deprecation_reasons",
    "last_updated",
    "origins",
    "warnings",
    "task_ids",
    "uncorrected_energy_per_atom",
    "equilibrium_reaction_energy_per_atom",
    "decomposes_to",
    "xas",
    "grain_boundaries",
    "cbm",
    "vbm",
    "is_gap_direct",
    "is_metal",
    "es_source_calc_id",
    "bandstructure",
    "dos",
    "dos_energy_up",
    "dos_energy_down",
    "is_magnetic",
    "ordering",
    "total_magnetization_normalized_vol",
    "total_magnetization_normalized_formula_units",
    "num_magnetic_sites",
    "num_unique_magnetic_sites",
    "types_of_magnetic_species",
    "bulk_modulus",
    "shear_modulus",
    "universal_anisotropy",
    "homogeneous_poisson",
    "e_total",
    "e_ionic",
    "e_electronic",
    "n",
    "e_ij_max",
    "weighted_surface_energy_EV_PER_ANG2",
    "weighted_surface_energy",
    "weighted_work_function",
    "surface_anisotropy",
    "shape_factor",
    "has_reconstructed",
    "possible_species",
    "has_props",
    "theoretical",
    "database_IDs"
  ]
}
