{"builder_meta": null, "nsites": null, "elements": null, "nelements": null, "composition": null, "composition_reduced": null, "formula_pretty": "La2O3", "formula_anonymous": "A2B3", "chemsys": null, "volume": 81.78386608522705, "density": 6.615226585908185, "density_atomic": 16.356773217045408, "symmetry": null, "property_name": null, "material_id": "mp-1968", "deprecated": null, "deprecation_reasons": null, "last_updated": null, "origins": null, "warnings": null, "structure": {"@module": "pymatgen.core.structure", "@class": "Structure", "charge": 0, "lattice": {"matrix": [[3.93077848, 0.0, 0.0], [-1.96538924, 3.40415263, 0.0], [-0.0, 0.0, 6.11195352]], "pbc": [true, true, true], "a": 3.93077848, "b": 3.93077727593967, "c": 6.11195352, "alpha": 90.0, "beta": 90.0, "gamma": 120.00001013285524, "volume": 81.78386608522705}, "properties": {}, "sites": [{"species": [{"element": "La", "occu": 1}], "abc": [0.666667, 0.333333, 0.75376432], "properties": {"magmom": 0.0}, "label": "La", "xyz": [1.9653912053892402, 1.13471640861579, 4.606972488874407]}, {"species": [{"element": "La", "occu": 1}], "abc": [0.333333, 0.666667, 0.24623568], "properties": {"magmom": 0.0}, "label": "La", "xyz": [-1.9653892400217643e-06, 2.26943622138421, 1.5049810311255938]}, {"species": [{"element": "O", "occu": 1}], "abc": [0.666667, 0.333333, 0.35410935], "properties": {"magmom": -0.0}, "label": "O", "xyz": [1.9653912053892402, 1.13471640861579, 2.164299888197412]}, {"species": [{"element": "O", "occu": 1}], "abc": [0.333333, 0.666667, 0.64589065], "properties": {"magmom": -0.0}, "label": "O", "xyz": [-1.9653892400217643e-06, 2.26943622138421, 3.9476536318025883]}, {"species": [{"element": "O", "occu": 1}], "abc": [-0.0, -0.0, -0.0], "properties": {"magmom": -0.0}, "label": "O", "xyz": [0.0, 0.0, 0.0]}]}, "task_ids": null, "uncorrected_energy_per_atom": null, "energy_per_atom": -8.8191083645, "formation_energy_per_atom": -3.8759289195, "energy_above_hull": 0.0, "is_stable": true, "equilibrium_reaction_energy_per_atom": null, "decomposes_to": null, "xas": null, "grain_boundaries": null, "band_gap": 3.824799999999999, "cbm": null, "vbm": null, "efermi": 5.88685486, "is_gap_direct": null, "is_metal": null, "es_source_calc_id": null, "bandstructure": null, "dos": null, "dos_energy_up": null, "dos_energy_down": null, "is_magnetic": null, "ordering": null, "total_magnetization": 0.0, "total_magnetization_normalized_vol": null, "total_magnetization_normalized_formula_units": null, "num_magnetic_sites": null, "num_unique_magnetic_sites": null, "types_of_magnetic_species": null, "bulk_modulus": null, "shear_modulus": null, "universal_anisotropy": null, "homogeneous_poisson": null, "e_total": null, "e_ionic": null, "e_electronic": null, "n": null, "e_ij_max": null, "weighted_surface_energy_EV_PER_ANG2": null, "weighted_surface_energy": null, "weighted_work_function": null, "surface_anisotropy": null, "shape_factor": null, "has_reconstructed": null, "possible_species": null, "has_props": null, "theoretical": null, "database_IDs": null, "fields_not_requested": ["builder_meta", "nsites", "elements", "nelements", "composition", "composition_reduced", "chemsys", "symmetry", "property_name", "deprecated", "deprecation_reasons", "last_updated", "origins", "warnings", "task_ids", "uncorrected_energy_per_atom", "equilibrium_reaction_energy_per_atom", "decomposes_to", "xas", "grain_boundaries", "cbm", "vbm", "is_gap_direct", "is_metal", "es_source_calc_id", "bandstructure", "dos", "dos_energy_up", "dos_energy_down", "is_magnetic", "ordering", "total_magnetization_normalized_vol", "total_magnetization_normalized_formula_units", "num_magnetic_sites", "num_unique_magnetic_sites", "types_of_magnetic_species", "bulk_modulus", "shear_modulus", "universal_anisotropy", "homogeneous_poisson", "e_total", "e_ionic", "e_electronic", "n", "e_ij_max", "weighted_surface_energy_EV_PER_ANG2", "weighted_surface_energy", "weighted_work_function", "surface_anisotropy", "shape_factor", "has_reconstructed", "possible_species", "has_props", "theoretical", "database_IDs"]}