{
  "builder_meta": null,
  "nsites": null,
  "elements": null,
  "nelements": null,
  "composition": null,
  "composition_reduced": null,
  "formula_pretty": "La2Rh7",
  "formula_anonymous": "A2B7",
  "chemsys": null,
  "volume": 642.7151119568435,
  "density": 10.31540169876203,
  "density_atomic": 17.853197554356765,
  "symmetry": null,
  "property_name": null,
  "material_id": "mp-568375",
  "deprecated": null,
  "deprecation_reasons": null,
  "last_updated": null,
  "origins": null,
  "warnings": null,
  "structure": {
    "@module": "pymatgen.core.structure",
    "@class": "Structure",
    "charge": 0,
    "lattice": {
      "matrix": [
        [2.65244342, -4.59416662, 0.0],
        [2.65244343, 4.59416764, -0.0],
        [-0.0, 0.0, 26.37154634]
      ],
      "pbc": [true, true, true],
      "a": 5.30488671213849,
      "b": 5.3048876004844185,
      "c": 26.37154634,
      "alpha": 90.0,
      "beta": 90.0,
      "gamma": 120.00000382013776,
      "volume": 642.7151119568435
    },
    "properties": {},
    "sites": [
      {
        "species": [{ "element": "La", "occu": 1 }],
        "abc": [0.666667, 0.333333, 0.52992518],
        "properties": { "magmom": -0.0 },
        "label": "La",
        "xyz": [2.65244342333333, -1.5313915961114202, 13.97494644110284]
      },
      {
        "species": [{ "element": "La", "occu": 1 }],
        "abc": [0.333333, 0.666667, 0.02992518],
        "properties": { "magmom": -0.0 },
        "label": "La",
        "xyz": [2.65244342666667, 1.5313926161114204, 0.7891732711028411]
      },
      {
        "species": [{ "element": "La", "occu": 1 }],
        "abc": [0.333333, 0.666667, 0.17430477],
        "properties": { "magmom": 0.0 },
        "label": "La",
        "xyz": [2.65244342666667, 1.5313926161114204, 4.596686319338041]
      },
      {
        "species": [{ "element": "La", "occu": 1 }],
        "abc": [0.666667, 0.333333, 0.97007482],
        "properties": { "magmom": -0.0 },
        "label": "La",
        "xyz": [2.65244342333333, -1.5313915961114202, 25.58237306889716]
      },
      {
        "species": [{ "element": "La", "occu": 1 }],
        "abc": [0.666667, 0.333333, 0.67430477],
        "properties": { "magmom": 0.0 },
        "label": "La",
        "xyz": [2.65244342333333, -1.5313915961114202, 17.78245948933804]
      },
      {
        "species": [{ "element": "La", "occu": 1 }],
        "abc": [0.666667, 0.333333, 0.82569523],
        "properties": { "magmom": 0.0 },
        "label": "La",
        "xyz": [2.65244342333333, -1.5313915961114202, 21.774860020661958]
      },
      {
        "species": [{ "element": "La", "occu": 1 }],
        "abc": [0.333333, 0.666667, 0.32569523],
        "properties": { "magmom": 0.0 },
        "label": "La",
        "xyz": [2.65244342666667, 1.5313926161114204, 8.589086850661957]
      },
      {
        "species": [{ "element": "La", "occu": 1 }],
        "abc": [0.333333, 0.666667, 0.47007482],
        "properties": { "magmom": -0.0 },
        "label": "La",
        "xyz": [2.65244342666667, 1.5313926161114204, 12.396599898897158]
      },
      {
        "species": [{ "element": "Rh", "occu": 1 }],
        "abc": [-0.0, -0.0, 0.66760643],
        "properties": { "magmom": 0.0 },
        "label": "Rh",
        "xyz": [0.0, 0.0, 17.605813905626963]
      },
      {
        "species": [{ "element": "Rh", "occu": 1 }],
        "abc": [0.83351525, 0.6670305, 0.25],
        "properties": { "magmom": -0.0 },
        "label": "Rh",
        "xyz": [3.9801127076667697, -0.7648580008179353, 6.592886585]
      },
      {
        "species": [{ "element": "Rh", "occu": 1 }],
        "abc": [0.16645332000000002, 0.33290664000000003, 0.58638061],
        "properties": { "magmom": 0.0 },
        "label": "Rh",
        "xyz": [1.3245240434425298, 0.7647146260969513, 15.463763429492465]
      },
      {
        "species": [{ "element": "Rh", "occu": 1 }],
        "abc": [0.83354668, 0.16645332000000002, 0.41361939000000003],
        "properties": { "magmom": 0.0 },
        "label": "Rh",
        "xyz": [2.652443421664533, -3.0647378771532567, 10.907782910507533]
      },
      {
        "species": [{ "element": "Rh", "occu": 1 }],
        "abc": [0.66709336, 0.83354668, 0.91361939],
        "properties": { "magmom": 0.0 },
        "label": "Rh",
        "xyz": [3.9803628082220035, 0.7647151367497922, 24.093556080507533]
      },
      {
        "species": [{ "element": "Rh", "occu": 1 }],
        "abc": [0.333333, 0.666667, 0.8330246],
        "properties": { "magmom": 0.0 },
        "label": "Rh",
        "xyz": [2.65244342666667, 1.5313926161114204, 21.968146841259962]
      },
      {
        "species": [{ "element": "Rh", "occu": 1 }],
        "abc": [0.83354668, 0.66709336, 0.08638061],
        "properties": { "magmom": 0.0 },
        "label": "Rh",
        "xyz": [3.98036280655747, -0.7647136060969513, 2.277990259492467]
      },
      {
        "species": [{ "element": "Rh", "occu": 1 }],
        "abc": [0.83354668, 0.66709336, 0.41361939000000003],
        "properties": { "magmom": 0.0 },
        "label": "Rh",
        "xyz": [3.98036280655747, -0.7647136060969513, 10.907782910507533]
      },
      {
        "species": [{ "element": "Rh", "occu": 1 }],
        "abc": [0.16645332000000002, 0.83354668, 0.91361939],
        "properties": { "magmom": 0.0 },
        "label": "Rh",
        "xyz": [2.6524434283354665, 3.0647388971532568, 24.093556080507533]
      },
      {
        "species": [{ "element": "Rh", "occu": 1 }],
        "abc": [0.666667, 0.333333, 0.3330246],
        "properties": { "magmom": 0.0 },
        "label": "Rh",
        "xyz": [2.65244342333333, -1.5313915961114202, 8.782373671259963]
      },
      {
        "species": [{ "element": "Rh", "occu": 1 }],
        "abc": [-0.0, -0.0, 0.33239357],
        "properties": { "magmom": 0.0 },
        "label": "Rh",
        "xyz": [0.0, 0.0, 8.765732434373033]
      },
      {
        "species": [{ "element": "Rh", "occu": 1 }],
        "abc": [0.16645332000000002, 0.83354668, 0.58638061],
        "properties": { "magmom": 0.0 },
        "label": "Rh",
        "xyz": [2.6524434283354665, 3.0647388971532568, 15.463763429492465]
      },
      {
        "species": [{ "element": "Rh", "occu": 1 }],
        "abc": [0.33290664000000003, 0.16645332000000002, 0.41361939000000003],
        "properties": { "magmom": 0.0 },
        "label": "Rh",
        "xyz": [1.3245240417779964, -0.7647141167497922, 10.907782910507533]
      },
      {
        "species": [{ "element": "Rh", "occu": 1 }],
        "abc": [-0.0, -0.0, -0.0],
        "properties": { "magmom": -0.0 },
        "label": "Rh",
        "xyz": [0.0, 0.0, 0.0]
      },
      {
        "species": [{ "element": "Rh", "occu": 1 }],
        "abc": [-0.0, -0.0, 0.16760643],
        "properties": { "magmom": 0.0 },
        "label": "Rh",
        "xyz": [0.0, 0.0, 4.420040735626966]
      },
      {
        "species": [{ "element": "Rh", "occu": 1 }],
        "abc": [0.333333, 0.666667, 0.6669754],
        "properties": { "magmom": 0.0 },
        "label": "Rh",
        "xyz": [2.65244342666667, 1.5313926161114204, 17.589172668740034]
      },
      {
        "species": [{ "element": "Rh", "occu": 1 }],
        "abc": [0.66709336, 0.83354668, 0.58638061],
        "properties": { "magmom": 0.0 },
        "label": "Rh",
        "xyz": [3.9803628082220035, 0.7647151367497922, 15.463763429492465]
      },
      {
        "species": [{ "element": "Rh", "occu": 1 }],
        "abc": [0.6670305, 0.83351525, 0.75],
        "properties": { "magmom": -0.0 },
        "label": "Rh",
        "xyz": [3.9801127093316175, 0.7648595313746007, 19.778659755]
      },
      {
        "species": [{ "element": "Rh", "occu": 1 }],
        "abc": [0.83354668, 0.16645332000000002, 0.08638061],
        "properties": { "magmom": 0.0 },
        "label": "Rh",
        "xyz": [2.652443421664533, -3.0647378771532567, 2.277990259492467]
      },
      {
        "species": [{ "element": "Rh", "occu": 1 }],
        "abc": [0.83351525, 0.16648375, 0.25],
        "properties": { "magmom": -0.0 },
        "label": "Rh",
        "xyz": [2.6524407692214176, -3.064453681975105, 6.592886585]
      },
      {
        "species": [{ "element": "Rh", "occu": 1 }],
        "abc": [0.33290664000000003, 0.16645332000000002, 0.08638061],
        "properties": { "magmom": 0.0 },
        "label": "Rh",
        "xyz": [1.3245240417779964, -0.7647141167497922, 2.277990259492467]
      },
      {
        "species": [{ "element": "Rh", "occu": 1 }],
        "abc": [0.666667, 0.333333, 0.1669754],
        "properties": { "magmom": 0.0 },
        "label": "Rh",
        "xyz": [2.65244342333333, -1.5313915961114202, 4.403399498740035]
      },
      {
        "species": [{ "element": "Rh", "occu": 1 }],
        "abc": [0.16645332000000002, 0.33290664000000003, 0.91361939],
        "properties": { "magmom": 0.0 },
        "label": "Rh",
        "xyz": [1.3245240434425298, 0.7647146260969513, 24.093556080507533]
      },
      {
        "species": [{ "element": "Rh", "occu": 1 }],
        "abc": [-0.0, -0.0, 0.5],
        "properties": { "magmom": -0.0 },
        "label": "Rh",
        "xyz": [0.0, 0.0, 13.18577317]
      },
      {
        "species": [{ "element": "Rh", "occu": 1 }],
        "abc": [0.16648475000000001, 0.3329695, 0.75],
        "properties": { "magmom": -0.0 },
        "label": "Rh",
        "xyz": [1.32477414233323, 0.7648590208179348, 19.778659755]
      },
      {
        "species": [{ "element": "Rh", "occu": 1 }],
        "abc": [-0.0, -0.0, 0.83239357],
        "properties": { "magmom": 0.0 },
        "label": "Rh",
        "xyz": [0.0, 0.0, 21.951505604373033]
      },
      {
        "species": [{ "element": "Rh", "occu": 1 }],
        "abc": [0.16648475000000001, 0.8335162500000001, 0.75],
        "properties": { "magmom": -0.0 },
        "label": "Rh",
        "xyz": [2.652446080778583, 3.0644547019751056, 19.778659755]
      },
      {
        "species": [{ "element": "Rh", "occu": 1 }],
        "abc": [0.3329695, 0.16648475000000001, 0.25],
        "properties": { "magmom": -0.0 },
        "label": "Rh",
        "xyz": [1.3247741406683824, -0.7648585113745998, 6.592886585]
      }
    ]
  },
  "task_ids": null,
  "uncorrected_energy_per_atom": null,
  "energy_per_atom": -7.2781720875,
  "formation_energy_per_atom": -0.45348660972222105,
  "energy_above_hull": 0.013929699166667002,
  "is_stable": false,
  "equilibrium_reaction_energy_per_atom": null,
  "decomposes_to": null,
  "xas": null,
  "grain_boundaries": null,
  "band_gap": 0.0,
  "cbm": null,
  "vbm": null,
  "efermi": 7.30514685,
  "is_gap_direct": null,
  "is_metal": null,
  "es_source_calc_id": null,
  "bandstructure": null,
  "dos": null,
  "dos_energy_up": null,
  "dos_energy_down": null,
  "is_magnetic": null,
  "ordering": null,
  "total_magnetization": 5e-7,
  "total_magnetization_normalized_vol": null,
  "total_magnetization_normalized_formula_units": null,
  "num_magnetic_sites": null,
  "num_unique_magnetic_sites": null,
  "types_of_magnetic_species": null,
  "bulk_modulus": null,
  "shear_modulus": null,
  "universal_anisotropy": null,
  "homogeneous_poisson": null,
  "e_total": null,
  "e_ionic": null,
  "e_electronic": null,
  "n": null,
  "e_ij_max": null,
  "weighted_surface_energy_EV_PER_ANG2": null,
  "weighted_surface_energy": null,
  "weighted_work_function": null,
  "surface_anisotropy": null,
  "shape_factor": null,
  "has_reconstructed": null,
  "possible_species": null,
  "has_props": null,
  "theoretical": null,
  "database_IDs": null,
  "fields_not_requested": [
    "builder_meta",
    "nsites",
    "elements",
    "nelements",
    "composition",
    "composition_reduced",
    "chemsys",
    "symmetry",
    "property_name",
    "deprecated",
    "deprecation_reasons",
    "last_updated",
    "origins",
    "warnings",
    "task_ids",
    "uncorrected_energy_per_atom",
    "equilibrium_reaction_energy_per_atom",
    "decomposes_to",
    "xas",
    "grain_boundaries",
    "cbm",
    "vbm",
    "is_gap_direct",
    "is_metal",
    "es_source_calc_id",
    "bandstructure",
    "dos",
    "dos_energy_up",
    "dos_energy_down",
    "is_magnetic",
    "ordering",
    "total_magnetization_normalized_vol",
    "total_magnetization_normalized_formula_units",
    "num_magnetic_sites",
    "num_unique_magnetic_sites",
    "types_of_magnetic_species",
    "bulk_modulus",
    "shear_modulus",
    "universal_anisotropy",
    "homogeneous_poisson",
    "e_total",
    "e_ionic",
    "e_electronic",
    "n",
    "e_ij_max",
    "weighted_surface_energy_EV_PER_ANG2",
    "weighted_surface_energy",
    "weighted_work_function",
    "surface_anisotropy",
    "shape_factor",
    "has_reconstructed",
    "possible_species",
    "has_props",
    "theoretical",
    "database_IDs"
  ]
}
