{
  "builder_meta": null,
  "nsites": null,
  "elements": null,
  "nelements": null,
  "composition": null,
  "composition_reduced": null,
  "formula_pretty": "La2Sb",
  "formula_anonymous": "AB2",
  "chemsys": null,
  "volume": 198.1822019805642,
  "density": 6.6958904393761305,
  "density_atomic": 33.0303669967607,
  "symmetry": null,
  "property_name": null,
  "material_id": "mp-759",
  "deprecated": null,
  "deprecation_reasons": null,
  "last_updated": null,
  "origins": null,
  "warnings": null,
  "structure": {
    "@module": "pymatgen.core.structure",
    "@class": "Structure",
    "charge": 0,
    "lattice": {
      "matrix": [
        [4.49962759, -0.0007597, -1.11638449],
        [-0.27780667000000003, 4.49103175, -1.11638663],
        [0.04018828, 0.04273884, 9.78598003]
      ],
      "pbc": [true, true, true],
      "a": 4.636050404746033,
      "b": 4.6360394555102,
      "c": 9.786155877250918,
      "alpha": 103.69876431734268,
      "beta": 103.69867433246606,
      "gamma": 90.01898495335706,
      "volume": 198.1822019805642
    },
    "properties": {},
    "sites": [
      {
        "species": [{ "element": "La", "occu": 1 }],
        "abc": [0.31961395, 0.31961808, 0.63930983],
        "properties": { "magmom": -0.177 },
        "label": "La",
        "xyz": [1.3750444755470794, 1.4624954949710223, 5.542643821576789]
      },
      {
        "species": [{ "element": "La", "occu": 1 }],
        "abc": [0.680393199999999, 0.68040026, 0.36074279],
        "properties": { "magmom": -0.177 },
        "label": "La",
        "xyz": [2.8869939165231506, 3.070600004037179, 2.0110515700124925]
      },
      {
        "species": [{ "element": "La", "occu": 1 }],
        "abc": [0.99999074, 0.49999238, 0.99997249],
        "properties": { "magmom": -0.009000000000000001 },
        "label": "La",
        "xyz": [4.400871879755759, 2.287459624627399, 8.111151857275871]
      },
      {
        "species": [{ "element": "La", "occu": 1 }],
        "abc": [0.49998637, 0.9999944900000001, 0.9999728800000001],
        "properties": { "magmom": -0.009000000000000001 },
        "label": "La",
        "xyz": [2.0121345158845463, 4.533364845692429, 8.111157126832516]
      },
      {
        "species": [{ "element": "Sb", "occu": 1 }],
        "abc": [0.8632368500000001, 0.86321277, 0.72641303],
        "properties": { "magmom": 0.026000000000000002 },
        "label": "Sb",
        "xyz": [3.6736313720748046, 3.9071062063035877, 5.181279979302069]
      },
      {
        "species": [{ "element": "Sb", "occu": 1 }],
        "abc": [0.136778899999999, 0.13678202, 0.27358898],
        "properties": { "magmom": 0.026000000000000002 },
        "label": "Sb",
        "xyz": [0.5884502252109276, 0.6258813593607883, 2.3719368338364166]
      }
    ]
  },
  "task_ids": null,
  "uncorrected_energy_per_atom": null,
  "energy_per_atom": -29.477834456666667,
  "formation_energy_per_atom": -1.079209076666667,
  "energy_above_hull": 0.0,
  "is_stable": true,
  "equilibrium_reaction_energy_per_atom": null,
  "decomposes_to": null,
  "xas": null,
  "grain_boundaries": null,
  "band_gap": 0.0,
  "cbm": null,
  "vbm": null,
  "efermi": 8.1424403,
  "is_gap_direct": null,
  "is_metal": null,
  "es_source_calc_id": null,
  "bandstructure": null,
  "dos": null,
  "dos_energy_up": null,
  "dos_energy_down": null,
  "is_magnetic": null,
  "ordering": null,
  "total_magnetization": 1.0008409,
  "total_magnetization_normalized_vol": null,
  "total_magnetization_normalized_formula_units": null,
  "num_magnetic_sites": null,
  "num_unique_magnetic_sites": null,
  "types_of_magnetic_species": null,
  "bulk_modulus": null,
  "shear_modulus": null,
  "universal_anisotropy": null,
  "homogeneous_poisson": null,
  "e_total": null,
  "e_ionic": null,
  "e_electronic": null,
  "n": null,
  "e_ij_max": null,
  "weighted_surface_energy_EV_PER_ANG2": null,
  "weighted_surface_energy": null,
  "weighted_work_function": null,
  "surface_anisotropy": null,
  "shape_factor": null,
  "has_reconstructed": null,
  "possible_species": null,
  "has_props": null,
  "theoretical": null,
  "database_IDs": null,
  "fields_not_requested": [
    "builder_meta",
    "nsites",
    "elements",
    "nelements",
    "composition",
    "composition_reduced",
    "chemsys",
    "symmetry",
    "property_name",
    "deprecated",
    "deprecation_reasons",
    "last_updated",
    "origins",
    "warnings",
    "task_ids",
    "uncorrected_energy_per_atom",
    "equilibrium_reaction_energy_per_atom",
    "decomposes_to",
    "xas",
    "grain_boundaries",
    "cbm",
    "vbm",
    "is_gap_direct",
    "is_metal",
    "es_source_calc_id",
    "bandstructure",
    "dos",
    "dos_energy_up",
    "dos_energy_down",
    "is_magnetic",
    "ordering",
    "total_magnetization_normalized_vol",
    "total_magnetization_normalized_formula_units",
    "num_magnetic_sites",
    "num_unique_magnetic_sites",
    "types_of_magnetic_species",
    "bulk_modulus",
    "shear_modulus",
    "universal_anisotropy",
    "homogeneous_poisson",
    "e_total",
    "e_ionic",
    "e_electronic",
    "n",
    "e_ij_max",
    "weighted_surface_energy_EV_PER_ANG2",
    "weighted_surface_energy",
    "weighted_work_function",
    "surface_anisotropy",
    "shape_factor",
    "has_reconstructed",
    "possible_species",
    "has_props",
    "theoretical",
    "database_IDs"
  ]
}
