{
  "builder_meta": null,
  "nsites": null,
  "elements": null,
  "nelements": null,
  "composition": null,
  "composition_reduced": null,
  "formula_pretty": "La2Sn5",
  "formula_anonymous": "A2B5",
  "chemsys": null,
  "volume": 397.93290030472684,
  "density": 7.272225447412251,
  "density_atomic": 28.423778593194776,
  "symmetry": null,
  "property_name": null,
  "material_id": "mp-1105069",
  "deprecated": null,
  "deprecation_reasons": null,
  "last_updated": null,
  "origins": null,
  "warnings": null,
  "structure": {
    "@module": "pymatgen.core.structure",
    "@class": "Structure",
    "charge": 0,
    "lattice": {
      "matrix": [
        [2.353088999999999, -17.826776, 0.0],
        [2.353088999999999, 17.826776, 0.0],
        [0.0, 0.0, 4.74317]
      ],
      "pbc": [true, true, true],
      "a": 17.981406240783752,
      "b": 17.981406240783752,
      "c": 4.74317,
      "alpha": 90.0,
      "beta": 90.0,
      "gamma": 164.96114638791627,
      "volume": 397.9329003047267
    },
    "properties": {},
    "sites": [
      {
        "species": [{ "element": "La", "occu": 1 }],
        "abc": [0.297205, 0.702795, 0.0],
        "properties": { "magmom": 0.0 },
        "label": "La",
        "xyz": [2.353088999999999, 7.230362077839999, 0.0]
      },
      {
        "species": [{ "element": "La", "occu": 1 }],
        "abc": [0.702795, 0.297205, 0.0],
        "properties": { "magmom": 0.0 },
        "label": "La",
        "xyz": [2.353088999999999, -7.230362077839999, 0.0]
      },
      {
        "species": [{ "element": "La", "occu": 1 }],
        "abc": [0.432152999999999, 0.567847, 0.0],
        "properties": { "magmom": 0.0 },
        "label": "La",
        "xyz": [2.353088999999996, 2.418986542544018, 0.0]
      },
      {
        "species": [{ "element": "La", "occu": 1 }],
        "abc": [0.567847, 0.432152999999999, 0.0],
        "properties": { "magmom": 0.0 },
        "label": "La",
        "xyz": [2.353088999999996, -2.418986542544018, 0.0]
      },
      {
        "species": [{ "element": "Sn", "occu": 1 }],
        "abc": [0.2212, 0.7788, 0.5],
        "properties": { "magmom": 0.0 },
        "label": "Sn",
        "xyz": [2.353088999999999, 9.9402102976, 2.371585]
      },
      {
        "species": [{ "element": "Sn", "occu": 1 }],
        "abc": [0.7788, 0.2212, 0.5],
        "properties": { "magmom": 0.0 },
        "label": "Sn",
        "xyz": [2.353088999999999, -9.9402102976, 2.371585]
      },
      {
        "species": [{ "element": "Sn", "occu": 1 }],
        "abc": [0.137949, 0.862051, 0.0],
        "properties": { "magmom": -0.0 },
        "label": "Sn",
        "xyz": [2.353088999999999, 12.908404155151999, 0.0]
      },
      {
        "species": [{ "element": "Sn", "occu": 1 }],
        "abc": [0.862051, 0.137949, 0.0],
        "properties": { "magmom": -0.0 },
        "label": "Sn",
        "xyz": [2.353088999999999, -12.908404155151999, 0.0]
      },
      {
        "species": [{ "element": "Sn", "occu": 1 }],
        "abc": [0.362039, 0.637961, 0.5],
        "properties": { "magmom": -0.0 },
        "label": "Sn",
        "xyz": [2.353088999999999, 4.918799687471999, 2.371585]
      },
      {
        "species": [{ "element": "Sn", "occu": 1 }],
        "abc": [0.637961, 0.362039, 0.5],
        "properties": { "magmom": -0.0 },
        "label": "Sn",
        "xyz": [2.353088999999999, -4.918799687471999, 2.371585]
      },
      {
        "species": [{ "element": "Sn", "occu": 1 }],
        "abc": [0.071703, 0.928296999999999, 0.5],
        "properties": { "magmom": -0.0 },
        "label": "Sn",
        "xyz": [2.3530889999999967, 15.270309360943982, 2.371585]
      },
      {
        "species": [{ "element": "Sn", "occu": 1 }],
        "abc": [0.928296999999999, 0.071703, 0.5],
        "properties": { "magmom": -0.0 },
        "label": "Sn",
        "xyz": [2.3530889999999967, -15.270309360943982, 2.371585]
      },
      {
        "species": [{ "element": "Sn", "occu": 1 }],
        "abc": [0.0, 0.0, 0.0],
        "properties": { "magmom": -0.0 },
        "label": "Sn",
        "xyz": [0.0, 0.0, 0.0]
      },
      {
        "species": [{ "element": "Sn", "occu": 1 }],
        "abc": [0.5, 0.5, 0.5],
        "properties": { "magmom": -0.0 },
        "label": "Sn",
        "xyz": [2.353088999999999, 0.0, 2.371585]
      }
    ]
  },
  "task_ids": null,
  "uncorrected_energy_per_atom": null,
  "energy_per_atom": -26.790171424285713,
  "formation_energy_per_atom": -0.6158172371428551,
  "energy_above_hull": 0.025404250714284003,
  "is_stable": false,
  "equilibrium_reaction_energy_per_atom": null,
  "decomposes_to": null,
  "xas": null,
  "grain_boundaries": null,
  "band_gap": 0.0,
  "cbm": null,
  "vbm": null,
  "efermi": 8.50225841,
  "is_gap_direct": null,
  "is_metal": null,
  "es_source_calc_id": null,
  "bandstructure": null,
  "dos": null,
  "dos_energy_up": null,
  "dos_energy_down": null,
  "is_magnetic": null,
  "ordering": null,
  "total_magnetization": 0.00023449999999900002,
  "total_magnetization_normalized_vol": null,
  "total_magnetization_normalized_formula_units": null,
  "num_magnetic_sites": null,
  "num_unique_magnetic_sites": null,
  "types_of_magnetic_species": null,
  "bulk_modulus": null,
  "shear_modulus": null,
  "universal_anisotropy": null,
  "homogeneous_poisson": null,
  "e_total": null,
  "e_ionic": null,
  "e_electronic": null,
  "n": null,
  "e_ij_max": null,
  "weighted_surface_energy_EV_PER_ANG2": null,
  "weighted_surface_energy": null,
  "weighted_work_function": null,
  "surface_anisotropy": null,
  "shape_factor": null,
  "has_reconstructed": null,
  "possible_species": null,
  "has_props": null,
  "theoretical": null,
  "database_IDs": null,
  "fields_not_requested": [
    "builder_meta",
    "nsites",
    "elements",
    "nelements",
    "composition",
    "composition_reduced",
    "chemsys",
    "symmetry",
    "property_name",
    "deprecated",
    "deprecation_reasons",
    "last_updated",
    "origins",
    "warnings",
    "task_ids",
    "uncorrected_energy_per_atom",
    "equilibrium_reaction_energy_per_atom",
    "decomposes_to",
    "xas",
    "grain_boundaries",
    "cbm",
    "vbm",
    "is_gap_direct",
    "is_metal",
    "es_source_calc_id",
    "bandstructure",
    "dos",
    "dos_energy_up",
    "dos_energy_down",
    "is_magnetic",
    "ordering",
    "total_magnetization_normalized_vol",
    "total_magnetization_normalized_formula_units",
    "num_magnetic_sites",
    "num_unique_magnetic_sites",
    "types_of_magnetic_species",
    "bulk_modulus",
    "shear_modulus",
    "universal_anisotropy",
    "homogeneous_poisson",
    "e_total",
    "e_ionic",
    "e_electronic",
    "n",
    "e_ij_max",
    "weighted_surface_energy_EV_PER_ANG2",
    "weighted_surface_energy",
    "weighted_work_function",
    "surface_anisotropy",
    "shape_factor",
    "has_reconstructed",
    "possible_species",
    "has_props",
    "theoretical",
    "database_IDs"
  ]
}
