{
  "builder_meta": null,
  "nsites": null,
  "elements": null,
  "nelements": null,
  "composition": null,
  "composition_reduced": null,
  "formula_pretty": "La2Sn3",
  "formula_anonymous": "A2B3",
  "chemsys": null,
  "volume": 604.1435655493351,
  "density": 6.969758559490363,
  "density_atomic": 30.207178277466756,
  "symmetry": null,
  "property_name": null,
  "material_id": "mp-1211329",
  "deprecated": null,
  "deprecation_reasons": null,
  "last_updated": null,
  "origins": null,
  "warnings": null,
  "structure": {
    "@module": "pymatgen.core.structure",
    "@class": "Structure",
    "charge": 0,
    "lattice": {
      "matrix": [
        [6.52597978, 0.01529459, -0.77035727],
        [-1.840836299999999, 8.13904724, -2.60031655],
        [-0.020233420000000002, -0.04237681, 11.38520858]
      ],
      "pbc": [true, true, true],
      "a": 6.57130857112143,
      "b": 8.740389832184443,
      "c": 11.385305423896906,
      "alpha": 107.49334053902254,
      "beta": 96.8345652382321,
      "gamma": 99.91085482350903,
      "volume": 604.1435655493351
    },
    "properties": {},
    "sites": [
      {
        "species": [{ "element": "La", "occu": 1 }],
        "abc": [0.32744223, 0.03571478, 0.74490977],
        "properties": { "magmom": 0.0 },
        "label": "La",
        "xyz": [2.056064236389082, 0.2641254764523092, 8.135835868830707]
      },
      {
        "species": [{ "element": "La", "occu": 1 }],
        "abc": [0.67255777, 0.96428522, 0.25509023000000003],
        "properties": { "magmom": 0.0 },
        "label": "La",
        "xyz": [2.608845823610919, 7.847839543547692, -0.12130110883070522]
      },
      {
        "species": [{ "element": "La", "occu": 1 }],
        "abc": [0.95820658, 0.25419344, 0.052428590000000004],
        "properties": { "magmom": 0.0 },
        "label": "La",
        "xyz": [5.784247444887603, 2.08132603663751, -0.8022343812929662]
      },
      {
        "species": [{ "element": "La", "occu": 1 }],
        "abc": [0.04179342, 0.74580656, 0.94757141],
        "properties": { "magmom": 0.0 },
        "label": "La",
        "xyz": [-1.1193373848876016, 6.03063898336249, 8.816769141292967]
      },
      {
        "species": [{ "element": "La", "occu": 1 }],
        "abc": [0.55790667, 0.43039075, 0.33520735],
        "properties": { "magmom": -0.0 },
        "label": "La",
        "xyz": [2.8418263406632716, 3.4972985815033915, 2.26746594789116]
      },
      {
        "species": [{ "element": "La", "occu": 1 }],
        "abc": [0.44209333, 0.5696092500000001, 0.66479265],
        "properties": { "magmom": -0.0 },
        "label": "La",
        "xyz": [1.82308371933673, 4.6146664384966085, 5.74706881210884]
      },
      {
        "species": [{ "element": "La", "occu": 1 }],
        "abc": [0.13041848, 0.749094399999999, 0.378892299999999],
        "properties": { "magmom": -0.0 },
        "label": "La",
        "xyz": [-0.535518087269049, 6.082853158991909, 2.265416474813256]
      },
      {
        "species": [{ "element": "La", "occu": 1 }],
        "abc": [0.86958152, 0.2509056, 0.621107699999999],
        "properties": { "magmom": -0.0 },
        "label": "La",
        "xyz": [5.200428147269052, 2.0291118610080843, 5.749118285186725]
      },
      {
        "species": [{ "element": "Sn", "occu": 1 }],
        "abc": [0.05172328, 0.34936429, 0.3804373],
        "properties": { "magmom": -0.0 },
        "label": "Sn",
        "xyz": [-0.31327493519501426, 2.828161827461102, 3.3830548620697884]
      },
      {
        "species": [{ "element": "Sn", "occu": 1 }],
        "abc": [0.9482767200000001, 0.65063571, 0.6195627],
        "properties": { "magmom": -0.0 },
        "label": "Sn",
        "xyz": [4.978184995195016, 5.283803192538898, 4.631479897930212]
      },
      {
        "species": [{ "element": "Sn", "occu": 1 }],
        "abc": [0.34913559, 0.16491264, 0.49478307],
        "properties": { "magmom": -0.0 },
        "label": "Sn",
        "xyz": [1.9648634731133392, 1.326604324987965, 4.93542424673431]
      },
      {
        "species": [{ "element": "Sn", "occu": 1 }],
        "abc": [0.6508644100000001, 0.8350873600000001, 0.50521693],
        "properties": { "magmom": -0.0 },
        "label": "Sn",
        "xyz": [2.700046586886662, 6.785360695012034, 3.079110513265691]
      },
      {
        "species": [{ "element": "Sn", "occu": 1 }],
        "abc": [0.43707048, 0.16212319, 0.05299988],
        "properties": { "magmom": -0.0 },
        "label": "Sn",
        "xyz": [2.552798492859108, 1.323967150057416, -0.1548573473512137]
      },
      {
        "species": [{ "element": "Sn", "occu": 1 }],
        "abc": [0.56292952, 0.83787681, 0.94700012],
        "properties": { "magmom": -0.0 },
        "label": "Sn",
        "xyz": [2.112111567140893, 6.787997869942584, 8.169392107351214]
      },
      {
        "species": [{ "element": "Sn", "occu": 1 }],
        "abc": [0.3318219, 0.59918225, 0.13421128000000002],
        "properties": { "magmom": 0.0 },
        "label": "Sn",
        "xyz": [1.0597510206485299, 4.876160272120594, -0.285661517562668]
      },
      {
        "species": [{ "element": "Sn", "occu": 1 }],
        "abc": [0.6681781, 0.40081775000000003, 0.8657887200000001],
        "properties": { "magmom": 0.0 },
        "label": "Sn",
        "xyz": [3.605159039351471, 3.2358047478794063, 8.30019627756267]
      },
      {
        "species": [{ "element": "Sn", "occu": 1 }],
        "abc": [0.22506278000000002, 0.40703426, 0.86562902],
        "properties": { "magmom": 0.0 },
        "label": "Sn",
        "xyz": [0.7019570748331025, 3.279630716871776, 8.623570274126578]
      },
      {
        "species": [{ "element": "Sn", "occu": 1 }],
        "abc": [0.77493722, 0.59296574, 0.13437098],
        "properties": { "magmom": 0.0 },
        "label": "Sn",
        "xyz": [3.9629529851668983, 4.832334303128223, -0.609035514126578]
      },
      {
        "species": [{ "element": "Sn", "occu": 1 }],
        "abc": [0.18179756, 0.0444493, 0.2237718],
        "properties": { "magmom": -0.0 },
        "label": "Sn",
        "xyz": [1.1000556468501907, 0.35507273657617433, 2.292057294881868]
      },
      {
        "species": [{ "element": "Sn", "occu": 1 }],
        "abc": [0.81820244, 0.9555507, 0.776228199999999],
        "properties": { "magmom": -0.0 },
        "label": "Sn",
        "xyz": [3.5648544131498108, 7.756892283423825, 5.722477465118121]
      }
    ]
  },
  "task_ids": null,
  "uncorrected_energy_per_atom": null,
  "energy_per_atom": -27.589312044000003,
  "formation_energy_per_atom": -0.843689693999999,
  "energy_above_hull": 0.0,
  "is_stable": true,
  "equilibrium_reaction_energy_per_atom": null,
  "decomposes_to": null,
  "xas": null,
  "grain_boundaries": null,
  "band_gap": 0.0,
  "cbm": null,
  "vbm": null,
  "efermi": 8.14836794,
  "is_gap_direct": null,
  "is_metal": null,
  "es_source_calc_id": null,
  "bandstructure": null,
  "dos": null,
  "dos_energy_up": null,
  "dos_energy_down": null,
  "is_magnetic": null,
  "ordering": null,
  "total_magnetization": 0.0008096,
  "total_magnetization_normalized_vol": null,
  "total_magnetization_normalized_formula_units": null,
  "num_magnetic_sites": null,
  "num_unique_magnetic_sites": null,
  "types_of_magnetic_species": null,
  "bulk_modulus": null,
  "shear_modulus": null,
  "universal_anisotropy": null,
  "homogeneous_poisson": null,
  "e_total": null,
  "e_ionic": null,
  "e_electronic": null,
  "n": null,
  "e_ij_max": null,
  "weighted_surface_energy_EV_PER_ANG2": null,
  "weighted_surface_energy": null,
  "weighted_work_function": null,
  "surface_anisotropy": null,
  "shape_factor": null,
  "has_reconstructed": null,
  "possible_species": null,
  "has_props": null,
  "theoretical": null,
  "database_IDs": null,
  "fields_not_requested": [
    "builder_meta",
    "nsites",
    "elements",
    "nelements",
    "composition",
    "composition_reduced",
    "chemsys",
    "symmetry",
    "property_name",
    "deprecated",
    "deprecation_reasons",
    "last_updated",
    "origins",
    "warnings",
    "task_ids",
    "uncorrected_energy_per_atom",
    "equilibrium_reaction_energy_per_atom",
    "decomposes_to",
    "xas",
    "grain_boundaries",
    "cbm",
    "vbm",
    "is_gap_direct",
    "is_metal",
    "es_source_calc_id",
    "bandstructure",
    "dos",
    "dos_energy_up",
    "dos_energy_down",
    "is_magnetic",
    "ordering",
    "total_magnetization_normalized_vol",
    "total_magnetization_normalized_formula_units",
    "num_magnetic_sites",
    "num_unique_magnetic_sites",
    "types_of_magnetic_species",
    "bulk_modulus",
    "shear_modulus",
    "universal_anisotropy",
    "homogeneous_poisson",
    "e_total",
    "e_ionic",
    "e_electronic",
    "n",
    "e_ij_max",
    "weighted_surface_energy_EV_PER_ANG2",
    "weighted_surface_energy",
    "weighted_work_function",
    "surface_anisotropy",
    "shape_factor",
    "has_reconstructed",
    "possible_species",
    "has_props",
    "theoretical",
    "database_IDs"
  ]
}
