{
  "builder_meta": null,
  "nsites": null,
  "elements": null,
  "nelements": null,
  "composition": null,
  "composition_reduced": null,
  "formula_pretty": "La2S3",
  "formula_anonymous": "A2B3",
  "chemsys": null,
  "volume": 504.1879526114183,
  "density": 4.927142517339004,
  "density_atomic": 25.209397630570916,
  "symmetry": null,
  "property_name": null,
  "material_id": "mp-7475",
  "deprecated": null,
  "deprecation_reasons": null,
  "last_updated": null,
  "origins": null,
  "warnings": null,
  "structure": {
    "@module": "pymatgen.core.structure",
    "@class": "Structure",
    "charge": 0,
    "lattice": {
      "matrix": [
        [4.15834987, 0.0, 0.0],
        [-0.0, 7.62781072, 0.0],
        [0.0, 0.0, 15.89540251]
      ],
      "pbc": [true, true, true],
      "a": 4.15834987,
      "b": 7.62781072,
      "c": 15.89540251,
      "alpha": 90.0,
      "beta": 90.0,
      "gamma": 90.0,
      "volume": 504.1879526114183
    },
    "properties": {},
    "sites": [
      {
        "species": [{ "element": "La", "occu": 1 }],
        "abc": [0.25, 0.64618366, 0.29524982],
        "properties": { "magmom": -0.0 },
        "label": "La",
        "xyz": [1.0395874675, 4.928966648836836, 4.693114729905048]
      },
      {
        "species": [{ "element": "La", "occu": 1 }],
        "abc": [0.75, 0.35381634, 0.70475018],
        "properties": { "magmom": -0.0 },
        "label": "La",
        "xyz": [3.1187624025000003, 2.698844071163165, 11.202287780094952]
      },
      {
        "species": [{ "element": "La", "occu": 1 }],
        "abc": [0.25, 0.14618366, 0.20475018],
        "properties": { "magmom": -0.0 },
        "label": "La",
        "xyz": [1.0395874675, 1.1150612888368352, 3.2545865250949517]
      },
      {
        "species": [{ "element": "La", "occu": 1 }],
        "abc": [0.75, 0.8538163400000001, 0.79524982],
        "properties": { "magmom": -0.0 },
        "label": "La",
        "xyz": [3.1187624025000003, 6.512749431163165, 12.640815984905048]
      },
      {
        "species": [{ "element": "La", "occu": 1 }],
        "abc": [0.25, 0.26424085, 0.9558486700000001],
        "properties": { "magmom": -0.0 },
        "label": "La",
        "xyz": [1.0395874675, 2.015579188291912, 15.193599348298163]
      },
      {
        "species": [{ "element": "La", "occu": 1 }],
        "abc": [0.75, 0.73575915, 0.04415133],
        "properties": { "magmom": -0.0 },
        "label": "La",
        "xyz": [3.1187624025000003, 5.612231531708089, 0.7018031617018383]
      },
      {
        "species": [{ "element": "La", "occu": 1 }],
        "abc": [0.25, 0.76424085, 0.54415133],
        "properties": { "magmom": -0.0 },
        "label": "La",
        "xyz": [1.0395874675, 5.829484548291912, 8.64950441670184]
      },
      {
        "species": [{ "element": "La", "occu": 1 }],
        "abc": [0.75, 0.23575915, 0.45584867],
        "properties": { "magmom": -0.0 },
        "label": "La",
        "xyz": [3.1187624025000003, 1.798326171708088, 7.245898093298162]
      },
      {
        "species": [{ "element": "S", "occu": 1 }],
        "abc": [0.25, 0.87121673, 0.93299293],
        "properties": { "magmom": 0.0 },
        "label": "S",
        "xyz": [1.0395874675, 6.645476312537346, 14.830298161334255]
      },
      {
        "species": [{ "element": "S", "occu": 1 }],
        "abc": [0.75, 0.12878327, 0.06700707],
        "properties": { "magmom": 0.0 },
        "label": "S",
        "xyz": [3.1187624025000003, 0.9823344074626544, 1.0651043486657457]
      },
      {
        "species": [{ "element": "S", "occu": 1 }],
        "abc": [0.25, 0.37121673, 0.5670070700000001],
        "properties": { "magmom": 0.0 },
        "label": "S",
        "xyz": [1.0395874675, 2.8315709525373456, 9.012805603665747]
      },
      {
        "species": [{ "element": "S", "occu": 1 }],
        "abc": [0.75, 0.62878327, 0.43299293],
        "properties": { "magmom": 0.0 },
        "label": "S",
        "xyz": [3.1187624025000003, 4.796239767462654, 6.882596906334254]
      },
      {
        "species": [{ "element": "S", "occu": 1 }],
        "abc": [0.25, 0.64568453, 0.71956614],
        "properties": { "magmom": 0.0 },
        "label": "S",
        "xyz": [1.0395874675, 4.925159379672162, 11.43779342786701]
      },
      {
        "species": [{ "element": "S", "occu": 1 }],
        "abc": [0.75, 0.35431547, 0.28043386],
        "properties": { "magmom": 0.0 },
        "label": "S",
        "xyz": [3.1187624025000003, 2.7026513403278387, 4.457609082132988]
      },
      {
        "species": [{ "element": "S", "occu": 1 }],
        "abc": [0.25, 0.14568453, 0.78043386],
        "properties": { "magmom": 0.0 },
        "label": "S",
        "xyz": [1.0395874675, 1.1112540196721616, 12.40531033713299]
      },
      {
        "species": [{ "element": "S", "occu": 1 }],
        "abc": [0.75, 0.85431547, 0.21956614],
        "properties": { "magmom": 0.0 },
        "label": "S",
        "xyz": [3.1187624025000003, 6.516556700327838, 3.4900921728670116]
      },
      {
        "species": [{ "element": "S", "occu": 1 }],
        "abc": [0.75, 0.98824524, 0.60949917],
        "properties": { "magmom": 0.0 },
        "label": "S",
        "xyz": [3.1187624025000003, 7.538147635660973, 9.688234636660917]
      },
      {
        "species": [{ "element": "S", "occu": 1 }],
        "abc": [0.25, 0.01175476, 0.39050083],
        "properties": { "magmom": 0.0 },
        "label": "S",
        "xyz": [1.0395874675, 0.0896630843390272, 6.207167873339084]
      },
      {
        "species": [{ "element": "S", "occu": 1 }],
        "abc": [0.75, 0.48824524, 0.89050083],
        "properties": { "magmom": 0.0 },
        "label": "S",
        "xyz": [3.1187624025000003, 3.724242275660973, 14.154869128339083]
      },
      {
        "species": [{ "element": "S", "occu": 1 }],
        "abc": [0.25, 0.51175476, 0.10949917],
        "properties": { "magmom": 0.0 },
        "label": "S",
        "xyz": [1.0395874675, 3.9035684443390273, 1.7405333816609168]
      }
    ]
  },
  "task_ids": null,
  "uncorrected_energy_per_atom": null,
  "energy_per_atom": -19.2266399765,
  "formation_energy_per_atom": -2.507728445187498,
  "energy_above_hull": 0.0,
  "is_stable": true,
  "equilibrium_reaction_energy_per_atom": null,
  "decomposes_to": null,
  "xas": null,
  "grain_boundaries": null,
  "band_gap": 1.0358,
  "cbm": null,
  "vbm": null,
  "efermi": 6.01959917,
  "is_gap_direct": null,
  "is_metal": null,
  "es_source_calc_id": null,
  "bandstructure": null,
  "dos": null,
  "dos_energy_up": null,
  "dos_energy_down": null,
  "is_magnetic": null,
  "ordering": null,
  "total_magnetization": 2.4200000000000002e-5,
  "total_magnetization_normalized_vol": null,
  "total_magnetization_normalized_formula_units": null,
  "num_magnetic_sites": null,
  "num_unique_magnetic_sites": null,
  "types_of_magnetic_species": null,
  "bulk_modulus": null,
  "shear_modulus": null,
  "universal_anisotropy": null,
  "homogeneous_poisson": null,
  "e_total": null,
  "e_ionic": null,
  "e_electronic": null,
  "n": null,
  "e_ij_max": null,
  "weighted_surface_energy_EV_PER_ANG2": null,
  "weighted_surface_energy": null,
  "weighted_work_function": null,
  "surface_anisotropy": null,
  "shape_factor": null,
  "has_reconstructed": null,
  "possible_species": null,
  "has_props": null,
  "theoretical": null,
  "database_IDs": null,
  "fields_not_requested": [
    "builder_meta",
    "nsites",
    "elements",
    "nelements",
    "composition",
    "composition_reduced",
    "chemsys",
    "symmetry",
    "property_name",
    "deprecated",
    "deprecation_reasons",
    "last_updated",
    "origins",
    "warnings",
    "task_ids",
    "uncorrected_energy_per_atom",
    "equilibrium_reaction_energy_per_atom",
    "decomposes_to",
    "xas",
    "grain_boundaries",
    "cbm",
    "vbm",
    "is_gap_direct",
    "is_metal",
    "es_source_calc_id",
    "bandstructure",
    "dos",
    "dos_energy_up",
    "dos_energy_down",
    "is_magnetic",
    "ordering",
    "total_magnetization_normalized_vol",
    "total_magnetization_normalized_formula_units",
    "num_magnetic_sites",
    "num_unique_magnetic_sites",
    "types_of_magnetic_species",
    "bulk_modulus",
    "shear_modulus",
    "universal_anisotropy",
    "homogeneous_poisson",
    "e_total",
    "e_ionic",
    "e_electronic",
    "n",
    "e_ij_max",
    "weighted_surface_energy_EV_PER_ANG2",
    "weighted_surface_energy",
    "weighted_work_function",
    "surface_anisotropy",
    "shape_factor",
    "has_reconstructed",
    "possible_species",
    "has_props",
    "theoretical",
    "database_IDs"
  ]
}
