{
  "builder_meta": null,
  "nsites": null,
  "elements": null,
  "nelements": null,
  "composition": null,
  "composition_reduced": null,
  "formula_pretty": "La2Si3",
  "formula_anonymous": "A2B3",
  "chemsys": null,
  "volume": 125.90404305658794,
  "density": 4.775280557063828,
  "density_atomic": 25.180808611317588,
  "symmetry": null,
  "property_name": null,
  "material_id": "mp-1223125",
  "deprecated": null,
  "deprecation_reasons": null,
  "last_updated": null,
  "origins": null,
  "warnings": null,
  "structure": {
    "@module": "pymatgen.core.structure",
    "@class": "Structure",
    "charge": 0,
    "lattice": {
      "matrix": [
        [-2.00502713, 2.17617616, 7.21382136],
        [2.00502713, -2.17617616, 7.21382136],
        [2.00502713, 2.17617616, -7.21382136]
      ],
      "pbc": [true, true, true],
      "a": 7.797120948489938,
      "b": 7.797120948489938,
      "c": 7.797120948489938,
      "alpha": 150.19799798419683,
      "beta": 147.58701004337044,
      "gamma": 44.60583703023272,
      "volume": 125.90404305658794
    },
    "properties": {},
    "sites": [
      {
        "species": [{ "element": "La", "occu": 1 }],
        "abc": [0.62532013, 0.62532013, -0.0],
        "properties": { "magmom": 0.0 },
        "label": "La",
        "xyz": [0.0, 0.0, 9.021895421263952]
      },
      {
        "species": [{ "element": "La", "occu": 1 }],
        "abc": [0.87601303, 0.37601303, 0.5],
        "properties": { "magmom": 0.0 },
        "label": "La",
        "xyz": [2.220446049250313e-16, 2.17617616, 5.42498165490464]
      },
      {
        "species": [{ "element": "Si", "occu": 1 }],
        "abc": [0.45896852, 0.95896852, 0.5],
        "properties": { "magmom": 0.0 },
        "label": "Si",
        "xyz": [2.00502713, -2.220446049250313e-16, 6.621833826287174]
      },
      {
        "species": [{ "element": "Si", "occu": 1 }],
        "abc": [0.20627463000000001, 0.20627463000000001, 0.0],
        "properties": { "magmom": -0.0 },
        "label": "Si",
        "xyz": [0.0, 0.0, 2.9760566638401937]
      },
      {
        "species": [{ "element": "Si", "occu": 1 }],
        "abc": [0.29742469, 0.79742469, 0.5],
        "properties": { "magmom": -0.0 },
        "label": "Si",
        "xyz": [2.00502713, 0.0, 4.291137163426756]
      }
    ]
  },
  "task_ids": null,
  "uncorrected_energy_per_atom": null,
  "energy_per_atom": -17.871449952,
  "formation_energy_per_atom": -0.709279112999999,
  "energy_above_hull": 0.041471797999999005,
  "is_stable": false,
  "equilibrium_reaction_energy_per_atom": null,
  "decomposes_to": null,
  "xas": null,
  "grain_boundaries": null,
  "band_gap": 0.0,
  "cbm": null,
  "vbm": null,
  "efermi": 7.47535453,
  "is_gap_direct": null,
  "is_metal": null,
  "es_source_calc_id": null,
  "bandstructure": null,
  "dos": null,
  "dos_energy_up": null,
  "dos_energy_down": null,
  "is_magnetic": null,
  "ordering": null,
  "total_magnetization": 0.0005258,
  "total_magnetization_normalized_vol": null,
  "total_magnetization_normalized_formula_units": null,
  "num_magnetic_sites": null,
  "num_unique_magnetic_sites": null,
  "types_of_magnetic_species": null,
  "bulk_modulus": null,
  "shear_modulus": null,
  "universal_anisotropy": null,
  "homogeneous_poisson": null,
  "e_total": null,
  "e_ionic": null,
  "e_electronic": null,
  "n": null,
  "e_ij_max": null,
  "weighted_surface_energy_EV_PER_ANG2": null,
  "weighted_surface_energy": null,
  "weighted_work_function": null,
  "surface_anisotropy": null,
  "shape_factor": null,
  "has_reconstructed": null,
  "possible_species": null,
  "has_props": null,
  "theoretical": null,
  "database_IDs": null,
  "fields_not_requested": [
    "builder_meta",
    "nsites",
    "elements",
    "nelements",
    "composition",
    "composition_reduced",
    "chemsys",
    "symmetry",
    "property_name",
    "deprecated",
    "deprecation_reasons",
    "last_updated",
    "origins",
    "warnings",
    "task_ids",
    "uncorrected_energy_per_atom",
    "equilibrium_reaction_energy_per_atom",
    "decomposes_to",
    "xas",
    "grain_boundaries",
    "cbm",
    "vbm",
    "is_gap_direct",
    "is_metal",
    "es_source_calc_id",
    "bandstructure",
    "dos",
    "dos_energy_up",
    "dos_energy_down",
    "is_magnetic",
    "ordering",
    "total_magnetization_normalized_vol",
    "total_magnetization_normalized_formula_units",
    "num_magnetic_sites",
    "num_unique_magnetic_sites",
    "types_of_magnetic_species",
    "bulk_modulus",
    "shear_modulus",
    "universal_anisotropy",
    "homogeneous_poisson",
    "e_total",
    "e_ionic",
    "e_electronic",
    "n",
    "e_ij_max",
    "weighted_surface_energy_EV_PER_ANG2",
    "weighted_surface_energy",
    "weighted_work_function",
    "surface_anisotropy",
    "shape_factor",
    "has_reconstructed",
    "possible_species",
    "has_props",
    "theoretical",
    "database_IDs"
  ]
}
