{
  "builder_meta": null,
  "nsites": null,
  "elements": null,
  "nelements": null,
  "composition": null,
  "composition_reduced": null,
  "formula_pretty": "La2Se3",
  "formula_anonymous": "A2B3",
  "chemsys": null,
  "volume": 1131.0472000690804,
  "density": 6.045119341034584,
  "density_atomic": 28.27618000172701,
  "symmetry": null,
  "property_name": null,
  "material_id": "mp-32798",
  "deprecated": null,
  "deprecation_reasons": null,
  "last_updated": null,
  "origins": null,
  "warnings": null,
  "structure": {
    "@module": "pymatgen.core.structure",
    "@class": "Structure",
    "charge": 0,
    "lattice": {
      "matrix": [
        [-4.55493445, 4.5545548700000005, 13.630006999999999],
        [4.55474403, -4.5547301000000004, 13.63000182],
        [4.55490761, 4.5547023, -13.63006475]
      ],
      "pbc": [true, true, true],
      "a": 15.075426651597178,
      "b": 15.075417376506362,
      "c": 15.075515296879699,
      "alpha": 144.82823881926896,
      "beta": 144.82982271044193,
      "gamma": 50.58971059595887,
      "volume": 1131.0472000690806
    },
    "properties": {},
    "sites": [
      {
        "species": [{ "element": "La", "occu": 1 }],
        "abc": [0.20240006, 0.32341746, 0.6039888800000001],
        "properties": { "magmom": 0.0 },
        "label": "La",
        "xyz": [3.302278285024074, 2.1997524799441703, -1.065512739659784]
      },
      {
        "species": [{ "element": "La", "occu": 1 }],
        "abc": [0.41561218, 0.91560022, 0.49996355000000003],
        "properties": { "magmom": 0.0 },
        "label": "La",
        "xyz": [4.554526178007702, -0.00019827204914069085, 11.329894028537797]
      },
      {
        "species": [{ "element": "La", "occu": 1 }],
        "abc": [0.99500935, 0.62501578, 0.87004729],
        "properties": { "magmom": -0.0 },
        "label": "La",
        "xyz": [2.2775695485045624, 5.647852887468824, 10.22214972623214]
      },
      {
        "species": [{ "element": "La", "occu": 1 }],
        "abc": [0.33438341, 0.33436639, 1.3660000000000001e-5],
        "properties": { "magmom": 0.0 },
        "label": "La",
        "xyz": [-7.897499437008293e-5, 8.11447347855605e-5, 9.114876536546216]
      },
      {
        "species": [{ "element": "La", "occu": 1 }],
        "abc": [0.03066911, 0.92676855, 0.379258999999999],
        "properties": { "magmom": -0.0 },
        "label": "La",
        "xyz": [5.808987439875404, -2.354084626513594, 7.880552480182296]
      },
      {
        "species": [{ "element": "La", "occu": 1 }],
        "abc": [0.75499494, 0.12499257, 0.13001948],
        "properties": { "magmom": -0.0 },
        "label": "La",
        "xyz": [-2.277416580879583, 3.4615584845478047, 10.222061342589727]
      },
      {
        "species": [{ "element": "La", "occu": 1 }],
        "abc": [0.54753222, 0.65142636, 0.62077665],
        "properties": { "magmom": 0.0 },
        "label": "La",
        "xyz": [3.3006872400269582, 2.3541471247987706, 7.880584528933426]
      },
      {
        "species": [{ "element": "La", "occu": 1 }],
        "abc": [0.34864933000000004, 0.96930768, 0.89613529],
        "properties": { "magmom": -0.0 },
        "label": "La",
        "xyz": [6.90868697653729, 1.2546371040907358, 5.749376223525259]
      },
      {
        "species": [{ "element": "La", "occu": 1 }],
        "abc": [0.37500722000000003, 0.24501365, 0.36999008],
        "properties": { "magmom": -0.0 },
        "label": "La",
        "xyz": [1.093111785245789, 2.277214581923481, 3.4078987818177042]
      },
      {
        "species": [{ "element": "La", "occu": 1 }],
        "abc": [0.66560396, 0.66559757, -3.27e-6],
        "properties": { "magmom": 0.0 },
        "label": "La",
        "xyz": [
          -0.00017074366829947495, -0.00010242293309261136, 18.14432729482703
        ]
      },
      {
        "species": [{ "element": "La", "occu": 1 }],
        "abc": [0.87501698, 0.00501253, 0.63000159],
        "properties": { "magmom": 0.0 },
        "label": "La",
        "xyz": [-1.0932151588411658, 6.831951817300197, 3.4078458912387113]
      },
      {
        "species": [{ "element": "La", "occu": 1 }],
        "abc": [0.07325917, 0.45250088, 0.10391986],
        "properties": { "magmom": 0.0 },
        "label": "La",
        "xyz": [2.2006803256824745, -1.2540324435591526, 5.749676397254857]
      },
      {
        "species": [{ "element": "La", "occu": 1 }],
        "abc": [0.08431384, 0.58436736, 0.499939099999999],
        "properties": { "magmom": 0.0 },
        "label": "La",
        "xyz": [4.554776140985619, -0.0005498248392097338, 2.2999241056887634]
      },
      {
        "species": [{ "element": "La", "occu": 1 }],
        "abc": [0.67655946, 0.28055156000000003, 0.87897927],
        "properties": { "magmom": 0.0 },
        "label": "La",
        "xyz": [2.1998259171450343, 5.8070794511749355, 1.0648840851123271]
      },
      {
        "species": [{ "element": "La", "occu": 1 }],
        "abc": [0.71938648, 0.59843063, 0.39597961],
        "properties": { "magmom": 0.0 },
        "label": "La",
        "xyz": [1.2525906177392345, 2.354364433093298, 12.564625610169358]
      },
      {
        "species": [{ "element": "La", "occu": 1 }],
        "abc": [0.40155086, 0.79752654, 0.12092749],
        "properties": { "magmom": 0.0 },
        "label": "La",
        "xyz": [2.354304945649628, -1.2528439954849389, 14.695179705599347]
      },
      {
        "species": [{ "element": "Se", "occu": 1 }],
        "abc": [0.71344695, 0.8227666100000001, 0.74590272],
        "properties": { "magmom": 0.0 },
        "label": "Se",
        "xyz": [3.8953051898261104, 2.899318271127441, 10.771894943562762]
      },
      {
        "species": [{ "element": "Se", "occu": 1 }],
        "abc": [0.36304004, 0.6096183, 0.10586692],
        "properties": { "magmom": 0.0 },
        "label": "Se",
        "xyz": [1.605245767133632, -0.6409687343159189, 11.814363850502515]
      },
      {
        "species": [{ "element": "Se", "occu": 1 }],
        "abc": [0.50371474, 0.25716097, 0.8940898700000001],
        "properties": { "magmom": -0.0 },
        "label": "Se",
        "xyz": [2.9494115235446268, 5.195210798849288, -1.815762899082939]
      },
      {
        "species": [{ "element": "Se", "occu": 1 }],
        "abc": [0.24624549, 0.6402707400000001, 0.25323388],
        "properties": { "magmom": -0.0 },
        "label": "Se",
        "xyz": [2.9480941921623787, -0.6413168802583138, 8.631624922617448]
      },
      {
        "species": [{ "element": "Se", "occu": 1 }],
        "abc": [0.38707147000000003, 0.99299879, 0.74678393],
        "properties": { "magmom": 0.0 },
        "label": "Se",
        "xyz": [6.161301943017289, 0.6414752542240185, 8.631648840398622]
      },
      {
        "species": [{ "element": "Se", "occu": 1 }],
        "abc": [0.07687565, 0.96755177, 0.25412798000000003],
        "properties": { "magmom": 0.0 },
        "label": "Se",
        "xyz": [5.214316571588219, -2.899325509035008, 10.771767211487067]
      },
      {
        "species": [{ "element": "Se", "occu": 1 }],
        "abc": [0.672986699999999, 0.42697395, 0.3903814],
        "properties": { "magmom": 0.0 },
        "label": "Se",
        "xyz": [0.6574979551686615, 2.89847481040655, 9.671545388303826]
      },
      {
        "species": [{ "element": "Se", "occu": 1 }],
        "abc": [0.03662435, 0.28264051, 0.60967251],
        "properties": { "magmom": 0.0 },
        "label": "Se",
        "xyz": [3.8975356174415987, 1.656333156820506, -3.9582949750188456]
      },
      {
        "species": [{ "element": "Se", "occu": 1 }],
        "abc": [0.06206462, 0.15384344, 0.74886578],
        "properties": { "magmom": 0.0 },
        "label": "Se",
        "xyz": [3.8290316543210903, 2.992822060977449, -7.264261498211855]
      },
      {
        "species": [{ "element": "Se", "occu": 1 }],
        "abc": [0.68680569, 0.93796722, 0.09180728],
        "properties": { "magmom": 0.0 },
        "label": "Se",
        "xyz": [1.5620193761190768, -0.7259385002413674, 20.894322107118793]
      },
      {
        "species": [{ "element": "Se", "occu": 1 }],
        "abc": [0.57298857, 0.96341001, 0.246001399999999],
        "properties": { "magmom": 0.0 },
        "label": "Se",
        "xyz": [2.898674263471153, -0.6579015468572496, 17.58810339913557]
      },
      {
        "species": [{ "element": "Se", "occu": 1 }],
        "abc": [0.84615828, 0.59498509, 0.90818325],
        "properties": { "magmom": 0.0 },
        "label": "Se",
        "xyz": [2.9925000835912994, 5.280382154087089, 7.2641946367153825]
      },
      {
        "species": [{ "element": "Se", "occu": 1 }],
        "abc": [0.71737799, 0.32699619, 0.75397929],
        "properties": { "magmom": -0.0 },
        "label": "Se",
        "xyz": [1.6560802297158868, 5.212109235122359, 3.958039147319969]
      },
      {
        "species": [{ "element": "Se", "occu": 1 }],
        "abc": [0.00695323, 0.75378552, 0.393994399999999],
        "properties": { "magmom": -0.0 },
        "label": "Se",
        "xyz": [5.196236681112051, -1.607093529462307, 4.998701399924871]
      },
      {
        "species": [{ "element": "Se", "occu": 1 }],
        "abc": [0.40503543000000003, 0.31320269, 0.25119733],
        "properties": { "magmom": 0.0 },
        "label": "Se",
        "xyz": [0.7258288789085583, 1.5623314273899342, 6.365753107949789]
      },
      {
        "species": [{ "element": "Se", "occu": 1 }],
        "abc": [0.35978394, 0.61295537, 0.60600102],
        "properties": { "magmom": -0.0 },
        "label": "Se",
        "xyz": [3.9133412069669706, 1.6069636619754966, 4.99860728820031]
      },
      {
        "species": [{ "element": "Se", "occu": 1 }],
        "abc": [0.39038717, 0.49624608000000003, 0.75341666],
        "properties": { "magmom": -0.0 },
        "label": "Se",
        "xyz": [3.9138291789546784, 2.949361422886327, 1.8156969738493203]
      },
      {
        "species": [{ "element": "Se", "occu": 1 }],
        "abc": [0.03244614, 0.28657601, 0.10931643],
        "properties": { "magmom": -0.0 },
        "label": "Se",
        "xyz": [1.6554165687382296, -0.6595948585864102, 2.858282634052476]
      },
      {
        "species": [{ "element": "Se", "occu": 1 }],
        "abc": [0.90357167, 0.31206375000000003, 0.24860556],
        "properties": { "magmom": -0.0 },
        "label": "Se",
        "xyz": [-1.561963868302808, 3.8263249106734465, 13.180607787547705]
      },
      {
        "species": [{ "element": "Se", "occu": 1 }],
        "abc": [0.17725008, 0.92314819, 0.89069126],
        "properties": { "magmom": -0.0 },
        "label": "Se",
        "xyz": [7.454357609885038, 0.6594378978302684, 2.8582517949211805]
      },
      {
        "species": [{ "element": "Se", "occu": 1 }],
        "abc": [0.06343362, 0.6549738700000001, 0.75135143],
        "properties": { "magmom": 0.0 },
        "label": "Se",
        "xyz": [6.116638689453669, 0.7278647888195309, -0.44907291611730926]
      },
      {
        "species": [{ "element": "Se", "occu": 1 }],
        "abc": [0.74280778, 0.63697642, 0.24657878],
        "properties": { "magmom": -0.0 },
        "label": "Se",
        "xyz": [0.640967360882267, 1.6049960551058409, 15.44558026757554]
      },
      {
        "species": [{ "element": "Se", "occu": 1 }],
        "abc": [0.34504756000000003, 0.09638713, 0.40844039],
        "properties": { "magmom": -0.0 },
        "label": "Se",
        "xyz": [0.7277579276462596, 2.9928450662619013, 0.4496884532422447]
      },
      {
        "species": [{ "element": "Se", "occu": 1 }],
        "abc": [0.68793529, 0.93660566, 0.591572],
        "properties": { "magmom": -0.0 },
        "label": "Se",
        "xyz": [3.827054691220389, 1.5616873828975963, 14.07933500438233]
      }
    ]
  },
  "task_ids": null,
  "uncorrected_energy_per_atom": null,
  "energy_per_atom": -22.82714325275,
  "formation_energy_per_atom": -2.342295032187499,
  "energy_above_hull": 0.0,
  "is_stable": true,
  "equilibrium_reaction_energy_per_atom": null,
  "decomposes_to": null,
  "xas": null,
  "grain_boundaries": null,
  "band_gap": 1.58,
  "cbm": null,
  "vbm": null,
  "efermi": 6.10857744,
  "is_gap_direct": null,
  "is_metal": null,
  "es_source_calc_id": null,
  "bandstructure": null,
  "dos": null,
  "dos_energy_up": null,
  "dos_energy_down": null,
  "is_magnetic": null,
  "ordering": null,
  "total_magnetization": 0.0,
  "total_magnetization_normalized_vol": null,
  "total_magnetization_normalized_formula_units": null,
  "num_magnetic_sites": null,
  "num_unique_magnetic_sites": null,
  "types_of_magnetic_species": null,
  "bulk_modulus": null,
  "shear_modulus": null,
  "universal_anisotropy": null,
  "homogeneous_poisson": null,
  "e_total": null,
  "e_ionic": null,
  "e_electronic": null,
  "n": null,
  "e_ij_max": null,
  "weighted_surface_energy_EV_PER_ANG2": null,
  "weighted_surface_energy": null,
  "weighted_work_function": null,
  "surface_anisotropy": null,
  "shape_factor": null,
  "has_reconstructed": null,
  "possible_species": null,
  "has_props": null,
  "theoretical": null,
  "database_IDs": null,
  "fields_not_requested": [
    "builder_meta",
    "nsites",
    "elements",
    "nelements",
    "composition",
    "composition_reduced",
    "chemsys",
    "symmetry",
    "property_name",
    "deprecated",
    "deprecation_reasons",
    "last_updated",
    "origins",
    "warnings",
    "task_ids",
    "uncorrected_energy_per_atom",
    "equilibrium_reaction_energy_per_atom",
    "decomposes_to",
    "xas",
    "grain_boundaries",
    "cbm",
    "vbm",
    "is_gap_direct",
    "is_metal",
    "es_source_calc_id",
    "bandstructure",
    "dos",
    "dos_energy_up",
    "dos_energy_down",
    "is_magnetic",
    "ordering",
    "total_magnetization_normalized_vol",
    "total_magnetization_normalized_formula_units",
    "num_magnetic_sites",
    "num_unique_magnetic_sites",
    "types_of_magnetic_species",
    "bulk_modulus",
    "shear_modulus",
    "universal_anisotropy",
    "homogeneous_poisson",
    "e_total",
    "e_ionic",
    "e_electronic",
    "n",
    "e_ij_max",
    "weighted_surface_energy_EV_PER_ANG2",
    "weighted_surface_energy",
    "weighted_work_function",
    "surface_anisotropy",
    "shape_factor",
    "has_reconstructed",
    "possible_species",
    "has_props",
    "theoretical",
    "database_IDs"
  ]
}
