{
  "builder_meta": null,
  "nsites": null,
  "elements": null,
  "nelements": null,
  "composition": null,
  "composition_reduced": null,
  "formula_pretty": "La2Te5",
  "formula_anonymous": "A2B5",
  "chemsys": null,
  "volume": 455.61886815960634,
  "density": 6.675491072757519,
  "density_atomic": 32.54420486854331,
  "symmetry": null,
  "property_name": null,
  "material_id": "mp-1104212",
  "deprecated": null,
  "deprecation_reasons": null,
  "last_updated": null,
  "origins": null,
  "warnings": null,
  "structure": {
    "@module": "pymatgen.core.structure",
    "@class": "Structure",
    "charge": 0,
    "lattice": {
      "matrix": [
        [2.241199, -22.696759, 0.0],
        [2.241199, 22.696759, 0.0],
        [0.0, 0.0, 4.478447]
      ],
      "pbc": [true, true, true],
      "a": 22.80714453985159,
      "b": 22.80714453985159,
      "c": 4.478447,
      "alpha": 90.0,
      "beta": 90.0,
      "gamma": 168.72118220495662,
      "volume": 455.61886815960634
    },
    "properties": {},
    "sites": [
      {
        "species": [{ "element": "La", "occu": 1 }],
        "abc": [0.901982, 0.098018, 0.25],
        "properties": { "magmom": 0.0 },
        "label": "La",
        "xyz": [2.241199, -18.247377152676, 1.11961175]
      },
      {
        "species": [{ "element": "La", "occu": 1 }],
        "abc": [0.098018, 0.901982, 0.75],
        "properties": { "magmom": 0.0 },
        "label": "La",
        "xyz": [2.241199, 18.247377152676, 3.3588352500000003]
      },
      {
        "species": [{ "element": "La", "occu": 1 }],
        "abc": [0.692869, 0.307131, 0.25],
        "properties": { "magmom": 0.0 },
        "label": "La",
        "xyz": [2.241199, -8.755002423141999, 1.11961175]
      },
      {
        "species": [{ "element": "La", "occu": 1 }],
        "abc": [0.307131, 0.692869, 0.75],
        "properties": { "magmom": 0.0 },
        "label": "La",
        "xyz": [2.241199, 8.755002423141999, 3.3588352500000003]
      },
      {
        "species": [{ "element": "Te", "occu": 1 }],
        "abc": [0.041375999999999004, 0.958623999999999, 0.25],
        "properties": { "magmom": -0.0 },
        "label": "Te",
        "xyz": [2.241198999999996, 20.818556799232002, 1.11961175]
      },
      {
        "species": [{ "element": "Te", "occu": 1 }],
        "abc": [0.958623999999999, 0.041375999999999004, 0.75],
        "properties": { "magmom": -0.0 },
        "label": "Te",
        "xyz": [2.241198999999996, -20.818556799232002, 3.3588352500000003]
      },
      {
        "species": [{ "element": "Te", "occu": 1 }],
        "abc": [0.458113999999999, 0.541886, 0.25],
        "properties": { "magmom": -0.0 },
        "label": "Te",
        "xyz": [2.2411989999999977, 1.9013528949480207, 1.11961175]
      },
      {
        "species": [{ "element": "Te", "occu": 1 }],
        "abc": [0.541886, 0.458113999999999, 0.75],
        "properties": { "magmom": -0.0 },
        "label": "Te",
        "xyz": [2.2411989999999977, -1.9013528949480207, 3.3588352500000003]
      },
      {
        "species": [{ "element": "Te", "occu": 1 }],
        "abc": [0.24996000000000002, 0.75004, 0.25],
        "properties": { "magmom": 0.0 },
        "label": "Te",
        "xyz": [2.241199, 11.350195240720002, 1.11961175]
      },
      {
        "species": [{ "element": "Te", "occu": 1 }],
        "abc": [0.75004, 0.24996000000000002, 0.75],
        "properties": { "magmom": 0.0 },
        "label": "Te",
        "xyz": [2.241199, -11.350195240720002, 3.3588352500000003]
      },
      {
        "species": [{ "element": "Te", "occu": 1 }],
        "abc": [0.826472, 0.173528, 0.25],
        "properties": { "magmom": -0.0 },
        "label": "Te",
        "xyz": [2.241199, -14.819712608496, 1.11961175]
      },
      {
        "species": [{ "element": "Te", "occu": 1 }],
        "abc": [0.173528, 0.826472, 0.75],
        "properties": { "magmom": -0.0 },
        "label": "Te",
        "xyz": [2.241199, 14.819712608496, 3.3588352500000003]
      },
      {
        "species": [{ "element": "Te", "occu": 1 }],
        "abc": [0.619257, 0.380743, 0.25],
        "properties": { "magmom": -0.0 },
        "label": "Te",
        "xyz": [2.241199, -5.413494776125999, 1.11961175]
      },
      {
        "species": [{ "element": "Te", "occu": 1 }],
        "abc": [0.380743, 0.619257, 0.75],
        "properties": { "magmom": -0.0 },
        "label": "Te",
        "xyz": [2.241199, 5.413494776125999, 3.3588352500000003]
      }
    ]
  },
  "task_ids": null,
  "uncorrected_energy_per_atom": null,
  "energy_per_atom": -5.145799275714286,
  "formation_energy_per_atom": -1.490293036190476,
  "energy_above_hull": 0.030574109464287003,
  "is_stable": false,
  "equilibrium_reaction_energy_per_atom": null,
  "decomposes_to": null,
  "xas": null,
  "grain_boundaries": null,
  "band_gap": 0.0,
  "cbm": null,
  "vbm": null,
  "efermi": 6.8295549399999995,
  "is_gap_direct": null,
  "is_metal": null,
  "es_source_calc_id": null,
  "bandstructure": null,
  "dos": null,
  "dos_energy_up": null,
  "dos_energy_down": null,
  "is_magnetic": null,
  "ordering": null,
  "total_magnetization": 0.0002742,
  "total_magnetization_normalized_vol": null,
  "total_magnetization_normalized_formula_units": null,
  "num_magnetic_sites": null,
  "num_unique_magnetic_sites": null,
  "types_of_magnetic_species": null,
  "bulk_modulus": null,
  "shear_modulus": null,
  "universal_anisotropy": null,
  "homogeneous_poisson": null,
  "e_total": null,
  "e_ionic": null,
  "e_electronic": null,
  "n": null,
  "e_ij_max": null,
  "weighted_surface_energy_EV_PER_ANG2": null,
  "weighted_surface_energy": null,
  "weighted_work_function": null,
  "surface_anisotropy": null,
  "shape_factor": null,
  "has_reconstructed": null,
  "possible_species": null,
  "has_props": null,
  "theoretical": null,
  "database_IDs": null,
  "fields_not_requested": [
    "builder_meta",
    "nsites",
    "elements",
    "nelements",
    "composition",
    "composition_reduced",
    "chemsys",
    "symmetry",
    "property_name",
    "deprecated",
    "deprecation_reasons",
    "last_updated",
    "origins",
    "warnings",
    "task_ids",
    "uncorrected_energy_per_atom",
    "equilibrium_reaction_energy_per_atom",
    "decomposes_to",
    "xas",
    "grain_boundaries",
    "cbm",
    "vbm",
    "is_gap_direct",
    "is_metal",
    "es_source_calc_id",
    "bandstructure",
    "dos",
    "dos_energy_up",
    "dos_energy_down",
    "is_magnetic",
    "ordering",
    "total_magnetization_normalized_vol",
    "total_magnetization_normalized_formula_units",
    "num_magnetic_sites",
    "num_unique_magnetic_sites",
    "types_of_magnetic_species",
    "bulk_modulus",
    "shear_modulus",
    "universal_anisotropy",
    "homogeneous_poisson",
    "e_total",
    "e_ionic",
    "e_electronic",
    "n",
    "e_ij_max",
    "weighted_surface_energy_EV_PER_ANG2",
    "weighted_surface_energy",
    "weighted_work_function",
    "surface_anisotropy",
    "shape_factor",
    "has_reconstructed",
    "possible_species",
    "has_props",
    "theoretical",
    "database_IDs"
  ]
}
