{"builder_meta": null, "nsites": null, "elements": null, "nelements": null, "composition": null, "composition_reduced": null, "formula_pretty": "La3Ag", "formula_anonymous": "AB3", "chemsys": null, "volume": 247.6296133096012, "density": 7.035452884651825, "density_atomic": 30.95370166370015, "symmetry": null, "property_name": null, "material_id": "mp-978254", "deprecated": null, "deprecation_reasons": null, "last_updated": null, "origins": null, "warnings": null, "structure": {"@module": "pymatgen.core.structure", "@class": "Structure", "charge": 0, "lattice": {"matrix": [[3.628127, -6.2841000000000005, 0.0], [3.628127, 6.2841000000000005, 0.0], [0.0, 0.0, 5.4305900000000005]], "pbc": [true, true, true], "a": 7.256253739921793, "b": 7.256253739921793, "c": 5.4305900000000005, "alpha": 90.0, "beta": 90.0, "gamma": 119.99999762871634, "volume": 247.6296133096013}, "properties": {}, "sites": [{"species": [{"element": "La", "occu": 1}], "abc": [0.17685, 0.3537, 0.25], "properties": {"magmom": -0.0}, "label": "La", "xyz": [1.92490277985, 1.1113430850000001, 1.3576475000000001]}, {"species": [{"element": "La", "occu": 1}], "abc": [0.6463, 0.82315, 0.25], "properties": {"magmom": -0.0}, "label": "La", "xyz": [5.33135122015, 1.1113430850000006, 1.3576475000000001]}, {"species": [{"element": "La", "occu": 1}], "abc": [0.17685, 0.82315, 0.25], "properties": {"magmom": -0.0}, "label": "La", "xyz": [3.628127, 4.061413830000001, 1.3576475000000001]}, {"species": [{"element": "La", "occu": 1}], "abc": [0.82315, 0.6463, 0.75], "properties": {"magmom": -0.0}, "label": "La", "xyz": [5.33135122015, -1.1113430850000006, 4.0729425]}, {"species": [{"element": "La", "occu": 1}], "abc": [0.3537, 0.17685, 0.75], "properties": {"magmom": -0.0}, "label": "La", "xyz": [1.92490277985, -1.1113430850000001, 4.0729425]}, {"species": [{"element": "La", "occu": 1}], "abc": [0.82315, 0.17685, 0.75], "properties": {"magmom": -0.0}, "label": "La", "xyz": [3.628127, -4.061413830000001, 4.0729425]}, {"species": [{"element": "Ag", "occu": 1}], "abc": [0.333333, 0.666667, 0.75], "properties": {"magmom": 0.0}, "label": "Ag", "xyz": [3.628127, 2.0947041894000002, 4.0729425]}, {"species": [{"element": "Ag", "occu": 1}], "abc": [0.666667, 0.333333, 0.25], "properties": {"magmom": 0.0}, "label": "Ag", "xyz": [3.628127, -2.0947041894000002, 1.3576475000000001]}]}, "task_ids": null, "uncorrected_energy_per_atom": null, "energy_per_atom": -27.675072214999997, "formation_energy_per_atom": -0.027517774999996, "energy_above_hull": 0.11122611250000201, "is_stable": false, "equilibrium_reaction_energy_per_atom": null, "decomposes_to": null, "xas": null, "grain_boundaries": null, "band_gap": 0.0, "cbm": null, "vbm": null, "efermi": 7.60253028, "is_gap_direct": null, "is_metal": null, "es_source_calc_id": null, "bandstructure": null, "dos": null, "dos_energy_up": null, "dos_energy_down": null, "is_magnetic": null, "ordering": null, "total_magnetization": 0.0005939, "total_magnetization_normalized_vol": null, "total_magnetization_normalized_formula_units": null, "num_magnetic_sites": null, "num_unique_magnetic_sites": null, "types_of_magnetic_species": null, "bulk_modulus": null, "shear_modulus": null, "universal_anisotropy": null, "homogeneous_poisson": null, "e_total": null, "e_ionic": null, "e_electronic": null, "n": null, "e_ij_max": null, "weighted_surface_energy_EV_PER_ANG2": null, "weighted_surface_energy": null, "weighted_work_function": null, "surface_anisotropy": null, "shape_factor": null, "has_reconstructed": null, "possible_species": null, "has_props": null, "theoretical": null, "database_IDs": null, "fields_not_requested": ["builder_meta", "nsites", "elements", "nelements", "composition", "composition_reduced", "chemsys", "symmetry", "property_name", "deprecated", "deprecation_reasons", "last_updated", "origins", "warnings", "task_ids", "uncorrected_energy_per_atom", "equilibrium_reaction_energy_per_atom", "decomposes_to", "xas", "grain_boundaries", "cbm", "vbm", "is_gap_direct", "is_metal", "es_source_calc_id", "bandstructure", "dos", "dos_energy_up", "dos_energy_down", "is_magnetic", "ordering", "total_magnetization_normalized_vol", "total_magnetization_normalized_formula_units", "num_magnetic_sites", "num_unique_magnetic_sites", "types_of_magnetic_species", "bulk_modulus", "shear_modulus", "universal_anisotropy", "homogeneous_poisson", "e_total", "e_ionic", "e_electronic", "n", "e_ij_max", "weighted_surface_energy_EV_PER_ANG2", "weighted_surface_energy", "weighted_work_function", "surface_anisotropy", "shape_factor", "has_reconstructed", "possible_species", "has_props", "theoretical", "database_IDs"]}