{"builder_meta": null, "nsites": null, "elements": null, "nelements": null, "composition": null, "composition_reduced": null, "formula_pretty": "La3Al", "formula_anonymous": "AB3", "chemsys": null, "volume": 248.4887764391627, "density": 5.930068858469859, "density_atomic": 31.06109705489534, "symmetry": null, "property_name": null, "material_id": "mp-1084828", "deprecated": null, "deprecation_reasons": null, "last_updated": null, "origins": null, "warnings": null, "structure": {"@module": "pymatgen.core.structure", "@class": "Structure", "charge": 0, "lattice": {"matrix": [[3.62537044, -6.27932544, 0.0], [3.62537044, 6.27932544, 0.0], [0.0, 0.0, 5.45772188]], "pbc": [true, true, true], "a": 7.2507405696699, "b": 7.2507405696699, "c": 5.45772188, "alpha": 90.0, "beta": 90.0, "gamma": 119.99999716838934, "volume": 248.4887764391627}, "properties": {}, "sites": [{"species": [{"element": "La", "occu": 1}], "abc": [0.81790613, 0.18209387, 0.25], "properties": {"magmom": 0.12}, "label": "La", "xyz": [3.62537044, -3.992472099281895, 1.36443047]}, {"species": [{"element": "La", "occu": 1}], "abc": [0.81790613, 0.63581326, 0.25], "properties": {"magmom": 0.12}, "label": "La", "xyz": [5.270271304560832, -1.143420391033613, 1.36443047]}, {"species": [{"element": "La", "occu": 1}], "abc": [0.36418674, 0.18209387, 0.25], "properties": {"magmom": 0.12}, "label": "La", "xyz": [1.9804695754391686, -1.1434203910336127, 1.36443047]}, {"species": [{"element": "La", "occu": 1}], "abc": [0.18209387, 0.81790613, 0.75], "properties": {"magmom": 0.12}, "label": "La", "xyz": [3.62537044, 3.992472099281895, 4.09329141]}, {"species": [{"element": "La", "occu": 1}], "abc": [0.18209387, 0.36418674, 0.75], "properties": {"magmom": 0.12}, "label": "La", "xyz": [1.9804695754391686, 1.1434203910336127, 4.09329141]}, {"species": [{"element": "La", "occu": 1}], "abc": [0.63581326, 0.81790613, 0.75], "properties": {"magmom": 0.12}, "label": "La", "xyz": [5.270271304560832, 1.143420391033613, 4.09329141]}, {"species": [{"element": "Al", "occu": 1}], "abc": [0.333333, 0.666667, 0.25], "properties": {"magmom": -0.009000000000000001}, "label": "Al", "xyz": [3.62537044, 2.09311266621696, 1.36443047]}, {"species": [{"element": "Al", "occu": 1}], "abc": [0.666667, 0.333333, 0.75], "properties": {"magmom": -0.009000000000000001}, "label": "Al", "xyz": [3.62537044, -2.09311266621696, 4.09329141]}]}, "task_ids": null, "uncorrected_energy_per_atom": null, "energy_per_atom": -24.2495139775, "formation_energy_per_atom": -0.257904241249999, "energy_above_hull": 0.0, "is_stable": true, "equilibrium_reaction_energy_per_atom": null, "decomposes_to": null, "xas": null, "grain_boundaries": null, "band_gap": 0.0, "cbm": null, "vbm": null, "efermi": 7.91273934, "is_gap_direct": null, "is_metal": null, "es_source_calc_id": null, "bandstructure": null, "dos": null, "dos_energy_up": null, "dos_energy_down": null, "is_magnetic": null, "ordering": null, "total_magnetization": 1.4458256, "total_magnetization_normalized_vol": null, "total_magnetization_normalized_formula_units": null, "num_magnetic_sites": null, "num_unique_magnetic_sites": null, "types_of_magnetic_species": null, "bulk_modulus": null, "shear_modulus": null, "universal_anisotropy": null, "homogeneous_poisson": null, "e_total": null, "e_ionic": null, "e_electronic": null, "n": null, "e_ij_max": null, "weighted_surface_energy_EV_PER_ANG2": null, "weighted_surface_energy": null, "weighted_work_function": null, "surface_anisotropy": null, "shape_factor": null, "has_reconstructed": null, "possible_species": null, "has_props": null, "theoretical": null, "database_IDs": null, "fields_not_requested": ["builder_meta", "nsites", "elements", "nelements", "composition", "composition_reduced", "chemsys", "symmetry", "property_name", "deprecated", "deprecation_reasons", "last_updated", "origins", "warnings", "task_ids", "uncorrected_energy_per_atom", "equilibrium_reaction_energy_per_atom", "decomposes_to", "xas", "grain_boundaries", "cbm", "vbm", "is_gap_direct", "is_metal", "es_source_calc_id", "bandstructure", "dos", "dos_energy_up", "dos_energy_down", "is_magnetic", "ordering", "total_magnetization_normalized_vol", "total_magnetization_normalized_formula_units", "num_magnetic_sites", "num_unique_magnetic_sites", "types_of_magnetic_species", "bulk_modulus", "shear_modulus", "universal_anisotropy", "homogeneous_poisson", "e_total", "e_ionic", "e_electronic", "n", "e_ij_max", "weighted_surface_energy_EV_PER_ANG2", "weighted_surface_energy", "weighted_work_function", "surface_anisotropy", "shape_factor", "has_reconstructed", "possible_species", "has_props", "theoretical", "database_IDs"]}