{"builder_meta": null, "nsites": null, "elements": null, "nelements": null, "composition": null, "composition_reduced": null, "formula_pretty": "La3Co", "formula_anonymous": "AB3", "chemsys": null, "volume": 478.7407415607485, "density": 6.599269145470333, "density_atomic": 29.921296347546782, "symmetry": null, "property_name": null, "material_id": "mp-640095", "deprecated": null, "deprecation_reasons": null, "last_updated": null, "origins": null, "warnings": null, "structure": {"@module": "pymatgen.core.structure", "@class": "Structure", "charge": 0, "lattice": {"matrix": [[6.77714863, -0.00129459, 0.0], [-0.0013291, 7.037374, 0.0], [0.0, 0.0, 10.03789761]], "pbc": [true, true, true], "a": 6.777148753648111, "b": 7.037374125508946, "c": 10.03789761, "alpha": 90.0, "beta": 90.0, "gamma": 90.02176585709412, "volume": 478.7407415607485}, "properties": {}, "sites": [{"species": [{"element": "La", "occu": 1}], "abc": [0.82786022, 0.6465674, 0.06923349], "properties": {"magmom": 0.047}, "label": "La", "xyz": [5.609672403073159, 4.54906487044539, 0.6949586838029589]}, {"species": [{"element": "La", "occu": 1}], "abc": [0.67215707, 0.14653084, 0.06920887], "properties": {"magmom": 0.047}, "label": "La", "xyz": [4.55511361195587, 1.0303221557929088, 0.6947115507638008]}, {"species": [{"element": "La", "occu": 1}], "abc": [0.17213978, 0.3534326, 0.93076651], "properties": {"magmom": 0.047}, "label": "La", "xyz": [1.1661471269268415, 2.4870145395546093, 9.342938926197041]}, {"species": [{"element": "La", "occu": 1}], "abc": [0.32784293000000003, 0.8534691600000001, 0.56920887], "properties": {"magmom": 0.047}, "label": "La", "xyz": [2.22070591804413, 6.005757254207092, 5.713660355763801]}, {"species": [{"element": "La", "occu": 1}], "abc": [0.86837343, 0.92366459, 0.75], "properties": {"magmom": 0.061}, "label": "La", "xyz": [5.883868158846332, 6.499048982827916, 7.5284232074999995]}, {"species": [{"element": "La", "occu": 1}], "abc": [0.13162657, 0.07633541, 0.25], "properties": {"magmom": 0.061}, "label": "La", "xyz": [0.8919513711536681, 0.5370304271720837, 2.5094744025]}, {"species": [{"element": "La", "occu": 1}], "abc": [0.17213978, 0.3534326, 0.56923349], "properties": {"magmom": 0.047}, "label": "La", "xyz": [1.1661471269268415, 2.4870145395546093, 5.713907488802959]}, {"species": [{"element": "La", "occu": 1}], "abc": [0.67215707, 0.14653084, 0.43079113], "properties": {"magmom": 0.047}, "label": "La", "xyz": [4.55511361195587, 1.0303221557929088, 4.324237254236199]}, {"species": [{"element": "La", "occu": 1}], "abc": [0.32784293000000003, 0.8534691600000001, 0.93079113], "properties": {"magmom": 0.047}, "label": "La", "xyz": [2.22070591804413, 6.005757254207092, 9.3431860592362]}, {"species": [{"element": "La", "occu": 1}], "abc": [0.82786022, 0.6465674, 0.43076651], "properties": {"magmom": 0.047}, "label": "La", "xyz": [5.609672403073159, 4.54906487044539, 4.323990121197041]}, {"species": [{"element": "La", "occu": 1}], "abc": [0.36847237, 0.57640149, 0.25], "properties": {"magmom": 0.061}, "label": "La", "xyz": [2.496425922317994, 4.055875838641781, 2.5094744025]}, {"species": [{"element": "La", "occu": 1}], "abc": [0.63152763, 0.42359851, 0.75], "properties": {"magmom": 0.061}, "label": "La", "xyz": [4.279393607682006, 2.980203571358218, 7.5284232074999995]}, {"species": [{"element": "Co", "occu": 1}], "abc": [0.551113499999999, 0.87055772, 0.25], "properties": {"magmom": 0.066}, "label": "Co", "xyz": [3.7338210432338466, 6.125726798201315, 2.5094744025]}, {"species": [{"element": "Co", "occu": 1}], "abc": [0.448886499999999, 0.12944228, 0.75], "properties": {"magmom": 0.066}, "label": "Co", "xyz": [3.0419984867661403, 0.910352611798685, 7.5284232074999995]}, {"species": [{"element": "Co", "occu": 1}], "abc": [0.05109146, 0.62952448, 0.75], "properties": {"magmom": 0.066}, "label": "Co", "xyz": [0.34541771715733177, 4.430133065422319, 7.5284232074999995]}, {"species": [{"element": "Co", "occu": 1}], "abc": [0.94890854, 0.37047552, 0.25], "properties": {"magmom": 0.066}, "label": "Co", "xyz": [6.4304018128426685, 2.6059463445776814, 2.5094744025]}]}, "task_ids": null, "uncorrected_energy_per_atom": null, "energy_per_atom": -25.650887698125, "formation_energy_per_atom": -0.033744761874999, "energy_above_hull": 0.0, "is_stable": true, "equilibrium_reaction_energy_per_atom": null, "decomposes_to": null, "xas": null, "grain_boundaries": null, "band_gap": 0.0, "cbm": null, "vbm": null, "efermi": 8.10414875, "is_gap_direct": null, "is_metal": null, "es_source_calc_id": null, "bandstructure": null, "dos": null, "dos_energy_up": null, "dos_energy_down": null, "is_magnetic": null, "ordering": null, "total_magnetization": 1.777096799999999, "total_magnetization_normalized_vol": null, "total_magnetization_normalized_formula_units": null, "num_magnetic_sites": null, "num_unique_magnetic_sites": null, "types_of_magnetic_species": null, "bulk_modulus": null, "shear_modulus": null, "universal_anisotropy": null, "homogeneous_poisson": null, "e_total": null, "e_ionic": null, "e_electronic": null, "n": null, "e_ij_max": null, "weighted_surface_energy_EV_PER_ANG2": null, "weighted_surface_energy": null, "weighted_work_function": null, "surface_anisotropy": null, "shape_factor": null, "has_reconstructed": null, "possible_species": null, "has_props": null, "theoretical": null, "database_IDs": null, "fields_not_requested": ["builder_meta", "nsites", "elements", "nelements", "composition", "composition_reduced", "chemsys", "symmetry", "property_name", "deprecated", "deprecation_reasons", "last_updated", "origins", "warnings", "task_ids", "uncorrected_energy_per_atom", "equilibrium_reaction_energy_per_atom", "decomposes_to", "xas", "grain_boundaries", "cbm", "vbm", "is_gap_direct", "is_metal", "es_source_calc_id", "bandstructure", "dos", "dos_energy_up", "dos_energy_down", "is_magnetic", "ordering", "total_magnetization_normalized_vol", "total_magnetization_normalized_formula_units", "num_magnetic_sites", "num_unique_magnetic_sites", "types_of_magnetic_species", "bulk_modulus", "shear_modulus", "universal_anisotropy", "homogeneous_poisson", "e_total", "e_ionic", "e_electronic", "n", "e_ij_max", "weighted_surface_energy_EV_PER_ANG2", "weighted_surface_energy", "weighted_work_function", "surface_anisotropy", "shape_factor", "has_reconstructed", "possible_species", "has_props", "theoretical", "database_IDs"]}