{
  "builder_meta": null,
  "nsites": null,
  "elements": null,
  "nelements": null,
  "composition": null,
  "composition_reduced": null,
  "formula_pretty": "La3Ge5",
  "formula_anonymous": "A3B5",
  "chemsys": null,
  "volume": 400.53927857576383,
  "density": 6.46668996904608,
  "density_atomic": 25.03370491098524,
  "symmetry": null,
  "property_name": null,
  "material_id": "mp-1211671",
  "deprecated": null,
  "deprecation_reasons": null,
  "last_updated": null,
  "origins": null,
  "warnings": null,
  "structure": {
    "@module": "pymatgen.core.structure",
    "@class": "Structure",
    "charge": 0,
    "lattice": {
      "matrix": [
        [-6.10524099, 0.0016765600000000001, 0.00122568],
        [-3.05116284, 0.0009222400000000001, -7.18898354],
        [-3.05010608, -9.12426609, 0.0007175500000000001]
      ],
      "pbc": [true, true, true],
      "a": 6.105241343232967,
      "b": 7.809678601908942,
      "c": 9.620570632517328,
      "alpha": 82.89525264414063,
      "beta": 71.53172042355287,
      "gamma": 67.01406542265843,
      "volume": 400.53927857576383
    },
    "properties": {},
    "sites": [
      {
        "species": [{ "element": "La", "occu": 1 }],
        "abc": [0.02092772, 0.61484861, 0.83571869],
        "properties": { "magmom": -0.0 },
        "label": "La",
        "xyz": [-4.55280266256753, -7.624717579385893, -4.419511216248021]
      },
      {
        "species": [{ "element": "La", "occu": 1 }],
        "abc": [0.36397416, 0.61514216, 0.16424482],
        "properties": { "magmom": 0.0 },
        "label": "La",
        "xyz": [-4.6000129849326585, -1.4974359083608262, -4.421682893281027]
      },
      {
        "species": [{ "element": "La", "occu": 1 }],
        "abc": [0.10635116, 0.11500037, 0.66450746],
        "properties": { "magmom": 0.0 },
        "label": "La",
        "xyz": [-3.027002560847656, -6.062858521787994, -0.826128597206198]
      },
      {
        "species": [{ "element": "La", "occu": 1 }],
        "abc": [0.7784587, 0.11509617, 0.335625499999999],
        "properties": { "magmom": 0.0 },
        "label": "La",
        "xyz": [-6.1275484993454725, -3.0609250895793934, -0.8262295023101008]
      },
      {
        "species": [{ "element": "La", "occu": 1 }],
        "abc": [0.44779972, 0.10447931, 1.77e-5],
        "properties": { "magmom": 0.0 },
        "label": "La",
        "xyz": [-3.052762580952979, 0.0006856185876246001, -0.7505511679991128]
      },
      {
        "species": [{ "element": "La", "occu": 1 }],
        "abc": [0.69780097, 0.60475497, 0.49987509],
        "properties": { "magmom": -0.0 },
        "label": "La",
        "xyz": [-7.630121027924623, -4.559265698504903, -4.346359558999454]
      },
      {
        "species": [{ "element": "Ge", "occu": 1 }],
        "abc": [0.50430561, 0.27547023, 0.67623698],
        "properties": { "magmom": 0.0 },
        "label": "Ge",
        "xyz": [-5.982006335180046, -6.169066597139592, -1.9792475980849502]
      },
      {
        "species": [{ "element": "Ge", "occu": 1 }],
        "abc": [0.22104667, 0.27551672, 0.32348109],
        "properties": { "magmom": 0.0 },
        "label": "Ge",
        "xyz": [-3.1768412076237156, -2.9509028496983305, -1.9801821187361737]
      },
      {
        "species": [{ "element": "Ge", "occu": 1 }],
        "abc": [0.43036743, 0.77540697, 0.82357701],
        "properties": { "magmom": 0.0 },
        "label": "Ge",
        "xyz": [-7.505387052687172, -7.513099136704138, -5.573269493696146]
      },
      {
        "species": [{ "element": "Ge", "occu": 1 }],
        "abc": [0.7942982, 0.77565075, 0.17633627000000002],
        "properties": { "magmom": 0.0 },
        "label": "Ge",
        "xyz": [-7.753863003392869, -1.6068920240602125, -5.575040389030341]
      },
      {
        "species": [{ "element": "Ge", "occu": 1 }],
        "abc": [0.33669809, 0.93080363, 0.34921994],
        "properties": { "magmom": 0.0 },
        "label": "Ge",
        "xyz": [-5.960814289767054, -3.184952737604333, -6.690868708159352]
      },
      {
        "species": [{ "element": "Ge", "occu": 1 }],
        "abc": [0.7320132300000001, 0.93064112, 0.65086669],
        "properties": { "magmom": 0.0 },
        "label": "Ge",
        "xyz": [-9.293867228176754, -5.936595330110144, -6.688999449958008]
      },
      {
        "species": [{ "element": "Ge", "occu": 1 }],
        "abc": [0.93610863, 0.43080493000000003, 0.15098364],
        "properties": { "magmom": 0.0 },
        "label": "Ge",
        "xyz": [-7.490140891018076, -1.3756481587734117, -3.0957938427843517]
      },
      {
        "species": [{ "element": "Ge", "occu": 1 }],
        "abc": [0.63299689, 0.43059954, 0.8492998900000001],
        "properties": { "magmom": 0.0 },
        "label": "Ge",
        "xyz": [-7.7688826329719465, -7.747779813182063, -3.094187738627367]
      },
      {
        "species": [{ "element": "Ge", "occu": 1 }],
        "abc": [0.015075999999999002, 0.96991167, -7.060000000000002e-5],
        "properties": { "magmom": 0.0 },
        "label": "Ge",
        "xyz": [-3.051185721262329, 0.0015639403430547988, -6.972660603191262]
      },
      {
        "species": [{ "element": "Ge", "occu": 1 }],
        "abc": [0.26477482, 0.46986886, 0.5000798200000001],
        "properties": { "magmom": 0.0 },
        "label": "Ge",
        "xyz": [-4.57545698895634, -4.561984101189639, -3.3771961390223457]
      }
    ]
  },
  "task_ids": null,
  "uncorrected_energy_per_atom": null,
  "energy_per_atom": -20.685413088125,
  "formation_energy_per_atom": -0.8611345237499991,
  "energy_above_hull": 0.0,
  "is_stable": true,
  "equilibrium_reaction_energy_per_atom": null,
  "decomposes_to": null,
  "xas": null,
  "grain_boundaries": null,
  "band_gap": 0.0,
  "cbm": null,
  "vbm": null,
  "efermi": 6.07285377,
  "is_gap_direct": null,
  "is_metal": null,
  "es_source_calc_id": null,
  "bandstructure": null,
  "dos": null,
  "dos_energy_up": null,
  "dos_energy_down": null,
  "is_magnetic": null,
  "ordering": null,
  "total_magnetization": 2.2e-6,
  "total_magnetization_normalized_vol": null,
  "total_magnetization_normalized_formula_units": null,
  "num_magnetic_sites": null,
  "num_unique_magnetic_sites": null,
  "types_of_magnetic_species": null,
  "bulk_modulus": null,
  "shear_modulus": null,
  "universal_anisotropy": null,
  "homogeneous_poisson": null,
  "e_total": null,
  "e_ionic": null,
  "e_electronic": null,
  "n": null,
  "e_ij_max": null,
  "weighted_surface_energy_EV_PER_ANG2": null,
  "weighted_surface_energy": null,
  "weighted_work_function": null,
  "surface_anisotropy": null,
  "shape_factor": null,
  "has_reconstructed": null,
  "possible_species": null,
  "has_props": null,
  "theoretical": null,
  "database_IDs": null,
  "fields_not_requested": [
    "builder_meta",
    "nsites",
    "elements",
    "nelements",
    "composition",
    "composition_reduced",
    "chemsys",
    "symmetry",
    "property_name",
    "deprecated",
    "deprecation_reasons",
    "last_updated",
    "origins",
    "warnings",
    "task_ids",
    "uncorrected_energy_per_atom",
    "equilibrium_reaction_energy_per_atom",
    "decomposes_to",
    "xas",
    "grain_boundaries",
    "cbm",
    "vbm",
    "is_gap_direct",
    "is_metal",
    "es_source_calc_id",
    "bandstructure",
    "dos",
    "dos_energy_up",
    "dos_energy_down",
    "is_magnetic",
    "ordering",
    "total_magnetization_normalized_vol",
    "total_magnetization_normalized_formula_units",
    "num_magnetic_sites",
    "num_unique_magnetic_sites",
    "types_of_magnetic_species",
    "bulk_modulus",
    "shear_modulus",
    "universal_anisotropy",
    "homogeneous_poisson",
    "e_total",
    "e_ionic",
    "e_electronic",
    "n",
    "e_ij_max",
    "weighted_surface_energy_EV_PER_ANG2",
    "weighted_surface_energy",
    "weighted_work_function",
    "surface_anisotropy",
    "shape_factor",
    "has_reconstructed",
    "possible_species",
    "has_props",
    "theoretical",
    "database_IDs"
  ]
}
