{"builder_meta": null, "nsites": null, "elements": null, "nelements": null, "composition": null, "composition_reduced": null, "formula_pretty": "La3Hg", "formula_anonymous": "AB3", "chemsys": null, "volume": 251.91717825536614, "density": 8.138082658487873, "density_atomic": 31.489647281920767, "symmetry": null, "property_name": null, "material_id": "mp-1185127", "deprecated": null, "deprecation_reasons": null, "last_updated": null, "origins": null, "warnings": null, "structure": {"@module": "pymatgen.core.structure", "@class": "Structure", "charge": 0, "lattice": {"matrix": [[3.62116295, -6.27204094, 0.0], [3.62116295, 6.27204094, -0.0], [0.0, 0.0, 5.54588468]], "pbc": [true, true, true], "a": 7.242328262616159, "b": 7.242328262616159, "c": 5.54588468, "alpha": 90.0, "beta": 90.0, "gamma": 120.00002158275801, "volume": 251.91717825536614}, "properties": {}, "sites": [{"species": [{"element": "La", "occu": 1}], "abc": [0.18077128, 0.36154355, 0.25], "properties": {"magmom": -0.0}, "label": "La", "xyz": [1.9638103696315485, 1.1338110782567339, 1.38647117]}, {"species": [{"element": "La", "occu": 1}], "abc": [0.6384564500000001, 0.81922772, 0.25], "properties": {"magmom": -0.0}, "label": "La", "xyz": [5.278511909205502, 1.1338048062157933, 1.38647117]}, {"species": [{"element": "La", "occu": 1}], "abc": [0.18077128, 0.81922772, 0.25], "properties": {"magmom": -0.0}, "label": "La", "xyz": [3.62115932883705, 4.004424930086653, 1.38647117]}, {"species": [{"element": "La", "occu": 1}], "abc": [0.81922872, 0.6384564500000001, 0.75], "properties": {"magmom": -0.0}, "label": "La", "xyz": [5.278515530368452, -1.1338110782567332, 4.15941351]}, {"species": [{"element": "La", "occu": 1}], "abc": [0.36154355, 0.18077228, 0.75], "properties": {"magmom": -0.0}, "label": "La", "xyz": [1.9638139907944985, -1.133804806215794, 4.15941351]}, {"species": [{"element": "La", "occu": 1}], "abc": [0.81922872, 0.18077228, 0.75], "properties": {"magmom": -0.0}, "label": "La", "xyz": [3.62116657116295, -4.004424930086653, 4.15941351]}, {"species": [{"element": "Hg", "occu": 1}], "abc": [0.333333, 0.666667, 0.75], "properties": {"magmom": 0.0}, "label": "Hg", "xyz": [3.62116295, 2.09068449469396, 4.15941351]}, {"species": [{"element": "Hg", "occu": 1}], "abc": [0.666667, 0.333333, 0.25], "properties": {"magmom": 0.0}, "label": "Hg", "xyz": [3.62116295, -2.09068449469396, 1.38647117]}]}, "task_ids": null, "uncorrected_energy_per_atom": null, "energy_per_atom": -34.90467862875, "formation_energy_per_atom": -0.25414184437499904, "energy_above_hull": 0.035490703749999006, "is_stable": false, "equilibrium_reaction_energy_per_atom": null, "decomposes_to": null, "xas": null, "grain_boundaries": null, "band_gap": 0.0, "cbm": null, "vbm": null, "efermi": 7.5074003099999995, "is_gap_direct": null, "is_metal": null, "es_source_calc_id": null, "bandstructure": null, "dos": null, "dos_energy_up": null, "dos_energy_down": null, "is_magnetic": null, "ordering": null, "total_magnetization": 1.1e-06, "total_magnetization_normalized_vol": null, "total_magnetization_normalized_formula_units": null, "num_magnetic_sites": null, "num_unique_magnetic_sites": null, "types_of_magnetic_species": null, "bulk_modulus": null, "shear_modulus": null, "universal_anisotropy": null, "homogeneous_poisson": null, "e_total": null, "e_ionic": null, "e_electronic": null, "n": null, "e_ij_max": null, "weighted_surface_energy_EV_PER_ANG2": null, "weighted_surface_energy": null, "weighted_work_function": null, "surface_anisotropy": null, "shape_factor": null, "has_reconstructed": null, "possible_species": null, "has_props": null, "theoretical": null, "database_IDs": null, "fields_not_requested": ["builder_meta", "nsites", "elements", "nelements", "composition", "composition_reduced", "chemsys", "symmetry", "property_name", "deprecated", "deprecation_reasons", "last_updated", "origins", "warnings", "task_ids", "uncorrected_energy_per_atom", "equilibrium_reaction_energy_per_atom", "decomposes_to", "xas", "grain_boundaries", "cbm", "vbm", "is_gap_direct", "is_metal", "es_source_calc_id", "bandstructure", "dos", "dos_energy_up", "dos_energy_down", "is_magnetic", "ordering", "total_magnetization_normalized_vol", "total_magnetization_normalized_formula_units", "num_magnetic_sites", "num_unique_magnetic_sites", "types_of_magnetic_species", "bulk_modulus", "shear_modulus", "universal_anisotropy", "homogeneous_poisson", "e_total", "e_ionic", "e_electronic", "n", "e_ij_max", "weighted_surface_energy_EV_PER_ANG2", "weighted_surface_energy", "weighted_work_function", "surface_anisotropy", "shape_factor", "has_reconstructed", "possible_species", "has_props", "theoretical", "database_IDs"]}