{"builder_meta": null, "nsites": null, "elements": null, "nelements": null, "composition": null, "composition_reduced": null, "formula_pretty": "La3Ir", "formula_anonymous": "AB3", "chemsys": null, "volume": 509.0900150955979, "density": 7.944824579386637, "density_atomic": 31.818125943474868, "symmetry": null, "property_name": null, "material_id": "mp-1188506", "deprecated": null, "deprecation_reasons": null, "last_updated": null, "origins": null, "warnings": null, "structure": {"@module": "pymatgen.core.structure", "@class": "Structure", "charge": 0, "lattice": {"matrix": [[-0.0, 0.0, 6.72577889], [7.39001873, 0.0, 0.0], [0.0, 10.24251136, 0.0]], "pbc": [true, true, true], "a": 6.72577889, "b": 7.39001873, "c": 10.24251136, "alpha": 90.0, "beta": 90.0, "gamma": 90.0, "volume": 509.0900150955979}, "properties": {}, "sites": [{"species": [{"element": "La", "occu": 1}], "abc": [0.32451088, 0.65956227, 0.06874995], "properties": {"magmom": 0.066}, "label": "La", "xyz": [4.874177528901318, 0.704172143874432, 2.1825884262793234]}, {"species": [{"element": "La", "occu": 1}], "abc": [0.17548912, 0.15956227, 0.43125005], "properties": {"magmom": 0.066}, "label": "La", "xyz": [1.1791681639013172, 4.417083536125568, 1.1803010187206768]}, {"species": [{"element": "La", "occu": 1}], "abc": [0.67548912, 0.34043773, 0.5687499500000001], "properties": {"magmom": 0.066}, "label": "La", "xyz": [2.515841201098683, 5.825427823874432, 4.543190463720677]}, {"species": [{"element": "La", "occu": 1}], "abc": [0.8245108800000001, 0.84043773, 0.93125005], "properties": {"magmom": 0.066}, "label": "La", "xyz": [6.210850566098683, 9.538339216125568, 5.545477871279323]}, {"species": [{"element": "La", "occu": 1}], "abc": [0.67548912, 0.34043773, 0.93125005], "properties": {"magmom": 0.066}, "label": "La", "xyz": [2.515841201098683, 9.538339216125568, 4.543190463720677]}, {"species": [{"element": "La", "occu": 1}], "abc": [0.8245108800000001, 0.84043773, 0.5687499500000001], "properties": {"magmom": 0.066}, "label": "La", "xyz": [6.210850566098683, 5.825427823874432, 5.545477871279323]}, {"species": [{"element": "La", "occu": 1}], "abc": [0.32451088, 0.65956227, 0.43125005], "properties": {"magmom": 0.066}, "label": "La", "xyz": [4.874177528901318, 4.417083536125568, 2.1825884262793234]}, {"species": [{"element": "La", "occu": 1}], "abc": [0.17548912, 0.15956227, 0.06874995], "properties": {"magmom": 0.066}, "label": "La", "xyz": [1.1791681639013172, 0.704172143874432, 1.1803010187206768]}, {"species": [{"element": "La", "occu": 1}], "abc": [0.85249733, 0.54884023, 0.25], "properties": {"magmom": 0.099}, "label": "La", "xyz": [4.055939579477508, 2.56062784, 5.733708545895364]}, {"species": [{"element": "La", "occu": 1}], "abc": [0.6475026700000001, 0.04884023, 0.25], "properties": {"magmom": 0.099}, "label": "La", "xyz": [0.3609302144775079, 2.56062784, 4.354959789104637]}, {"species": [{"element": "La", "occu": 1}], "abc": [0.14750267, 0.45115977, 0.75], "properties": {"magmom": 0.099}, "label": "La", "xyz": [3.3340791505224923, 7.6818835199999995, 0.9920703441046363]}, {"species": [{"element": "La", "occu": 1}], "abc": [0.35249733, 0.9511597700000001, 0.75], "properties": {"magmom": 0.099}, "label": "La", "xyz": [7.029088515522493, 7.6818835199999995, 2.3708191008953636]}, {"species": [{"element": "Ir", "occu": 1}], "abc": [0.06537818000000001, 0.87507199, 0.25], "properties": {"magmom": -0.0}, "label": "Ir", "xyz": [6.4667983961983735, 2.56062784, 0.43971918291062023]}, {"species": [{"element": "Ir", "occu": 1}], "abc": [0.43462182, 0.37507199, 0.25], "properties": {"magmom": -0.0}, "label": "Ir", "xyz": [2.771789031198373, 2.56062784, 2.92317026208938]}, {"species": [{"element": "Ir", "occu": 1}], "abc": [0.93462182, 0.12492801, 0.75], "properties": {"magmom": -0.0}, "label": "Ir", "xyz": [0.9232203338016274, 7.6818835199999995, 6.28605970708938]}, {"species": [{"element": "Ir", "occu": 1}], "abc": [0.5653781800000001, 0.62492801, 0.75], "properties": {"magmom": -0.0}, "label": "Ir", "xyz": [4.618229698801628, 7.6818835199999995, 3.8026086279106206]}]}, "task_ids": null, "uncorrected_energy_per_atom": null, "energy_per_atom": -6.400183457499999, "formation_energy_per_atom": -0.48856958375000004, "energy_above_hull": 0.00018081625000200002, "is_stable": false, "equilibrium_reaction_energy_per_atom": null, "decomposes_to": null, "xas": null, "grain_boundaries": null, "band_gap": 0.0, "cbm": null, "vbm": null, "efermi": 8.06149165, "is_gap_direct": null, "is_metal": null, "es_source_calc_id": null, "bandstructure": null, "dos": null, "dos_energy_up": null, "dos_energy_down": null, "is_magnetic": null, "ordering": null, "total_magnetization": 2.4101873, "total_magnetization_normalized_vol": null, "total_magnetization_normalized_formula_units": null, "num_magnetic_sites": null, "num_unique_magnetic_sites": null, "types_of_magnetic_species": null, "bulk_modulus": null, "shear_modulus": null, "universal_anisotropy": null, "homogeneous_poisson": null, "e_total": null, "e_ionic": null, "e_electronic": null, "n": null, "e_ij_max": null, "weighted_surface_energy_EV_PER_ANG2": null, "weighted_surface_energy": null, "weighted_work_function": null, "surface_anisotropy": null, "shape_factor": null, "has_reconstructed": null, "possible_species": null, "has_props": null, "theoretical": null, "database_IDs": null, "fields_not_requested": ["builder_meta", "nsites", "elements", "nelements", "composition", "composition_reduced", "chemsys", "symmetry", "property_name", "deprecated", "deprecation_reasons", "last_updated", "origins", "warnings", "task_ids", "uncorrected_energy_per_atom", "equilibrium_reaction_energy_per_atom", "decomposes_to", "xas", "grain_boundaries", "cbm", "vbm", "is_gap_direct", "is_metal", "es_source_calc_id", "bandstructure", "dos", "dos_energy_up", "dos_energy_down", "is_magnetic", "ordering", "total_magnetization_normalized_vol", "total_magnetization_normalized_formula_units", "num_magnetic_sites", "num_unique_magnetic_sites", "types_of_magnetic_species", "bulk_modulus", "shear_modulus", "universal_anisotropy", "homogeneous_poisson", "e_total", "e_ionic", "e_electronic", "n", "e_ij_max", "weighted_surface_energy_EV_PER_ANG2", "weighted_surface_energy", "weighted_work_function", "surface_anisotropy", "shape_factor", "has_reconstructed", "possible_species", "has_props", "theoretical", "database_IDs"]}