{
  "builder_meta": null,
  "nsites": null,
  "elements": null,
  "nelements": null,
  "composition": null,
  "composition_reduced": null,
  "formula_pretty": "La3Ni",
  "formula_anonymous": "AB3",
  "chemsys": null,
  "volume": 487.2331939208174,
  "density": 6.480975204478193,
  "density_atomic": 30.45207462005109,
  "symmetry": null,
  "property_name": null,
  "material_id": "mp-1189497",
  "deprecated": null,
  "deprecation_reasons": null,
  "last_updated": null,
  "origins": null,
  "warnings": null,
  "structure": {
    "@module": "pymatgen.core.structure",
    "@class": "Structure",
    "charge": 0,
    "lattice": {
      "matrix": [
        [0.00037027, 0.0, 6.68228028],
        [7.11126911, 0.0, 0.00038408],
        [0.0, 10.25333313, 0.0]
      ],
      "pbc": [true, true, true],
      "a": 6.682280290258465,
      "b": 7.11126912037209,
      "c": 10.25333313,
      "alpha": 90.0,
      "beta": 90.0,
      "gamma": 89.99373065136612,
      "volume": 487.2331939208174
    },
    "properties": {},
    "sites": [
      {
        "species": [{ "element": "La", "occu": 1 }],
        "abc": [0.3243087, 0.66279521, 0.0697341],
        "properties": { "magmom": 0.046 },
        "label": "La",
        "xyz": [4.713435184911312, 0.7150069578207329, 2.1673761970266927]
      },
      {
        "species": [{ "element": "La", "occu": 1 }],
        "abc": [0.17558976, 0.16276969, 0.43027129000000003],
        "properties": { "magmom": 0.046 },
        "label": "La",
        "xyz": [1.157564084161711, 4.411714872644838, 1.173402507200468]
      },
      {
        "species": [{ "element": "La", "occu": 1 }],
        "abc": [0.6756913, 0.33720479000000003, 0.5697341],
        "properties": { "magmom": 0.046 },
        "label": "La",
        "xyz": [2.3982041950886885, 5.841673522820733, 4.515288162973307]
      },
      {
        "species": [{ "element": "La", "occu": 1 }],
        "abc": [0.8244102400000001, 0.83723031, 0.93027129],
        "properties": { "magmom": 0.046 },
        "label": "La",
        "xyz": [5.954075295838289, 9.538381437644837, 5.509261852799533]
      },
      {
        "species": [{ "element": "La", "occu": 1 }],
        "abc": [0.6756913, 0.33720479000000003, 0.9302659],
        "properties": { "magmom": 0.046 },
        "label": "La",
        "xyz": [2.3982041950886885, 9.538326172179266, 4.515288162973307]
      },
      {
        "species": [{ "element": "La", "occu": 1 }],
        "abc": [0.8244102400000001, 0.83723031, 0.56972871],
        "properties": { "magmom": 0.046 },
        "label": "La",
        "xyz": [5.954075295838289, 5.8416182573551625, 5.509261852799533]
      },
      {
        "species": [{ "element": "La", "occu": 1 }],
        "abc": [0.3243087, 0.66279521, 0.4302659],
        "properties": { "magmom": 0.046 },
        "label": "La",
        "xyz": [4.713435184911312, 4.411659607179267, 2.1673761970266927]
      },
      {
        "species": [{ "element": "La", "occu": 1 }],
        "abc": [0.17558976, 0.16276969, 0.06972871],
        "properties": { "magmom": 0.046 },
        "label": "La",
        "xyz": [1.157564084161711, 0.7149516923551623, 1.173402507200468]
      },
      {
        "species": [{ "element": "La", "occu": 1 }],
        "abc": [0.85504366, 0.54224545, 0.25],
        "properties": { "magmom": 0.058 },
        "label": "La",
        "xyz": [3.8563699156390383, 2.5633332825, 5.7138496533894605]
      },
      {
        "species": [{ "element": "La", "occu": 1 }],
        "abc": [0.64486859, 0.0422714, 0.25],
        "properties": { "magmom": 0.058 },
        "label": "La",
        "xyz": [0.3008420765492733, 2.5633332825, 4.309208897747717]
      },
      {
        "species": [{ "element": "La", "occu": 1 }],
        "abc": [0.14495634000000002, 0.45775455, 0.75],
        "properties": { "magmom": 0.058 },
        "label": "La",
        "xyz": [3.2552694643609623, 7.689999847499999, 0.9688147066105393]
      },
      {
        "species": [{ "element": "La", "occu": 1 }],
        "abc": [0.35513141, 0.957728599999999, 0.75],
        "properties": { "magmom": 0.058 },
        "label": "La",
        "xyz": [6.81079730345072, 7.689999847499999, 2.3734554622522825]
      },
      {
        "species": [{ "element": "Ni", "occu": 1 }],
        "abc": [0.06661058, 0.87888938, 0.25],
        "properties": { "magmom": 0.021 },
        "label": "Ni",
        "xyz": [6.250043563000509, 2.5633332825, 0.44544812900643277]
      },
      {
        "species": [{ "element": "Ni", "occu": 1 }],
        "abc": [0.43290314, 0.37893504, 0.25],
        "properties": { "magmom": 0.021 },
        "label": "Ni",
        "xyz": [2.6948693356942623, 2.5633332825, 2.8929256569422424]
      },
      {
        "species": [{ "element": "Ni", "occu": 1 }],
        "abc": [0.93338942, 0.12111062, 0.75],
        "properties": { "magmom": 0.021 },
        "label": "Ni",
        "xyz": [0.8615958169994916, 7.689999847499999, 6.2372162309935675]
      },
      {
        "species": [{ "element": "Ni", "occu": 1 }],
        "abc": [0.56709686, 0.62106496, 0.75],
        "properties": { "magmom": 0.021 },
        "label": "Ni",
        "xyz": [4.416770044305738, 7.689999847499999, 3.7897387030577576]
      }
    ]
  },
  "task_ids": null,
  "uncorrected_energy_per_atom": null,
  "energy_per_atom": -5.332127768125002,
  "formation_energy_per_atom": -0.185088269375002,
  "energy_above_hull": 0.003606157708331,
  "is_stable": false,
  "equilibrium_reaction_energy_per_atom": null,
  "decomposes_to": null,
  "xas": null,
  "grain_boundaries": null,
  "band_gap": 0.0,
  "cbm": null,
  "vbm": null,
  "efermi": 8.05315522,
  "is_gap_direct": null,
  "is_metal": null,
  "es_source_calc_id": null,
  "bandstructure": null,
  "dos": null,
  "dos_energy_up": null,
  "dos_energy_down": null,
  "is_magnetic": null,
  "ordering": null,
  "total_magnetization": 1.5001045,
  "total_magnetization_normalized_vol": null,
  "total_magnetization_normalized_formula_units": null,
  "num_magnetic_sites": null,
  "num_unique_magnetic_sites": null,
  "types_of_magnetic_species": null,
  "bulk_modulus": null,
  "shear_modulus": null,
  "universal_anisotropy": null,
  "homogeneous_poisson": null,
  "e_total": null,
  "e_ionic": null,
  "e_electronic": null,
  "n": null,
  "e_ij_max": null,
  "weighted_surface_energy_EV_PER_ANG2": null,
  "weighted_surface_energy": null,
  "weighted_work_function": null,
  "surface_anisotropy": null,
  "shape_factor": null,
  "has_reconstructed": null,
  "possible_species": null,
  "has_props": null,
  "theoretical": null,
  "database_IDs": null,
  "fields_not_requested": [
    "builder_meta",
    "nsites",
    "elements",
    "nelements",
    "composition",
    "composition_reduced",
    "chemsys",
    "symmetry",
    "property_name",
    "deprecated",
    "deprecation_reasons",
    "last_updated",
    "origins",
    "warnings",
    "task_ids",
    "uncorrected_energy_per_atom",
    "equilibrium_reaction_energy_per_atom",
    "decomposes_to",
    "xas",
    "grain_boundaries",
    "cbm",
    "vbm",
    "is_gap_direct",
    "is_metal",
    "es_source_calc_id",
    "bandstructure",
    "dos",
    "dos_energy_up",
    "dos_energy_down",
    "is_magnetic",
    "ordering",
    "total_magnetization_normalized_vol",
    "total_magnetization_normalized_formula_units",
    "num_magnetic_sites",
    "num_unique_magnetic_sites",
    "types_of_magnetic_species",
    "bulk_modulus",
    "shear_modulus",
    "universal_anisotropy",
    "homogeneous_poisson",
    "e_total",
    "e_ionic",
    "e_electronic",
    "n",
    "e_ij_max",
    "weighted_surface_energy_EV_PER_ANG2",
    "weighted_surface_energy",
    "weighted_work_function",
    "surface_anisotropy",
    "shape_factor",
    "has_reconstructed",
    "possible_species",
    "has_props",
    "theoretical",
    "database_IDs"
  ]
}
