{"builder_meta": null, "nsites": null, "elements": null, "nelements": null, "composition": null, "composition_reduced": null, "formula_pretty": "La3Nb", "formula_anonymous": "AB3", "chemsys": null, "volume": 117.2062050471303, "density": 7.220168519955058, "density_atomic": 29.301551261782574, "symmetry": null, "property_name": null, "material_id": "mp-1185117", "deprecated": null, "deprecation_reasons": null, "last_updated": null, "origins": null, "warnings": null, "structure": {"@module": "pymatgen.core.structure", "@class": "Structure", "charge": 0, "lattice": {"matrix": [[-2.469843, 2.469843, 4.803435], [2.469843, -2.469843, 4.803435], [2.469843, 2.469843, -4.803435]], "pbc": [true, true, true], "a": 5.939127603320458, "b": 5.939127603320458, "c": 5.939127603320458, "alpha": 130.85308234941695, "beta": 130.85308234941695, "gamma": 72.04660450598043, "volume": 117.2062050471303}, "properties": {}, "sites": [{"species": [{"element": "La", "occu": 1}], "abc": [0.75, 0.25, 0.5], "properties": {"magmom": -0.007}, "label": "La", "xyz": [0.0, 2.469843, 2.4017175]}, {"species": [{"element": "La", "occu": 1}], "abc": [0.25, 0.75, 0.5], "properties": {"magmom": -0.007}, "label": "La", "xyz": [2.469843, 0.0, 2.4017175]}, {"species": [{"element": "La", "occu": 1}], "abc": [0.5, 0.5, 0.0], "properties": {"magmom": -0.006}, "label": "La", "xyz": [0.0, 0.0, 4.803435]}, {"species": [{"element": "Nb", "occu": 1}], "abc": [0.0, 0.0, 0.0], "properties": {"magmom": 0.074}, "label": "Nb", "xyz": [0.0, 0.0, 0.0]}]}, "task_ids": null, "uncorrected_energy_per_atom": null, "energy_per_atom": -28.138000667500002, "formation_energy_per_atom": 0.35410314874999904, "energy_above_hull": 0.35410314874999904, "is_stable": false, "equilibrium_reaction_energy_per_atom": null, "decomposes_to": null, "xas": null, "grain_boundaries": null, "band_gap": 0.0, "cbm": null, "vbm": null, "efermi": 8.37864571, "is_gap_direct": null, "is_metal": null, "es_source_calc_id": null, "bandstructure": null, "dos": null, "dos_energy_up": null, "dos_energy_down": null, "is_magnetic": null, "ordering": null, "total_magnetization": 0.014379, "total_magnetization_normalized_vol": null, "total_magnetization_normalized_formula_units": null, "num_magnetic_sites": null, "num_unique_magnetic_sites": null, "types_of_magnetic_species": null, "bulk_modulus": null, "shear_modulus": null, "universal_anisotropy": null, "homogeneous_poisson": null, "e_total": null, "e_ionic": null, "e_electronic": null, "n": null, "e_ij_max": null, "weighted_surface_energy_EV_PER_ANG2": null, "weighted_surface_energy": null, "weighted_work_function": null, "surface_anisotropy": null, "shape_factor": null, "has_reconstructed": null, "possible_species": null, "has_props": null, "theoretical": null, "database_IDs": null, "fields_not_requested": ["builder_meta", "nsites", "elements", "nelements", "composition", "composition_reduced", "chemsys", "symmetry", "property_name", "deprecated", "deprecation_reasons", "last_updated", "origins", "warnings", "task_ids", "uncorrected_energy_per_atom", "equilibrium_reaction_energy_per_atom", "decomposes_to", "xas", "grain_boundaries", "cbm", "vbm", "is_gap_direct", "is_metal", "es_source_calc_id", "bandstructure", "dos", "dos_energy_up", "dos_energy_down", "is_magnetic", "ordering", "total_magnetization_normalized_vol", "total_magnetization_normalized_formula_units", "num_magnetic_sites", "num_unique_magnetic_sites", "types_of_magnetic_species", "bulk_modulus", "shear_modulus", "universal_anisotropy", "homogeneous_poisson", "e_total", "e_ionic", "e_electronic", "n", "e_ij_max", "weighted_surface_energy_EV_PER_ANG2", "weighted_surface_energy", "weighted_work_function", "surface_anisotropy", "shape_factor", "has_reconstructed", "possible_species", "has_props", "theoretical", "database_IDs"]}