{"builder_meta": null, "nsites": null, "elements": null, "nelements": null, "composition": null, "composition_reduced": null, "formula_pretty": "La3Os", "formula_anonymous": "AB3", "chemsys": null, "volume": 501.5745928897243, "density": 8.037554050184577, "density_atomic": 31.348412055607767, "symmetry": null, "property_name": null, "material_id": "mp-1189101", "deprecated": null, "deprecation_reasons": null, "last_updated": null, "origins": null, "warnings": null, "structure": {"@module": "pymatgen.core.structure", "@class": "Structure", "charge": 0, "lattice": {"matrix": [[0.0, 0.0, 6.6181280000000005], [7.491415, 0.0, 0.0], [0.0, 10.116645, 0.0]], "pbc": [true, true, true], "a": 6.6181280000000005, "b": 7.491415, "c": 10.116645, "alpha": 90.0, "beta": 90.0, "gamma": 90.0, "volume": 501.57459288972433}, "properties": {}, "sites": [{"species": [{"element": "La", "occu": 1}], "abc": [0.326117, 0.670254, 0.070248999999999], "properties": {"magmom": -0.0}, "label": "La", "xyz": [5.02115086941, 0.71068419460499, 2.1582840489760002]}, {"species": [{"element": "La", "occu": 1}], "abc": [0.173882999999999, 0.170254, 0.429751], "properties": {"magmom": -0.0}, "label": "La", "xyz": [1.2754433694099998, 4.347638305395, 1.1507799510239936]}, {"species": [{"element": "La", "occu": 1}], "abc": [0.673883, 0.329746, 0.570249], "properties": {"magmom": -0.0}, "label": "La", "xyz": [2.47026413059, 5.769006694605, 4.459843951024]}, {"species": [{"element": "La", "occu": 1}], "abc": [0.826117, 0.829746, 0.929751], "properties": {"magmom": -0.0}, "label": "La", "xyz": [6.2159716305899995, 9.405960805395, 5.4673480489760005]}, {"species": [{"element": "La", "occu": 1}], "abc": [0.673883, 0.329746, 0.929751], "properties": {"magmom": -0.0}, "label": "La", "xyz": [2.47026413059, 9.405960805395, 4.459843951024]}, {"species": [{"element": "La", "occu": 1}], "abc": [0.826117, 0.829746, 0.570249], "properties": {"magmom": -0.0}, "label": "La", "xyz": [6.2159716305899995, 5.769006694605, 5.4673480489760005]}, {"species": [{"element": "La", "occu": 1}], "abc": [0.326117, 0.670254, 0.429751], "properties": {"magmom": -0.0}, "label": "La", "xyz": [5.02115086941, 4.347638305395, 2.1582840489760002]}, {"species": [{"element": "La", "occu": 1}], "abc": [0.173882999999999, 0.170254, 0.070248999999999], "properties": {"magmom": -0.0}, "label": "La", "xyz": [1.2754433694099998, 0.71068419460499, 1.1507799510239936]}, {"species": [{"element": "La", "occu": 1}], "abc": [0.848389, 0.544520999999999, 0.25], "properties": {"magmom": -0.0}, "label": "La", "xyz": [4.079232787214993, 2.52916125, 5.614746995792]}, {"species": [{"element": "La", "occu": 1}], "abc": [0.651610999999999, 0.044521, 0.25], "properties": {"magmom": -0.0}, "label": "La", "xyz": [0.33352528721499997, 2.52916125, 4.312445004207994]}, {"species": [{"element": "La", "occu": 1}], "abc": [0.151611, 0.455478999999999, 0.75], "properties": {"magmom": -0.0}, "label": "La", "xyz": [3.412182212784993, 7.5874837500000005, 1.003381004208]}, {"species": [{"element": "La", "occu": 1}], "abc": [0.348389, 0.955479, 0.75], "properties": {"magmom": -0.0}, "label": "La", "xyz": [7.157889712785, 7.5874837500000005, 2.305682995792]}, {"species": [{"element": "Os", "occu": 1}], "abc": [0.052917, 0.880981999999999, 0.25], "properties": {"magmom": 0.0}, "label": "Os", "xyz": [6.599801769529993, 2.52916125, 0.350211479376]}, {"species": [{"element": "Os", "occu": 1}], "abc": [0.447082999999999, 0.380982, 0.25], "properties": {"magmom": 0.0}, "label": "Os", "xyz": [2.85409426953, 2.52916125, 2.9588525206239935]}, {"species": [{"element": "Os", "occu": 1}], "abc": [0.947083, 0.119018, 0.75], "properties": {"magmom": 0.0}, "label": "Os", "xyz": [0.89161323047, 7.5874837500000005, 6.267916520624]}, {"species": [{"element": "Os", "occu": 1}], "abc": [0.552917, 0.619018, 0.75], "properties": {"magmom": 0.0}, "label": "Os", "xyz": [4.63732073047, 7.5874837500000005, 3.6592754793760003]}]}, "task_ids": null, "uncorrected_energy_per_atom": null, "energy_per_atom": -6.66087206, "formation_energy_per_atom": -0.152024873750001, "energy_above_hull": 0.0, "is_stable": true, "equilibrium_reaction_energy_per_atom": null, "decomposes_to": null, "xas": null, "grain_boundaries": null, "band_gap": 0.0, "cbm": null, "vbm": null, "efermi": 7.82188459, "is_gap_direct": null, "is_metal": null, "es_source_calc_id": null, "bandstructure": null, "dos": null, "dos_energy_up": null, "dos_energy_down": null, "is_magnetic": null, "ordering": null, "total_magnetization": 0.00021559999999900002, "total_magnetization_normalized_vol": null, "total_magnetization_normalized_formula_units": null, "num_magnetic_sites": null, "num_unique_magnetic_sites": null, "types_of_magnetic_species": null, "bulk_modulus": null, "shear_modulus": null, "universal_anisotropy": null, "homogeneous_poisson": null, "e_total": null, "e_ionic": null, "e_electronic": null, "n": null, "e_ij_max": null, "weighted_surface_energy_EV_PER_ANG2": null, "weighted_surface_energy": null, "weighted_work_function": null, "surface_anisotropy": null, "shape_factor": null, "has_reconstructed": null, "possible_species": null, "has_props": null, "theoretical": null, "database_IDs": null, "fields_not_requested": ["builder_meta", "nsites", "elements", "nelements", "composition", "composition_reduced", "chemsys", "symmetry", "property_name", "deprecated", "deprecation_reasons", "last_updated", "origins", "warnings", "task_ids", "uncorrected_energy_per_atom", "equilibrium_reaction_energy_per_atom", "decomposes_to", "xas", "grain_boundaries", "cbm", "vbm", "is_gap_direct", "is_metal", "es_source_calc_id", "bandstructure", "dos", "dos_energy_up", "dos_energy_down", "is_magnetic", "ordering", "total_magnetization_normalized_vol", "total_magnetization_normalized_formula_units", "num_magnetic_sites", "num_unique_magnetic_sites", "types_of_magnetic_species", "bulk_modulus", "shear_modulus", "universal_anisotropy", "homogeneous_poisson", "e_total", "e_ionic", "e_electronic", "n", "e_ij_max", "weighted_surface_energy_EV_PER_ANG2", "weighted_surface_energy", "weighted_work_function", "surface_anisotropy", "shape_factor", "has_reconstructed", "possible_species", "has_props", "theoretical", "database_IDs"]}