{"builder_meta": null, "nsites": null, "elements": null, "nelements": null, "composition": null, "composition_reduced": null, "formula_pretty": "La3Pd4", "formula_anonymous": "A3B4", "chemsys": null, "volume": 329.0868276852069, "density": 8.501295285550993, "density_atomic": 23.50620197751478, "symmetry": null, "property_name": null, "material_id": "mp-1104435", "deprecated": null, "deprecation_reasons": null, "last_updated": null, "origins": null, "warnings": null, "structure": {"@module": "pymatgen.core.structure", "@class": "Structure", "charge": 0, "lattice": {"matrix": [[-1e-08, -0.0, -5.80891728], [-2.8340000000000003e-05, -8.08802201, 1.93630542], [-7.00441878, 4.04403529, 1.93630542]], "pbc": [true, true, true], "a": 5.80891728, "b": 8.316572534077302, "c": 8.316572764781384, "alpha": 114.75183271333631, "beta": 103.46344399324869, "gamma": 103.46344445917698, "volume": 329.0868276852069}, "properties": {}, "sites": [{"species": [{"element": "La", "occu": 1}], "abc": [0.40603844, 0.12352705, 0.37562919], "properties": {"magmom": 0.0}, "label": "La", "xyz": [-2.6310676575691696, 0.5199682010837445, -1.3921247775214227]}, {"species": [{"element": "La", "occu": 1}], "abc": [0.03041025, 0.62437081, 0.74789785], "properties": {"magmom": 0.0}, "label": "La", "xyz": [-5.23860744103448, -2.0253995549664014, 2.4804806173400173]}, {"species": [{"element": "La", "occu": 1}], "abc": [0.282511399999999, 0.25210215, 0.87647295], "properties": {"magmom": 0.0}, "label": "La", "xyz": [-6.139190738542046, 1.5054798025620837, 0.5441807297500556]}, {"species": [{"element": "La", "occu": 1}], "abc": [0.59396156, 0.87647295, 0.62437081], "properties": {"magmom": 0.0}, "label": "La", "xyz": [-4.37337947243083, -4.563954921083743, -0.5441816624785776]}, {"species": [{"element": "La", "occu": 1}], "abc": [0.96958975, 0.37562919, 0.25210215], "properties": {"magmom": 0.0}, "label": "La", "xyz": [-1.7658396889655192, -2.018587165033598, -4.416787057340017]}, {"species": [{"element": "La", "occu": 1}], "abc": [0.717488599999999, 0.74789785, 0.12352705], "properties": {"magmom": 0.0}, "label": "La", "xyz": [-0.865256391457954, -5.549466522562083, -2.480487169750045]}, {"species": [{"element": "Pd", "occu": 1}], "abc": [-0.0, -0.0, -0.0], "properties": {"magmom": -0.0}, "label": "Pd", "xyz": [0.0, 0.0, 0.0]}, {"species": [{"element": "Pd", "occu": 1}], "abc": [0.5, -0.0, -0.0], "properties": {"magmom": -0.0}, "label": "Pd", "xyz": [-5e-09, 0.0, -2.90445864]}, {"species": [{"element": "Pd", "occu": 1}], "abc": [0.22083469, 0.65977115, 0.16372434], "properties": {"magmom": -0.0}, "label": "Pd", "xyz": [-1.1468125419618431, -4.674136573971052, 0.3117283338681125]}, {"species": [{"element": "Pd", "occu": 1}], "abc": [0.05710935, 0.83627566, 0.49604581000000003], "properties": {"magmom": -0.0}, "label": "Pd", "xyz": [-3.47453628792761, -4.757789183410641, 2.2480377934787996]}, {"species": [{"element": "Pd", "occu": 1}], "abc": [0.56106355, 0.50395419, 0.34022885], "properties": {"magmom": -0.0}, "label": "Pd", "xyz": [-2.3831196341101837, -2.700095104675605, -1.6245755549490672]}, {"species": [{"element": "Pd", "occu": 1}], "abc": [0.77916531, 0.34022885, 0.83627566], "properties": {"magmom": -0.0}, "label": "Pd", "xyz": [-5.857634588038156, 0.6301498539710528, -2.2480347738681123]}, {"species": [{"element": "Pd", "occu": 1}], "abc": [0.94289065, 0.16372434, 0.50395419], "properties": {"magmom": -0.0}, "label": "Pd", "xyz": [-3.52991084207239, 0.7138024634106419, -4.184344233478799]}, {"species": [{"element": "Pd", "occu": 1}], "abc": [0.43893645000000003, 0.49604581000000003, 0.65977115], "properties": {"magmom": -0.0}, "label": "Pd", "xyz": [-4.621327495889816, -1.3438916153243943, -0.31173088505093305]}]}, "task_ids": null, "uncorrected_energy_per_atom": null, "energy_per_atom": -26.73337610214286, "formation_energy_per_atom": -0.8653539514285691, "energy_above_hull": 0.0, "is_stable": true, "equilibrium_reaction_energy_per_atom": null, "decomposes_to": null, "xas": null, "grain_boundaries": null, "band_gap": 0.0, "cbm": null, "vbm": null, "efermi": 7.40844793, "is_gap_direct": null, "is_metal": null, "es_source_calc_id": null, "bandstructure": null, "dos": null, "dos_energy_up": null, "dos_energy_down": null, "is_magnetic": null, "ordering": null, "total_magnetization": 1.1e-06, "total_magnetization_normalized_vol": null, "total_magnetization_normalized_formula_units": null, "num_magnetic_sites": null, "num_unique_magnetic_sites": null, "types_of_magnetic_species": null, "bulk_modulus": null, "shear_modulus": null, "universal_anisotropy": null, "homogeneous_poisson": null, "e_total": null, "e_ionic": null, "e_electronic": null, "n": null, "e_ij_max": null, "weighted_surface_energy_EV_PER_ANG2": null, "weighted_surface_energy": null, "weighted_work_function": null, "surface_anisotropy": null, "shape_factor": null, "has_reconstructed": null, "possible_species": null, "has_props": null, "theoretical": null, "database_IDs": null, "fields_not_requested": ["builder_meta", "nsites", "elements", "nelements", "composition", "composition_reduced", "chemsys", "symmetry", "property_name", "deprecated", "deprecation_reasons", "last_updated", "origins", "warnings", "task_ids", "uncorrected_energy_per_atom", "equilibrium_reaction_energy_per_atom", "decomposes_to", "xas", "grain_boundaries", "cbm", "vbm", "is_gap_direct", "is_metal", "es_source_calc_id", "bandstructure", "dos", "dos_energy_up", "dos_energy_down", "is_magnetic", "ordering", "total_magnetization_normalized_vol", "total_magnetization_normalized_formula_units", "num_magnetic_sites", "num_unique_magnetic_sites", "types_of_magnetic_species", "bulk_modulus", "shear_modulus", "universal_anisotropy", "homogeneous_poisson", "e_total", "e_ionic", "e_electronic", "n", "e_ij_max", "weighted_surface_energy_EV_PER_ANG2", "weighted_surface_energy", "weighted_work_function", "surface_anisotropy", "shape_factor", "has_reconstructed", "possible_species", "has_props", "theoretical", "database_IDs"]}