{"builder_meta": null, "nsites": null, "elements": null, "nelements": null, "composition": null, "composition_reduced": null, "formula_pretty": "La3Pt4", "formula_anonymous": "A3B4", "chemsys": null, "volume": 326.69443995907864, "density": 12.16887738782248, "density_atomic": 23.335317139934187, "symmetry": null, "property_name": null, "material_id": "mp-1104856", "deprecated": null, "deprecation_reasons": null, "last_updated": null, "origins": null, "warnings": null, "structure": {"@module": "pymatgen.core.structure", "@class": "Structure", "charge": 0, "lattice": {"matrix": [[0.00029914, 9.216e-05, -5.84111153], [0.002146, -8.03679239, 1.947057029999999], [-6.96051663, 4.02015023, 1.94742926]], "pbc": [true, true, true], "a": 5.841111538386949, "b": 8.269284588363757, "c": 8.270603384939925, "alpha": 114.65716604191584, "beta": 103.62106366253607, "gamma": 103.61943819842266, "volume": 326.69443995907864}, "properties": {}, "sites": [{"species": [{"element": "La", "occu": 1}], "abc": [0.40799505, 0.1247122, 0.37483481], "properties": {"magmom": 0.0}, "label": "La", "xyz": [-2.6086542484874333, 0.5046437885571564, -1.4103585483406205]}, {"species": [{"element": "La", "occu": 1}], "abc": [0.03320392, 0.62506367, 0.74995572], "properties": {"magmom": -0.0}, "label": "La", "xyz": [-5.218727941567175, -2.008569226000389, 2.4835725257502688]}, {"species": [{"element": "La", "occu": 1}], "abc": [0.28314878, 0.25011912000000003, 0.87518308], "properties": {"magmom": 0.0}, "label": "La", "xyz": [-6.091104925877051, 1.5082381151361761, 0.5374497252189008]}, {"species": [{"element": "La", "occu": 1}], "abc": [0.59200495, 0.8752878, 0.62516519], "properties": {"magmom": 0.0}, "label": "La", "xyz": [-4.349417241512567, -4.521193788557156, -0.5362666916593808]}, {"species": [{"element": "La", "occu": 1}], "abc": [0.9667960800000001, 0.37493633, 0.25004428], "properties": {"magmom": -0.0}, "label": "La", "xyz": [-1.7393435484328252, -2.007980773999612, -4.43019776575027]}, {"species": [{"element": "La", "occu": 1}], "abc": [0.71685122, 0.74988088, 0.12481692], "properties": {"magmom": 0.0}, "label": "La", "xyz": [-0.8669665641229488, -5.524788115136176, -2.484074965218902]}, {"species": [{"element": "Pt", "occu": 1}], "abc": [-0.0, 0.0, -0.0], "properties": {"magmom": 0.0}, "label": "Pt", "xyz": [0.0, 0.0, 0.0]}, {"species": [{"element": "Pt", "occu": 1}], "abc": [0.5, 0.0, -0.0], "properties": {"magmom": -0.0}, "label": "Pt", "xyz": [0.00014957, 4.608e-05, -2.920555765]}, {"species": [{"element": "Pt", "occu": 1}], "abc": [0.22212582, 0.6635616400000001, 0.16400868], "properties": {"magmom": 0.0}, "label": "Pt", "xyz": [-1.1400946946071135, -4.673547134908352, 0.3139259700136008]}, {"species": [{"element": "Pt", "occu": 1}], "abc": [0.05791246, 0.83602698, 0.49964307], "properties": {"magmom": -0.0}, "label": "Pt", "xyz": [-3.4759624599668895, -4.710329730707963, 2.262538604916233]}, {"species": [{"element": "Pt", "occu": 1}], "abc": [0.55816221, 0.50040061, 0.33646832], "properties": {"magmom": 0.0}, "label": "Pt", "xyz": [-2.340752508475602, -2.6689111801343715, -1.6307309434934505]}, {"species": [{"element": "Pt", "occu": 1}], "abc": [0.77787418, 0.33643836, 0.83599132], "properties": {"magmom": 0.0}, "label": "Pt", "xyz": [-5.8179767953928865, 0.6569971349083512, -2.2605512100136016]}, {"species": [{"element": "Pt", "occu": 1}], "abc": [0.9420875400000001, 0.16397302, 0.50035693], "properties": {"magmom": -0.0}, "label": "Pt", "xyz": [-3.4821090300331106, 0.6937797307079623, -4.209163844916234]}, {"species": [{"element": "Pt", "occu": 1}], "abc": [0.44183779, 0.49959939000000003, 0.6635316800000001], "properties": {"magmom": 0.0}, "label": "Pt", "xyz": [-4.617318981524398, -1.34763881986563, -0.31589429650655054]}]}, "task_ids": null, "uncorrected_energy_per_atom": null, "energy_per_atom": -43.424739020714284, "formation_energy_per_atom": -1.255423561428569, "energy_above_hull": 0.0, "is_stable": true, "equilibrium_reaction_energy_per_atom": null, "decomposes_to": null, "xas": null, "grain_boundaries": null, "band_gap": 0.0, "cbm": null, "vbm": null, "efermi": 8.16549203, "is_gap_direct": null, "is_metal": null, "es_source_calc_id": null, "bandstructure": null, "dos": null, "dos_energy_up": null, "dos_energy_down": null, "is_magnetic": null, "ordering": null, "total_magnetization": 0.0, "total_magnetization_normalized_vol": null, "total_magnetization_normalized_formula_units": null, "num_magnetic_sites": null, "num_unique_magnetic_sites": null, "types_of_magnetic_species": null, "bulk_modulus": null, "shear_modulus": null, "universal_anisotropy": null, "homogeneous_poisson": null, "e_total": null, "e_ionic": null, "e_electronic": null, "n": null, "e_ij_max": null, "weighted_surface_energy_EV_PER_ANG2": null, "weighted_surface_energy": null, "weighted_work_function": null, "surface_anisotropy": null, "shape_factor": null, "has_reconstructed": null, "possible_species": null, "has_props": null, "theoretical": null, "database_IDs": null, "fields_not_requested": ["builder_meta", "nsites", "elements", "nelements", "composition", "composition_reduced", "chemsys", "symmetry", "property_name", "deprecated", "deprecation_reasons", "last_updated", "origins", "warnings", "task_ids", "uncorrected_energy_per_atom", "equilibrium_reaction_energy_per_atom", "decomposes_to", "xas", "grain_boundaries", "cbm", "vbm", "is_gap_direct", "is_metal", "es_source_calc_id", "bandstructure", "dos", "dos_energy_up", "dos_energy_down", "is_magnetic", "ordering", "total_magnetization_normalized_vol", "total_magnetization_normalized_formula_units", "num_magnetic_sites", "num_unique_magnetic_sites", "types_of_magnetic_species", "bulk_modulus", "shear_modulus", "universal_anisotropy", "homogeneous_poisson", "e_total", "e_ionic", "e_electronic", "n", "e_ij_max", "weighted_surface_energy_EV_PER_ANG2", "weighted_surface_energy", "weighted_work_function", "surface_anisotropy", "shape_factor", "has_reconstructed", "possible_species", "has_props", "theoretical", "database_IDs"]}