{
  "builder_meta": null,
  "nsites": null,
  "elements": null,
  "nelements": null,
  "composition": null,
  "composition_reduced": null,
  "formula_pretty": "La3Pt2",
  "formula_anonymous": "A2B3",
  "chemsys": null,
  "volume": 419.3013212445736,
  "density": 9.586397779943782,
  "density_atomic": 27.95342141630491,
  "symmetry": null,
  "property_name": null,
  "material_id": "mp-1104753",
  "deprecated": null,
  "deprecation_reasons": null,
  "last_updated": null,
  "origins": null,
  "warnings": null,
  "structure": {
    "@module": "pymatgen.core.structure",
    "@class": "Structure",
    "charge": 0,
    "lattice": {
      "matrix": [
        [6.36757666, -4.57015858, 0.03357456],
        [6.36757785, 4.57015944, 0.03357425],
        [3.04957308, 2e-7, 7.22036148]
      ],
      "pbc": [true, true, true],
      "a": 7.837953126831238,
      "b": 7.837954593712239,
      "c": 7.837953551286747,
      "alpha": 71.33502217774316,
      "beta": 71.33502172412443,
      "gamma": 71.3350203117988,
      "volume": 419.3013212445736
    },
    "properties": {},
    "sites": [
      {
        "species": [{ "element": "La", "occu": 1 }],
        "abc": [-0.0, -0.0, -0.0],
        "properties": { "magmom": -0.0 },
        "label": "La",
        "xyz": [0.0, 0.0, 0.0]
      },
      {
        "species": [{ "element": "La", "occu": 1 }],
        "abc": [0.80058651, 0.80058651, 0.80058651],
        "properties": { "magmom": 0.0 },
        "label": "La",
        "xyz": [12.63703997257881, 8.48621700382861e-7, 5.834282429660188]
      },
      {
        "species": [{ "element": "La", "occu": 1 }],
        "abc": [0.19941349, 0.19941349, 0.19941349],
        "properties": { "magmom": 0.0 },
        "label": "La",
        "xyz": [3.147687617421189, 2.1137829938651765e-7, 1.453227860339812]
      },
      {
        "species": [{ "element": "La", "occu": 1 }],
        "abc": [0.32841484, 0.60673642, 0.83844473],
        "properties": { "magmom": 0.0 },
        "label": "La",
        "xyz": [8.5115465364378, 1.271974446318424, 6.085271135600656]
      },
      {
        "species": [{ "element": "La", "occu": 1 }],
        "abc": [0.83844473, 0.32841384, 0.60673642],
        "properties": { "magmom": 0.0 },
        "label": "La",
        "xyz": [9.28034883975302, -2.3309216442153495, 4.420032936742791]
      },
      {
        "species": [{ "element": "La", "occu": 1 }],
        "abc": [0.60673642, 0.83844473, 0.32841384],
        "properties": { "magmom": 0.0 },
        "label": "La",
        "xyz": [10.203824763524615, 1.058944507749035, 2.419787701148561]
      },
      {
        "species": [{ "element": "La", "occu": 1 }],
        "abc": [0.67158516, 0.39326358, 0.16155527],
        "properties": { "magmom": 0.0 },
        "label": "La",
        "xyz": [7.2731810535622, -1.2719733863184235, 1.202239154399344]
      },
      {
        "species": [{ "element": "La", "occu": 1 }],
        "abc": [0.16155527, 0.67158616, 0.39326358],
        "properties": { "magmom": 0.0 },
        "label": "La",
        "xyz": [6.50437875024698, 2.33092270421535, 2.8674773532572098]
      },
      {
        "species": [{ "element": "La", "occu": 1 }],
        "abc": [0.39326358, 0.16155527, 0.67158616],
        "properties": { "magmom": 0.0 },
        "label": "La",
        "xyz": [5.580902826475386, -1.0589434477490356, 4.867722588851439]
      },
      {
        "species": [{ "element": "Pt", "occu": 1 }],
        "abc": [0.16760421, 0.9584046900000001, 0.58876541],
        "properties": { "magmom": -0.0 },
        "label": "Pt",
        "xyz": [8.965432275865018, 3.614084540721234, 4.288904043388537]
      },
      {
        "species": [{ "element": "Pt", "occu": 1 }],
        "abc": [0.58876541, 0.16760421, 0.9584046900000001],
        "properties": { "magmom": -0.0 },
        "label": "Pt",
        "xyz": [7.738966880463826, -1.9247731359225375, 6.945423031158904]
      },
      {
        "species": [{ "element": "Pt", "occu": 1 }],
        "abc": [0.9584046900000001, 0.58876541, 0.16760421],
        "properties": { "magmom": -0.0 },
        "label": "Pt",
        "xyz": [10.36284620535137, -1.6893095871379278, 1.2621083546052099]
      },
      {
        "species": [{ "element": "Pt", "occu": 1 }],
        "abc": [0.83239579, 0.04159531, 0.41123459],
        "properties": { "magmom": -0.0 },
        "label": "Pt",
        "xyz": [6.8192953141349815, -3.614083480721234, 2.9986062466114634]
      },
      {
        "species": [{ "element": "Pt", "occu": 1 }],
        "abc": [0.41123459, 0.83239579, 0.04159531],
        "properties": { "magmom": -0.0 },
        "label": "Pt",
        "xyz": [8.045760709536175, 1.9247741959225375, 0.34208725884109675]
      },
      {
        "species": [{ "element": "Pt", "occu": 1 }],
        "abc": [0.04159531, 0.41123459, 0.83239579],
        "properties": { "magmom": -0.0 },
        "label": "Pt",
        "xyz": [5.421881384648629, 1.689310647137928, 6.0254019353947905]
      }
    ]
  },
  "task_ids": null,
  "uncorrected_energy_per_atom": null,
  "energy_per_atom": -39.515649851333336,
  "formation_energy_per_atom": -1.073694968333332,
  "energy_above_hull": 0.005386151416658,
  "is_stable": false,
  "equilibrium_reaction_energy_per_atom": null,
  "decomposes_to": null,
  "xas": null,
  "grain_boundaries": null,
  "band_gap": 0.0,
  "cbm": null,
  "vbm": null,
  "efermi": 7.9068229500000005,
  "is_gap_direct": null,
  "is_metal": null,
  "es_source_calc_id": null,
  "bandstructure": null,
  "dos": null,
  "dos_energy_up": null,
  "dos_energy_down": null,
  "is_magnetic": null,
  "ordering": null,
  "total_magnetization": 0.0001411,
  "total_magnetization_normalized_vol": null,
  "total_magnetization_normalized_formula_units": null,
  "num_magnetic_sites": null,
  "num_unique_magnetic_sites": null,
  "types_of_magnetic_species": null,
  "bulk_modulus": null,
  "shear_modulus": null,
  "universal_anisotropy": null,
  "homogeneous_poisson": null,
  "e_total": null,
  "e_ionic": null,
  "e_electronic": null,
  "n": null,
  "e_ij_max": null,
  "weighted_surface_energy_EV_PER_ANG2": null,
  "weighted_surface_energy": null,
  "weighted_work_function": null,
  "surface_anisotropy": null,
  "shape_factor": null,
  "has_reconstructed": null,
  "possible_species": null,
  "has_props": null,
  "theoretical": null,
  "database_IDs": null,
  "fields_not_requested": [
    "builder_meta",
    "nsites",
    "elements",
    "nelements",
    "composition",
    "composition_reduced",
    "chemsys",
    "symmetry",
    "property_name",
    "deprecated",
    "deprecation_reasons",
    "last_updated",
    "origins",
    "warnings",
    "task_ids",
    "uncorrected_energy_per_atom",
    "equilibrium_reaction_energy_per_atom",
    "decomposes_to",
    "xas",
    "grain_boundaries",
    "cbm",
    "vbm",
    "is_gap_direct",
    "is_metal",
    "es_source_calc_id",
    "bandstructure",
    "dos",
    "dos_energy_up",
    "dos_energy_down",
    "is_magnetic",
    "ordering",
    "total_magnetization_normalized_vol",
    "total_magnetization_normalized_formula_units",
    "num_magnetic_sites",
    "num_unique_magnetic_sites",
    "types_of_magnetic_species",
    "bulk_modulus",
    "shear_modulus",
    "universal_anisotropy",
    "homogeneous_poisson",
    "e_total",
    "e_ionic",
    "e_electronic",
    "n",
    "e_ij_max",
    "weighted_surface_energy_EV_PER_ANG2",
    "weighted_surface_energy",
    "weighted_work_function",
    "surface_anisotropy",
    "shape_factor",
    "has_reconstructed",
    "possible_species",
    "has_props",
    "theoretical",
    "database_IDs"
  ]
}
