{
  "builder_meta": null,
  "nsites": null,
  "elements": null,
  "nelements": null,
  "composition": null,
  "composition_reduced": null,
  "formula_pretty": "La3Rh2",
  "formula_anonymous": "A2B3",
  "chemsys": null,
  "volume": 397.65149570826287,
  "density": 7.798771754848716,
  "density_atomic": 26.51009971388419,
  "symmetry": null,
  "property_name": null,
  "material_id": "mp-1104495",
  "deprecated": null,
  "deprecation_reasons": null,
  "last_updated": null,
  "origins": null,
  "warnings": null,
  "structure": {
    "@module": "pymatgen.core.structure",
    "@class": "Structure",
    "charge": 0,
    "lattice": {
      "matrix": [
        [4.47654976, 2.5842201300000003, 5.72881235],
        [-4.47616919, 2.58442965, 5.72867837],
        [-2.986e-5, -5.16893778, 5.72888993]
      ],
      "pbc": [true, true, true],
      "a": 7.716021149243035,
      "b": 7.715771063232128,
      "c": 7.716093416001284,
      "alpha": 70.92115367157129,
      "beta": 70.92018378653813,
      "gamma": 70.92186523288757,
      "volume": 397.6514957082629
    },
    "properties": {},
    "sites": [
      {
        "species": [{ "element": "La", "occu": 1 }],
        "abc": [0.0, -0.0, 0.0],
        "properties": { "magmom": 0.006 },
        "label": "La",
        "xyz": [0.0, 0.0, 0.0]
      },
      {
        "species": [{ "element": "La", "occu": 1 }],
        "abc": [0.79733778, 0.79733404, 0.79734973],
        "properties": { "magmom": 0.012 },
        "label": "La",
        "xyz": [
          0.0002963748487674797, -0.00030106785400096925, 13.703397628683518
        ]
      },
      {
        "species": [{ "element": "La", "occu": 1 }],
        "abc": [0.20266222, 0.20266596, 0.20265027],
        "properties": { "magmom": 0.012 },
        "label": "La",
        "xyz": [5.43351512325448e-5, 1.306785400201349e-5, 3.4829830213164836]
      },
      {
        "species": [{ "element": "La", "occu": 1 }],
        "abc": [0.38846986, 0.16162519, 0.67120215],
        "properties": { "magmom": 0.029 },
        "label": "La",
        "xyz": [1.0155229206481384, -2.0478015858190615, 6.996612899700262]
      },
      {
        "species": [{ "element": "La", "occu": 1 }],
        "abc": [0.16160808000000002, 0.67119955, 0.38848134],
        "properties": { "magmom": 0.029 },
        "label": "La",
        "xyz": [-2.280967734366616, 0.1442629964422828, 6.996475545321427]
      },
      {
        "species": [{ "element": "La", "occu": 1 }],
        "abc": [0.67120669, 0.38848765, 0.16161606],
        "properties": { "magmom": 0.029 },
        "label": "La",
        "xyz": [1.2657488715488392, 1.9031814826187454, 6.996618591302028]
      },
      {
        "species": [{ "element": "La", "occu": 1 }],
        "abc": [0.61153014, 0.83837481, 0.32879785],
        "properties": { "magmom": 0.029 },
        "label": "La",
        "xyz": [-1.0151722106481387, 2.047513585819062, 10.189767750299739]
      },
      {
        "species": [{ "element": "La", "occu": 1 }],
        "abc": [0.8383919200000001, 0.32880045, 0.61151866],
        "properties": { "magmom": 0.029 },
        "label": "La",
        "xyz": [2.281318444366616, -0.1445509964422822, 10.189905104678573]
      },
      {
        "species": [{ "element": "La", "occu": 1 }],
        "abc": [0.32879331, 0.61151235, 0.83838394],
        "properties": { "magmom": 0.029 },
        "label": "La",
        "xyz": [-1.2653981615488397, -1.9034694826187457, 10.189762058697973]
      },
      {
        "species": [{ "element": "Rh", "occu": 1 }],
        "abc": [0.16540261, 0.95653533, 0.59043901],
        "properties": { "magmom": 0.009000000000000001 },
        "label": "Rh",
        "xyz": [-3.5411985897024483, -0.15240748313372388, 9.809803868670215]
      },
      {
        "species": [{ "element": "Rh", "occu": 1 }],
        "abc": [0.95654163, 0.59044747, 0.16538685],
        "properties": { "magmom": 0.009000000000000001 },
        "label": "Rh",
        "xyz": [1.6390584922277192, 3.1430097463843047, 9.809814212762776]
      },
      {
        "species": [{ "element": "Rh", "occu": 1 }],
        "abc": [0.59043817, 0.16540172, 0.95654243],
        "properties": { "magmom": 0.009000000000000001 },
        "label": "Rh",
        "xyz": [1.9027312028143724, -2.9910169908366457, 9.809969030776927]
      },
      {
        "species": [{ "element": "Rh", "occu": 1 }],
        "abc": [0.83459739, 0.04346367, 0.40956099],
        "properties": { "magmom": 0.009000000000000001 },
        "label": "Rh",
        "xyz": [3.541553775871638, 0.1521168987040742, 7.376571052651415]
      },
      {
        "species": [{ "element": "Rh", "occu": 1 }],
        "abc": [0.04345837, 0.40955253, 0.83461315],
        "properties": { "magmom": 0.009000000000000001 },
        "label": "Rh",
        "xyz": [-1.6387077822277187, -3.143297746384305, 7.3765664372372255]
      },
      {
        "species": [{ "element": "Rh", "occu": 1 }],
        "abc": [0.40956183, 0.83459828, 0.04345757],
        "properties": { "magmom": 0.009000000000000001 },
        "label": "Rh",
        "xyz": [-1.9023804928143726, 2.9907289908366455, 7.3764116192230755]
      }
    ]
  },
  "task_ids": null,
  "uncorrected_energy_per_atom": null,
  "energy_per_atom": -6.569056274000002,
  "formation_energy_per_atom": -0.661728863000001,
  "energy_above_hull": 0.0066886627777770005,
  "is_stable": false,
  "equilibrium_reaction_energy_per_atom": null,
  "decomposes_to": null,
  "xas": null,
  "grain_boundaries": null,
  "band_gap": 0.0,
  "cbm": null,
  "vbm": null,
  "efermi": 8.03996096,
  "is_gap_direct": null,
  "is_metal": null,
  "es_source_calc_id": null,
  "bandstructure": null,
  "dos": null,
  "dos_energy_up": null,
  "dos_energy_down": null,
  "is_magnetic": null,
  "ordering": null,
  "total_magnetization": 0.6573211,
  "total_magnetization_normalized_vol": null,
  "total_magnetization_normalized_formula_units": null,
  "num_magnetic_sites": null,
  "num_unique_magnetic_sites": null,
  "types_of_magnetic_species": null,
  "bulk_modulus": null,
  "shear_modulus": null,
  "universal_anisotropy": null,
  "homogeneous_poisson": null,
  "e_total": null,
  "e_ionic": null,
  "e_electronic": null,
  "n": null,
  "e_ij_max": null,
  "weighted_surface_energy_EV_PER_ANG2": null,
  "weighted_surface_energy": null,
  "weighted_work_function": null,
  "surface_anisotropy": null,
  "shape_factor": null,
  "has_reconstructed": null,
  "possible_species": null,
  "has_props": null,
  "theoretical": null,
  "database_IDs": null,
  "fields_not_requested": [
    "builder_meta",
    "nsites",
    "elements",
    "nelements",
    "composition",
    "composition_reduced",
    "chemsys",
    "symmetry",
    "property_name",
    "deprecated",
    "deprecation_reasons",
    "last_updated",
    "origins",
    "warnings",
    "task_ids",
    "uncorrected_energy_per_atom",
    "equilibrium_reaction_energy_per_atom",
    "decomposes_to",
    "xas",
    "grain_boundaries",
    "cbm",
    "vbm",
    "is_gap_direct",
    "is_metal",
    "es_source_calc_id",
    "bandstructure",
    "dos",
    "dos_energy_up",
    "dos_energy_down",
    "is_magnetic",
    "ordering",
    "total_magnetization_normalized_vol",
    "total_magnetization_normalized_formula_units",
    "num_magnetic_sites",
    "num_unique_magnetic_sites",
    "types_of_magnetic_species",
    "bulk_modulus",
    "shear_modulus",
    "universal_anisotropy",
    "homogeneous_poisson",
    "e_total",
    "e_ionic",
    "e_electronic",
    "n",
    "e_ij_max",
    "weighted_surface_energy_EV_PER_ANG2",
    "weighted_surface_energy",
    "weighted_work_function",
    "surface_anisotropy",
    "shape_factor",
    "has_reconstructed",
    "possible_species",
    "has_props",
    "theoretical",
    "database_IDs"
  ]
}
