{"builder_meta": null, "nsites": null, "elements": null, "nelements": null, "composition": null, "composition_reduced": null, "formula_pretty": "La3Ru", "formula_anonymous": "AB3", "chemsys": null, "volume": 494.9503291791177, "density": 6.948612911405174, "density_atomic": 30.934395573694857, "symmetry": null, "property_name": null, "material_id": "mp-1189592", "deprecated": null, "deprecation_reasons": null, "last_updated": null, "origins": null, "warnings": null, "structure": {"@module": "pymatgen.core.structure", "@class": "Structure", "charge": 0, "lattice": {"matrix": [[0.0, 0.0, 6.604946], [7.388806, 0.0, 0.0], [0.0, 10.141871, 0.0]], "pbc": [true, true, true], "a": 6.604946, "b": 7.388806, "c": 10.141871, "alpha": 90.0, "beta": 90.0, "gamma": 90.0, "volume": 494.9503291791177}, "properties": {}, "sites": [{"species": [{"element": "La", "occu": 1}], "abc": [0.329104, 0.668323999999999, 0.069164999999999], "properties": {"magmom": 0.0}, "label": "La", "xyz": [4.938116381143993, 0.70146250771499, 2.173714148384]}, {"species": [{"element": "La", "occu": 1}], "abc": [0.170896, 0.168324, 0.430834999999999], "properties": {"magmom": 0.0}, "label": "La", "xyz": [1.243713381144, 4.36947299228499, 1.1287588516159999]}, {"species": [{"element": "La", "occu": 1}], "abc": [0.670895999999999, 0.331675999999999, 0.569164999999999], "properties": {"magmom": 0.0}, "label": "La", "xyz": [2.450689618855993, 5.77239800771499, 4.431231851615994]}, {"species": [{"element": "La", "occu": 1}], "abc": [0.829104, 0.831676, 0.930835], "properties": {"magmom": 0.0}, "label": "La", "xyz": [6.145092618855999, 9.440408492285, 5.476187148384]}, {"species": [{"element": "La", "occu": 1}], "abc": [0.670895999999999, 0.331675999999999, 0.930835], "properties": {"magmom": 0.0}, "label": "La", "xyz": [2.450689618855993, 9.440408492285, 4.431231851615994]}, {"species": [{"element": "La", "occu": 1}], "abc": [0.829104, 0.831676, 0.569164999999999], "properties": {"magmom": 0.0}, "label": "La", "xyz": [6.145092618855999, 5.77239800771499, 5.476187148384]}, {"species": [{"element": "La", "occu": 1}], "abc": [0.329104, 0.668323999999999, 0.430834999999999], "properties": {"magmom": 0.0}, "label": "La", "xyz": [4.938116381143993, 4.36947299228499, 2.173714148384]}, {"species": [{"element": "La", "occu": 1}], "abc": [0.170896, 0.168324, 0.069164999999999], "properties": {"magmom": 0.0}, "label": "La", "xyz": [1.243713381144, 0.70146250771499, 1.1287588516159999]}, {"species": [{"element": "La", "occu": 1}], "abc": [0.8504900000000001, 0.55074, 0.25], "properties": {"magmom": 0.0}, "label": "La", "xyz": [4.0693110164399995, 2.53546775, 5.617440523540001]}, {"species": [{"element": "La", "occu": 1}], "abc": [0.64951, 0.05074000000000001, 0.25], "properties": {"magmom": 0.0}, "label": "La", "xyz": [0.37490801644000005, 2.53546775, 4.28997847646]}, {"species": [{"element": "La", "occu": 1}], "abc": [0.14951, 0.44926000000000005, 0.75], "properties": {"magmom": 0.0}, "label": "La", "xyz": [3.3194949835600003, 7.60640325, 0.98750547646]}, {"species": [{"element": "La", "occu": 1}], "abc": [0.35049, 0.9492600000000001, 0.75], "properties": {"magmom": 0.0}, "label": "La", "xyz": [7.013897983560001, 7.60640325, 2.31496752354]}, {"species": [{"element": "Ru", "occu": 1}], "abc": [0.054879, 0.873328, 0.25], "properties": {"magmom": -0.0}, "label": "Ru", "xyz": [6.452851166368, 2.53546775, 0.362472831534]}, {"species": [{"element": "Ru", "occu": 1}], "abc": [0.445121, 0.373328, 0.25], "properties": {"magmom": -0.0}, "label": "Ru", "xyz": [2.758448166368, 2.53546775, 2.9400001684659998]}, {"species": [{"element": "Ru", "occu": 1}], "abc": [0.945121, 0.126672, 0.75], "properties": {"magmom": -0.0}, "label": "Ru", "xyz": [0.935954833632, 7.60640325, 6.242473168466]}, {"species": [{"element": "Ru", "occu": 1}], "abc": [0.554879, 0.626672, 0.75], "properties": {"magmom": -0.0}, "label": "Ru", "xyz": [4.630357833632, 7.60640325, 3.664945831534]}]}, "task_ids": null, "uncorrected_energy_per_atom": null, "energy_per_atom": -6.25606164375, "formation_energy_per_atom": -0.23545568000000103, "energy_above_hull": 0.0032398412500030003, "is_stable": false, "equilibrium_reaction_energy_per_atom": null, "decomposes_to": null, "xas": null, "grain_boundaries": null, "band_gap": 0.0, "cbm": null, "vbm": null, "efermi": 7.97055709, "is_gap_direct": null, "is_metal": null, "es_source_calc_id": null, "bandstructure": null, "dos": null, "dos_energy_up": null, "dos_energy_down": null, "is_magnetic": null, "ordering": null, "total_magnetization": 0.0013793, "total_magnetization_normalized_vol": null, "total_magnetization_normalized_formula_units": null, "num_magnetic_sites": null, "num_unique_magnetic_sites": null, "types_of_magnetic_species": null, "bulk_modulus": null, "shear_modulus": null, "universal_anisotropy": null, "homogeneous_poisson": null, "e_total": null, "e_ionic": null, "e_electronic": null, "n": null, "e_ij_max": null, "weighted_surface_energy_EV_PER_ANG2": null, "weighted_surface_energy": null, "weighted_work_function": null, "surface_anisotropy": null, "shape_factor": null, "has_reconstructed": null, "possible_species": null, "has_props": null, "theoretical": null, "database_IDs": null, "fields_not_requested": ["builder_meta", "nsites", "elements", "nelements", "composition", "composition_reduced", "chemsys", "symmetry", "property_name", "deprecated", "deprecation_reasons", "last_updated", "origins", "warnings", "task_ids", "uncorrected_energy_per_atom", "equilibrium_reaction_energy_per_atom", "decomposes_to", "xas", "grain_boundaries", "cbm", "vbm", "is_gap_direct", "is_metal", "es_source_calc_id", "bandstructure", "dos", "dos_energy_up", "dos_energy_down", "is_magnetic", "ordering", "total_magnetization_normalized_vol", "total_magnetization_normalized_formula_units", "num_magnetic_sites", "num_unique_magnetic_sites", "types_of_magnetic_species", "bulk_modulus", "shear_modulus", "universal_anisotropy", "homogeneous_poisson", "e_total", "e_ionic", "e_electronic", "n", "e_ij_max", "weighted_surface_energy_EV_PER_ANG2", "weighted_surface_energy", "weighted_work_function", "surface_anisotropy", "shape_factor", "has_reconstructed", "possible_species", "has_props", "theoretical", "database_IDs"]}