{"builder_meta": null, "nsites": null, "elements": null, "nelements": null, "composition": null, "composition_reduced": null, "formula_pretty": "La3Se4", "formula_anonymous": "A3B4", "chemsys": null, "volume": 376.22390143075705, "density": 6.466567023877023, "density_atomic": 26.873135816482648, "symmetry": null, "property_name": null, "material_id": "mp-491", "deprecated": null, "deprecation_reasons": null, "last_updated": null, "origins": null, "warnings": null, "structure": {"@module": "pymatgen.core.structure", "@class": "Structure", "charge": 0, "lattice": {"matrix": [[7.42642608, 1e-08, -2.62563756], [-3.71321252, 6.43147357, -2.62563756], [0.0, 0.0, 7.87691267]], "pbc": [true, true, true], "a": 7.876914174864857, "b": 7.876913868817916, "c": 7.87691267, "alpha": 109.47121757719898, "beta": 109.47121679013597, "gamma": 109.47122142049348, "volume": 376.22390143075705}, "properties": {}, "sites": [{"species": [{"element": "La", "occu": 1}], "abc": [0.75, 0.875, 0.125], "properties": {"magmom": 0.0}, "label": "La", "xyz": [2.320758605, 5.627539381249999, -3.2820469512500003]}, {"species": [{"element": "La", "occu": 1}], "abc": [0.625, 0.375, 0.25], "properties": {"magmom": 0.0}, "label": "La", "xyz": [3.249061605, 2.4118025949999997, -0.6564093924999999]}, {"species": [{"element": "La", "occu": 1}], "abc": [0.875, 0.125, 0.75], "properties": {"magmom": 0.0}, "label": "La", "xyz": [6.033971255, 0.8039342049999999, 3.2820469425000005]}, {"species": [{"element": "La", "occu": 1}], "abc": [0.125, 0.75, 0.875], "properties": {"magmom": 0.0}, "label": "La", "xyz": [-1.8566061300000003, 4.823605178749999, 4.59486572125]}, {"species": [{"element": "La", "occu": 1}], "abc": [0.375, 0.25, 0.625], "properties": {"magmom": 0.0}, "label": "La", "xyz": [1.85660665, 1.60786839625, 3.28204694375]}, {"species": [{"element": "La", "occu": 1}], "abc": [0.25, 0.625, 0.375], "properties": {"magmom": 0.0}, "label": "La", "xyz": [-0.4641513049999999, 4.01967098375, 0.6564093862500004]}, {"species": [{"element": "Se", "occu": 1}], "abc": [0.64924492, 0.64924492, 0.64924492], "properties": {"magmom": -0.0}, "label": "Se", "xyz": [2.4107850407051146, 4.175601549929214, 1.7046818410987465]}, {"species": [{"element": "Se", "occu": 1}], "abc": [0.35075508, 0.5, 0.0], "properties": {"magmom": -0.0}, "label": "Se", "xyz": [0.7482504138044863, 3.2157367885075505, -2.2337744924088048]}, {"species": [{"element": "Se", "occu": 1}], "abc": [0.5, -0.0, 0.35075508], "properties": {"magmom": -0.0}, "label": "Se", "xyz": [3.71321304, 5e-09, 1.4500483537188635]}, {"species": [{"element": "Se", "occu": 1}], "abc": [0.0, 0.35075508, 0.5], "properties": {"magmom": -0.0}, "label": "Se", "xyz": [-1.3024281545096015, 2.2558720265632353, 3.0175006225911956]}, {"species": [{"element": "Se", "occu": 1}], "abc": [0.5, -0.0, 0.85075508], "properties": {"magmom": -0.0}, "label": "Se", "xyz": [3.71321304, 5e-09, 5.388504688718864]}, {"species": [{"element": "Se", "occu": 1}], "abc": [0.0, 0.85075508, 0.5], "properties": {"magmom": -0.0}, "label": "Se", "xyz": [-3.1590344145096014, 5.471608811563235, 1.7046818425911954]}, {"species": [{"element": "Se", "occu": 1}], "abc": [0.14924492, 0.14924492, 0.14924492], "properties": {"magmom": -0.0}, "label": "Se", "xyz": [0.5541782607051152, 0.9598647599292135, 0.391863066098746]}, {"species": [{"element": "Se", "occu": 1}], "abc": [0.85075508, 0.5, 0.0], "properties": {"magmom": -0.0}, "label": "Se", "xyz": [4.461463453804486, 3.2157367935075505, -3.5465932724088045]}]}, "task_ids": null, "uncorrected_energy_per_atom": null, "energy_per_atom": -23.235648693571427, "formation_energy_per_atom": -2.309851330892854, "energy_above_hull": 0.010068908392856001, "is_stable": false, "equilibrium_reaction_energy_per_atom": null, "decomposes_to": null, "xas": null, "grain_boundaries": null, "band_gap": 0.0, "cbm": null, "vbm": null, "efermi": 7.87700821, "is_gap_direct": null, "is_metal": null, "es_source_calc_id": null, "bandstructure": null, "dos": null, "dos_energy_up": null, "dos_energy_down": null, "is_magnetic": null, "ordering": null, "total_magnetization": 0.0007584, "total_magnetization_normalized_vol": null, "total_magnetization_normalized_formula_units": null, "num_magnetic_sites": null, "num_unique_magnetic_sites": null, "types_of_magnetic_species": null, "bulk_modulus": null, "shear_modulus": null, "universal_anisotropy": null, "homogeneous_poisson": null, "e_total": null, "e_ionic": null, "e_electronic": null, "n": null, "e_ij_max": null, "weighted_surface_energy_EV_PER_ANG2": null, "weighted_surface_energy": null, "weighted_work_function": null, "surface_anisotropy": null, "shape_factor": null, "has_reconstructed": null, "possible_species": null, "has_props": null, "theoretical": null, "database_IDs": null, "fields_not_requested": ["builder_meta", "nsites", "elements", "nelements", "composition", "composition_reduced", "chemsys", "symmetry", "property_name", "deprecated", "deprecation_reasons", "last_updated", "origins", "warnings", "task_ids", "uncorrected_energy_per_atom", "equilibrium_reaction_energy_per_atom", "decomposes_to", "xas", "grain_boundaries", "cbm", "vbm", "is_gap_direct", "is_metal", "es_source_calc_id", "bandstructure", "dos", "dos_energy_up", "dos_energy_down", "is_magnetic", "ordering", "total_magnetization_normalized_vol", "total_magnetization_normalized_formula_units", "num_magnetic_sites", "num_unique_magnetic_sites", "types_of_magnetic_species", "bulk_modulus", "shear_modulus", "universal_anisotropy", "homogeneous_poisson", "e_total", "e_ionic", "e_electronic", "n", "e_ij_max", "weighted_surface_energy_EV_PER_ANG2", "weighted_surface_energy", "weighted_work_function", "surface_anisotropy", "shape_factor", "has_reconstructed", "possible_species", "has_props", "theoretical", "database_IDs"]}