{"builder_meta": null, "nsites": null, "elements": null, "nelements": null, "composition": null, "composition_reduced": null, "formula_pretty": "La3Sn4", "formula_anonymous": "A3B4", "chemsys": null, "volume": 438.2832471159559, "density": 6.755741902637509, "density_atomic": 31.305946222568277, "symmetry": null, "property_name": null, "material_id": "mp-976378", "deprecated": null, "deprecation_reasons": null, "last_updated": null, "origins": null, "warnings": null, "structure": {"@module": "pymatgen.core.structure", "@class": "Structure", "charge": 0, "lattice": {"matrix": [[4.59055497, 0.0, -0.0], [2.295278, 5.98128016, -0.0], [0.0, -0.0, 15.96230237]], "pbc": [true, true, true], "a": 4.59055497, "b": 6.4065601885640335, "c": 15.96230237, "alpha": 90.0, "beta": 90.0, "gamma": 69.00601430044746, "volume": 438.2832471159559}, "properties": {}, "sites": [{"species": [{"element": "La", "occu": 1}], "abc": [0.6722160500000001, 0.655569899999999, 0.09745868], "properties": {"magmom": -0.0}, "label": "La", "xyz": [4.590559898173467, 3.9211472363631783, 1.5556649187410716]}, {"species": [{"element": "La", "occu": 1}], "abc": [0.95587082, 0.08826135, 0.25], "properties": {"magmom": 0.0}, "label": "La", "xyz": [4.590561878334276, 0.527915861649816, 3.9905755925]}, {"species": [{"element": "La", "occu": 1}], "abc": [0.6722160500000001, 0.655569899999999, 0.40254032], "properties": {"magmom": -0.0}, "label": "La", "xyz": [4.590559898173467, 3.9211472363631783, 6.425470303956558]}, {"species": [{"element": "La", "occu": 1}], "abc": [0.32778495, 0.344430099999999, 0.59745968], "properties": {"magmom": -0.0}, "label": "La", "xyz": [2.2952776623814994, 2.06013292363681, 9.536832066043441]}, {"species": [{"element": "La", "occu": 1}], "abc": [0.04413018, 0.91173865, 0.75], "properties": {"magmom": 0.0}, "label": "La", "xyz": [2.2952756822206943, 5.453364298350183, 11.971726777499999]}, {"species": [{"element": "La", "occu": 1}], "abc": [0.32778495, 0.344430099999999, 0.90254132], "properties": {"magmom": -0.0}, "label": "La", "xyz": [2.2952776623814994, 2.06013292363681, 14.406637451258927]}, {"species": [{"element": "Sn", "occu": 1}], "abc": [-0.0, 0.0, -0.0], "properties": {"magmom": 0.0}, "label": "Sn", "xyz": [0.0, 0.0, 0.0]}, {"species": [{"element": "Sn", "occu": 1}], "abc": [0.38381566, 0.23237067, 0.10770521], "properties": {"magmom": 0.0}, "label": "Sn", "xyz": [2.2952821722730903, 1.3898740782369072, 1.7192231288443476]}, {"species": [{"element": "Sn", "occu": 1}], "abc": [0.22719563, 0.54560874, 0.25], "properties": {"magmom": 0.0}, "label": "Sn", "xyz": [2.2952777659885015, 3.2634387316845985, 3.9905755925]}, {"species": [{"element": "Sn", "occu": 1}], "abc": [0.38381566, 0.23237067, 0.39229479], "properties": {"magmom": 0.0}, "label": "Sn", "xyz": [2.2952821722730903, 1.3898740782369072, 6.261928056155652]}, {"species": [{"element": "Sn", "occu": 1}], "abc": [-0.0, 0.0, 0.5], "properties": {"magmom": 0.0}, "label": "Sn", "xyz": [0.0, 0.0, 7.981151185]}, {"species": [{"element": "Sn", "occu": 1}], "abc": [0.61618434, 0.76762933, 0.60770521], "properties": {"magmom": 0.0}, "label": "Sn", "xyz": [4.59055079772691, 4.591406081763092, 9.700374313844348]}, {"species": [{"element": "Sn", "occu": 1}], "abc": [0.77280537, 0.45439126, 0.75], "properties": {"magmom": 0.0}, "label": "Sn", "xyz": [4.590559794566469, 2.7178414283154018, 11.971726777499999]}, {"species": [{"element": "Sn", "occu": 1}], "abc": [0.61618434, 0.76762933, 0.89229479], "properties": {"magmom": 0.0}, "label": "Sn", "xyz": [4.59055079772691, 4.591406081763092, 14.243079241155652]}]}, "task_ids": null, "uncorrected_energy_per_atom": null, "energy_per_atom": -27.756869136428573, "formation_energy_per_atom": -0.8684297457142881, "energy_above_hull": 0.0, "is_stable": true, "equilibrium_reaction_energy_per_atom": null, "decomposes_to": null, "xas": null, "grain_boundaries": null, "band_gap": 0.0, "cbm": null, "vbm": null, "efermi": 7.70532108, "is_gap_direct": null, "is_metal": null, "es_source_calc_id": null, "bandstructure": null, "dos": null, "dos_energy_up": null, "dos_energy_down": null, "is_magnetic": null, "ordering": null, "total_magnetization": 5.3200000000000006e-05, "total_magnetization_normalized_vol": null, "total_magnetization_normalized_formula_units": null, "num_magnetic_sites": null, "num_unique_magnetic_sites": null, "types_of_magnetic_species": null, "bulk_modulus": null, "shear_modulus": null, "universal_anisotropy": null, "homogeneous_poisson": null, "e_total": null, "e_ionic": null, "e_electronic": null, "n": null, "e_ij_max": null, "weighted_surface_energy_EV_PER_ANG2": null, "weighted_surface_energy": null, "weighted_work_function": null, "surface_anisotropy": null, "shape_factor": null, "has_reconstructed": null, "possible_species": null, "has_props": null, "theoretical": null, "database_IDs": null, "fields_not_requested": ["builder_meta", "nsites", "elements", "nelements", "composition", "composition_reduced", "chemsys", "symmetry", "property_name", "deprecated", "deprecation_reasons", "last_updated", "origins", "warnings", "task_ids", "uncorrected_energy_per_atom", "equilibrium_reaction_energy_per_atom", "decomposes_to", "xas", "grain_boundaries", "cbm", "vbm", "is_gap_direct", "is_metal", "es_source_calc_id", "bandstructure", "dos", "dos_energy_up", "dos_energy_down", "is_magnetic", "ordering", "total_magnetization_normalized_vol", "total_magnetization_normalized_formula_units", "num_magnetic_sites", "num_unique_magnetic_sites", "types_of_magnetic_species", "bulk_modulus", "shear_modulus", "universal_anisotropy", "homogeneous_poisson", "e_total", "e_ionic", "e_electronic", "n", "e_ij_max", "weighted_surface_energy_EV_PER_ANG2", "weighted_surface_energy", "weighted_work_function", "surface_anisotropy", "shape_factor", "has_reconstructed", "possible_species", "has_props", "theoretical", "database_IDs"]}