{"builder_meta": null, "nsites": null, "elements": null, "nelements": null, "composition": null, "composition_reduced": null, "formula_pretty": "La3S4", "formula_anonymous": "A3B4", "chemsys": null, "volume": 334.83402327668415, "density": 5.405392261661686, "density_atomic": 23.91671594833458, "symmetry": null, "property_name": null, "material_id": "mp-567", "deprecated": null, "deprecation_reasons": null, "last_updated": null, "origins": null, "warnings": null, "structure": {"@module": "pymatgen.core.structure", "@class": "Structure", "charge": 0, "lattice": {"matrix": [[7.14344333, 1e-08, -2.52558858], [-3.57172114, 6.18640256, -2.52558858], [-1e-08, -1e-08, 7.57676471]], "pbc": [true, true, true], "a": 7.576765819553083, "b": 7.576764890883434, "c": 7.57676471, "alpha": 109.47122293235412, "beta": 109.47122049741924, "gamma": 109.47121929450002, "volume": 334.83402327668415}, "properties": {}, "sites": [{"species": [{"element": "La", "occu": 1}], "abc": [0.75, 0.875, 0.125], "properties": {"magmom": 0.0}, "label": "La", "xyz": [2.23232649875, 5.41310224625, -3.15698585375]}, {"species": [{"element": "La", "occu": 1}], "abc": [0.625, 0.375, 0.25], "properties": {"magmom": 0.0}, "label": "La", "xyz": [3.1252566512499995, 2.31990096375, -0.6313974025]}, {"species": [{"element": "La", "occu": 1}], "abc": [0.875, 0.125, 0.75], "properties": {"magmom": 0.0}, "label": "La", "xyz": [5.804047763750001, 0.77330032125, 3.1569849525]}, {"species": [{"element": "La", "occu": 1}], "abc": [0.125, 0.75, 0.875], "properties": {"magmom": 0.0}, "label": "La", "xyz": [-1.7858604475, 4.6398019125, 4.41977911375]}, {"species": [{"element": "La", "occu": 1}], "abc": [0.375, 0.25, 0.625], "properties": {"magmom": 0.0}, "label": "La", "xyz": [1.7858609575, 1.5466006375, 3.15698508125]}, {"species": [{"element": "La", "occu": 1}], "abc": [0.25, 0.625, 0.375], "properties": {"magmom": 0.0}, "label": "La", "xyz": [-0.44646488375000015, 3.8665015987500007, 0.6313967587499998]}, {"species": [{"element": "S", "occu": 1}], "abc": [0.64924216, 0.64924216, 0.64924216], "properties": {"magmom": -0.0}, "label": "S", "xyz": [2.3189126230631083, 4.01647336068393, 1.6397179162311075]}, {"species": [{"element": "S", "occu": 1}], "abc": [0.35075784, 0.5, 0.0], "properties": {"magmom": -0.0}, "label": "S", "xyz": [0.7197581825932069, 3.0932012835075784, -2.1486642850494673]}, {"species": [{"element": "S", "occu": 1}], "abc": [0.5, -0.0, 0.35075784], "properties": {"magmom": -0.0}, "label": "S", "xyz": [3.571721661492422, 1.4924216000000002e-09, 1.3948153338678262]}, {"species": [{"element": "S", "occu": 1}], "abc": [-0.0, 0.35075784, 0.5], "properties": {"magmom": -0.0}, "label": "S", "xyz": [-1.2528091971487376, 2.1699291943160706, 2.9025123599505327]}, {"species": [{"element": "S", "occu": 1}], "abc": [0.5, -0.0, 0.85075784], "properties": {"magmom": -0.0}, "label": "S", "xyz": [3.571721656492422, -3.5075784000000003e-09, 5.183197688867827]}, {"species": [{"element": "S", "occu": 1}], "abc": [-0.0, 0.85075784, 0.5], "properties": {"magmom": -0.0}, "label": "S", "xyz": [-3.0386697671487375, 5.26313047431607, 1.6397180699505327]}, {"species": [{"element": "S", "occu": 1}], "abc": [0.14924216, 0.14924216, 0.14924216], "properties": {"magmom": -0.0}, "label": "S", "xyz": [0.5330515330631088, 0.9232720806839297, 0.37692414123110796]}, {"species": [{"element": "S", "occu": 1}], "abc": [0.85075784, 0.5, 0.0], "properties": {"magmom": -0.0}, "label": "S", "xyz": [4.291479847593207, 3.0932012885075784, -3.4114585750494673]}]}, "task_ids": null, "uncorrected_energy_per_atom": null, "energy_per_atom": -19.798332277857146, "formation_energy_per_atom": -2.459141285892857, "energy_above_hull": 0.026359346785710003, "is_stable": false, "equilibrium_reaction_energy_per_atom": null, "decomposes_to": null, "xas": null, "grain_boundaries": null, "band_gap": 0.0, "cbm": null, "vbm": null, "efermi": 8.93785968, "is_gap_direct": null, "is_metal": null, "es_source_calc_id": null, "bandstructure": null, "dos": null, "dos_energy_up": null, "dos_energy_down": null, "is_magnetic": null, "ordering": null, "total_magnetization": 0.0005463, "total_magnetization_normalized_vol": null, "total_magnetization_normalized_formula_units": null, "num_magnetic_sites": null, "num_unique_magnetic_sites": null, "types_of_magnetic_species": null, "bulk_modulus": null, "shear_modulus": null, "universal_anisotropy": null, "homogeneous_poisson": null, "e_total": null, "e_ionic": null, "e_electronic": null, "n": null, "e_ij_max": null, "weighted_surface_energy_EV_PER_ANG2": null, "weighted_surface_energy": null, "weighted_work_function": null, "surface_anisotropy": null, "shape_factor": null, "has_reconstructed": null, "possible_species": null, "has_props": null, "theoretical": null, "database_IDs": null, "fields_not_requested": ["builder_meta", "nsites", "elements", "nelements", "composition", "composition_reduced", "chemsys", "symmetry", "property_name", "deprecated", "deprecation_reasons", "last_updated", "origins", "warnings", "task_ids", "uncorrected_energy_per_atom", "equilibrium_reaction_energy_per_atom", "decomposes_to", "xas", "grain_boundaries", "cbm", "vbm", "is_gap_direct", "is_metal", "es_source_calc_id", "bandstructure", "dos", "dos_energy_up", "dos_energy_down", "is_magnetic", "ordering", "total_magnetization_normalized_vol", "total_magnetization_normalized_formula_units", "num_magnetic_sites", "num_unique_magnetic_sites", "types_of_magnetic_species", "bulk_modulus", "shear_modulus", "universal_anisotropy", "homogeneous_poisson", "e_total", "e_ionic", "e_electronic", "n", "e_ij_max", "weighted_surface_energy_EV_PER_ANG2", "weighted_surface_energy", "weighted_work_function", "surface_anisotropy", "shape_factor", "has_reconstructed", "possible_species", "has_props", "theoretical", "database_IDs"]}