{"builder_meta": null, "nsites": null, "elements": null, "nelements": null, "composition": null, "composition_reduced": null, "formula_pretty": "La3Si2", "formula_anonymous": "A2B3", "chemsys": null, "volume": 282.2500211884674, "density": 5.564201661362896, "density_atomic": 28.22500211884674, "symmetry": null, "property_name": null, "material_id": "mp-10162", "deprecated": null, "deprecation_reasons": null, "last_updated": null, "origins": null, "warnings": null, "structure": {"@module": "pymatgen.core.structure", "@class": "Structure", "charge": 0, "lattice": {"matrix": [[4.45903412, -0.0, -0.0], [0.0, 7.95603333, -1.6760000000000002e-05], [-0.0, -1.6760000000000002e-05, 7.95603333]], "pbc": [true, true, true], "a": 4.45903412, "b": 7.956033330017654, "c": 7.956033330017654, "alpha": 90.00024139598838, "beta": 90.0, "gamma": 90.0, "volume": 282.2500211884674}, "properties": {}, "sites": [{"species": [{"element": "La", "occu": 1}], "abc": [0.5, 0.67594789, 0.82405211], "properties": {"magmom": 0.11800000000000001}, "label": "La", "xyz": [2.22951706, 5.377850131069811, 6.55617472393019]}, {"species": [{"element": "La", "occu": 1}], "abc": [0.5, 0.82405211, 0.32405211], "properties": {"magmom": 0.11800000000000001}, "label": "La", "xyz": [2.22951706, 6.556180621703463, 2.578155576703463]}, {"species": [{"element": "La", "occu": 1}], "abc": [0.5, 0.32405211, 0.17594789], "properties": {"magmom": 0.11800000000000001}, "label": "La", "xyz": [2.22951706, 2.5781664389301904, 1.39984184606981]}, {"species": [{"element": "La", "occu": 1}], "abc": [0.5, 0.17594789, 0.67594789], "properties": {"magmom": 0.11800000000000001}, "label": "La", "xyz": [2.22951706, 1.3998359482965375, 5.3778609932965376]}, {"species": [{"element": "La", "occu": 1}], "abc": [-0.0, 0.5, 0.5], "properties": {"magmom": 0.152}, "label": "La", "xyz": [0.0, 3.978008285, 3.978008285]}, {"species": [{"element": "La", "occu": 1}], "abc": [-0.0, 0.0, -0.0], "properties": {"magmom": 0.152}, "label": "La", "xyz": [0.0, 0.0, 0.0]}, {"species": [{"element": "Si", "occu": 1}], "abc": [0.0, 0.60904693, 0.10904693], "properties": {"magmom": -0.004}, "label": "Si", "xyz": [0.0, 4.84559584698763, 0.8675708019876301]}, {"species": [{"element": "Si", "occu": 1}], "abc": [-0.0, 0.89095407, 0.60904593], "properties": {"magmom": -0.004}, "label": "Si", "xyz": [0.0, 7.088450068809367, 4.8455747861906335]}, {"species": [{"element": "Si", "occu": 1}], "abc": [0.0, 0.10904593, 0.39095407], "properties": {"magmom": -0.004}, "label": "Si", "xyz": [0.0, 0.8675665011906337, 3.1104417838093665]}, {"species": [{"element": "Si", "occu": 1}], "abc": [-0.0, 0.39095307, 0.89095307], "properties": {"magmom": -0.004}, "label": "Si", "xyz": [0.0, 3.11042072301237, 7.08844576801237]}]}, "task_ids": null, "uncorrected_energy_per_atom": null, "energy_per_atom": -22.06579562, "formation_energy_per_atom": -0.7094216589999971, "energy_above_hull": 0.0030030869000010002, "is_stable": false, "equilibrium_reaction_energy_per_atom": null, "decomposes_to": null, "xas": null, "grain_boundaries": null, "band_gap": 0.0, "cbm": null, "vbm": null, "efermi": 8.01027986, "is_gap_direct": null, "is_metal": null, "es_source_calc_id": null, "bandstructure": null, "dos": null, "dos_energy_up": null, "dos_energy_down": null, "is_magnetic": null, "ordering": null, "total_magnetization": 1.8629378, "total_magnetization_normalized_vol": null, "total_magnetization_normalized_formula_units": null, "num_magnetic_sites": null, "num_unique_magnetic_sites": null, "types_of_magnetic_species": null, "bulk_modulus": null, "shear_modulus": null, "universal_anisotropy": null, "homogeneous_poisson": null, "e_total": null, "e_ionic": null, "e_electronic": null, "n": null, "e_ij_max": null, "weighted_surface_energy_EV_PER_ANG2": null, "weighted_surface_energy": null, "weighted_work_function": null, "surface_anisotropy": null, "shape_factor": null, "has_reconstructed": null, "possible_species": null, "has_props": null, "theoretical": null, "database_IDs": null, "fields_not_requested": ["builder_meta", "nsites", "elements", "nelements", "composition", "composition_reduced", "chemsys", "symmetry", "property_name", "deprecated", "deprecation_reasons", "last_updated", "origins", "warnings", "task_ids", "uncorrected_energy_per_atom", "equilibrium_reaction_energy_per_atom", "decomposes_to", "xas", "grain_boundaries", "cbm", "vbm", "is_gap_direct", "is_metal", "es_source_calc_id", "bandstructure", "dos", "dos_energy_up", "dos_energy_down", "is_magnetic", "ordering", "total_magnetization_normalized_vol", "total_magnetization_normalized_formula_units", "num_magnetic_sites", "num_unique_magnetic_sites", "types_of_magnetic_species", "bulk_modulus", "shear_modulus", "universal_anisotropy", "homogeneous_poisson", "e_total", "e_ionic", "e_electronic", "n", "e_ij_max", "weighted_surface_energy_EV_PER_ANG2", "weighted_surface_energy", "weighted_work_function", "surface_anisotropy", "shape_factor", "has_reconstructed", "possible_species", "has_props", "theoretical", "database_IDs"]}