{"builder_meta": null, "nsites": null, "elements": null, "nelements": null, "composition": null, "composition_reduced": null, "formula_pretty": "La3Sn7", "formula_anonymous": "A3B7", "chemsys": null, "volume": 288.617418908247, "density": 7.178471883325764, "density_atomic": 28.861741890824696, "symmetry": null, "property_name": null, "material_id": "mp-1079273", "deprecated": null, "deprecation_reasons": null, "last_updated": null, "origins": null, "warnings": null, "structure": {"@module": "pymatgen.core.structure", "@class": "Structure", "charge": 0, "lattice": {"matrix": [[-4.57637334, 0.0, 0.0], [0.0, 0.0, -4.68684508], [2.28818667, -13.45613988, 0.0]], "pbc": [true, true, true], "a": 4.57637334, "b": 4.68684508, "c": 13.64930396419144, "alpha": 90.0, "beta": 99.65070581132565, "gamma": 90.0, "volume": 288.617418908247}, "properties": {}, "sites": [{"species": [{"element": "La", "occu": 1}], "abc": [0.18307019, -0.0, 0.36614338], "properties": {"magmom": -0.0}, "label": "La", "xyz": [6.864560010089171e-06, -4.926876537415994, 0.0]}, {"species": [{"element": "La", "occu": 1}], "abc": [0.81692981, -0.0, 0.63385662], "properties": {"magmom": -0.0}, "label": "La", "xyz": [-2.28819353456001, -8.529263342584006, 0.0]}, {"species": [{"element": "La", "occu": 1}], "abc": [-0.0, 0.0, 0.0], "properties": {"magmom": 0.0}, "label": "La", "xyz": [0.0, 0.0, 0.0]}, {"species": [{"element": "Sn", "occu": 1}], "abc": [0.28586774, 0.5, 0.57173647], "properties": {"magmom": -0.0}, "label": "Sn", "xyz": [2.265304803517054e-06, -7.6933659148174245, -2.34342254]}, {"species": [{"element": "Sn", "occu": 1}], "abc": [0.71413226, 0.5, 0.42826453000000003], "properties": {"magmom": -0.0}, "label": "Sn", "xyz": [-2.288186647118133, -5.762787421322457, -2.34342254]}, {"species": [{"element": "Sn", "occu": 1}], "abc": [0.40668877000000003, -0.0, 0.81337753], "properties": {"magmom": 0.0}, "label": "Sn", "xyz": [-2.2881866845736454e-08, -10.944921818928897, 0.0]}, {"species": [{"element": "Sn", "occu": 1}], "abc": [0.59331123, -0.0, 0.18662247], "properties": {"magmom": 0.0}, "label": "Sn", "xyz": [-2.288186647118133, -2.5112180610711037, 0.0]}, {"species": [{"element": "Sn", "occu": 1}], "abc": [0.09449074, 0.5, 0.18898047], "properties": {"magmom": 0.0}, "label": "Sn", "xyz": [-2.3110685366534156e-06, -2.542947638908144, -2.34342254]}, {"species": [{"element": "Sn", "occu": 1}], "abc": [0.90550926, 0.5, 0.81101953], "properties": {"magmom": 0.0}, "label": "Sn", "xyz": [-2.288184358931463, -10.913192241091858, -2.34342254]}, {"species": [{"element": "Sn", "occu": 1}], "abc": [0.5, 0.5, 0.0], "properties": {"magmom": 0.0}, "label": "Sn", "xyz": [-2.28818667, 0.0, -2.34342254]}]}, "task_ids": null, "uncorrected_energy_per_atom": null, "energy_per_atom": -26.916710063, "formation_energy_per_atom": -0.6709473554999981, "energy_above_hull": 0.0, "is_stable": true, "equilibrium_reaction_energy_per_atom": null, "decomposes_to": null, "xas": null, "grain_boundaries": null, "band_gap": 0.0, "cbm": null, "vbm": null, "efermi": 8.35238043, "is_gap_direct": null, "is_metal": null, "es_source_calc_id": null, "bandstructure": null, "dos": null, "dos_energy_up": null, "dos_energy_down": null, "is_magnetic": null, "ordering": null, "total_magnetization": 3e-07, "total_magnetization_normalized_vol": null, "total_magnetization_normalized_formula_units": null, "num_magnetic_sites": null, "num_unique_magnetic_sites": null, "types_of_magnetic_species": null, "bulk_modulus": null, "shear_modulus": null, "universal_anisotropy": null, "homogeneous_poisson": null, "e_total": null, "e_ionic": null, "e_electronic": null, "n": null, "e_ij_max": null, "weighted_surface_energy_EV_PER_ANG2": null, "weighted_surface_energy": null, "weighted_work_function": null, "surface_anisotropy": null, "shape_factor": null, "has_reconstructed": null, "possible_species": null, "has_props": null, "theoretical": null, "database_IDs": null, "fields_not_requested": ["builder_meta", "nsites", "elements", "nelements", "composition", "composition_reduced", "chemsys", "symmetry", "property_name", "deprecated", "deprecation_reasons", "last_updated", "origins", "warnings", "task_ids", "uncorrected_energy_per_atom", "equilibrium_reaction_energy_per_atom", "decomposes_to", "xas", "grain_boundaries", "cbm", "vbm", "is_gap_direct", "is_metal", "es_source_calc_id", "bandstructure", "dos", "dos_energy_up", "dos_energy_down", "is_magnetic", "ordering", "total_magnetization_normalized_vol", "total_magnetization_normalized_formula_units", "num_magnetic_sites", "num_unique_magnetic_sites", "types_of_magnetic_species", "bulk_modulus", "shear_modulus", "universal_anisotropy", "homogeneous_poisson", "e_total", "e_ionic", "e_electronic", "n", "e_ij_max", "weighted_surface_energy_EV_PER_ANG2", "weighted_surface_energy", "weighted_work_function", "surface_anisotropy", "shape_factor", "has_reconstructed", "possible_species", "has_props", "theoretical", "database_IDs"]}