{"builder_meta": null, "nsites": null, "elements": null, "nelements": null, "composition": null, "composition_reduced": null, "formula_pretty": "La3Sn5", "formula_anonymous": "A3B5", "chemsys": null, "volume": 469.86665662500457, "density": 7.140693291703806, "density_atomic": 29.366666039062785, "symmetry": null, "property_name": null, "material_id": "mp-1188370", "deprecated": null, "deprecation_reasons": null, "last_updated": null, "origins": null, "warnings": null, "structure": {"@module": "pymatgen.core.structure", "@class": "Structure", "charge": 0, "lattice": {"matrix": [[4.20033707, -5.2342875, -0.0], [4.20033707, 5.2342875, -0.0], [-0.0, 0.0, 10.68569847]], "pbc": [true, true, true], "a": 6.711229182070333, "b": 6.711229182070333, "c": 10.68569847, "alpha": 90.0, "beta": 90.0, "gamma": 102.50829316360266, "volume": 469.86665662500457}, "properties": {}, "sites": [{"species": [{"element": "La", "occu": 1}], "abc": [0.6394584, 0.6394584, 0.25], "properties": {"magmom": 0.0}, "label": "La", "xyz": [5.371881644485776, 0.0, 2.6714246175]}, {"species": [{"element": "La", "occu": 1}], "abc": [0.360541599999999, 0.360541599999999, 0.75], "properties": {"magmom": 0.0}, "label": "La", "xyz": [3.0287924955142156, 0.0, 8.0142738525]}, {"species": [{"element": "La", "occu": 1}], "abc": [0.20195081, 0.79804919, 0.5], "properties": {"magmom": 0.0}, "label": "La", "xyz": [4.20033707, 3.120150299204249, 5.342849235]}, {"species": [{"element": "La", "occu": 1}], "abc": [0.20195081, 0.79804919, -0.0], "properties": {"magmom": 0.0}, "label": "La", "xyz": [4.20033707, 3.120150299204249, 0.0]}, {"species": [{"element": "La", "occu": 1}], "abc": [0.79804919, 0.20195081, 0.5], "properties": {"magmom": 0.0}, "label": "La", "xyz": [4.20033707, -3.120150299204249, 5.342849235]}, {"species": [{"element": "La", "occu": 1}], "abc": [0.79804919, 0.20195081, -0.0], "properties": {"magmom": 0.0}, "label": "La", "xyz": [4.20033707, -3.120150299204249, 0.0]}, {"species": [{"element": "Sn", "occu": 1}], "abc": [0.03089203, 0.03089203, 0.25], "properties": {"magmom": -0.0}, "label": "Sn", "xyz": [0.2595138775531042, 0.0, 2.6714246175]}, {"species": [{"element": "Sn", "occu": 1}], "abc": [0.96910797, 0.96910797, 0.75], "properties": {"magmom": -0.0}, "label": "Sn", "xyz": [8.141160262446896, 0.0, 8.0142738525]}, {"species": [{"element": "Sn", "occu": 1}], "abc": [0.32061946, 0.32061946, 0.04991842], "properties": {"magmom": -0.0}, "label": "Sn", "xyz": [2.6934196064027645, 0.0, 0.5334131842188173]}, {"species": [{"element": "Sn", "occu": 1}], "abc": [0.67938054, 0.67938054, 0.95008158], "properties": {"magmom": -0.0}, "label": "Sn", "xyz": [5.707254533597236, 0.0, 10.152285285781183]}, {"species": [{"element": "Sn", "occu": 1}], "abc": [0.32061946, 0.32061946, 0.45008158000000004], "properties": {"magmom": -0.0}, "label": "Sn", "xyz": [2.6934196064027645, 0.0, 4.809436050781183]}, {"species": [{"element": "Sn", "occu": 1}], "abc": [0.67938054, 0.67938054, 0.54991842], "properties": {"magmom": -0.0}, "label": "Sn", "xyz": [5.707254533597236, 0.0, 5.8762624192188175]}, {"species": [{"element": "Sn", "occu": 1}], "abc": [0.49106426000000003, 0.07544223, 0.25], "properties": {"magmom": -0.0}, "label": "Sn", "xyz": [2.3795182103425843, -2.175485196353625, 2.6714246175]}, {"species": [{"element": "Sn", "occu": 1}], "abc": [0.9245577700000001, 0.50893574, 0.75], "properties": {"magmom": -0.0}, "label": "Sn", "xyz": [6.021155929657416, -2.175485196353625, 8.0142738525]}, {"species": [{"element": "Sn", "occu": 1}], "abc": [0.50893574, 0.9245577700000001, 0.75], "properties": {"magmom": -0.0}, "label": "Sn", "xyz": [6.021155929657416, 2.175485196353625, 8.0142738525]}, {"species": [{"element": "Sn", "occu": 1}], "abc": [0.07544223, 0.49106426000000003, 0.25], "properties": {"magmom": -0.0}, "label": "Sn", "xyz": [2.3795182103425843, 2.175485196353625, 2.6714246175]}]}, "task_ids": null, "uncorrected_energy_per_atom": null, "energy_per_atom": -27.417832766875, "formation_energy_per_atom": -0.7971753274999991, "energy_above_hull": 0.0033287818750010003, "is_stable": false, "equilibrium_reaction_energy_per_atom": null, "decomposes_to": null, "xas": null, "grain_boundaries": null, "band_gap": 0.0, "cbm": null, "vbm": null, "efermi": 8.59224389, "is_gap_direct": null, "is_metal": null, "es_source_calc_id": null, "bandstructure": null, "dos": null, "dos_energy_up": null, "dos_energy_down": null, "is_magnetic": null, "ordering": null, "total_magnetization": 8.79e-05, "total_magnetization_normalized_vol": null, "total_magnetization_normalized_formula_units": null, "num_magnetic_sites": null, "num_unique_magnetic_sites": null, "types_of_magnetic_species": null, "bulk_modulus": null, "shear_modulus": null, "universal_anisotropy": null, "homogeneous_poisson": null, "e_total": null, "e_ionic": null, "e_electronic": null, "n": null, "e_ij_max": null, "weighted_surface_energy_EV_PER_ANG2": null, "weighted_surface_energy": null, "weighted_work_function": null, "surface_anisotropy": null, "shape_factor": null, "has_reconstructed": null, "possible_species": null, "has_props": null, "theoretical": null, "database_IDs": null, "fields_not_requested": ["builder_meta", "nsites", "elements", "nelements", "composition", "composition_reduced", "chemsys", "symmetry", "property_name", "deprecated", "deprecation_reasons", "last_updated", "origins", "warnings", "task_ids", "uncorrected_energy_per_atom", "equilibrium_reaction_energy_per_atom", "decomposes_to", "xas", "grain_boundaries", "cbm", "vbm", "is_gap_direct", "is_metal", "es_source_calc_id", "bandstructure", "dos", "dos_energy_up", "dos_energy_down", "is_magnetic", "ordering", "total_magnetization_normalized_vol", "total_magnetization_normalized_formula_units", "num_magnetic_sites", "num_unique_magnetic_sites", "types_of_magnetic_species", "bulk_modulus", "shear_modulus", "universal_anisotropy", "homogeneous_poisson", "e_total", "e_ionic", "e_electronic", "n", "e_ij_max", "weighted_surface_energy_EV_PER_ANG2", "weighted_surface_energy", "weighted_work_function", "surface_anisotropy", "shape_factor", "has_reconstructed", "possible_species", "has_props", "theoretical", "database_IDs"]}