{
  "builder_meta": null,
  "nsites": null,
  "elements": null,
  "nelements": null,
  "composition": null,
  "composition_reduced": null,
  "formula_pretty": "La3Te4",
  "formula_anonymous": "A3B4",
  "chemsys": null,
  "volume": 457.14039768080295,
  "density": 6.735405691123819,
  "density_atomic": 32.65288554862878,
  "symmetry": null,
  "property_name": null,
  "material_id": "mp-879",
  "deprecated": null,
  "deprecation_reasons": null,
  "last_updated": null,
  "origins": null,
  "warnings": null,
  "structure": {
    "@module": "pymatgen.core.structure",
    "@class": "Structure",
    "charge": 0,
    "lattice": {
      "matrix": [
        [7.92466515, -1e-8, -2.80179226],
        [-3.96233309, 6.86296045, -2.80179226],
        [0.0, -0.0, 8.40537677]
      ],
      "pbc": [true, true, true],
      "a": 8.405376708263612,
      "b": 8.405376227306489,
      "c": 8.40537677,
      "alpha": 109.47122196649262,
      "beta": 109.47122080737675,
      "gamma": 109.4712251902838,
      "volume": 457.14039768080295
    },
    "properties": {},
    "sites": [
      {
        "species": [{ "element": "La", "occu": 1 }],
        "abc": [0.75, 0.875, 0.125],
        "properties": { "magmom": -0.0 },
        "label": "La",
        "xyz": [2.4764574087500004, 6.00509038625, -3.5022403262500004]
      },
      {
        "species": [{ "element": "La", "occu": 1 }],
        "abc": [0.625, 0.375, 0.25],
        "properties": { "magmom": -0.0 },
        "label": "La",
        "xyz": [3.46704081, 2.5736101625, -0.7004480675]
      },
      {
        "species": [{ "element": "La", "occu": 1 }],
        "abc": [0.875, 0.125, 0.75],
        "properties": { "magmom": -0.0 },
        "label": "La",
        "xyz": [6.4387903699999995, 0.8578700475000001, 3.5022403175]
      },
      {
        "species": [{ "element": "La", "occu": 1 }],
        "abc": [0.125, 0.75, 0.875],
        "properties": { "magmom": -0.0 },
        "label": "La",
        "xyz": [-1.9811666737500002, 5.14722033625, 4.90313644625]
      },
      {
        "species": [{ "element": "La", "occu": 1 }],
        "abc": [0.375, 0.25, 0.625],
        "properties": { "magmom": -0.0 },
        "label": "La",
        "xyz": [1.9811661587500002, 1.71574010875, 3.50224031875]
      },
      {
        "species": [{ "element": "La", "occu": 1 }],
        "abc": [0.25, 0.625, 0.375],
        "properties": { "magmom": -0.0 },
        "label": "La",
        "xyz": [-0.49529189374999993, 4.28935027875, 0.7004480612499999]
      },
      {
        "species": [{ "element": "Te", "occu": 1 }],
        "abc": [0.6500193200000001, 0.6500193200000001, 0.6500193200000001],
        "properties": { "magmom": 0.0 },
        "label": "Te",
        "xyz": [2.5755923912554, 4.461056878395701, 1.82121909312627]
      },
      {
        "species": [{ "element": "Te", "occu": 1 }],
        "abc": [0.34998068, 0.5, -0.0],
        "properties": { "magmom": 0.0 },
        "label": "Te",
        "xyz": [0.7923131529693019, 3.4314802215001934, -2.381469290373537]
      },
      {
        "species": [{ "element": "Te", "occu": 1 }],
        "abc": [0.5, 0.0, 0.34998068],
        "properties": { "magmom": 0.0 },
        "label": "Te",
        "xyz": [3.962332575, -5e-9, 1.5408233476208038]
      },
      {
        "species": [{ "element": "Te", "occu": 1 }],
        "abc": [-0.0, 0.34998068, 0.5],
        "properties": { "magmom": 0.0 },
        "label": "Te",
        "xyz": [-1.3867400292247012, 2.401903565104106, 3.2221152246264633]
      },
      {
        "species": [{ "element": "Te", "occu": 1 }],
        "abc": [0.5, 0.0, 0.84998068],
        "properties": { "magmom": 0.0 },
        "label": "Te",
        "xyz": [3.962332575, -5e-9, 5.743511732620805]
      },
      {
        "species": [{ "element": "Te", "occu": 1 }],
        "abc": [-0.0, 0.84998068, 0.5],
        "properties": { "magmom": 0.0 },
        "label": "Te",
        "xyz": [-3.367906574224701, 5.833383790104106, 1.8212190946264633]
      },
      {
        "species": [{ "element": "Te", "occu": 1 }],
        "abc": [0.15001932, 0.15001932, 0.15001932],
        "properties": { "magmom": 0.0 },
        "label": "Te",
        "xyz": [0.5944263612553993, 1.029576658395701, 0.42032296812627]
      },
      {
        "species": [{ "element": "Te", "occu": 1 }],
        "abc": [0.84998068, 0.5, -0.0],
        "properties": { "magmom": 0.0 },
        "label": "Te",
        "xyz": [4.754645727969303, 3.4314802165001934, -3.782365420373537]
      }
    ]
  },
  "task_ids": null,
  "uncorrected_energy_per_atom": null,
  "energy_per_atom": -5.756916062142856,
  "formation_energy_per_atom": -1.845309649523808,
  "energy_above_hull": 0.0,
  "is_stable": true,
  "equilibrium_reaction_energy_per_atom": null,
  "decomposes_to": null,
  "xas": null,
  "grain_boundaries": null,
  "band_gap": 0.0,
  "cbm": null,
  "vbm": null,
  "efermi": 8.46622151,
  "is_gap_direct": null,
  "is_metal": null,
  "es_source_calc_id": null,
  "bandstructure": null,
  "dos": null,
  "dos_energy_up": null,
  "dos_energy_down": null,
  "is_magnetic": null,
  "ordering": null,
  "total_magnetization": 1.1000000000000001e-5,
  "total_magnetization_normalized_vol": null,
  "total_magnetization_normalized_formula_units": null,
  "num_magnetic_sites": null,
  "num_unique_magnetic_sites": null,
  "types_of_magnetic_species": null,
  "bulk_modulus": null,
  "shear_modulus": null,
  "universal_anisotropy": null,
  "homogeneous_poisson": null,
  "e_total": null,
  "e_ionic": null,
  "e_electronic": null,
  "n": null,
  "e_ij_max": null,
  "weighted_surface_energy_EV_PER_ANG2": null,
  "weighted_surface_energy": null,
  "weighted_work_function": null,
  "surface_anisotropy": null,
  "shape_factor": null,
  "has_reconstructed": null,
  "possible_species": null,
  "has_props": null,
  "theoretical": null,
  "database_IDs": null,
  "fields_not_requested": [
    "builder_meta",
    "nsites",
    "elements",
    "nelements",
    "composition",
    "composition_reduced",
    "chemsys",
    "symmetry",
    "property_name",
    "deprecated",
    "deprecation_reasons",
    "last_updated",
    "origins",
    "warnings",
    "task_ids",
    "uncorrected_energy_per_atom",
    "equilibrium_reaction_energy_per_atom",
    "decomposes_to",
    "xas",
    "grain_boundaries",
    "cbm",
    "vbm",
    "is_gap_direct",
    "is_metal",
    "es_source_calc_id",
    "bandstructure",
    "dos",
    "dos_energy_up",
    "dos_energy_down",
    "is_magnetic",
    "ordering",
    "total_magnetization_normalized_vol",
    "total_magnetization_normalized_formula_units",
    "num_magnetic_sites",
    "num_unique_magnetic_sites",
    "types_of_magnetic_species",
    "bulk_modulus",
    "shear_modulus",
    "universal_anisotropy",
    "homogeneous_poisson",
    "e_total",
    "e_ionic",
    "e_electronic",
    "n",
    "e_ij_max",
    "weighted_surface_energy_EV_PER_ANG2",
    "weighted_surface_energy",
    "weighted_work_function",
    "surface_anisotropy",
    "shape_factor",
    "has_reconstructed",
    "possible_species",
    "has_props",
    "theoretical",
    "database_IDs"
  ]
}
