{"builder_meta": null, "nsites": null, "elements": null, "nelements": null, "composition": null, "composition_reduced": null, "formula_pretty": "La3Ti", "formula_anonymous": "AB3", "chemsys": null, "volume": 252.66359341972202, "density": 6.106609120513108, "density_atomic": 31.582949177465252, "symmetry": null, "property_name": null, "material_id": "mp-1185161", "deprecated": null, "deprecation_reasons": null, "last_updated": null, "origins": null, "warnings": null, "structure": {"@module": "pymatgen.core.structure", "@class": "Structure", "charge": 0, "lattice": {"matrix": [[3.5841700000000003, -6.207965, 0.0], [3.5841700000000003, 6.207965, 0.0], [0.0, 0.0, 5.677731]], "pbc": [true, true, true], "a": 7.168340395804666, "b": 7.168340395804666, "c": 5.677731, "alpha": 90.0, "beta": 90.0, "gamma": 120.00000365303882, "volume": 252.66359341972205}, "properties": {}, "sites": [{"species": [{"element": "La", "occu": 1}], "abc": [0.17622000000000002, 0.35244000000000003, 0.25], "properties": {"magmom": -0.004}, "label": "La", "xyz": [1.8948073122000002, 1.0939675923, 1.41943275]}, {"species": [{"element": "La", "occu": 1}], "abc": [0.64756, 0.8237800000000001, 0.25], "properties": {"magmom": -0.002}, "label": "La", "xyz": [5.273532687800001, 1.0939675923000003, 1.41943275]}, {"species": [{"element": "La", "occu": 1}], "abc": [0.17622000000000002, 0.8237800000000001, 0.25], "properties": {"magmom": -0.004}, "label": "La", "xyz": [3.5841700000000007, 4.0200298154, 1.41943275]}, {"species": [{"element": "La", "occu": 1}], "abc": [0.8237800000000001, 0.64756, 0.75], "properties": {"magmom": -0.004}, "label": "La", "xyz": [5.273532687800001, -1.0939675923000003, 4.258298249999999]}, {"species": [{"element": "La", "occu": 1}], "abc": [0.35244000000000003, 0.17622000000000002, 0.75], "properties": {"magmom": -0.002}, "label": "La", "xyz": [1.8948073122000002, -1.0939675923, 4.258298249999999]}, {"species": [{"element": "La", "occu": 1}], "abc": [0.8237800000000001, 0.17622000000000002, 0.75], "properties": {"magmom": -0.004}, "label": "La", "xyz": [3.5841700000000007, -4.0200298154, 4.258298249999999]}, {"species": [{"element": "Ti", "occu": 1}], "abc": [0.333333, 0.666667, 0.75], "properties": {"magmom": 0.07}, "label": "Ti", "xyz": [3.5841700000000003, 2.0693258053099997, 4.258298249999999]}, {"species": [{"element": "Ti", "occu": 1}], "abc": [0.666667, 0.333333, 0.25], "properties": {"magmom": 0.07}, "label": "Ti", "xyz": [3.5841700000000003, -2.0693258053099997, 1.41943275]}]}, "task_ids": null, "uncorrected_energy_per_atom": null, "energy_per_atom": -25.296421236666667, "formation_energy_per_atom": 0.24660317041666902, "energy_above_hull": 0.24660317041666902, "is_stable": false, "equilibrium_reaction_energy_per_atom": null, "decomposes_to": null, "xas": null, "grain_boundaries": null, "band_gap": 0.0, "cbm": null, "vbm": null, "efermi": 7.67598968, "is_gap_direct": null, "is_metal": null, "es_source_calc_id": null, "bandstructure": null, "dos": null, "dos_energy_up": null, "dos_energy_down": null, "is_magnetic": null, "ordering": null, "total_magnetization": 0.119478999999999, "total_magnetization_normalized_vol": null, "total_magnetization_normalized_formula_units": null, "num_magnetic_sites": null, "num_unique_magnetic_sites": null, "types_of_magnetic_species": null, "bulk_modulus": null, "shear_modulus": null, "universal_anisotropy": null, "homogeneous_poisson": null, "e_total": null, "e_ionic": null, "e_electronic": null, "n": null, "e_ij_max": null, "weighted_surface_energy_EV_PER_ANG2": null, "weighted_surface_energy": null, "weighted_work_function": null, "surface_anisotropy": null, "shape_factor": null, "has_reconstructed": null, "possible_species": null, "has_props": null, "theoretical": null, "database_IDs": null, "fields_not_requested": ["builder_meta", "nsites", "elements", "nelements", "composition", "composition_reduced", "chemsys", "symmetry", "property_name", "deprecated", "deprecation_reasons", "last_updated", "origins", "warnings", "task_ids", "uncorrected_energy_per_atom", "equilibrium_reaction_energy_per_atom", "decomposes_to", "xas", "grain_boundaries", "cbm", "vbm", "is_gap_direct", "is_metal", "es_source_calc_id", "bandstructure", "dos", "dos_energy_up", "dos_energy_down", "is_magnetic", "ordering", "total_magnetization_normalized_vol", "total_magnetization_normalized_formula_units", "num_magnetic_sites", "num_unique_magnetic_sites", "types_of_magnetic_species", "bulk_modulus", "shear_modulus", "universal_anisotropy", "homogeneous_poisson", "e_total", "e_ionic", "e_electronic", "n", "e_ij_max", "weighted_surface_energy_EV_PER_ANG2", "weighted_surface_energy", "weighted_work_function", "surface_anisotropy", "shape_factor", "has_reconstructed", "possible_species", "has_props", "theoretical", "database_IDs"]}