{"builder_meta": null, "nsites": null, "elements": null, "nelements": null, "composition": null, "composition_reduced": null, "formula_pretty": "La3Tl5", "formula_anonymous": "A3B5", "chemsys": null, "volume": 493.0629143844585, "density": 9.690066236410257, "density_atomic": 30.816432149028657, "symmetry": null, "property_name": null, "material_id": "mp-1106000", "deprecated": null, "deprecation_reasons": null, "last_updated": null, "origins": null, "warnings": null, "structure": {"@module": "pymatgen.core.structure", "@class": "Structure", "charge": 0, "lattice": {"matrix": [[5.412151, 4.31187, 0.0], [-5.412151, 4.31187, 0.0], [0.0, 0.0, 10.564204]], "pbc": [true, true, true], "a": 6.919797781994861, "b": 6.919797781994861, "c": 10.564204, "alpha": 90.0, "beta": 90.0, "gamma": 102.9112151007843, "volume": 493.0629143844585}, "properties": {}, "sites": [{"species": [{"element": "La", "occu": 1}], "abc": [0.636286999999999, 0.636286999999999, 0.25], "properties": {"magmom": 0.012}, "label": "La", "xyz": [0.0, 5.487173653379991, 2.641051]}, {"species": [{"element": "La", "occu": 1}], "abc": [0.363713, 0.363713, 0.75], "properties": {"magmom": 0.012}, "label": "La", "xyz": [0.0, 3.13656634662, 7.923153]}, {"species": [{"element": "La", "occu": 1}], "abc": [0.798176999999999, 0.201823, 0.5], "properties": {"magmom": 0.01}, "label": "La", "xyz": [3.2275578974539947, 4.311869999999995, 5.282102]}, {"species": [{"element": "La", "occu": 1}], "abc": [0.798176999999999, 0.201823, 0.0], "properties": {"magmom": 0.01}, "label": "La", "xyz": [3.2275578974539947, 4.311869999999995, 0.0]}, {"species": [{"element": "La", "occu": 1}], "abc": [0.201823, 0.798176999999999, 0.5], "properties": {"magmom": 0.01}, "label": "La", "xyz": [-3.2275578974539947, 4.311869999999995, 5.282102]}, {"species": [{"element": "La", "occu": 1}], "abc": [0.201823, 0.798176999999999, 0.0], "properties": {"magmom": 0.01}, "label": "La", "xyz": [-3.2275578974539947, 4.311869999999995, 0.0]}, {"species": [{"element": "Tl", "occu": 1}], "abc": [0.005189, 0.005189, 0.25], "properties": {"magmom": 0.002}, "label": "Tl", "xyz": [0.0, 0.04474858686, 2.641051]}, {"species": [{"element": "Tl", "occu": 1}], "abc": [0.994811, 0.994811, 0.75], "properties": {"magmom": 0.002}, "label": "Tl", "xyz": [0.0, 8.578991413139999, 7.923153]}, {"species": [{"element": "Tl", "occu": 1}], "abc": [0.305178, 0.305178, 0.055075], "properties": {"magmom": 0.004}, "label": "Tl", "xyz": [0.0, 2.63177572572, 0.5818235353]}, {"species": [{"element": "Tl", "occu": 1}], "abc": [0.694821999999999, 0.694821999999999, 0.9449249999999991], "properties": {"magmom": 0.004}, "label": "Tl", "xyz": [0.0, 5.991964274279992, 9.982380464699991]}, {"species": [{"element": "Tl", "occu": 1}], "abc": [0.305178, 0.305178, 0.444924999999999], "properties": {"magmom": 0.004}, "label": "Tl", "xyz": [0.0, 2.63177572572, 4.7002784646999896]}, {"species": [{"element": "Tl", "occu": 1}], "abc": [0.694821999999999, 0.694821999999999, 0.555075], "properties": {"magmom": 0.004}, "label": "Tl", "xyz": [0.0, 5.991964274279992, 5.8639255353]}, {"species": [{"element": "Tl", "occu": 1}], "abc": [0.062322999999999004, 0.505863, 0.25], "properties": {"magmom": 0.005}, "label": "Tl", "xyz": [-2.400505454540005, 2.4499441678199956, 2.641051]}, {"species": [{"element": "Tl", "occu": 1}], "abc": [0.494137, 0.937677, 0.75], "properties": {"magmom": 0.005}, "label": "Tl", "xyz": [-2.40050545454, 6.17379583218, 7.923153]}, {"species": [{"element": "Tl", "occu": 1}], "abc": [0.937677, 0.494137, 0.75], "properties": {"magmom": 0.005}, "label": "Tl", "xyz": [2.40050545454, 6.17379583218, 7.923153]}, {"species": [{"element": "Tl", "occu": 1}], "abc": [0.505863, 0.062322999999999004, 0.25], "properties": {"magmom": 0.005}, "label": "Tl", "xyz": [2.400505454540005, 2.4499441678199956, 2.641051]}]}, "task_ids": null, "uncorrected_energy_per_atom": null, "energy_per_atom": -3.743378076875, "formation_energy_per_atom": -0.41020533958333805, "energy_above_hull": 0.0, "is_stable": true, "equilibrium_reaction_energy_per_atom": null, "decomposes_to": null, "xas": null, "grain_boundaries": null, "band_gap": 0.0, "cbm": null, "vbm": null, "efermi": 7.30906702, "is_gap_direct": null, "is_metal": null, "es_source_calc_id": null, "bandstructure": null, "dos": null, "dos_energy_up": null, "dos_energy_down": null, "is_magnetic": null, "ordering": null, "total_magnetization": 0.2578431, "total_magnetization_normalized_vol": null, "total_magnetization_normalized_formula_units": null, "num_magnetic_sites": null, "num_unique_magnetic_sites": null, "types_of_magnetic_species": null, "bulk_modulus": null, "shear_modulus": null, "universal_anisotropy": null, "homogeneous_poisson": null, "e_total": null, "e_ionic": null, "e_electronic": null, "n": null, "e_ij_max": null, "weighted_surface_energy_EV_PER_ANG2": null, "weighted_surface_energy": null, "weighted_work_function": null, "surface_anisotropy": null, "shape_factor": null, "has_reconstructed": null, "possible_species": null, "has_props": null, "theoretical": null, "database_IDs": null, "fields_not_requested": ["builder_meta", "nsites", "elements", "nelements", "composition", "composition_reduced", "chemsys", "symmetry", "property_name", "deprecated", "deprecation_reasons", "last_updated", "origins", "warnings", "task_ids", "uncorrected_energy_per_atom", "equilibrium_reaction_energy_per_atom", "decomposes_to", "xas", "grain_boundaries", "cbm", "vbm", "is_gap_direct", "is_metal", "es_source_calc_id", "bandstructure", "dos", "dos_energy_up", "dos_energy_down", "is_magnetic", "ordering", "total_magnetization_normalized_vol", "total_magnetization_normalized_formula_units", "num_magnetic_sites", "num_unique_magnetic_sites", "types_of_magnetic_species", "bulk_modulus", "shear_modulus", "universal_anisotropy", "homogeneous_poisson", "e_total", "e_ionic", "e_electronic", "n", "e_ij_max", "weighted_surface_energy_EV_PER_ANG2", "weighted_surface_energy", "weighted_work_function", "surface_anisotropy", "shape_factor", "has_reconstructed", "possible_species", "has_props", "theoretical", "database_IDs"]}