{
  "builder_meta": null,
  "nsites": null,
  "elements": null,
  "nelements": null,
  "composition": null,
  "composition_reduced": null,
  "formula_pretty": "La3Yb",
  "formula_anonymous": "AB3",
  "chemsys": null,
  "volume": 289.89874765696646,
  "density": 6.756245527087107,
  "density_atomic": 36.23734345712081,
  "symmetry": null,
  "property_name": null,
  "material_id": "mp-1185226",
  "deprecated": null,
  "deprecation_reasons": null,
  "last_updated": null,
  "origins": null,
  "warnings": null,
  "structure": {
    "@module": "pymatgen.core.structure",
    "@class": "Structure",
    "charge": 0.0,
    "lattice": {
      "matrix": [
        [3.767246600777151, -6.525061934711543, 0.0],
        [3.767246600777151, 6.525061934711543, -0.0],
        [0.0, -0.0, 5.896681295491829]
      ],
      "pbc": [true, true, true],
      "a": 7.534492697115615,
      "b": 7.534492697115615,
      "c": 5.896681295491829,
      "alpha": 90.0,
      "beta": 90.0,
      "gamma": 119.99999557058497,
      "volume": 289.89874765696646
    },
    "properties": {},
    "sites": [
      {
        "species": [{ "element": "La", "occu": 1 }],
        "abc": [0.17099138459887, 0.341981769199449, 0.25],
        "properties": { "magmom": -0.037 },
        "label": "La",
        "xyz": [1.932496369936652, 1.1157228497589249, 1.4741703238729573]
      },
      {
        "species": [{ "element": "La", "occu": 1 }],
        "abc": [0.65801823080055, 0.829008615401129, 0.25],
        "properties": { "magmom": -0.037 },
        "label": "La",
        "xyz": [5.601996831617642, 1.1157228497589244, 1.4741703238729573]
      },
      {
        "species": [{ "element": "La", "occu": 1 }],
        "abc": [0.170991384600576, 0.829008615399423, 0.25],
        "properties": { "magmom": -0.037 },
        "label": "La",
        "xyz": [3.7672466007771472, 4.293603185069856, 1.4741703238729573]
      },
      {
        "species": [{ "element": "La", "occu": 1 }],
        "abc": [0.829008615401129, 0.65801823080055, 0.75],
        "properties": { "magmom": -0.037 },
        "label": "La",
        "xyz": [5.601996831617642, -1.1157228497589244, 4.4225109716188715]
      },
      {
        "species": [{ "element": "La", "occu": 1 }],
        "abc": [0.341981769199449, 0.17099138459887, 0.75],
        "properties": { "magmom": -0.037 },
        "label": "La",
        "xyz": [1.932496369936652, -1.1157228497589249, 4.4225109716188715]
      },
      {
        "species": [{ "element": "La", "occu": 1 }],
        "abc": [0.829008615399423, 0.170991384600576, 0.75],
        "properties": { "magmom": -0.037 },
        "label": "La",
        "xyz": [3.7672466007771472, -4.293603185069856, 4.4225109716188715]
      },
      {
        "species": [{ "element": "Yb", "occu": 1 }],
        "abc": [0.33333300000000304, 0.666666999999996, 0.75],
        "properties": { "magmom": -0.133 },
        "label": "Yb",
        "xyz": [3.7672466007771472, 2.1750249949450913, 4.4225109716188715]
      },
      {
        "species": [{ "element": "Yb", "occu": 1 }],
        "abc": [0.666666999999996, 0.33333300000000304, 0.25],
        "properties": { "magmom": -0.133 },
        "label": "Yb",
        "xyz": [3.7672466007771472, -2.1750249949450913, 1.4741703238729573]
      }
    ]
  },
  "task_ids": null,
  "uncorrected_energy_per_atom": null,
  "energy_per_atom": -31.4155769375,
  "formation_energy_per_atom": 0.025352912500004002,
  "energy_above_hull": 0.025352912500004002,
  "is_stable": false,
  "equilibrium_reaction_energy_per_atom": null,
  "decomposes_to": null,
  "xas": null,
  "grain_boundaries": null,
  "band_gap": 0.0,
  "cbm": null,
  "vbm": null,
  "efermi": 6.10561956,
  "is_gap_direct": null,
  "is_metal": null,
  "es_source_calc_id": null,
  "bandstructure": null,
  "dos": null,
  "dos_energy_up": null,
  "dos_energy_down": null,
  "is_magnetic": null,
  "ordering": null,
  "total_magnetization": 0.7043952,
  "total_magnetization_normalized_vol": null,
  "total_magnetization_normalized_formula_units": null,
  "num_magnetic_sites": null,
  "num_unique_magnetic_sites": null,
  "types_of_magnetic_species": null,
  "bulk_modulus": null,
  "shear_modulus": null,
  "universal_anisotropy": null,
  "homogeneous_poisson": null,
  "e_total": null,
  "e_ionic": null,
  "e_electronic": null,
  "n": null,
  "e_ij_max": null,
  "weighted_surface_energy_EV_PER_ANG2": null,
  "weighted_surface_energy": null,
  "weighted_work_function": null,
  "surface_anisotropy": null,
  "shape_factor": null,
  "has_reconstructed": null,
  "possible_species": null,
  "has_props": null,
  "theoretical": null,
  "database_IDs": null,
  "fields_not_requested": [
    "builder_meta",
    "nsites",
    "elements",
    "nelements",
    "composition",
    "composition_reduced",
    "chemsys",
    "symmetry",
    "property_name",
    "deprecated",
    "deprecation_reasons",
    "last_updated",
    "origins",
    "warnings",
    "task_ids",
    "uncorrected_energy_per_atom",
    "equilibrium_reaction_energy_per_atom",
    "decomposes_to",
    "xas",
    "grain_boundaries",
    "cbm",
    "vbm",
    "is_gap_direct",
    "is_metal",
    "es_source_calc_id",
    "bandstructure",
    "dos",
    "dos_energy_up",
    "dos_energy_down",
    "is_magnetic",
    "ordering",
    "total_magnetization_normalized_vol",
    "total_magnetization_normalized_formula_units",
    "num_magnetic_sites",
    "num_unique_magnetic_sites",
    "types_of_magnetic_species",
    "bulk_modulus",
    "shear_modulus",
    "universal_anisotropy",
    "homogeneous_poisson",
    "e_total",
    "e_ionic",
    "e_electronic",
    "n",
    "e_ij_max",
    "weighted_surface_energy_EV_PER_ANG2",
    "weighted_surface_energy",
    "weighted_work_function",
    "surface_anisotropy",
    "shape_factor",
    "has_reconstructed",
    "possible_species",
    "has_props",
    "theoretical",
    "database_IDs"
  ]
}
