{"builder_meta": null, "nsites": null, "elements": null, "nelements": null, "composition": null, "composition_reduced": null, "formula_pretty": "La4As3", "formula_anonymous": "A3B4", "chemsys": null, "volume": 391.4008504155666, "density": 6.62166455600902, "density_atomic": 27.9572036011119, "symmetry": null, "property_name": null, "material_id": "mp-568959", "deprecated": null, "deprecation_reasons": null, "last_updated": null, "origins": null, "warnings": null, "structure": {"@module": "pymatgen.core.structure", "@class": "Structure", "charge": 0, "lattice": {"matrix": [[7.52497264, 1.04e-06, -2.66047879], [-3.7624858100000003, 6.516818329999999, -2.66047984], [2e-08, -1.02e-06, 7.98143947]], "pbc": [true, true, true], "a": 7.9814385059830855, "b": 7.98143931855162, "c": 7.981439470000065, "alpha": 109.47122755877008, "beta": 109.47121506973347, "gamma": 109.47121120177434, "volume": 391.4008504155665}, "properties": {}, "sites": [{"species": [{"element": "La", "occu": 1}], "abc": [-0.0, 0.36507899, 0.5], "properties": {"magmom": 0.0}, "label": "La", "xyz": [-1.373604509404132, 2.379152943929886, 3.019434442097438]}, {"species": [{"element": "La", "occu": 1}], "abc": [0.5, 0.0, 0.36507899], "properties": {"magmom": 0.0}, "label": "La", "xyz": [3.7624863273015796, 1.4761943020000003e-07, 1.5836164654537352]}, {"species": [{"element": "La", "occu": 1}], "abc": [0.86507899, 0.5, -0.0], "properties": {"magmom": 0.0}, "label": "La", "xyz": [4.628452826188832, 3.258410064682149, -3.631764224569622]}, {"species": [{"element": "La", "occu": 1}], "abc": [0.13492101, 0.13492101, 0.13492101], "properties": {"magmom": 0.0}, "label": "La", "xyz": [0.5076385259137184, 0.8792557137685334, 0.35895476201844834]}, {"species": [{"element": "La", "occu": 1}], "abc": [0.5, 0.0, 0.86507899], "properties": {"magmom": 0.0}, "label": "La", "xyz": [3.7624863373015796, -3.623805698e-07, 5.574336200453734]}, {"species": [{"element": "La", "occu": 1}], "abc": [0.63492101, 0.63492101, 0.63492101], "properties": {"magmom": 0.0}, "label": "La", "xyz": [2.3888819509137185, 4.137664888768533, 1.689195182018449]}, {"species": [{"element": "La", "occu": 1}], "abc": [-0.0, 0.86507899, 0.5], "properties": {"magmom": 0.0}, "label": "La", "xyz": [-3.254847414404132, 5.6375621089298855, 1.6891945220974383]}, {"species": [{"element": "La", "occu": 1}], "abc": [0.36507899, 0.5, -0.0], "properties": {"magmom": 0.0}, "label": "La", "xyz": [0.8659665061888333, 3.258409544682149, -2.301524829569622]}, {"species": [{"element": "As", "occu": 1}], "abc": [0.75, 0.875, 0.125], "properties": {"magmom": -0.0}, "label": "As", "xyz": [2.3515543987499994, 5.7022166912499985, -3.32559901875]}, {"species": [{"element": "As", "occu": 1}], "abc": [0.875, 0.125, 0.75], "properties": {"magmom": -0.0}, "label": "As", "xyz": [6.11404034875, 0.8146024362499998, 3.32560068125]}, {"species": [{"element": "As", "occu": 1}], "abc": [0.625, 0.375, 0.25], "properties": {"magmom": -0.0}, "label": "As", "xyz": [3.29217572625, 2.4438072687499997, -0.6651193162499998]}, {"species": [{"element": "As", "occu": 1}], "abc": [0.25, 0.625, 0.375], "properties": {"magmom": -0.0}, "label": "As", "xyz": [-0.47031046375000035, 4.073011333749999, 0.6651202037499999]}, {"species": [{"element": "As", "occu": 1}], "abc": [0.125, 0.75, 0.875], "properties": {"magmom": -0.0}, "label": "As", "xyz": [-1.8812427600000001, 4.887612984999999, 4.6558398075]}, {"species": [{"element": "As", "occu": 1}], "abc": [0.375, 0.25, 0.625], "properties": {"magmom": -0.0}, "label": "As", "xyz": [1.8812432999999995, 1.6292043349999998, 3.3256001625]}]}, "task_ids": null, "uncorrected_energy_per_atom": null, "energy_per_atom": -24.843757735, "formation_energy_per_atom": -1.54351290892857, "energy_above_hull": 0.040123112857141006, "is_stable": false, "equilibrium_reaction_energy_per_atom": null, "decomposes_to": null, "xas": null, "grain_boundaries": null, "band_gap": 0.0, "cbm": null, "vbm": null, "efermi": 7.8279824399999995, "is_gap_direct": null, "is_metal": null, "es_source_calc_id": null, "bandstructure": null, "dos": null, "dos_energy_up": null, "dos_energy_down": null, "is_magnetic": null, "ordering": null, "total_magnetization": 0.0001198, "total_magnetization_normalized_vol": null, "total_magnetization_normalized_formula_units": null, "num_magnetic_sites": null, "num_unique_magnetic_sites": null, "types_of_magnetic_species": null, "bulk_modulus": null, "shear_modulus": null, "universal_anisotropy": null, "homogeneous_poisson": null, "e_total": null, "e_ionic": null, "e_electronic": null, "n": null, "e_ij_max": null, "weighted_surface_energy_EV_PER_ANG2": null, "weighted_surface_energy": null, "weighted_work_function": null, "surface_anisotropy": null, "shape_factor": null, "has_reconstructed": null, "possible_species": null, "has_props": null, "theoretical": null, "database_IDs": null, "fields_not_requested": ["builder_meta", "nsites", "elements", "nelements", "composition", "composition_reduced", "chemsys", "symmetry", "property_name", "deprecated", "deprecation_reasons", "last_updated", "origins", "warnings", "task_ids", "uncorrected_energy_per_atom", "equilibrium_reaction_energy_per_atom", "decomposes_to", "xas", "grain_boundaries", "cbm", "vbm", "is_gap_direct", "is_metal", "es_source_calc_id", "bandstructure", "dos", "dos_energy_up", "dos_energy_down", "is_magnetic", "ordering", "total_magnetization_normalized_vol", "total_magnetization_normalized_formula_units", "num_magnetic_sites", "num_unique_magnetic_sites", "types_of_magnetic_species", "bulk_modulus", "shear_modulus", "universal_anisotropy", "homogeneous_poisson", "e_total", "e_ionic", "e_electronic", "n", "e_ij_max", "weighted_surface_energy_EV_PER_ANG2", "weighted_surface_energy", "weighted_work_function", "surface_anisotropy", "shape_factor", "has_reconstructed", "possible_species", "has_props", "theoretical", "database_IDs"]}