{"builder_meta": null, "nsites": null, "elements": null, "nelements": null, "composition": null, "composition_reduced": null, "formula_pretty": "La4Al", "formula_anonymous": "AB4", "chemsys": null, "volume": 392.1521150269048, "density": 4.933981992440046, "density_atomic": 39.21521150269048, "symmetry": null, "property_name": null, "material_id": "mp-1211397", "deprecated": null, "deprecation_reasons": null, "last_updated": null, "origins": null, "warnings": null, "structure": {"@module": "pymatgen.core.structure", "@class": "Structure", "charge": 0, "lattice": {"matrix": [[-5.809537, -5.809537, 0.0], [-5.809537, 0.0, -5.809537], [0.0, -5.809537, -5.809537]], "pbc": [true, true, true], "a": 8.215926016508304, "b": 8.215926016508304, "c": 8.215926016508304, "alpha": 59.99999999999999, "beta": 59.99999999999999, "gamma": 59.99999999999999, "volume": 392.1521150269048}, "properties": {}, "sites": [{"species": [{"element": "La", "occu": 1}], "abc": [0.605615, 0.605615, 0.605615], "properties": {"magmom": 0.002}, "label": "La", "xyz": [-7.03668550051, -7.03668550051, -7.03668550051]}, {"species": [{"element": "La", "occu": 1}], "abc": [0.183154999999999, 0.605615, 0.605615], "properties": {"magmom": 0.002}, "label": "La", "xyz": [-4.582388499489994, -4.582388499489994, -7.03668550051]}, {"species": [{"element": "La", "occu": 1}], "abc": [0.605615, 0.183154999999999, 0.605615], "properties": {"magmom": 0.002}, "label": "La", "xyz": [-4.582388499489994, -7.03668550051, -4.582388499489994]}, {"species": [{"element": "La", "occu": 1}], "abc": [0.566844999999999, 0.14438499999999901, 0.14438499999999901], "properties": {"magmom": 0.002}, "label": "La", "xyz": [-4.131917000509988, -4.131917000509988, -1.6776199994899885]}, {"species": [{"element": "La", "occu": 1}], "abc": [0.14438499999999901, 0.14438499999999901, 0.14438499999999901], "properties": {"magmom": 0.002}, "label": "La", "xyz": [-1.6776199994899885, -1.6776199994899885, -1.6776199994899885]}, {"species": [{"element": "La", "occu": 1}], "abc": [0.605615, 0.605615, 0.183154999999999], "properties": {"magmom": 0.002}, "label": "La", "xyz": [-7.03668550051, -4.582388499489994, -4.582388499489994]}, {"species": [{"element": "La", "occu": 1}], "abc": [0.14438499999999901, 0.566844999999999, 0.14438499999999901], "properties": {"magmom": 0.002}, "label": "La", "xyz": [-4.131917000509988, -1.6776199994899885, -4.131917000509988]}, {"species": [{"element": "La", "occu": 1}], "abc": [0.14438499999999901, 0.14438499999999901, 0.566844999999999], "properties": {"magmom": 0.002}, "label": "La", "xyz": [-1.6776199994899885, -4.131917000509988, -4.131917000509988]}, {"species": [{"element": "Al", "occu": 1}], "abc": [0.0, 0.0, 0.0], "properties": {"magmom": -0.0}, "label": "Al", "xyz": [0.0, 0.0, 0.0]}, {"species": [{"element": "Al", "occu": 1}], "abc": [0.75, 0.75, 0.75], "properties": {"magmom": -0.0}, "label": "Al", "xyz": [-8.7143055, -8.7143055, -8.7143055]}]}, "task_ids": null, "uncorrected_energy_per_atom": null, "energy_per_atom": -24.7741222875, "formation_energy_per_atom": 0.3681215425, "energy_above_hull": 0.5744449355000001, "is_stable": false, "equilibrium_reaction_energy_per_atom": null, "decomposes_to": null, "xas": null, "grain_boundaries": null, "band_gap": 0.0, "cbm": null, "vbm": null, "efermi": 6.08552723, "is_gap_direct": null, "is_metal": null, "es_source_calc_id": null, "bandstructure": null, "dos": null, "dos_energy_up": null, "dos_energy_down": null, "is_magnetic": null, "ordering": null, "total_magnetization": 0.0322958, "total_magnetization_normalized_vol": null, "total_magnetization_normalized_formula_units": null, "num_magnetic_sites": null, "num_unique_magnetic_sites": null, "types_of_magnetic_species": null, "bulk_modulus": null, "shear_modulus": null, "universal_anisotropy": null, "homogeneous_poisson": null, "e_total": null, "e_ionic": null, "e_electronic": null, "n": null, "e_ij_max": null, "weighted_surface_energy_EV_PER_ANG2": null, "weighted_surface_energy": null, "weighted_work_function": null, "surface_anisotropy": null, "shape_factor": null, "has_reconstructed": null, "possible_species": null, "has_props": null, "theoretical": null, "database_IDs": null, "fields_not_requested": ["builder_meta", "nsites", "elements", "nelements", "composition", "composition_reduced", "chemsys", "symmetry", "property_name", "deprecated", "deprecation_reasons", "last_updated", "origins", "warnings", "task_ids", "uncorrected_energy_per_atom", "equilibrium_reaction_energy_per_atom", "decomposes_to", "xas", "grain_boundaries", "cbm", "vbm", "is_gap_direct", "is_metal", "es_source_calc_id", "bandstructure", "dos", "dos_energy_up", "dos_energy_down", "is_magnetic", "ordering", "total_magnetization_normalized_vol", "total_magnetization_normalized_formula_units", "num_magnetic_sites", "num_unique_magnetic_sites", "types_of_magnetic_species", "bulk_modulus", "shear_modulus", "universal_anisotropy", "homogeneous_poisson", "e_total", "e_ionic", "e_electronic", "n", "e_ij_max", "weighted_surface_energy_EV_PER_ANG2", "weighted_surface_energy", "weighted_work_function", "surface_anisotropy", "shape_factor", "has_reconstructed", "possible_species", "has_props", "theoretical", "database_IDs"]}