{"builder_meta": null, "nsites": null, "elements": null, "nelements": null, "composition": null, "composition_reduced": null, "formula_pretty": "La4Bi3", "formula_anonymous": "A3B4", "chemsys": null, "volume": 488.4159428050655, "density": 8.041065088010697, "density_atomic": 34.88685305750468, "symmetry": null, "property_name": null, "material_id": "mp-23187", "deprecated": null, "deprecation_reasons": null, "last_updated": null, "origins": null, "warnings": null, "structure": {"@module": "pymatgen.core.structure", "@class": "Structure", "charge": 0, "lattice": {"matrix": [[-4.96108474, 4.96108367, 4.96108472], [4.96108474, -4.96108365, 4.96108368], [4.96108578, 4.96108367, -4.96108368]], "pbc": [true, true, true], "a": 8.592850201022884, "b": 8.5928495890316, "c": 8.592850201023012, "alpha": 109.4712033217074, "beta": 109.47123217634565, "gamma": 109.47122063449122, "volume": 488.4159428050655}, "properties": {}, "sites": [{"species": [{"element": "La", "occu": 1}], "abc": [0.1407419, 0.5, 0.0], "properties": {"magmom": 0.307}, "label": "La", "xyz": [1.7823098776313941, -1.782309483225227, 3.178774329553768]}, {"species": [{"element": "La", "occu": 1}], "abc": [0.359258099999999, 0.359258099999999, 0.359258099999999], "properties": {"magmom": 0.307}, "label": "La", "xyz": [1.7823102512598132, 1.7823095004103842, 1.7823098704462272]}, {"species": [{"element": "La", "occu": 1}], "abc": [0.64083744, 0.5, 0.0], "properties": {"magmom": 0.307}, "label": "La", "xyz": [-0.6987064744046654, 0.6987063337086048, 5.659790671587917]}, {"species": [{"element": "La", "occu": 1}], "abc": [0.5, -0.0, 0.64083744], "properties": {"magmom": 0.307}, "label": "La", "xyz": [0.6987071408756029, 5.659789993708605, -0.6987058051169792]}, {"species": [{"element": "La", "occu": 1}], "abc": [0.5, -0.0, 0.1407419], "properties": {"magmom": 0.307}, "label": "La", "xyz": [-1.7823097312598182, 3.178774176774773, 1.7823100168178079]}, {"species": [{"element": "La", "occu": 1}], "abc": [-0.0, 0.64083744, 0.5], "properties": {"magmom": 0.307}, "label": "La", "xyz": [5.659791734404665, -0.6987063108918559, 0.6987063251169792]}, {"species": [{"element": "La", "occu": 1}], "abc": [0.85916256, 0.85916256, 0.85916256], "properties": {"magmom": 0.307}, "label": "La", "xyz": [4.262379159124397, 4.262377363474647, 4.262378248412083]}, {"species": [{"element": "La", "occu": 1}], "abc": [-0.0, 0.1407419, 0.5], "properties": {"magmom": 0.307}, "label": "La", "xyz": [3.178775382368606, 1.782309496040065, -1.782309496817808]}, {"species": [{"element": "Bi", "occu": 1}], "abc": [0.25, 0.12498708, 0.87498708], "properties": {"magmom": -0.049}, "label": "Bi", "xyz": [3.720686270556882, 4.961083672499742, -2.4805415800000006]}, {"species": [{"element": "Bi", "occu": 1}], "abc": [0.12498708, 0.87498708, 0.25], "properties": {"magmom": -0.049}, "label": "Bi", "xyz": [4.961085000000001, -2.480541817500259, 3.720684695584272]}, {"species": [{"element": "Bi", "occu": 1}], "abc": [0.75, 0.37501292, 0.62501292], "properties": {"magmom": -0.049}, "label": "Bi", "xyz": [1.2404000294431186, 4.961083677500258, 2.48054262]}, {"species": [{"element": "Bi", "occu": 1}], "abc": [0.87498708, 0.25, 0.12498708], "properties": {"magmom": -0.049}, "label": "Bi", "xyz": [-2.4805422400134374, 3.7206845630979672, 4.961084589986563]}, {"species": [{"element": "Bi", "occu": 1}], "abc": [0.62501292, 0.75, 0.37501292], "properties": {"magmom": -0.049}, "label": "Bi", "xyz": [2.4805427600134373, 1.2403991269020325, 4.961084330013437]}, {"species": [{"element": "Bi", "occu": 1}], "abc": [0.37501292, 0.62501292, 0.75], "properties": {"magmom": -0.049}, "label": "Bi", "xyz": [4.96108552, 2.480541847500258, 1.2403995044157283]}]}, "task_ids": null, "uncorrected_energy_per_atom": null, "energy_per_atom": -43.17651115785714, "formation_energy_per_atom": -1.107090864285713, "energy_above_hull": 0.02241616642857, "is_stable": false, "equilibrium_reaction_energy_per_atom": null, "decomposes_to": null, "xas": null, "grain_boundaries": null, "band_gap": 0.0, "cbm": null, "vbm": null, "efermi": 7.4379497, "is_gap_direct": null, "is_metal": null, "es_source_calc_id": null, "bandstructure": null, "dos": null, "dos_energy_up": null, "dos_energy_down": null, "is_magnetic": null, "ordering": null, "total_magnetization": 5.6822234, "total_magnetization_normalized_vol": null, "total_magnetization_normalized_formula_units": null, "num_magnetic_sites": null, "num_unique_magnetic_sites": null, "types_of_magnetic_species": null, "bulk_modulus": null, "shear_modulus": null, "universal_anisotropy": null, "homogeneous_poisson": null, "e_total": null, "e_ionic": null, "e_electronic": null, "n": null, "e_ij_max": null, "weighted_surface_energy_EV_PER_ANG2": null, "weighted_surface_energy": null, "weighted_work_function": null, "surface_anisotropy": null, "shape_factor": null, "has_reconstructed": null, "possible_species": null, "has_props": null, "theoretical": null, "database_IDs": null, "fields_not_requested": ["builder_meta", "nsites", "elements", "nelements", "composition", "composition_reduced", "chemsys", "symmetry", "property_name", "deprecated", "deprecation_reasons", "last_updated", "origins", "warnings", "task_ids", "uncorrected_energy_per_atom", "equilibrium_reaction_energy_per_atom", "decomposes_to", "xas", "grain_boundaries", "cbm", "vbm", "is_gap_direct", "is_metal", "es_source_calc_id", "bandstructure", "dos", "dos_energy_up", "dos_energy_down", "is_magnetic", "ordering", "total_magnetization_normalized_vol", "total_magnetization_normalized_formula_units", "num_magnetic_sites", "num_unique_magnetic_sites", "types_of_magnetic_species", "bulk_modulus", "shear_modulus", "universal_anisotropy", "homogeneous_poisson", "e_total", "e_ionic", "e_electronic", "n", "e_ij_max", "weighted_surface_energy_EV_PER_ANG2", "weighted_surface_energy", "weighted_work_function", "surface_anisotropy", "shape_factor", "has_reconstructed", "possible_species", "has_props", "theoretical", "database_IDs"]}