{"builder_meta": null, "nsites": null, "elements": null, "nelements": null, "composition": null, "composition_reduced": null, "formula_pretty": "La4Ge7", "formula_anonymous": "A4B7", "chemsys": null, "volume": 542.9016950266899, "density": 6.509402194795643, "density_atomic": 24.677349773940453, "symmetry": null, "property_name": null, "material_id": "mp-1211472", "deprecated": null, "deprecation_reasons": null, "last_updated": null, "origins": null, "warnings": null, "structure": {"@module": "pymatgen.core.structure", "@class": "Structure", "charge": 0.0, "lattice": {"matrix": [[3.08979791, -7.10633582, -0.0], [3.08979791, 7.10633582, 0.0], [0.0, -0.0, 12.36275891]], "pbc": [true, true, true], "a": 7.748990896320335, "b": 7.748990896320335, "c": 12.36275891, "alpha": 90.0, "beta": 90.0, "gamma": 133.0016930780851, "volume": 542.9016950266899}, "properties": {}, "sites": [{"species": [{"element": "La", "occu": 1}], "abc": [0.9949577700000001, 0.48689786, 0.37934941], "properties": {"magmom": 0.0}, "label": "La", "xyz": [4.578634428495734, -3.6104443371389765, 4.689805298480743]}, {"species": [{"element": "La", "occu": 1}], "abc": [0.00504223, 0.51310214, 0.87934941], "properties": {"magmom": 0.0}, "label": "La", "xyz": [1.6009613915042669, 3.610444337138976, 10.871184753480744]}, {"species": [{"element": "La", "occu": 1}], "abc": [0.51310214, 0.00504223, 0.12065059], "properties": {"magmom": 0.0}, "label": "La", "xyz": [1.6009613915042669, -3.610444337138976, 1.4915741565192568]}, {"species": [{"element": "La", "occu": 1}], "abc": [0.48689786, 0.9949577700000001, 0.62065059], "properties": {"magmom": 0.0}, "label": "La", "xyz": [4.578634428495734, 3.6104443371389765, 7.672953611519257]}, {"species": [{"element": "La", "occu": 1}], "abc": [0.49635383, 0.50364617, 0.25], "properties": {"magmom": -0.0}, "label": "La", "xyz": [3.08979791, 0.05182181695361887, 3.0906897275]}, {"species": [{"element": "La", "occu": 1}], "abc": [0.50364617, 0.49635383, 0.75], "properties": {"magmom": -0.0}, "label": "La", "xyz": [3.08979791, -0.05182181695361887, 9.272069182500001]}, {"species": [{"element": "La", "occu": 1}], "abc": [0.00546829, 0.00546829, 0.0], "properties": {"magmom": 0.0}, "label": "La", "xyz": [0.0337918220265478, 0.0, 0.0]}, {"species": [{"element": "La", "occu": 1}], "abc": [0.9945317100000001, 0.9945317100000001, 0.5], "properties": {"magmom": 0.0}, "label": "La", "xyz": [6.145803997973453, 0.0, 6.181379455]}, {"species": [{"element": "Ge", "occu": 1}], "abc": [0.92758533, 0.07241467, 0.25], "properties": {"magmom": 0.0}, "label": "Ge", "xyz": [3.08979791, -6.0771298933710405, 3.0906897275]}, {"species": [{"element": "Ge", "occu": 1}], "abc": [0.07241467, 0.92758533, 0.75], "properties": {"magmom": 0.0}, "label": "Ge", "xyz": [3.08979791, 6.0771298933710405, 9.272069182500001]}, {"species": [{"element": "Ge", "occu": 1}], "abc": [0.0729469, 0.41359589, 0.12693853], "properties": {"magmom": -0.0}, "label": "Ge", "xyz": [1.5033188956675692, 2.420766119683822, 1.5693104427798021]}, {"species": [{"element": "Ge", "occu": 1}], "abc": [0.9270531, 0.58640411, 0.62693853], "properties": {"magmom": -0.0}, "label": "Ge", "xyz": [4.676276924332432, -2.4207661196838215, 7.750689897779802]}, {"species": [{"element": "Ge", "occu": 1}], "abc": [0.58640411, 0.9270531, 0.37306147], "properties": {"magmom": -0.0}, "label": "Ge", "xyz": [4.676276924332432, 2.4207661196838215, 4.612069012220198]}, {"species": [{"element": "Ge", "occu": 1}], "abc": [0.41359589, 0.0729469, 0.87306147], "properties": {"magmom": -0.0}, "label": "Ge", "xyz": [1.5033188956675692, -2.420766119683822, 10.793448467220198]}, {"species": [{"element": "Ge", "occu": 1}], "abc": [0.95924005, 0.64845684, 0.151895199999999], "properties": {"magmom": 0.0}, "label": "Ge", "xyz": [4.9674584906355, -2.208529857477582, 1.8778437371862198]}, {"species": [{"element": "Ge", "occu": 1}], "abc": [0.04075995, 0.35154316, 0.6518952], "properties": {"magmom": 0.0}, "label": "Ge", "xyz": [1.2121373293645004, 2.2085298574775822, 8.059223192186233]}, {"species": [{"element": "Ge", "occu": 1}], "abc": [0.35154316, 0.04075995, 0.3481048], "properties": {"magmom": 0.0}, "label": "Ge", "xyz": [1.2121373293645004, -2.2085298574775822, 4.303535717813768]}, {"species": [{"element": "Ge", "occu": 1}], "abc": [0.64845684, 0.95924005, 0.8481048], "properties": {"magmom": 0.0}, "label": "Ge", "xyz": [4.9674584906355, 2.208529857477582, 10.484915172813768]}, {"species": [{"element": "Ge", "occu": 1}], "abc": [0.59548344, 0.42310562, 0.01020894], "properties": {"magmom": 0.0}, "label": "Ge", "xyz": [3.147234348736865, -1.2249746768395116, 0.1262106639466554]}, {"species": [{"element": "Ge", "occu": 1}], "abc": [0.40451656, 0.57689438, 0.51020894], "properties": {"magmom": 0.0}, "label": "Ge", "xyz": [3.032361471263136, 1.2249746768395124, 6.307590118946656]}, {"species": [{"element": "Ge", "occu": 1}], "abc": [0.57689438, 0.40451656, 0.48979106], "properties": {"magmom": 0.0}, "label": "Ge", "xyz": [3.032361471263136, -1.2249746768395124, 6.055168791053345]}, {"species": [{"element": "Ge", "occu": 1}], "abc": [0.42310562, 0.59548344, 0.9897910600000001], "properties": {"magmom": 0.0}, "label": "Ge", "xyz": [3.147234348736865, 1.2249746768395116, 12.236548246053346]}]}, "task_ids": null, "uncorrected_energy_per_atom": null, "energy_per_atom": -20.477931943636364, "formation_energy_per_atom": -0.8340261363636351, "energy_above_hull": 0.00101340181818, "is_stable": false, "equilibrium_reaction_energy_per_atom": null, "decomposes_to": null, "xas": null, "grain_boundaries": null, "band_gap": 0.0, "cbm": null, "vbm": null, "efermi": 7.35803595, "is_gap_direct": null, "is_metal": null, "es_source_calc_id": null, "bandstructure": null, "dos": null, "dos_energy_up": null, "dos_energy_down": null, "is_magnetic": null, "ordering": null, "total_magnetization": 9.400000000000001e-05, "total_magnetization_normalized_vol": null, "total_magnetization_normalized_formula_units": null, "num_magnetic_sites": null, "num_unique_magnetic_sites": null, "types_of_magnetic_species": null, "bulk_modulus": null, "shear_modulus": null, "universal_anisotropy": null, "homogeneous_poisson": null, "e_total": null, "e_ionic": null, "e_electronic": null, "n": null, "e_ij_max": null, "weighted_surface_energy_EV_PER_ANG2": null, "weighted_surface_energy": null, "weighted_work_function": null, "surface_anisotropy": null, "shape_factor": null, "has_reconstructed": null, "possible_species": null, "has_props": null, "theoretical": null, "database_IDs": null, "fields_not_requested": ["builder_meta", "nsites", "elements", "nelements", "composition", "composition_reduced", "chemsys", "symmetry", "property_name", "deprecated", "deprecation_reasons", "last_updated", "origins", "warnings", "task_ids", "uncorrected_energy_per_atom", "equilibrium_reaction_energy_per_atom", "decomposes_to", "xas", "grain_boundaries", "cbm", "vbm", "is_gap_direct", "is_metal", "es_source_calc_id", "bandstructure", "dos", "dos_energy_up", "dos_energy_down", "is_magnetic", "ordering", "total_magnetization_normalized_vol", "total_magnetization_normalized_formula_units", "num_magnetic_sites", "num_unique_magnetic_sites", "types_of_magnetic_species", "bulk_modulus", "shear_modulus", "universal_anisotropy", "homogeneous_poisson", "e_total", "e_ionic", "e_electronic", "n", "e_ij_max", "weighted_surface_energy_EV_PER_ANG2", "weighted_surface_energy", "weighted_work_function", "surface_anisotropy", "shape_factor", "has_reconstructed", "possible_species", "has_props", "theoretical", "database_IDs"]}