{
  "builder_meta": null,
  "nsites": null,
  "elements": null,
  "nelements": null,
  "composition": null,
  "composition_reduced": null,
  "formula_pretty": "La4Ir",
  "formula_anonymous": "AB4",
  "chemsys": null,
  "volume": 378.02083789993316,
  "density": 6.5700911233423245,
  "density_atomic": 37.80208378999332,
  "symmetry": null,
  "property_name": null,
  "material_id": "mp-1211489",
  "deprecated": null,
  "deprecation_reasons": null,
  "last_updated": null,
  "origins": null,
  "warnings": null,
  "structure": {
    "@module": "pymatgen.core.structure",
    "@class": "Structure",
    "charge": 0,
    "lattice": {
      "matrix": [
        [-5.738899, -5.738899, 0.0],
        [-5.738899, 0.0, -5.738899],
        [0.0, -5.738899, -5.738899]
      ],
      "pbc": [true, true, true],
      "a": 8.116028798889392,
      "b": 8.116028798889392,
      "c": 8.116028798889392,
      "alpha": 59.99999999999999,
      "beta": 59.99999999999999,
      "gamma": 59.99999999999999,
      "volume": 378.02083789993316
    },
    "properties": {},
    "sites": [
      {
        "species": [{ "element": "La", "occu": 1 }],
        "abc": [0.61395, 0.61395, 0.61395],
        "properties": { "magmom": 0.027 },
        "label": "La",
        "xyz": [-7.0467940821, -7.0467940821, -7.0467940821]
      },
      {
        "species": [{ "element": "La", "occu": 1 }],
        "abc": [0.15815, 0.61395, 0.61395],
        "properties": { "magmom": 0.027 },
        "label": "La",
        "xyz": [-4.4310039179, -4.4310039179, -7.0467940821]
      },
      {
        "species": [{ "element": "La", "occu": 1 }],
        "abc": [0.61395, 0.15815, 0.61395],
        "properties": { "magmom": 0.027 },
        "label": "La",
        "xyz": [-4.4310039179, -7.0467940821, -4.4310039179]
      },
      {
        "species": [{ "element": "La", "occu": 1 }],
        "abc": [0.5918500000000001, 0.13605, 0.13605],
        "properties": { "magmom": 0.027 },
        "label": "La",
        "xyz": [-4.1773445821, -4.1773445821, -1.5615544179]
      },
      {
        "species": [{ "element": "La", "occu": 1 }],
        "abc": [0.13605, 0.13605, 0.13605],
        "properties": { "magmom": 0.027 },
        "label": "La",
        "xyz": [-1.5615544179, -1.5615544179, -1.5615544179]
      },
      {
        "species": [{ "element": "La", "occu": 1 }],
        "abc": [0.61395, 0.61395, 0.15815],
        "properties": { "magmom": 0.027 },
        "label": "La",
        "xyz": [-7.0467940821, -4.4310039179, -4.4310039179]
      },
      {
        "species": [{ "element": "La", "occu": 1 }],
        "abc": [0.13605, 0.5918500000000001, 0.13605],
        "properties": { "magmom": 0.027 },
        "label": "La",
        "xyz": [-4.1773445821, -1.5615544179, -4.1773445821]
      },
      {
        "species": [{ "element": "La", "occu": 1 }],
        "abc": [0.13605, 0.13605, 0.5918500000000001],
        "properties": { "magmom": 0.027 },
        "label": "La",
        "xyz": [-1.5615544179, -4.1773445821, -4.1773445821]
      },
      {
        "species": [{ "element": "Ir", "occu": 1 }],
        "abc": [0.0, 0.0, 0.0],
        "properties": { "magmom": 0.016 },
        "label": "Ir",
        "xyz": [0.0, 0.0, 0.0]
      },
      {
        "species": [{ "element": "Ir", "occu": 1 }],
        "abc": [0.75, 0.75, 0.75],
        "properties": { "magmom": 0.016 },
        "label": "Ir",
        "xyz": [-8.6083485, -8.6083485, -8.6083485]
      }
    ]
  },
  "task_ids": null,
  "uncorrected_energy_per_atom": null,
  "energy_per_atom": -5.730383329,
  "formation_energy_per_atom": -0.013890809000001001,
  "energy_above_hull": 0.377109511,
  "is_stable": false,
  "equilibrium_reaction_energy_per_atom": null,
  "decomposes_to": null,
  "xas": null,
  "grain_boundaries": null,
  "band_gap": 0.0,
  "cbm": null,
  "vbm": null,
  "efermi": 6.55832654,
  "is_gap_direct": null,
  "is_metal": null,
  "es_source_calc_id": null,
  "bandstructure": null,
  "dos": null,
  "dos_energy_up": null,
  "dos_energy_down": null,
  "is_magnetic": null,
  "ordering": null,
  "total_magnetization": 0.5720117,
  "total_magnetization_normalized_vol": null,
  "total_magnetization_normalized_formula_units": null,
  "num_magnetic_sites": null,
  "num_unique_magnetic_sites": null,
  "types_of_magnetic_species": null,
  "bulk_modulus": null,
  "shear_modulus": null,
  "universal_anisotropy": null,
  "homogeneous_poisson": null,
  "e_total": null,
  "e_ionic": null,
  "e_electronic": null,
  "n": null,
  "e_ij_max": null,
  "weighted_surface_energy_EV_PER_ANG2": null,
  "weighted_surface_energy": null,
  "weighted_work_function": null,
  "surface_anisotropy": null,
  "shape_factor": null,
  "has_reconstructed": null,
  "possible_species": null,
  "has_props": null,
  "theoretical": null,
  "database_IDs": null,
  "fields_not_requested": [
    "builder_meta",
    "nsites",
    "elements",
    "nelements",
    "composition",
    "composition_reduced",
    "chemsys",
    "symmetry",
    "property_name",
    "deprecated",
    "deprecation_reasons",
    "last_updated",
    "origins",
    "warnings",
    "task_ids",
    "uncorrected_energy_per_atom",
    "equilibrium_reaction_energy_per_atom",
    "decomposes_to",
    "xas",
    "grain_boundaries",
    "cbm",
    "vbm",
    "is_gap_direct",
    "is_metal",
    "es_source_calc_id",
    "bandstructure",
    "dos",
    "dos_energy_up",
    "dos_energy_down",
    "is_magnetic",
    "ordering",
    "total_magnetization_normalized_vol",
    "total_magnetization_normalized_formula_units",
    "num_magnetic_sites",
    "num_unique_magnetic_sites",
    "types_of_magnetic_species",
    "bulk_modulus",
    "shear_modulus",
    "universal_anisotropy",
    "homogeneous_poisson",
    "e_total",
    "e_ionic",
    "e_electronic",
    "n",
    "e_ij_max",
    "weighted_surface_energy_EV_PER_ANG2",
    "weighted_surface_energy",
    "weighted_work_function",
    "surface_anisotropy",
    "shape_factor",
    "has_reconstructed",
    "possible_species",
    "has_props",
    "theoretical",
    "database_IDs"
  ]
}
