{"builder_meta": null, "nsites": null, "elements": null, "nelements": null, "composition": null, "composition_reduced": null, "formula_pretty": "La4Mg", "formula_anonymous": "AB4", "chemsys": null, "volume": 173.19243490955267, "density": 5.560238474124801, "density_atomic": 34.63848698191053, "symmetry": null, "property_name": null, "material_id": "mp-1222990", "deprecated": null, "deprecation_reasons": null, "last_updated": null, "origins": null, "warnings": null, "structure": {"@module": "pymatgen.core.structure", "@class": "Structure", "charge": 0, "lattice": {"matrix": [[-2.694409, -1.90691, 1.90691], [-2.694409, 1.90691, -1.90691], [2.694409, -8.427043, -8.427043]], "pbc": [true, true, true], "a": 3.8121452432299847, "b": 3.8121452432299847, "c": 12.218426547922569, "alpha": 98.96683603025166, "beta": 98.96683603025166, "gamma": 90.05035358242245, "volume": 173.19243490955267}, "properties": {}, "sites": [{"species": [{"element": "La", "occu": 1}], "abc": [0.588415, 0.588415, 0.17683000000000001], "properties": {"magmom": -0.0}, "label": "La", "xyz": [-2.694409, -1.49015401369, -1.49015401369]}, {"species": [{"element": "La", "occu": 1}], "abc": [0.193866999999999, 0.193866999999999, 0.387733999999999], "properties": {"magmom": -0.0}, "label": "La", "xyz": [2.886579864025407e-15, -3.2674510905619916, -3.2674510905619916]}, {"species": [{"element": "La", "occu": 1}], "abc": [0.806133, 0.806133, 0.612266], "properties": {"magmom": -0.0}, "label": "La", "xyz": [-2.6944090000000003, -5.159591909437999, -5.159591909437999]}, {"species": [{"element": "La", "occu": 1}], "abc": [0.411585, 0.411585, 0.8231700000000001], "properties": {"magmom": -0.0}, "label": "La", "xyz": [4.440892098500626e-16, -6.9368889863100005, -6.9368889863100005]}, {"species": [{"element": "Mg", "occu": 1}], "abc": [0.0, 0.0, 0.0], "properties": {"magmom": 0.0}, "label": "Mg", "xyz": [0.0, 0.0, 0.0]}]}, "task_ids": null, "uncorrected_energy_per_atom": null, "energy_per_atom": -4.29246502, "formation_energy_per_atom": -0.017565333000001, "energy_above_hull": 0.022756189999999003, "is_stable": false, "equilibrium_reaction_energy_per_atom": null, "decomposes_to": null, "xas": null, "grain_boundaries": null, "band_gap": 0.0, "cbm": null, "vbm": null, "efermi": 7.12890524, "is_gap_direct": null, "is_metal": null, "es_source_calc_id": null, "bandstructure": null, "dos": null, "dos_energy_up": null, "dos_energy_down": null, "is_magnetic": null, "ordering": null, "total_magnetization": 0.0010257, "total_magnetization_normalized_vol": null, "total_magnetization_normalized_formula_units": null, "num_magnetic_sites": null, "num_unique_magnetic_sites": null, "types_of_magnetic_species": null, "bulk_modulus": null, "shear_modulus": null, "universal_anisotropy": null, "homogeneous_poisson": null, "e_total": null, "e_ionic": null, "e_electronic": null, "n": null, "e_ij_max": null, "weighted_surface_energy_EV_PER_ANG2": null, "weighted_surface_energy": null, "weighted_work_function": null, "surface_anisotropy": null, "shape_factor": null, "has_reconstructed": null, "possible_species": null, "has_props": null, "theoretical": null, "database_IDs": null, "fields_not_requested": ["builder_meta", "nsites", "elements", "nelements", "composition", "composition_reduced", "chemsys", "symmetry", "property_name", "deprecated", "deprecation_reasons", "last_updated", "origins", "warnings", "task_ids", "uncorrected_energy_per_atom", "equilibrium_reaction_energy_per_atom", "decomposes_to", "xas", "grain_boundaries", "cbm", "vbm", "is_gap_direct", "is_metal", "es_source_calc_id", "bandstructure", "dos", "dos_energy_up", "dos_energy_down", "is_magnetic", "ordering", "total_magnetization_normalized_vol", "total_magnetization_normalized_formula_units", "num_magnetic_sites", "num_unique_magnetic_sites", "types_of_magnetic_species", "bulk_modulus", "shear_modulus", "universal_anisotropy", "homogeneous_poisson", "e_total", "e_ionic", "e_electronic", "n", "e_ij_max", "weighted_surface_energy_EV_PER_ANG2", "weighted_surface_energy", "weighted_work_function", "surface_anisotropy", "shape_factor", "has_reconstructed", "possible_species", "has_props", "theoretical", "database_IDs"]}