{"builder_meta": null, "nsites": null, "elements": null, "nelements": null, "composition": null, "composition_reduced": null, "formula_pretty": "La4Os", "formula_anonymous": "AB4", "chemsys": null, "volume": 376.7123952780961, "density": 6.575393855690676, "density_atomic": 37.67123952780961, "symmetry": null, "property_name": null, "material_id": "mp-1211568", "deprecated": null, "deprecation_reasons": null, "last_updated": null, "origins": null, "warnings": null, "structure": {"@module": "pymatgen.core.structure", "@class": "Structure", "charge": 0, "lattice": {"matrix": [[-5.73227, -5.73227, 0.0], [-5.73227, 0.0, -5.73227], [0.0, -5.73227, -5.73227]], "pbc": [true, true, true], "a": 8.10665397718442, "b": 8.10665397718442, "c": 8.10665397718442, "alpha": 59.99999999999999, "beta": 59.99999999999999, "gamma": 59.99999999999999, "volume": 376.7123952780961}, "properties": {}, "sites": [{"species": [{"element": "La", "occu": 1}], "abc": [0.616144, 0.616144, 0.616144], "properties": {"magmom": 0.028}, "label": "La", "xyz": [-7.06380753376, -7.06380753376, -7.06380753376]}, {"species": [{"element": "La", "occu": 1}], "abc": [0.151568999999999, 0.616144, 0.616144], "properties": {"magmom": 0.029}, "label": "La", "xyz": [-4.400738198509995, -4.400738198509995, -7.06380753376]}, {"species": [{"element": "La", "occu": 1}], "abc": [0.616144, 0.151568999999999, 0.616144], "properties": {"magmom": 0.028}, "label": "La", "xyz": [-4.400738198509995, -7.06380753376, -4.400738198509995]}, {"species": [{"element": "La", "occu": 1}], "abc": [0.598430999999999, 0.133856, 0.133856], "properties": {"magmom": 0.028}, "label": "La", "xyz": [-4.197666801489994, -4.197666801489994, -1.53459746624]}, {"species": [{"element": "La", "occu": 1}], "abc": [0.133856, 0.133856, 0.133856], "properties": {"magmom": 0.028}, "label": "La", "xyz": [-1.53459746624, -1.53459746624, -1.53459746624]}, {"species": [{"element": "La", "occu": 1}], "abc": [0.616144, 0.616144, 0.151568999999999], "properties": {"magmom": 0.028}, "label": "La", "xyz": [-7.06380753376, -4.400738198509995, -4.400738198509995]}, {"species": [{"element": "La", "occu": 1}], "abc": [0.133856, 0.598430999999999, 0.133856], "properties": {"magmom": 0.028}, "label": "La", "xyz": [-4.197666801489994, -1.53459746624, -4.197666801489994]}, {"species": [{"element": "La", "occu": 1}], "abc": [0.133856, 0.133856, 0.598430999999999], "properties": {"magmom": 0.028}, "label": "La", "xyz": [-1.53459746624, -4.197666801489994, -4.197666801489994]}, {"species": [{"element": "Os", "occu": 1}], "abc": [0.0, 0.0, 0.0], "properties": {"magmom": 0.012}, "label": "Os", "xyz": [0.0, 0.0, 0.0]}, {"species": [{"element": "Os", "occu": 1}], "abc": [0.75, 0.75, 0.75], "properties": {"magmom": 0.012}, "label": "Os", "xyz": [-8.598405, -8.598405, -8.598405]}]}, "task_ids": null, "uncorrected_energy_per_atom": null, "energy_per_atom": -5.936522764, "formation_energy_per_atom": 0.257756405999998, "energy_above_hull": 0.379376304999999, "is_stable": false, "equilibrium_reaction_energy_per_atom": null, "decomposes_to": null, "xas": null, "grain_boundaries": null, "band_gap": 0.0, "cbm": null, "vbm": null, "efermi": 6.49757701, "is_gap_direct": null, "is_metal": null, "es_source_calc_id": null, "bandstructure": null, "dos": null, "dos_energy_up": null, "dos_energy_down": null, "is_magnetic": null, "ordering": null, "total_magnetization": 0.5791111, "total_magnetization_normalized_vol": null, "total_magnetization_normalized_formula_units": null, "num_magnetic_sites": null, "num_unique_magnetic_sites": null, "types_of_magnetic_species": null, "bulk_modulus": null, "shear_modulus": null, "universal_anisotropy": null, "homogeneous_poisson": null, "e_total": null, "e_ionic": null, "e_electronic": null, "n": null, "e_ij_max": null, "weighted_surface_energy_EV_PER_ANG2": null, "weighted_surface_energy": null, "weighted_work_function": null, "surface_anisotropy": null, "shape_factor": null, "has_reconstructed": null, "possible_species": null, "has_props": null, "theoretical": null, "database_IDs": null, "fields_not_requested": ["builder_meta", "nsites", "elements", "nelements", "composition", "composition_reduced", "chemsys", "symmetry", "property_name", "deprecated", "deprecation_reasons", "last_updated", "origins", "warnings", "task_ids", "uncorrected_energy_per_atom", "equilibrium_reaction_energy_per_atom", "decomposes_to", "xas", "grain_boundaries", "cbm", "vbm", "is_gap_direct", "is_metal", "es_source_calc_id", "bandstructure", "dos", "dos_energy_up", "dos_energy_down", "is_magnetic", "ordering", "total_magnetization_normalized_vol", "total_magnetization_normalized_formula_units", "num_magnetic_sites", "num_unique_magnetic_sites", "types_of_magnetic_species", "bulk_modulus", "shear_modulus", "universal_anisotropy", "homogeneous_poisson", "e_total", "e_ionic", "e_electronic", "n", "e_ij_max", "weighted_surface_energy_EV_PER_ANG2", "weighted_surface_energy", "weighted_work_function", "surface_anisotropy", "shape_factor", "has_reconstructed", "possible_species", "has_props", "theoretical", "database_IDs"]}