{"builder_meta": null, "nsites": null, "elements": null, "nelements": null, "composition": null, "composition_reduced": null, "formula_pretty": "La4Pb3", "formula_anonymous": "A3B4", "chemsys": null, "volume": 488.9695222067358, "density": 7.9956841194277954, "density_atomic": 34.926394443338275, "symmetry": null, "property_name": null, "material_id": "mp-571336", "deprecated": null, "deprecation_reasons": null, "last_updated": null, "origins": null, "warnings": null, "structure": {"@module": "pymatgen.core.structure", "@class": "Structure", "charge": 0, "lattice": {"matrix": [[8.10447674, 1e-08, -2.86536455], [-4.05223734, 7.018682, -2.86536455], [1e-08, 2e-08, 8.59609572]], "pbc": [true, true, true], "a": 8.596095464430217, "b": 8.596094373679886, "c": 8.59609572, "alpha": 109.47121884698342, "beta": 109.47121629204442, "gamma": 109.47122055768003, "volume": 488.9695222067358}, "properties": {}, "sites": [{"species": [{"element": "La", "occu": 1}], "abc": [0.3627824, 0.5, -0.0], "properties": {"magmom": -0.0}, "label": "La", "xyz": [0.9140428524813764, 3.509341003627824, -2.47218610332392]}, {"species": [{"element": "La", "occu": 1}], "abc": [0.8627824, 0.5, -0.0], "properties": {"magmom": -0.0}, "label": "La", "xyz": [4.966281222481377, 3.509341008627824, -3.9048683783239198]}, {"species": [{"element": "La", "occu": 1}], "abc": [0.637217599999999, 0.637217599999999, 0.637217599999999], "properties": {"magmom": -0.0}, "label": "La", "xyz": [2.582158271465613, 4.472427718319722, 1.8258620407165091]}, {"species": [{"element": "La", "occu": 1}], "abc": [0.5, -0.0, 0.3627824], "properties": {"magmom": -0.0}, "label": "La", "xyz": [4.052238373627825, 1.2255648000000001e-08, 1.6858299609313279]}, {"species": [{"element": "La", "occu": 1}], "abc": [0.1372176, 0.1372176, 0.1372176], "properties": {"magmom": -0.0}, "label": "La", "xyz": [0.5560385664656161, 0.963086703319728, 0.3931787307165119]}, {"species": [{"element": "La", "occu": 1}], "abc": [0.0, 0.8627824, 0.5], "properties": {"magmom": -0.0}, "label": "La", "xyz": [-3.4961990525748154, 6.055595310796799, 1.8258617566760798]}, {"species": [{"element": "La", "occu": 1}], "abc": [0.5, -0.0, 0.8627824], "properties": {"magmom": -0.0}, "label": "La", "xyz": [4.052238378627824, 2.2255647999999998e-08, 5.983877820931326]}, {"species": [{"element": "La", "occu": 1}], "abc": [0.0, 0.3627824, 0.5], "properties": {"magmom": -0.0}, "label": "La", "xyz": [-1.4700803825748159, 2.5462543107968, 3.2585440316760796]}, {"species": [{"element": "Pb", "occu": 1}], "abc": [0.875, 0.125, 0.75], "properties": {"magmom": 0.0}, "label": "Pb", "xyz": [6.5848874875000005, 0.87733527375, 3.581707239999999]}, {"species": [{"element": "Pb", "occu": 1}], "abc": [0.75, 0.875, 0.125], "properties": {"magmom": 0.0}, "label": "Pb", "xyz": [2.5326498837500004, 6.14134676, -3.5817054287499994]}, {"species": [{"element": "Pb", "occu": 1}], "abc": [0.25, 0.625, 0.375], "properties": {"magmom": 0.0}, "label": "Pb", "xyz": [-0.5065291487499993, 4.38667626, 0.71634191375]}, {"species": [{"element": "Pb", "occu": 1}], "abc": [0.625, 0.375, 0.25], "properties": {"magmom": 0.0}, "label": "Pb", "xyz": [3.545708962500001, 2.6320057612500003, -0.71634062]}, {"species": [{"element": "Pb", "occu": 1}], "abc": [0.125, 0.75, 0.875], "properties": {"magmom": 0.0}, "label": "Pb", "xyz": [-2.02611840375, 5.26401151875, 5.014389773749999]}, {"species": [{"element": "Pb", "occu": 1}], "abc": [0.375, 0.25, 0.625], "properties": {"magmom": 0.0}, "label": "Pb", "xyz": [2.0261194487500003, 1.75467051625, 3.58170698125]}]}, "task_ids": null, "uncorrected_energy_per_atom": null, "energy_per_atom": -5.038184960714277, "formation_energy_per_atom": -0.6264750135714201, "energy_above_hull": 0.0, "is_stable": true, "equilibrium_reaction_energy_per_atom": null, "decomposes_to": null, "xas": null, "grain_boundaries": null, "band_gap": 0.0, "cbm": null, "vbm": null, "efermi": 7.31744567, "is_gap_direct": null, "is_metal": null, "es_source_calc_id": null, "bandstructure": null, "dos": null, "dos_energy_up": null, "dos_energy_down": null, "is_magnetic": null, "ordering": null, "total_magnetization": 0.0001, "total_magnetization_normalized_vol": null, "total_magnetization_normalized_formula_units": null, "num_magnetic_sites": null, "num_unique_magnetic_sites": null, "types_of_magnetic_species": null, "bulk_modulus": null, "shear_modulus": null, "universal_anisotropy": null, "homogeneous_poisson": null, "e_total": null, "e_ionic": null, "e_electronic": null, "n": null, "e_ij_max": null, "weighted_surface_energy_EV_PER_ANG2": null, "weighted_surface_energy": null, "weighted_work_function": null, "surface_anisotropy": null, "shape_factor": null, "has_reconstructed": null, "possible_species": null, "has_props": null, "theoretical": null, "database_IDs": null, "fields_not_requested": ["builder_meta", "nsites", "elements", "nelements", "composition", "composition_reduced", "chemsys", "symmetry", "property_name", "deprecated", "deprecation_reasons", "last_updated", "origins", "warnings", "task_ids", "uncorrected_energy_per_atom", "equilibrium_reaction_energy_per_atom", "decomposes_to", "xas", "grain_boundaries", "cbm", "vbm", "is_gap_direct", "is_metal", "es_source_calc_id", "bandstructure", "dos", "dos_energy_up", "dos_energy_down", "is_magnetic", "ordering", "total_magnetization_normalized_vol", "total_magnetization_normalized_formula_units", "num_magnetic_sites", "num_unique_magnetic_sites", "types_of_magnetic_species", "bulk_modulus", "shear_modulus", "universal_anisotropy", "homogeneous_poisson", "e_total", "e_ionic", "e_electronic", "n", "e_ij_max", "weighted_surface_energy_EV_PER_ANG2", "weighted_surface_energy", "weighted_work_function", "surface_anisotropy", "shape_factor", "has_reconstructed", "possible_species", "has_props", "theoretical", "database_IDs"]}