{"builder_meta": null, "nsites": null, "elements": null, "nelements": null, "composition": null, "composition_reduced": null, "formula_pretty": "La4Rh3", "formula_anonymous": "A3B4", "chemsys": null, "volume": 362.72527013765176, "density": 7.913800139742575, "density_atomic": 25.908947866975126, "symmetry": null, "property_name": null, "material_id": "mp-626", "deprecated": null, "deprecation_reasons": null, "last_updated": null, "origins": null, "warnings": null, "structure": {"@module": "pymatgen.core.structure", "@class": "Structure", "charge": 0, "lattice": {"matrix": [[7.33652406, -0.0, -2.59385309], [-3.668262539999999, 6.35361587, -2.59385309], [-1e-08, -2e-08, 7.78155718]], "pbc": [true, true, true], "a": 7.7815589142190165, "b": 7.781558875854223, "c": 7.78155718, "alpha": 109.4712217512554, "beta": 109.47122163429742, "gamma": 109.47122356332677, "volume": 362.72527013765176}, "properties": {}, "sites": [{"species": [{"element": "La", "occu": 1}], "abc": [0.39233773, 0.5, -0.0], "properties": {"magmom": -0.0}, "label": "La", "xyz": [1.0442639257907844, 3.176807935, -2.314592978284086]}, {"species": [{"element": "La", "occu": 1}], "abc": [0.6076622700000001, 0.6076622700000001, 0.6076622700000001], "properties": {"magmom": -0.0}, "label": "La", "xyz": [2.2290641161202283, 3.8608526301189796, 1.5761853867017699]}, {"species": [{"element": "La", "occu": 1}], "abc": [0.5, 0.0, 0.39233773], "properties": {"magmom": -0.0}, "label": "La", "xyz": [3.668262026076623, -7.8467546e-09, 1.7560719348664013]}, {"species": [{"element": "La", "occu": 1}], "abc": [0.0, 0.39233773, 0.5], "properties": {"magmom": -0.0}, "label": "La", "xyz": [-1.4391978029876338, 2.492763217727775, 2.8731121567159144]}, {"species": [{"element": "La", "occu": 1}], "abc": [0.5, 0.0, 0.89233773], "properties": {"magmom": -0.0}, "label": "La", "xyz": [3.668262021076623, -1.7846754600000002e-08, 5.6468505248664025]}, {"species": [{"element": "La", "occu": 1}], "abc": [0.0, 0.89233773, 0.5], "properties": {"magmom": -0.0}, "label": "La", "xyz": [-3.273329072987633, 5.669571152727775, 1.576185611715914]}, {"species": [{"element": "La", "occu": 1}], "abc": [0.89233773, 0.5, -0.0], "properties": {"magmom": -0.0}, "label": "La", "xyz": [4.7125259557907855, 3.176807935, -3.6115195232840858]}, {"species": [{"element": "La", "occu": 1}], "abc": [0.10766227, 0.10766227, 0.10766227], "properties": {"magmom": -0.0}, "label": "La", "xyz": [0.39493336112022787, 0.6840447051189795, 0.27925988670177004]}, {"species": [{"element": "Rh", "occu": 1}], "abc": [0.75, 0.875, 0.125], "properties": {"magmom": -0.0}, "label": "Rh", "xyz": [2.292663321250001, 5.55941388375, -3.2423166237500007]}, {"species": [{"element": "Rh", "occu": 1}], "abc": [0.625, 0.375, 0.25], "properties": {"magmom": -0.0}, "label": "Rh", "xyz": [3.209729082500001, 2.38260594625, -0.6484637950000001]}, {"species": [{"element": "Rh", "occu": 1}], "abc": [0.875, 0.125, 0.75], "properties": {"magmom": -0.0}, "label": "Rh", "xyz": [5.9609257275, 0.7942019687499999, 3.242314795]}, {"species": [{"element": "Rh", "occu": 1}], "abc": [0.125, 0.75, 0.875], "properties": {"magmom": -0.0}, "label": "Rh", "xyz": [-1.8341314062499992, 4.765211885, 4.53924107875]}, {"species": [{"element": "Rh", "occu": 1}], "abc": [0.375, 0.25, 0.625], "properties": {"magmom": -0.0}, "label": "Rh", "xyz": [1.8341308812500001, 1.588403955, 3.24231505625]}, {"species": [{"element": "Rh", "occu": 1}], "abc": [0.25, 0.625, 0.375], "properties": {"magmom": -0.0}, "label": "Rh", "xyz": [-0.4585330762499994, 3.9710099112499995, 0.6484624887499999]}]}, "task_ids": null, "uncorrected_energy_per_atom": null, "energy_per_atom": -6.68193776357143, "formation_energy_per_atom": -0.7052303307142881, "energy_above_hull": 0.0, "is_stable": true, "equilibrium_reaction_energy_per_atom": null, "decomposes_to": null, "xas": null, "grain_boundaries": null, "band_gap": 0.0, "cbm": null, "vbm": null, "efermi": 7.74629169, "is_gap_direct": null, "is_metal": null, "es_source_calc_id": null, "bandstructure": null, "dos": null, "dos_energy_up": null, "dos_energy_down": null, "is_magnetic": null, "ordering": null, "total_magnetization": 2e-06, "total_magnetization_normalized_vol": null, "total_magnetization_normalized_formula_units": null, "num_magnetic_sites": null, "num_unique_magnetic_sites": null, "types_of_magnetic_species": null, "bulk_modulus": null, "shear_modulus": null, "universal_anisotropy": null, "homogeneous_poisson": null, "e_total": null, "e_ionic": null, "e_electronic": null, "n": null, "e_ij_max": null, "weighted_surface_energy_EV_PER_ANG2": null, "weighted_surface_energy": null, "weighted_work_function": null, "surface_anisotropy": null, "shape_factor": null, "has_reconstructed": null, "possible_species": null, "has_props": null, "theoretical": null, "database_IDs": null, "fields_not_requested": ["builder_meta", "nsites", "elements", "nelements", "composition", "composition_reduced", "chemsys", "symmetry", "property_name", "deprecated", "deprecation_reasons", "last_updated", "origins", "warnings", "task_ids", "uncorrected_energy_per_atom", "equilibrium_reaction_energy_per_atom", "decomposes_to", "xas", "grain_boundaries", "cbm", "vbm", "is_gap_direct", "is_metal", "es_source_calc_id", "bandstructure", "dos", "dos_energy_up", "dos_energy_down", "is_magnetic", "ordering", "total_magnetization_normalized_vol", "total_magnetization_normalized_formula_units", "num_magnetic_sites", "num_unique_magnetic_sites", "types_of_magnetic_species", "bulk_modulus", "shear_modulus", "universal_anisotropy", "homogeneous_poisson", "e_total", "e_ionic", "e_electronic", "n", "e_ij_max", "weighted_surface_energy_EV_PER_ANG2", "weighted_surface_energy", "weighted_work_function", "surface_anisotropy", "shape_factor", "has_reconstructed", "possible_species", "has_props", "theoretical", "database_IDs"]}