{"builder_meta": null, "nsites": null, "elements": null, "nelements": null, "composition": null, "composition_reduced": null, "formula_pretty": "La4S7", "formula_anonymous": "A4B7", "chemsys": null, "volume": 267.9997314208804, "density": 4.833393404253677, "density_atomic": 24.363611947352762, "symmetry": null, "property_name": null, "material_id": "mp-1223154", "deprecated": null, "deprecation_reasons": null, "last_updated": null, "origins": null, "warnings": null, "structure": {"@module": "pymatgen.core.structure", "@class": "Structure", "charge": 0, "lattice": {"matrix": [[-2.884312, 2.884312, 8.053597], [2.884312, -2.884312, 8.053597], [2.884312, 2.884312, -8.053597]], "pbc": [true, true, true], "a": 9.027676116537245, "b": 9.027676116537245, "c": 9.027676116537245, "alpha": 142.73502940574056, "beta": 142.73502940574056, "gamma": 53.72314000567398, "volume": 267.9997314208804}, "properties": {}, "sites": [{"species": [{"element": "La", "occu": 1}], "abc": [0.109065, 0.619966, 0.0], "properties": {"magmom": -0.0}, "label": "La", "xyz": [1.473597885112, -1.473597885112, 5.871321874507]}, {"species": [{"element": "La", "occu": 1}], "abc": [0.619966, 0.109065, 0.0], "properties": {"magmom": -0.001}, "label": "La", "xyz": [-1.473597885112, 1.473597885112, 5.871321874507]}, {"species": [{"element": "La", "occu": 1}], "abc": [0.380034, 0.380034, 0.48909899999999906], "properties": {"magmom": -0.0}, "label": "La", "xyz": [1.4107141148879974, 1.4107141148879974, 2.182275125493007]}, {"species": [{"element": "La", "occu": 1}], "abc": [0.890934999999999, 0.890934999999999, 0.510900999999999], "properties": {"magmom": 0.0}, "label": "La", "xyz": [1.4735978851119973, 1.4735978851119973, 10.235872125492993]}, {"species": [{"element": "S", "occu": 1}], "abc": [0.43804000000000004, 0.923063, 0.0], "properties": {"magmom": 0.001}, "label": "S", "xyz": [1.3989576591759996, -1.3989576591759996, 10.961775037491]}, {"species": [{"element": "S", "occu": 1}], "abc": [0.923063, 0.43804000000000004, 0.0], "properties": {"magmom": 0.005}, "label": "S", "xyz": [-1.3989576591759996, 1.3989576591759996, 10.961775037491]}, {"species": [{"element": "S", "occu": 1}], "abc": [0.076936999999999, 0.076936999999999, 0.514976], "properties": {"magmom": 0.004}, "label": "S", "xyz": [1.485351456512, 1.485351456512, -2.9081699838940156]}, {"species": [{"element": "S", "occu": 1}], "abc": [0.56196, 0.56196, 0.485023999999999], "properties": {"magmom": 0.0}, "label": "S", "xyz": [1.398960543487997, 1.398960543487997, 5.145410908912007]}, {"species": [{"element": "S", "occu": 1}], "abc": [0.5, 0.0, 0.5], "properties": {"magmom": -0.029}, "label": "S", "xyz": [0.0, 2.884312, 0.0]}, {"species": [{"element": "S", "occu": 1}], "abc": [0.0, 0.5, 0.5], "properties": {"magmom": -0.051000000000000004}, "label": "S", "xyz": [2.884312, 0.0, 0.0]}, {"species": [{"element": "S", "occu": 1}], "abc": [0.0, 0.0, 0.0], "properties": {"magmom": -0.076}, "label": "S", "xyz": [0.0, 0.0, 0.0]}]}, "task_ids": null, "uncorrected_energy_per_atom": null, "energy_per_atom": -18.157425971420455, "formation_energy_per_atom": -2.227961026392044, "energy_above_hull": 0.08027549068181701, "is_stable": false, "equilibrium_reaction_energy_per_atom": null, "decomposes_to": null, "xas": null, "grain_boundaries": null, "band_gap": 0.0, "cbm": null, "vbm": null, "efermi": 6.5167949400000005, "is_gap_direct": null, "is_metal": null, "es_source_calc_id": null, "bandstructure": null, "dos": null, "dos_energy_up": null, "dos_energy_down": null, "is_magnetic": null, "ordering": null, "total_magnetization": 0.2050775, "total_magnetization_normalized_vol": null, "total_magnetization_normalized_formula_units": null, "num_magnetic_sites": null, "num_unique_magnetic_sites": null, "types_of_magnetic_species": null, "bulk_modulus": null, "shear_modulus": null, "universal_anisotropy": null, "homogeneous_poisson": null, "e_total": null, "e_ionic": null, "e_electronic": null, "n": null, "e_ij_max": null, "weighted_surface_energy_EV_PER_ANG2": null, "weighted_surface_energy": null, "weighted_work_function": null, "surface_anisotropy": null, "shape_factor": null, "has_reconstructed": null, "possible_species": null, "has_props": null, "theoretical": null, "database_IDs": null, "fields_not_requested": ["builder_meta", "nsites", "elements", "nelements", "composition", "composition_reduced", "chemsys", "symmetry", "property_name", "deprecated", "deprecation_reasons", "last_updated", "origins", "warnings", "task_ids", "uncorrected_energy_per_atom", "equilibrium_reaction_energy_per_atom", "decomposes_to", "xas", "grain_boundaries", "cbm", "vbm", "is_gap_direct", "is_metal", "es_source_calc_id", "bandstructure", "dos", "dos_energy_up", "dos_energy_down", "is_magnetic", "ordering", "total_magnetization_normalized_vol", "total_magnetization_normalized_formula_units", "num_magnetic_sites", "num_unique_magnetic_sites", "types_of_magnetic_species", "bulk_modulus", "shear_modulus", "universal_anisotropy", "homogeneous_poisson", "e_total", "e_ionic", "e_electronic", "n", "e_ij_max", "weighted_surface_energy_EV_PER_ANG2", "weighted_surface_energy", "weighted_work_function", "surface_anisotropy", "shape_factor", "has_reconstructed", "possible_species", "has_props", "theoretical", "database_IDs"]}