{"builder_meta": null, "nsites": null, "elements": null, "nelements": null, "composition": null, "composition_reduced": null, "formula_pretty": "La4Sb3", "formula_anonymous": "A3B4", "chemsys": null, "volume": 459.2382611593005, "density": 6.659695750894496, "density_atomic": 32.80273293995004, "symmetry": null, "property_name": null, "material_id": "mp-1223", "deprecated": null, "deprecation_reasons": null, "last_updated": null, "origins": null, "warnings": null, "structure": {"@module": "pymatgen.core.structure", "@class": "Structure", "charge": 0, "lattice": {"matrix": [[7.93676902, 1e-08, -2.8060699], [-3.96838349, 6.87344349, -2.8060699], [2e-08, 4e-08, 8.41821385]], "pbc": [true, true, true], "a": 8.418214226337899, "b": 8.418213659536919, "c": 8.41821385, "alpha": 109.47121093877251, "beta": 109.47120960644283, "gamma": 109.47122588909619, "volume": 459.2382611593005}, "properties": {}, "sites": [{"species": [{"element": "La", "occu": 1}], "abc": [0.35929679999999903, 0.5, -0.0], "properties": {"magmom": -0.0}, "label": "La", "xyz": [0.8674639662251282, 3.436721748592968, -2.4112468856463174]}, {"species": [{"element": "La", "occu": 1}], "abc": [0.640703199999999, 0.640703199999999, 0.640703199999999], "properties": {"magmom": -0.0}, "label": "La", "xyz": [2.542557320718756, 4.403837271097322, 1.797860623271958]}, {"species": [{"element": "La", "occu": 1}], "abc": [0.5, -0.0, 0.35929679999999903], "properties": {"magmom": -0.0}, "label": "La", "xyz": [3.9683845171859358, 1.9371871999999962e-08, 1.621602348020672]}, {"species": [{"element": "La", "occu": 1}], "abc": [0.0, 0.35929679999999903, 0.5], "properties": {"magmom": -0.0}, "label": "La", "xyz": [-1.4258274791298282, 2.4696062709378253, 3.2008949893536833]}, {"species": [{"element": "La", "occu": 1}], "abc": [0.5, -0.0, 0.8592968], "properties": {"magmom": -0.0}, "label": "La", "xyz": [3.9683845271859357, 3.9371871999999996e-08, 5.83070927302068]}, {"species": [{"element": "La", "occu": 1}], "abc": [0.0, 0.8592968, 0.5], "properties": {"magmom": -0.0}, "label": "La", "xyz": [-3.4100192241298317, 5.906328015937832, 1.7978600393536808]}, {"species": [{"element": "La", "occu": 1}], "abc": [0.8592968, 0.5, -0.0], "properties": {"magmom": -0.0}, "label": "La", "xyz": [4.835848476225136, 3.436721753592968, -3.8142818356463195]}, {"species": [{"element": "La", "occu": 1}], "abc": [0.1407032, 0.1407032, 0.1407032], "properties": {"magmom": -0.0}, "label": "La", "xyz": [0.5583645457187599, 0.9671155010973279, 0.3948235982719601]}, {"species": [{"element": "Sb", "occu": 1}], "abc": [0.75, 0.875, 0.125], "properties": {"magmom": 0.0}, "label": "Sb", "xyz": [2.4802412137500003, 6.01426306625, -3.5075868562499988]}, {"species": [{"element": "Sb", "occu": 1}], "abc": [0.625, 0.375, 0.25], "properties": {"magmom": 0.0}, "label": "Sb", "xyz": [3.47233683375, 2.577541325, -0.7015164374999996]}, {"species": [{"element": "Sb", "occu": 1}], "abc": [0.875, 0.125, 0.75], "properties": {"magmom": 0.0}, "label": "Sb", "xyz": [6.44862497125, 0.8591804749999999, 3.507590487500001]}, {"species": [{"element": "Sb", "occu": 1}], "abc": [0.125, 0.75, 0.875], "properties": {"magmom": 0.0}, "label": "Sb", "xyz": [-1.9841914724999998, 5.15508265375, 4.910625956250001]}, {"species": [{"element": "Sb", "occu": 1}], "abc": [0.375, 0.25, 0.625], "properties": {"magmom": 0.0}, "label": "Sb", "xyz": [1.9841925224999999, 1.71836090125, 3.5075899687500005]}, {"species": [{"element": "Sb", "occu": 1}], "abc": [0.25, 0.625, 0.375], "properties": {"magmom": 0.0}, "label": "Sb", "xyz": [-0.4960474187500001, 4.29590219875, 0.7015190312500001]}]}, "task_ids": null, "uncorrected_energy_per_atom": null, "energy_per_atom": -29.345000997142854, "formation_energy_per_atom": -1.330991281428566, "energy_above_hull": 0.005947330000005, "is_stable": false, "equilibrium_reaction_energy_per_atom": null, "decomposes_to": null, "xas": null, "grain_boundaries": null, "band_gap": 0.0, "cbm": null, "vbm": null, "efermi": 8.00969873, "is_gap_direct": null, "is_metal": null, "es_source_calc_id": null, "bandstructure": null, "dos": null, "dos_energy_up": null, "dos_energy_down": null, "is_magnetic": null, "ordering": null, "total_magnetization": 0.00013000000000000002, "total_magnetization_normalized_vol": null, "total_magnetization_normalized_formula_units": null, "num_magnetic_sites": null, "num_unique_magnetic_sites": null, "types_of_magnetic_species": null, "bulk_modulus": null, "shear_modulus": null, "universal_anisotropy": null, "homogeneous_poisson": null, "e_total": null, "e_ionic": null, "e_electronic": null, "n": null, "e_ij_max": null, "weighted_surface_energy_EV_PER_ANG2": null, "weighted_surface_energy": null, "weighted_work_function": null, "surface_anisotropy": null, "shape_factor": null, "has_reconstructed": null, "possible_species": null, "has_props": null, "theoretical": null, "database_IDs": null, "fields_not_requested": ["builder_meta", "nsites", "elements", "nelements", "composition", "composition_reduced", "chemsys", "symmetry", "property_name", "deprecated", "deprecation_reasons", "last_updated", "origins", "warnings", "task_ids", "uncorrected_energy_per_atom", "equilibrium_reaction_energy_per_atom", "decomposes_to", "xas", "grain_boundaries", "cbm", "vbm", "is_gap_direct", "is_metal", "es_source_calc_id", "bandstructure", "dos", "dos_energy_up", "dos_energy_down", "is_magnetic", "ordering", "total_magnetization_normalized_vol", "total_magnetization_normalized_formula_units", "num_magnetic_sites", "num_unique_magnetic_sites", "types_of_magnetic_species", "bulk_modulus", "shear_modulus", "universal_anisotropy", "homogeneous_poisson", "e_total", "e_ionic", "e_electronic", "n", "e_ij_max", "weighted_surface_energy_EV_PER_ANG2", "weighted_surface_energy", "weighted_work_function", "surface_anisotropy", "shape_factor", "has_reconstructed", "possible_species", "has_props", "theoretical", "database_IDs"]}