{
  "builder_meta": null,
  "nsites": null,
  "elements": null,
  "nelements": null,
  "composition": null,
  "composition_reduced": null,
  "formula_pretty": "La5Bi3",
  "formula_anonymous": "A3B5",
  "chemsys": null,
  "volume": 555.0061085288589,
  "density": 7.9074810847569434,
  "density_atomic": 34.68788178305368,
  "symmetry": null,
  "property_name": null,
  "material_id": "mp-1105962",
  "deprecated": null,
  "deprecation_reasons": null,
  "last_updated": null,
  "origins": null,
  "warnings": null,
  "structure": {
    "@module": "pymatgen.core.structure",
    "@class": "Structure",
    "charge": 0,
    "lattice": {
      "matrix": [
        [0.0, 0.0, -6.75129204],
        [-4.87112603, -8.43692597, 0.0],
        [-4.87225832, 8.43757862, 0.0]
      ],
      "pbc": [true, true, true],
      "a": 6.75129204,
      "b": 9.742155235029054,
      "c": 9.743286617229852,
      "alpha": 119.99549505160299,
      "beta": 90.0,
      "gamma": 90.0,
      "volume": 555.0061085288589
    },
    "properties": {},
    "sites": [
      {
        "species": [{ "element": "La", "occu": 1 }],
        "abc": [0.500001799999999, 0.33333266, 0.66667737],
        "properties": { "magmom": 0.252 },
        "label": "La",
        "xyz": [-4.871929759513359, 2.81283974774665, -3.375658172325666]
      },
      {
        "species": [{ "element": "La", "occu": 1 }],
        "abc": [0.50000201, 0.66666507, 0.33332185000000003],
        "properties": { "magmom": 0.252 },
        "label": "La",
        "xyz": [-4.871439732669064, -2.812174527236021, -3.3756595900970003]
      },
      {
        "species": [{ "element": "La", "occu": 1 }],
        "abc": [2.8e-6, 0.66666734, 0.33332263],
        "properties": { "magmom": 0.252 },
        "label": "La",
        "xyz": [-4.871454590486643, -2.8121870977466497, -1.8903617711999998e-5]
      },
      {
        "species": [{ "element": "La", "occu": 1 }],
        "abc": [2.01e-6, 0.33333493000000003, 0.66667815],
        "properties": { "magmom": 0.252 },
        "label": "La",
        "xyz": [-4.871944617330936, 2.81282717723602, -1.3570097000399999e-5]
      },
      {
        "species": [{ "element": "La", "occu": 1 }],
        "abc": [0.75000233, 0.25210052, 0.9999961900000001],
        "properties": { "magmom": 0.083 },
        "label": "La",
        "xyz": [-6.100253161844337, 6.310593048586954, -5.063484760510454]
      },
      {
        "species": [{ "element": "La", "occu": 1 }],
        "abc": [0.74999816, 0.74772542, 0.74778711],
        "properties": { "magmom": 0.083 },
        "label": "La",
        "xyz": [-7.285676724940938, 0.0010085172204306048, -5.063456607622646]
      },
      {
        "species": [{ "element": "La", "occu": 1 }],
        "abc": [0.74999596, 0.99993433, 0.25220274],
        "properties": { "magmom": 0.083 },
        "label": "La",
        "xyz": [-6.099603041445406, -6.308391470142132, -5.0634417547801585]
      },
      {
        "species": [{ "element": "La", "occu": 1 }],
        "abc": [0.25000233, 0.7478994800000001, 3.81e-6],
        "properties": { "magmom": 0.083 },
        "label": "La",
        "xyz": [-3.643131188155664, -6.309940398586955, -1.6878387405104531]
      },
      {
        "species": [{ "element": "La", "occu": 1 }],
        "abc": [0.24999916, 0.25227458, 0.25221289],
        "properties": { "magmom": 0.083 },
        "label": "La",
        "xyz": [
          -2.4577076250590624, -0.00035586722043090546, -1.6878173389146864
        ]
      },
      {
        "species": [{ "element": "La", "occu": 1 }],
        "abc": [0.24999696000000002, 6.567000000000001e-5, 0.74779726],
        "properties": { "magmom": 0.083 },
        "label": "La",
        "xyz": [-3.6437813085545936, 6.309044120142131, -1.6878024860721985]
      },
      {
        "species": [{ "element": "Bi", "occu": 1 }],
        "abc": [0.74999929, 0.61561694, -2.5e-7],
        "properties": { "magmom": -0.038 },
        "label": "Bi",
        "xyz": [-2.9987464828783685, -5.193916658052587, -5.063464236582652]
      },
      {
        "species": [{ "element": "Bi", "occu": 1 }],
        "abc": [0.74999883, 0.38424699, 0.38427129],
        "properties": { "magmom": -0.038 },
        "label": "Bi",
        "xyz": [-3.7439845047777824, 0.00045581195848898304, -5.063461130988313]
      },
      {
        "species": [{ "element": "Bi", "occu": 1 }],
        "abc": [0.7499986200000001, 0.99997282, 0.6157226],
        "properties": { "magmom": -0.038 },
        "label": "Bi",
        "xyz": [-7.870953193456536, -3.241488808741324, -5.063459713216985]
      },
      {
        "species": [{ "element": "Bi", "occu": 1 }],
        "abc": [0.24999929, 0.38438306, 2.5e-7],
        "properties": { "magmom": -0.038 },
        "label": "Bi",
        "xyz": [-1.872379547121632, -3.2430093119474135, -1.6878182165826516]
      },
      {
        "species": [{ "element": "Bi", "occu": 1 }],
        "abc": [0.24999883, 0.61575401, 0.6157287100000001],
        "properties": { "magmom": -0.038 },
        "label": "Bi",
        "xyz": [
          -5.9994047163482485, 0.00018840111554130345, -1.6878151109883133
        ]
      },
      {
        "species": [{ "element": "Bi", "occu": 1 }],
        "abc": [0.24999862, 2.718e-5, 0.3842774],
        "properties": { "magmom": -0.038 },
        "label": "Bi",
        "xyz": [-1.8724311565434635, 3.2421414587413233, -1.687813693216985]
      }
    ]
  },
  "task_ids": null,
  "uncorrected_energy_per_atom": null,
  "energy_per_atom": -41.520791320625,
  "formation_energy_per_atom": -0.9919510381250021,
  "energy_above_hull": 0.014025375624996,
  "is_stable": false,
  "equilibrium_reaction_energy_per_atom": null,
  "decomposes_to": null,
  "xas": null,
  "grain_boundaries": null,
  "band_gap": 0.0,
  "cbm": null,
  "vbm": null,
  "efermi": 7.53240176,
  "is_gap_direct": null,
  "is_metal": null,
  "es_source_calc_id": null,
  "bandstructure": null,
  "dos": null,
  "dos_energy_up": null,
  "dos_energy_down": null,
  "is_magnetic": null,
  "ordering": null,
  "total_magnetization": 3.065841,
  "total_magnetization_normalized_vol": null,
  "total_magnetization_normalized_formula_units": null,
  "num_magnetic_sites": null,
  "num_unique_magnetic_sites": null,
  "types_of_magnetic_species": null,
  "bulk_modulus": null,
  "shear_modulus": null,
  "universal_anisotropy": null,
  "homogeneous_poisson": null,
  "e_total": null,
  "e_ionic": null,
  "e_electronic": null,
  "n": null,
  "e_ij_max": null,
  "weighted_surface_energy_EV_PER_ANG2": null,
  "weighted_surface_energy": null,
  "weighted_work_function": null,
  "surface_anisotropy": null,
  "shape_factor": null,
  "has_reconstructed": null,
  "possible_species": null,
  "has_props": null,
  "theoretical": null,
  "database_IDs": null,
  "fields_not_requested": [
    "builder_meta",
    "nsites",
    "elements",
    "nelements",
    "composition",
    "composition_reduced",
    "chemsys",
    "symmetry",
    "property_name",
    "deprecated",
    "deprecation_reasons",
    "last_updated",
    "origins",
    "warnings",
    "task_ids",
    "uncorrected_energy_per_atom",
    "equilibrium_reaction_energy_per_atom",
    "decomposes_to",
    "xas",
    "grain_boundaries",
    "cbm",
    "vbm",
    "is_gap_direct",
    "is_metal",
    "es_source_calc_id",
    "bandstructure",
    "dos",
    "dos_energy_up",
    "dos_energy_down",
    "is_magnetic",
    "ordering",
    "total_magnetization_normalized_vol",
    "total_magnetization_normalized_formula_units",
    "num_magnetic_sites",
    "num_unique_magnetic_sites",
    "types_of_magnetic_species",
    "bulk_modulus",
    "shear_modulus",
    "universal_anisotropy",
    "homogeneous_poisson",
    "e_total",
    "e_ionic",
    "e_electronic",
    "n",
    "e_ij_max",
    "weighted_surface_energy_EV_PER_ANG2",
    "weighted_surface_energy",
    "weighted_work_function",
    "surface_anisotropy",
    "shape_factor",
    "has_reconstructed",
    "possible_species",
    "has_props",
    "theoretical",
    "database_IDs"
  ]
}
