{"builder_meta": null, "nsites": null, "elements": null, "nelements": null, "composition": null, "composition_reduced": null, "formula_pretty": "La5Ge3", "formula_anonymous": "A3B5", "chemsys": null, "volume": 490.2237736429053, "density": 6.181480998489194, "density_atomic": 30.638985852681582, "symmetry": null, "property_name": null, "material_id": "mp-1188469", "deprecated": null, "deprecation_reasons": null, "last_updated": null, "origins": null, "warnings": null, "structure": {"@module": "pymatgen.core.structure", "@class": "Structure", "charge": 0, "lattice": {"matrix": [[-4.8570000000000004e-05, 4.2430000000000005e-05, -6.96326086], [-4.50811651, -7.80821449, 1.6830000000000003e-05], [-4.50819293, 7.80825622, -2.7330000000000004e-05]], "pbc": [true, true, true], "a": 6.963260860298663, "b": 9.016170361626036, "c": 9.016244711187557, "alpha": 119.9992522474984, "beta": 89.99932414700018, "gamma": 90.00020947720921, "volume": 490.2237736429053}, "properties": {}, "sites": [{"species": [{"element": "La", "occu": 1}], "abc": [0.49999159, 0.33335212000000003, 0.66664713], "properties": {"magmom": -0.14400000000000002}, "label": "La", "xyz": [-4.508188358677819, 2.6024879603545927, -3.4815844781260505]}, {"species": [{"element": "La", "occu": 1}], "abc": [0.49999143, 0.66664555, 0.33333725000000003], "properties": {"magmom": -0.14300000000000002}, "label": "La", "xyz": [-4.508088728612428, -2.6025075728974505, -3.481568645316866]}, {"species": [{"element": "La", "occu": 1}], "abc": [1.0260000000000002e-05, 0.66667441, 0.33332556], "properties": {"magmom": -0.14300000000000002}, "label": "La", "xyz": [-4.508141847994128, -2.602845410683886, -6.933271365810002e-05]}, {"species": [{"element": "La", "occu": 1}], "abc": [8.56e-06, 0.33332773, 0.66666208], "properties": {"magmom": -0.14400000000000002}, "label": "La", "xyz": [-4.508121519024676, 2.602773921856531, -7.22154819121e-05]}, {"species": [{"element": "La", "occu": 1}], "abc": [0.7499975, 0.24947823, 2.086e-05], "properties": {"magmom": -0.10200000000000001}, "label": "La", "xyz": [-1.124807395831672, -1.9477848278068783, -5.222424038699343]}, {"species": [{"element": "La", "occu": 1}], "abc": [0.75000689, 0.75060383, 0.75056578], "properties": {"magmom": -0.10200000000000001}, "label": "La", "xyz": [-6.767541289222816, -0.0002339586590025533, -5.222501502167634]}, {"species": [{"element": "La", "occu": 1}], "abc": [0.74998625, -4.193e-05, 0.24948225000000002], "properties": {"magmom": -0.101}, "label": "La", "xyz": [-1.1245615171173906, 1.9483805506922482, -5.222356719218749]}, {"species": [{"element": "La", "occu": 1}], "abc": [0.25000493, 0.75056243, 2.7980000000000003e-05], "properties": {"magmom": -0.101}, "label": "La", "xyz": [-3.3837611644463506, -5.8603233588573955, -1.7408369126750363]}, {"species": [{"element": "La", "occu": 1}], "abc": [0.24998395, 0.24945646000000002, 0.24943955], "properties": {"magmom": -0.101}, "label": "La", "xyz": [-2.2491125433449874, -0.00011102097560611313, -1.7407060734938768]}, {"species": [{"element": "La", "occu": 1}], "abc": [0.25001575, -4.9350000000000034e-05, 0.75051174], "properties": {"magmom": -0.101}, "label": "La", "xyz": [-3.383241387865207, 5.860583905591376, -1.7409453986749597]}, {"species": [{"element": "Ge", "occu": 1}], "abc": [0.74999253, 0.60829972, 2.5760000000000004e-05], "properties": {"magmom": 0.022}, "label": "Ge", "xyz": [-2.742438568947436, -4.749501725103668, -5.222383392461109]}, {"species": [{"element": "Ge", "occu": 1}], "abc": [0.75002106, 0.39174138000000003, 0.39172451], "properties": {"magmom": 0.022}, "label": "Ge", "xyz": [-3.5320218778407826, -8.35545210682298e-05, -5.222596404097144]}, {"species": [{"element": "Ge", "occu": 1}], "abc": [0.74998739, -5.1550000000000006e-05, 0.60824387], "properties": {"magmom": 0.022}, "label": "Ge", "xyz": [-2.7418847479312807, 4.749758316626289, -5.22237446245311]}, {"species": [{"element": "Ge", "occu": 1}], "abc": [0.25000648000000003, 0.39175479, 2.8730000000000004e-05], "properties": {"magmom": 0.022}, "label": "Ge", "xyz": [-1.7662178998681952, -3.0586704888287604, -1.7408537444824481]}, {"species": [{"element": "Ge", "occu": 1}], "abc": [0.24998158, 0.60828644, 0.60825689], "properties": {"magmom": 0.022}, "label": "Ge", "xyz": [-5.484377695700253, -0.00019474345972003704, -1.7406933379349774]}, {"species": [{"element": "Ge", "occu": 1}], "abc": [0.25001485, -4.4250000000000005e-05, 0.39169905], "properties": {"magmom": 0.022}, "label": "Ge", "xyz": [-1.7656675469634135, 3.058842665151859, -1.740929325303535]}]}, "task_ids": null, "uncorrected_energy_per_atom": null, "energy_per_atom": -24.613165785625, "formation_energy_per_atom": -0.820686564999999, "energy_above_hull": 0.0, "is_stable": true, "equilibrium_reaction_energy_per_atom": null, "decomposes_to": null, "xas": null, "grain_boundaries": null, "band_gap": 0.0, "cbm": null, "vbm": null, "efermi": 6.67435076, "is_gap_direct": null, "is_metal": null, "es_source_calc_id": null, "bandstructure": null, "dos": null, "dos_energy_up": null, "dos_energy_down": null, "is_magnetic": null, "ordering": null, "total_magnetization": 2.656796, "total_magnetization_normalized_vol": null, "total_magnetization_normalized_formula_units": null, "num_magnetic_sites": null, "num_unique_magnetic_sites": null, "types_of_magnetic_species": null, "bulk_modulus": null, "shear_modulus": null, "universal_anisotropy": null, "homogeneous_poisson": null, "e_total": null, "e_ionic": null, "e_electronic": null, "n": null, "e_ij_max": null, "weighted_surface_energy_EV_PER_ANG2": null, "weighted_surface_energy": null, "weighted_work_function": null, "surface_anisotropy": null, "shape_factor": null, "has_reconstructed": null, "possible_species": null, "has_props": null, "theoretical": null, "database_IDs": null, "fields_not_requested": ["builder_meta", "nsites", "elements", "nelements", "composition", "composition_reduced", "chemsys", "symmetry", "property_name", "deprecated", "deprecation_reasons", "last_updated", "origins", "warnings", "task_ids", "uncorrected_energy_per_atom", "equilibrium_reaction_energy_per_atom", "decomposes_to", "xas", "grain_boundaries", "cbm", "vbm", "is_gap_direct", "is_metal", "es_source_calc_id", "bandstructure", "dos", "dos_energy_up", "dos_energy_down", "is_magnetic", "ordering", "total_magnetization_normalized_vol", "total_magnetization_normalized_formula_units", "num_magnetic_sites", "num_unique_magnetic_sites", "types_of_magnetic_species", "bulk_modulus", "shear_modulus", "universal_anisotropy", "homogeneous_poisson", "e_total", "e_ionic", "e_electronic", "n", "e_ij_max", "weighted_surface_energy_EV_PER_ANG2", "weighted_surface_energy", "weighted_work_function", "surface_anisotropy", "shape_factor", "has_reconstructed", "possible_species", "has_props", "theoretical", "database_IDs"]}