{
  "builder_meta": null,
  "nsites": null,
  "elements": null,
  "nelements": null,
  "composition": null,
  "composition_reduced": null,
  "formula_pretty": "La5Ga3",
  "formula_anonymous": "A3B5",
  "chemsys": null,
  "volume": 961.0713945085424,
  "density": 6.24562588000527,
  "density_atomic": 30.03348107839195,
  "symmetry": null,
  "property_name": null,
  "material_id": "mp-672217",
  "deprecated": null,
  "deprecation_reasons": null,
  "last_updated": null,
  "origins": null,
  "warnings": null,
  "structure": {
    "@module": "pymatgen.core.structure",
    "@class": "Structure",
    "charge": 0,
    "lattice": {
      "matrix": [
        [8.05441431, 6.741000000000003e-5, 0.0],
        [6.635e-5, 8.05407199, 0.0],
        [0.0, 0.0, 14.81515428]
      ],
      "pbc": [true, true, true],
      "a": 8.05441431028209,
      "b": 8.054071990273298,
      "c": 14.81515428,
      "alpha": 90.0,
      "beta": 90.0,
      "gamma": 89.99904846649926,
      "volume": 961.0713945085424
    },
    "properties": {},
    "sites": [
      {
        "species": [{ "element": "La", "occu": 1 }],
        "abc": [0.25, 0.25, 0.78654015],
        "properties": { "magmom": 0.048 },
        "label": "La",
        "xyz": [2.0136201650000003, 2.01353485, 11.652713669664342]
      },
      {
        "species": [{ "element": "La", "occu": 1 }],
        "abc": [0.08890103, 0.56347263, 0.10326192000000001],
        "properties": { "magmom": -0.094 },
        "label": "La",
        "xyz": [0.71608311461474, 4.5382551192330665, 1.5298412760490177]
      },
      {
        "species": [{ "element": "La", "occu": 1 }],
        "abc": [0.58890103, 0.06347263, 0.89673808],
        "properties": { "magmom": -0.094 },
        "label": "La",
        "xyz": [4.74325709461474, 0.511252829233066, 13.285313003950982]
      },
      {
        "species": [{ "element": "La", "occu": 1 }],
        "abc": [0.75, 0.75, 0.21345985],
        "properties": { "magmom": 0.048 },
        "label": "La",
        "xyz": [6.040860495, 6.04060455, 3.162440610335658]
      },
      {
        "species": [{ "element": "La", "occu": 1 }],
        "abc": [0.5888559, 0.43659007, 0.39685649],
        "properties": { "magmom": -0.094 },
        "label": "La",
        "xyz": [4.742918355239073, 3.5163675486753583, 5.879490126369277]
      },
      {
        "species": [{ "element": "La", "occu": 1 }],
        "abc": [0.9110989700000001, 0.43652737, 0.89673808],
        "properties": { "magmom": -0.094 },
        "label": "La",
        "xyz": [7.338397545385261, 3.5158842807669344, 13.285313003950982]
      },
      {
        "species": [{ "element": "La", "occu": 1 }],
        "abc": [0.41109897, 0.93652737, 0.10326192000000001],
        "properties": { "magmom": -0.094 },
        "label": "La",
        "xyz": [3.3112235653852604, 7.542886570766934, 1.5298412760490177]
      },
      {
        "species": [{ "element": "La", "occu": 1 }],
        "abc": [0.75, 0.75, 0.7134299],
        "properties": { "magmom": 0.048 },
        "label": "La",
        "xyz": [6.040860495, 6.04060455, 10.56957403646497]
      },
      {
        "species": [{ "element": "La", "occu": 1 }],
        "abc": [0.56341619, 0.08885279, 0.60313787],
        "properties": { "magmom": -0.094 },
        "label": "La",
        "xyz": [4.537993318604296, 0.7156647470577201, 8.935580596160582]
      },
      {
        "species": [{ "element": "La", "occu": 1 }],
        "abc": [0.06341619, 0.58885279, 0.39686213000000004],
        "properties": { "magmom": -0.094 },
        "label": "La",
        "xyz": [0.5108193386042954, 4.74266703705772, 5.879573683839417]
      },
      {
        "species": [{ "element": "La", "occu": 1 }],
        "abc": [0.93652843, 0.08891546, 0.10325018],
        "properties": { "magmom": -0.094 },
        "label": "La",
        "xyz": [7.543193887854604, 0.7161946472454318, 1.5296673461377703]
      },
      {
        "species": [{ "element": "La", "occu": 1 }],
        "abc": [0.93658381, 0.41114721, 0.60313787],
        "properties": { "magmom": -0.094 },
        "label": "La",
        "xyz": [7.543661321395705, 3.3114723629422804, 8.935580596160582]
      },
      {
        "species": [{ "element": "La", "occu": 1 }],
        "abc": [0.56347157, 0.41108454, 0.10325018],
        "properties": { "magmom": -0.094 },
        "label": "La",
        "xyz": [4.538460752145396, 3.3109424627545683, 1.5296673461377703]
      },
      {
        "species": [{ "element": "La", "occu": 1 }],
        "abc": [0.0888559, 0.93659007, 0.60314351],
        "properties": { "magmom": -0.094 },
        "label": "La",
        "xyz": [0.7157443752390735, 7.54336983867536, 8.935664153630723]
      },
      {
        "species": [{ "element": "La", "occu": 1 }],
        "abc": [0.25, 0.25, 0.2865701],
        "properties": { "magmom": 0.048 },
        "label": "La",
        "xyz": [2.0136201650000003, 2.01353485, 4.245580243535028]
      },
      {
        "species": [{ "element": "La", "occu": 1 }],
        "abc": [0.43652843, 0.5889154600000001, 0.89674982],
        "properties": { "magmom": -0.094 },
        "label": "La",
        "xyz": [3.516019907854605, 4.743196937245433, 13.285486933862229]
      },
      {
        "species": [{ "element": "La", "occu": 1 }],
        "abc": [0.411144099999999, 0.5634099300000001, 0.60314351],
        "properties": { "magmom": -0.094 },
        "label": "La",
        "xyz": [3.3115623047609186, 4.537771851324642, 8.935664153630723]
      },
      {
        "species": [{ "element": "La", "occu": 1 }],
        "abc": [0.06347157, 0.91108454, 0.89674982],
        "properties": { "magmom": -0.094 },
        "label": "La",
        "xyz": [0.5112867721453958, 7.33794475275457, 13.285486933862229]
      },
      {
        "species": [{ "element": "La", "occu": 1 }],
        "abc": [0.9111441, 0.06340993, 0.39685649],
        "properties": { "magmom": -0.094 },
        "label": "La",
        "xyz": [7.338736284760927, 0.5107695613246417, 5.879490126369277]
      },
      {
        "species": [{ "element": "La", "occu": 1 }],
        "abc": [0.43658381, 0.91114721, 0.39686213000000004],
        "properties": { "magmom": -0.094 },
        "label": "La",
        "xyz": [3.516487341395705, 7.33847465294228, 5.879573683839417]
      },
      {
        "species": [{ "element": "Ga", "occu": 1 }],
        "abc": [0.36617121, 0.63386414, 0.25014196],
        "properties": { "magmom": 0.019 },
        "label": "Ga",
        "xyz": [2.9493366906197047, 5.105212099040705, 3.7058917293015887]
      },
      {
        "species": [{ "element": "Ga", "occu": 1 }],
        "abc": [0.63382879, 0.36613586000000004, 0.74985804],
        "properties": { "magmom": 0.019 },
        "label": "Ga",
        "xyz": [5.105143969380297, 2.9489273009592956, 11.10926255069841]
      },
      {
        "species": [{ "element": "Ga", "occu": 1 }],
        "abc": [0.25, 0.25, 0.49621686000000004],
        "properties": { "magmom": 0.016 },
        "label": "Ga",
        "xyz": [2.0136201650000003, 2.01353485, 7.351529337237161]
      },
      {
        "species": [{ "element": "Ga", "occu": 1 }],
        "abc": [0.63387218, 0.13384105, 0.25013957],
        "properties": { "magmom": 0.019 },
        "label": "Ga",
        "xyz": [5.105478037656564, 1.0780081812408433, 3.7058563210828592]
      },
      {
        "species": [{ "element": "Ga", "occu": 1 }],
        "abc": [0.75, 0.75, 0.00375894],
        "properties": { "magmom": 0.016 },
        "label": "Ga",
        "xyz": [6.040860495, 6.04060455, 0.0556892760292632]
      },
      {
        "species": [{ "element": "Ga", "occu": 1 }],
        "abc": [0.86617121, 0.13386414, 0.74985804],
        "properties": { "magmom": 0.019 },
        "label": "Ga",
        "xyz": [6.976510670619704, 1.0782098090407048, 11.10926255069841]
      },
      {
        "species": [{ "element": "Ga", "occu": 1 }],
        "abc": [0.13387218, 0.63384105, 0.74986043],
        "properties": { "magmom": 0.019 },
        "label": "Ga",
        "xyz": [1.0783040576565635, 5.105010471240844, 11.109297958917141]
      },
      {
        "species": [{ "element": "Ga", "occu": 1 }],
        "abc": [0.86612782, 0.36615895, 0.25013957],
        "properties": { "magmom": 0.019 },
        "label": "Ga",
        "xyz": [6.976176602343437, 2.9491289287591567, 3.7058563210828592]
      },
      {
        "species": [{ "element": "Ga", "occu": 1 }],
        "abc": [0.13382879, 0.86613586, 0.25014196],
        "properties": { "magmom": 0.019 },
        "label": "Ga",
        "xyz": [1.077969989380296, 6.9759295909592955, 3.7058917293015887]
      },
      {
        "species": [{ "element": "Ga", "occu": 1 }],
        "abc": [0.36612782, 0.86615895, 0.74986043],
        "properties": { "magmom": 0.019 },
        "label": "Ga",
        "xyz": [2.949002622343437, 6.976131218759157, 11.109297958917141]
      },
      {
        "species": [{ "element": "Ga", "occu": 1 }],
        "abc": [0.25, 0.25, 0.99624106],
        "properties": { "magmom": 0.016 },
        "label": "Ga",
        "xyz": [2.0136201650000003, 2.01353485, 14.759465003970737]
      },
      {
        "species": [{ "element": "Ga", "occu": 1 }],
        "abc": [0.75, 0.75, 0.50378314],
        "properties": { "magmom": 0.016 },
        "label": "Ga",
        "xyz": [6.040860495, 6.04060455, 7.46362494276284]
      }
    ]
  },
  "task_ids": null,
  "uncorrected_energy_per_atom": null,
  "energy_per_atom": -23.444080725625,
  "formation_energy_per_atom": -0.56255211625,
  "energy_above_hull": 0.0,
  "is_stable": true,
  "equilibrium_reaction_energy_per_atom": null,
  "decomposes_to": null,
  "xas": null,
  "grain_boundaries": null,
  "band_gap": 0.0,
  "cbm": null,
  "vbm": null,
  "efermi": 6.63656841,
  "is_gap_direct": null,
  "is_metal": null,
  "es_source_calc_id": null,
  "bandstructure": null,
  "dos": null,
  "dos_energy_up": null,
  "dos_energy_down": null,
  "is_magnetic": null,
  "ordering": null,
  "total_magnetization": 3.8024822,
  "total_magnetization_normalized_vol": null,
  "total_magnetization_normalized_formula_units": null,
  "num_magnetic_sites": null,
  "num_unique_magnetic_sites": null,
  "types_of_magnetic_species": null,
  "bulk_modulus": null,
  "shear_modulus": null,
  "universal_anisotropy": null,
  "homogeneous_poisson": null,
  "e_total": null,
  "e_ionic": null,
  "e_electronic": null,
  "n": null,
  "e_ij_max": null,
  "weighted_surface_energy_EV_PER_ANG2": null,
  "weighted_surface_energy": null,
  "weighted_work_function": null,
  "surface_anisotropy": null,
  "shape_factor": null,
  "has_reconstructed": null,
  "possible_species": null,
  "has_props": null,
  "theoretical": null,
  "database_IDs": null,
  "fields_not_requested": [
    "builder_meta",
    "nsites",
    "elements",
    "nelements",
    "composition",
    "composition_reduced",
    "chemsys",
    "symmetry",
    "property_name",
    "deprecated",
    "deprecation_reasons",
    "last_updated",
    "origins",
    "warnings",
    "task_ids",
    "uncorrected_energy_per_atom",
    "equilibrium_reaction_energy_per_atom",
    "decomposes_to",
    "xas",
    "grain_boundaries",
    "cbm",
    "vbm",
    "is_gap_direct",
    "is_metal",
    "es_source_calc_id",
    "bandstructure",
    "dos",
    "dos_energy_up",
    "dos_energy_down",
    "is_magnetic",
    "ordering",
    "total_magnetization_normalized_vol",
    "total_magnetization_normalized_formula_units",
    "num_magnetic_sites",
    "num_unique_magnetic_sites",
    "types_of_magnetic_species",
    "bulk_modulus",
    "shear_modulus",
    "universal_anisotropy",
    "homogeneous_poisson",
    "e_total",
    "e_ionic",
    "e_electronic",
    "n",
    "e_ij_max",
    "weighted_surface_energy_EV_PER_ANG2",
    "weighted_surface_energy",
    "weighted_work_function",
    "surface_anisotropy",
    "shape_factor",
    "has_reconstructed",
    "possible_species",
    "has_props",
    "theoretical",
    "database_IDs"
  ]
}
