{"builder_meta": null, "nsites": null, "elements": null, "nelements": null, "composition": null, "composition_reduced": null, "formula_pretty": "La5Ir3", "formula_anonymous": "A3B5", "chemsys": null, "volume": 866.9477812105573, "density": 9.739185480554168, "density_atomic": 27.092118162829916, "symmetry": null, "property_name": null, "material_id": "mp-1199235", "deprecated": null, "deprecation_reasons": null, "last_updated": null, "origins": null, "warnings": null, "structure": {"@module": "pymatgen.core.structure", "@class": "Structure", "charge": 0, "lattice": {"matrix": [[-0.0, 0.0, 6.63062462], [11.4345545, -0.0, -0.0], [-0.0, 11.4345545, 0.0]], "pbc": [true, true, true], "a": 6.63062462, "b": 11.4345545, "c": 11.4345545, "alpha": 90.0, "beta": 90.0, "gamma": 90.0, "volume": 866.9477812105573}, "properties": {}, "sites": [{"species": [{"element": "La", "occu": 1}], "abc": [0.39870999, 0.84296494, 0.54328974], "properties": {"magmom": -0.0}, "label": "La", "xyz": [9.63892854801923, 6.21227614132083, 2.6436962759339537]}, {"species": [{"element": "La", "occu": 1}], "abc": [0.8987099900000001, 0.6570330600000001, 0.54328974], "properties": {"magmom": -0.0}, "label": "La", "xyz": [7.512880332871771, 6.21227614132083, 5.9590085859339545]}, {"species": [{"element": "La", "occu": 1}], "abc": [0.8987099900000001, 0.84296694, 0.95671026], "properties": {"magmom": -0.0}, "label": "La", "xyz": [9.638951417128231, 10.939555608679171, 5.9590085859339545]}, {"species": [{"element": "La", "occu": 1}], "abc": [0.39870999, 0.65703506, 0.95671026], "properties": {"magmom": -0.0}, "label": "La", "xyz": [7.51290320198077, 10.939555608679171, 2.6436962759339537]}, {"species": [{"element": "La", "occu": 1}], "abc": [0.8987099900000001, 0.54328974, 0.84296694], "properties": {"magmom": -0.0}, "label": "La", "xyz": [6.21227614132083, 9.638951417128231, 5.9590085859339545]}, {"species": [{"element": "La", "occu": 1}], "abc": [0.39870999, 0.95671026, 0.84296494], "properties": {"magmom": -0.0}, "label": "La", "xyz": [10.939555608679171, 9.63892854801923, 2.6436962759339537]}, {"species": [{"element": "La", "occu": 1}], "abc": [0.39870999, 0.54328974, 0.65703506], "properties": {"magmom": -0.0}, "label": "La", "xyz": [6.21227614132083, 7.51290320198077, 2.6436962759339537]}, {"species": [{"element": "La", "occu": 1}], "abc": [0.8987099900000001, 0.95671026, 0.6570330600000001], "properties": {"magmom": -0.0}, "label": "La", "xyz": [10.939555608679171, 7.512880332871771, 5.9590085859339545]}, {"species": [{"element": "La", "occu": 1}], "abc": [0.60129001, 0.15703506, 0.45671026000000003], "properties": {"magmom": -0.0}, "label": "La", "xyz": [1.7956259519807702, 5.222278358679171, 3.9869283440660466]}, {"species": [{"element": "La", "occu": 1}], "abc": [0.10129101, 0.34296694, 0.45671026000000003], "properties": {"magmom": -0.0}, "label": "La", "xyz": [3.9216741671282302, 5.222278358679171, 0.6716226646906662]}, {"species": [{"element": "La", "occu": 1}], "abc": [0.10129101, 0.15703306, 0.04328974], "properties": {"magmom": -0.0}, "label": "La", "xyz": [1.7956030828717702, 0.49499889132083, 0.6716226646906662]}, {"species": [{"element": "La", "occu": 1}], "abc": [0.60129001, 0.34296494, 0.04328974], "properties": {"magmom": -0.0}, "label": "La", "xyz": [3.9216512980192304, 0.49499889132083, 3.9869283440660466]}, {"species": [{"element": "La", "occu": 1}], "abc": [0.10129101, 0.45671026000000003, 0.15703306], "properties": {"magmom": -0.0}, "label": "La", "xyz": [5.222278358679171, 1.7956030828717702, 0.6716226646906662]}, {"species": [{"element": "La", "occu": 1}], "abc": [0.60129001, 0.04328974, 0.15703506], "properties": {"magmom": -0.0}, "label": "La", "xyz": [0.49499889132083, 1.7956259519807702, 3.9869283440660466]}, {"species": [{"element": "La", "occu": 1}], "abc": [0.60129001, 0.45671026000000003, 0.34296494], "properties": {"magmom": -0.0}, "label": "La", "xyz": [5.222278358679171, 3.9216512980192304, 3.9869283440660466]}, {"species": [{"element": "La", "occu": 1}], "abc": [0.10129101, 0.04328974, 0.34296694], "properties": {"magmom": -0.0}, "label": "La", "xyz": [0.49499889132083, 3.9216741671282302, 0.6716226646906662]}, {"species": [{"element": "La", "occu": 1}], "abc": [0.5, 0.75, 0.25], "properties": {"magmom": 0.0}, "label": "La", "xyz": [8.575915875, 2.858638625, 3.31531231]}, {"species": [{"element": "La", "occu": 1}], "abc": [-0.0, 0.75, 0.25], "properties": {"magmom": 0.0}, "label": "La", "xyz": [8.575915875, 2.858638625, 0.0]}, {"species": [{"element": "La", "occu": 1}], "abc": [-0.0, 0.25, 0.75], "properties": {"magmom": 0.0}, "label": "La", "xyz": [2.858638625, 8.575915875, 0.0]}, {"species": [{"element": "La", "occu": 1}], "abc": [0.5, 0.25, 0.75], "properties": {"magmom": 0.0}, "label": "La", "xyz": [2.858638625, 8.575915875, 3.31531231]}, {"species": [{"element": "Ir", "occu": 1}], "abc": [0.25, 0.90363932, 0.09636068], "properties": {"magmom": -0.0}, "label": "Ir", "xyz": [10.33271305288294, 1.1018414471170601, 1.657656155]}, {"species": [{"element": "Ir", "occu": 1}], "abc": [0.75, 0.59636068, 0.09636068], "properties": {"magmom": -0.0}, "label": "Ir", "xyz": [6.8191186971170605, 1.1018414471170601, 4.972968465]}, {"species": [{"element": "Ir", "occu": 1}], "abc": [0.75, 0.90363932, 0.40363932], "properties": {"magmom": -0.0}, "label": "Ir", "xyz": [10.33271305288294, 4.61543580288294, 4.972968465]}, {"species": [{"element": "Ir", "occu": 1}], "abc": [0.25, 0.59636068, 0.40363932], "properties": {"magmom": -0.0}, "label": "Ir", "xyz": [6.8191186971170605, 4.61543580288294, 1.657656155]}, {"species": [{"element": "Ir", "occu": 1}], "abc": [0.75, 0.09636068, 0.90363932], "properties": {"magmom": -0.0}, "label": "Ir", "xyz": [1.1018414471170601, 10.33271305288294, 4.972968465]}, {"species": [{"element": "Ir", "occu": 1}], "abc": [0.25, 0.40363932, 0.90363932], "properties": {"magmom": -0.0}, "label": "Ir", "xyz": [4.61543580288294, 10.33271305288294, 1.657656155]}, {"species": [{"element": "Ir", "occu": 1}], "abc": [0.25, 0.09636068, 0.59636068], "properties": {"magmom": -0.0}, "label": "Ir", "xyz": [1.1018414471170601, 6.8191186971170605, 1.657656155]}, {"species": [{"element": "Ir", "occu": 1}], "abc": [0.75, 0.40363932, 0.59636068], "properties": {"magmom": -0.0}, "label": "Ir", "xyz": [4.61543580288294, 6.8191186971170605, 4.972968465]}, {"species": [{"element": "Ir", "occu": 1}], "abc": [0.13304179, 0.75, 0.75], "properties": {"magmom": 0.0}, "label": "Ir", "xyz": [8.575915875, 8.575915875, 0.8821501682628697]}, {"species": [{"element": "Ir", "occu": 1}], "abc": [0.63304179, 0.75, 0.75], "properties": {"magmom": 0.0}, "label": "Ir", "xyz": [8.575915875, 8.575915875, 4.19746247826287]}, {"species": [{"element": "Ir", "occu": 1}], "abc": [0.8669582100000001, 0.25, 0.25], "properties": {"magmom": 0.0}, "label": "Ir", "xyz": [2.858638625, 2.858638625, 5.74847445173713]}, {"species": [{"element": "Ir", "occu": 1}], "abc": [0.36695821, 0.25, 0.25], "properties": {"magmom": 0.0}, "label": "Ir", "xyz": [2.858638625, 2.858638625, 2.4331621417371303]}]}, "task_ids": null, "uncorrected_energy_per_atom": null, "energy_per_atom": -7.070270150624999, "formation_energy_per_atom": -0.670852892500001, "energy_above_hull": 0.0, "is_stable": true, "equilibrium_reaction_energy_per_atom": null, "decomposes_to": null, "xas": null, "grain_boundaries": null, "band_gap": 0.0, "cbm": null, "vbm": null, "efermi": 8.53840703, "is_gap_direct": null, "is_metal": null, "es_source_calc_id": null, "bandstructure": null, "dos": null, "dos_energy_up": null, "dos_energy_down": null, "is_magnetic": null, "ordering": null, "total_magnetization": 1e-07, "total_magnetization_normalized_vol": null, "total_magnetization_normalized_formula_units": null, "num_magnetic_sites": null, "num_unique_magnetic_sites": null, "types_of_magnetic_species": null, "bulk_modulus": null, "shear_modulus": null, "universal_anisotropy": null, "homogeneous_poisson": null, "e_total": null, "e_ionic": null, "e_electronic": null, "n": null, "e_ij_max": null, "weighted_surface_energy_EV_PER_ANG2": null, "weighted_surface_energy": null, "weighted_work_function": null, "surface_anisotropy": null, "shape_factor": null, "has_reconstructed": null, "possible_species": null, "has_props": null, "theoretical": null, "database_IDs": null, "fields_not_requested": ["builder_meta", "nsites", "elements", "nelements", "composition", "composition_reduced", "chemsys", "symmetry", "property_name", "deprecated", "deprecation_reasons", "last_updated", "origins", "warnings", "task_ids", "uncorrected_energy_per_atom", "equilibrium_reaction_energy_per_atom", "decomposes_to", "xas", "grain_boundaries", "cbm", "vbm", "is_gap_direct", "is_metal", "es_source_calc_id", "bandstructure", "dos", "dos_energy_up", "dos_energy_down", "is_magnetic", "ordering", "total_magnetization_normalized_vol", "total_magnetization_normalized_formula_units", "num_magnetic_sites", "num_unique_magnetic_sites", "types_of_magnetic_species", "bulk_modulus", "shear_modulus", "universal_anisotropy", "homogeneous_poisson", "e_total", "e_ionic", "e_electronic", "n", "e_ij_max", "weighted_surface_energy_EV_PER_ANG2", "weighted_surface_energy", "weighted_work_function", "surface_anisotropy", "shape_factor", "has_reconstructed", "possible_species", "has_props", "theoretical", "database_IDs"]}