{"builder_meta": null, "nsites": null, "elements": null, "nelements": null, "composition": null, "composition_reduced": null, "formula_pretty": "La5Ir2", "formula_anonymous": "A2B5", "chemsys": null, "volume": 428.918809258035, "density": 8.35429659112303, "density_atomic": 30.63705780414536, "symmetry": null, "property_name": null, "material_id": "mp-1104396", "deprecated": null, "deprecation_reasons": null, "last_updated": null, "origins": null, "warnings": null, "structure": {"@module": "pymatgen.core.structure", "@class": "Structure", "charge": 0, "lattice": {"matrix": [[1e-08, 6.84091024, 0.0], [0.03277429, 0.0, 7.38487738], [8.48655655, -3.42045459, -0.8209170100000001]], "pbc": [true, true, true], "a": 6.84091024, "b": 7.384950106244501, "c": 9.186678203567778, "alpha": 94.89091057378631, "beta": 111.85924311207812, "gamma": 89.9999999996283, "volume": 428.918809258035}, "properties": {}, "sites": [{"species": [{"element": "La", "occu": 1}], "abc": [0.98571494, 0.91026711, 0.183266899999999], "properties": {"magmom": 0.055}, "label": "La", "xyz": [1.5851382786909378, 6.116331317466918, 6.571764074817004]}, {"species": [{"element": "La", "occu": 1}], "abc": [0.80244805, 0.5897328900000001, 0.8167331], "properties": {"magmom": 0.055}, "label": "La", "xyz": [6.950579724190683, 2.6958766016131035, 3.6846349851829974]}, {"species": [{"element": "La", "occu": 1}], "abc": [0.01428406, 0.08973289, 0.8167331], "properties": {"magmom": 0.055}, "label": "La", "xyz": [6.934192571309043, -2.6958825083771547, -0.007803704817002877]}, {"species": [{"element": "La", "occu": 1}], "abc": [0.19755195, 0.41026711, 0.183266899999999], "properties": {"magmom": 0.055}, "label": "La", "xyz": [1.5687511258093079, 0.7245790483869005, 2.8793253848170033]}, {"species": [{"element": "La", "occu": 1}], "abc": [0.65003725, 0.82862187, 0.4307704], "properties": {"magmom": -0.011}, "label": "La", "xyz": [3.6829148596342147, 2.9734158879903045, 5.765644155571796]}, {"species": [{"element": "La", "occu": 1}], "abc": [0.21926785000000001, 0.67137813, 0.5692296], "properties": {"magmom": -0.011}, "label": "La", "xyz": [4.852803134058837, -0.44703231771607976, 4.490754904428203]}, {"species": [{"element": "La", "occu": 1}], "abc": [0.34996275, 0.17137813000000002, 0.5692296], "properties": {"magmom": -0.011}, "label": "La", "xyz": [4.8364159903657855, 0.4470397620096962, 0.7983162144282034]}, {"species": [{"element": "La", "occu": 1}], "abc": [0.7807321500000001, 0.32862187, 0.4307704], "properties": {"magmom": -0.011}, "label": "La", "xyz": [3.6665277159411636, 3.8674879677160803, 2.0732054655717964]}, {"species": [{"element": "La", "occu": 1}], "abc": [0.42723851, 0.75, -0.0], "properties": {"magmom": 0.04}, "label": "La", "xyz": [0.024580721772385097, 2.9227002979813426, 5.538658035]}, {"species": [{"element": "La", "occu": 1}], "abc": [0.57276149, 0.25, 0.0], "properties": {"magmom": 0.04}, "label": "La", "xyz": [0.008193578227614899, 3.918209942018658, 1.846219345]}, {"species": [{"element": "Ir", "occu": 1}], "abc": [0.8219907200000001, 0.58145432, 0.22505081000000002], "properties": {"magmom": 0.004}, "label": "Ir", "xyz": [1.9289631864136456, 4.853388657585256, 4.109220817228003]}, {"species": [{"element": "Ir", "occu": 1}], "abc": [0.59693991, 0.91854568, 0.7749491900000001], "properties": {"magmom": 0.004}, "label": "Ir", "xyz": [6.6067548127756615, 1.4329338290313962, 6.1471782427719965]}, {"species": [{"element": "Ir", "occu": 1}], "abc": [0.17800928, 0.41854568000000003, 0.7749491900000001], "properties": {"magmom": 0.004}, "label": "Ir", "xyz": [6.590367663586355, -1.4329330075852549, 2.4547395527719966]}, {"species": [{"element": "Ir", "occu": 1}], "abc": [0.40306009, 0.08145432, 0.22505081000000002], "properties": {"magmom": 0.004}, "label": "Ir", "xyz": [1.9125760372243392, 1.9875218209686036, 0.41678212722800345]}]}, "task_ids": null, "uncorrected_energy_per_atom": null, "energy_per_atom": -6.609558155000002, "formation_energy_per_atom": -0.5585718857142881, "energy_above_hull": 0.0, "is_stable": true, "equilibrium_reaction_energy_per_atom": null, "decomposes_to": null, "xas": null, "grain_boundaries": null, "band_gap": 0.0, "cbm": null, "vbm": null, "efermi": 8.11884369, "is_gap_direct": null, "is_metal": null, "es_source_calc_id": null, "bandstructure": null, "dos": null, "dos_energy_up": null, "dos_energy_down": null, "is_magnetic": null, "ordering": null, "total_magnetization": 0.6356242, "total_magnetization_normalized_vol": null, "total_magnetization_normalized_formula_units": null, "num_magnetic_sites": null, "num_unique_magnetic_sites": null, "types_of_magnetic_species": null, "bulk_modulus": null, "shear_modulus": null, "universal_anisotropy": null, "homogeneous_poisson": null, "e_total": null, "e_ionic": null, "e_electronic": null, "n": null, "e_ij_max": null, "weighted_surface_energy_EV_PER_ANG2": null, "weighted_surface_energy": null, "weighted_work_function": null, "surface_anisotropy": null, "shape_factor": null, "has_reconstructed": null, "possible_species": null, "has_props": null, "theoretical": null, "database_IDs": null, "fields_not_requested": ["builder_meta", "nsites", "elements", "nelements", "composition", "composition_reduced", "chemsys", "symmetry", "property_name", "deprecated", "deprecation_reasons", "last_updated", "origins", "warnings", "task_ids", "uncorrected_energy_per_atom", "equilibrium_reaction_energy_per_atom", "decomposes_to", "xas", "grain_boundaries", "cbm", "vbm", "is_gap_direct", "is_metal", "es_source_calc_id", "bandstructure", "dos", "dos_energy_up", "dos_energy_down", "is_magnetic", "ordering", "total_magnetization_normalized_vol", "total_magnetization_normalized_formula_units", "num_magnetic_sites", "num_unique_magnetic_sites", "types_of_magnetic_species", "bulk_modulus", "shear_modulus", "universal_anisotropy", "homogeneous_poisson", "e_total", "e_ionic", "e_electronic", "n", "e_ij_max", "weighted_surface_energy_EV_PER_ANG2", "weighted_surface_energy", "weighted_work_function", "surface_anisotropy", "shape_factor", "has_reconstructed", "possible_species", "has_props", "theoretical", "database_IDs"]}