{"builder_meta": null, "nsites": null, "elements": null, "nelements": null, "composition": null, "composition_reduced": null, "formula_pretty": "La5Pb4", "formula_anonymous": "A4B5", "chemsys": null, "volume": 1224.0982453347672, "density": 8.265822079349423, "density_atomic": 34.00272903707687, "symmetry": null, "property_name": null, "material_id": "mp-21691", "deprecated": null, "deprecation_reasons": null, "last_updated": null, "origins": null, "warnings": null, "structure": {"@module": "pymatgen.core.structure", "@class": "Structure", "charge": 0, "lattice": {"matrix": [[8.59578845, -0.0, 0.0], [-0.0, 8.70334981, 0.0], [0.0, 0.0, 16.3622912]], "pbc": [true, true, true], "a": 8.59578845, "b": 8.70334981, "c": 16.3622912, "alpha": 90.0, "beta": 90.0, "gamma": 90.0, "volume": 1224.0982453347672}, "properties": {}, "sites": [{"species": [{"element": "La", "occu": 1}], "abc": [0.883557199999999, 0.65841816, 0.8840014700000001], "properties": {"magmom": 0.032}, "label": "La", "xyz": [7.594870774674332, 5.7304435677365495, 14.464289473368066]}, {"species": [{"element": "La", "occu": 1}], "abc": [0.3835572, 0.84158184, 0.61599853], "properties": {"magmom": 0.032}, "label": "La", "xyz": [3.29697654967434, 7.324581147263451, 10.079147326631938]}, {"species": [{"element": "La", "occu": 1}], "abc": [0.6164428, 0.15841816, 0.11599853], "properties": {"magmom": 0.032}, "label": "La", "xyz": [5.29881190032566, 1.3787686627365496, 1.8980017266319362]}, {"species": [{"element": "La", "occu": 1}], "abc": [0.1164428, 0.34158184, 0.38400147], "properties": {"magmom": 0.032}, "label": "La", "xyz": [1.0009176753256601, 2.9729062422634507, 6.283143873368065]}, {"species": [{"element": "La", "occu": 1}], "abc": [0.1164428, 0.34158184, 0.11599853], "properties": {"magmom": 0.032}, "label": "La", "xyz": [1.0009176753256601, 2.9729062422634507, 1.8980017266319362]}, {"species": [{"element": "La", "occu": 1}], "abc": [0.6164428, 0.15841816, 0.38400147], "properties": {"magmom": 0.032}, "label": "La", "xyz": [5.29881190032566, 1.3787686627365496, 6.283143873368065]}, {"species": [{"element": "La", "occu": 1}], "abc": [0.3835572, 0.84158184, 0.8840014700000001], "properties": {"magmom": 0.032}, "label": "La", "xyz": [3.29697654967434, 7.324581147263451, 14.464289473368066]}, {"species": [{"element": "La", "occu": 1}], "abc": [0.883557199999999, 0.65841816, 0.61599853], "properties": {"magmom": 0.032}, "label": "La", "xyz": [7.594870774674332, 5.7304435677365495, 10.079147326631938]}, {"species": [{"element": "La", "occu": 1}], "abc": [0.03394261, 0.17723538, 0.89739293], "properties": {"magmom": 0.023}, "label": "La", "xyz": [0.2917634950008545, 1.5425415108482778, 14.683404441481217]}, {"species": [{"element": "La", "occu": 1}], "abc": [0.53394261, 0.32276462, 0.60260707], "properties": {"magmom": 0.023}, "label": "La", "xyz": [4.589657720000854, 2.8091333941517225, 9.860032358518785]}, {"species": [{"element": "La", "occu": 1}], "abc": [0.46605739, 0.67723538, 0.10260707000000001], "properties": {"magmom": 0.023}, "label": "La", "xyz": [4.006130729999146, 5.894216415848279, 1.6788867585187843]}, {"species": [{"element": "La", "occu": 1}], "abc": [0.96605739, 0.8227646200000001, 0.39739293000000003], "properties": {"magmom": 0.023}, "label": "La", "xyz": [8.304024954999147, 7.160808299151723, 6.5022588414812175]}, {"species": [{"element": "La", "occu": 1}], "abc": [0.96605739, 0.8227646200000001, 0.10260707000000001], "properties": {"magmom": 0.023}, "label": "La", "xyz": [8.304024954999147, 7.160808299151723, 1.6788867585187843]}, {"species": [{"element": "La", "occu": 1}], "abc": [0.46605739, 0.67723538, 0.39739293000000003], "properties": {"magmom": 0.023}, "label": "La", "xyz": [4.006130729999146, 5.894216415848279, 6.5022588414812175]}, {"species": [{"element": "La", "occu": 1}], "abc": [0.53394261, 0.32276462, 0.89739293], "properties": {"magmom": 0.023}, "label": "La", "xyz": [4.589657720000854, 2.8091333941517225, 14.683404441481217]}, {"species": [{"element": "La", "occu": 1}], "abc": [0.03394261, 0.17723538, 0.60260707], "properties": {"magmom": 0.023}, "label": "La", "xyz": [0.2917634950008545, 1.5425415108482778, 9.860032358518785]}, {"species": [{"element": "La", "occu": 1}], "abc": [0.71429164, 0.99618487, 0.75], "properties": {"magmom": 0.08}, "label": "La", "xyz": [6.139899829043558, 8.670145399039376, 12.271718400000001]}, {"species": [{"element": "La", "occu": 1}], "abc": [0.21429164, 0.50381513, 0.75], "properties": {"magmom": 0.08}, "label": "La", "xyz": [1.8420056040435582, 4.384879315960625, 12.271718400000001]}, {"species": [{"element": "La", "occu": 1}], "abc": [0.78570836, 0.49618487, 0.25], "properties": {"magmom": 0.08}, "label": "La", "xyz": [6.753782845956443, 4.318470494039375, 4.0905728]}, {"species": [{"element": "La", "occu": 1}], "abc": [0.28570836, 0.00381513, 0.25], "properties": {"magmom": 0.08}, "label": "La", "xyz": [2.455888620956442, 0.0332044109606253, 4.0905728]}, {"species": [{"element": "Pb", "occu": 1}], "abc": [0.0822589, 0.87912041, 0.75], "properties": {"magmom": 0.02}, "label": "Pb", "xyz": [0.707080102529705, 7.651292453340623, 12.271718400000001]}, {"species": [{"element": "Pb", "occu": 1}], "abc": [0.5822589, 0.62087959, 0.75], "properties": {"magmom": 0.02}, "label": "Pb", "xyz": [5.004974327529705, 5.403732261659378, 12.271718400000001]}, {"species": [{"element": "Pb", "occu": 1}], "abc": [0.4177411, 0.37912041, 0.25], "properties": {"magmom": 0.02}, "label": "Pb", "xyz": [3.590814122470295, 3.2996175483406227, 4.0905728]}, {"species": [{"element": "Pb", "occu": 1}], "abc": [0.9177411, 0.12087959000000001, 0.25], "properties": {"magmom": 0.02}, "label": "Pb", "xyz": [7.8887083474702955, 1.052057356659378, 4.0905728]}, {"species": [{"element": "Pb", "occu": 1}], "abc": [0.83924504, 0.35736935000000003, 0.75], "properties": {"magmom": 0.012}, "label": "Pb", "xyz": [7.213972821551788, 3.110310464422324, 12.271718400000001]}, {"species": [{"element": "Pb", "occu": 1}], "abc": [0.33924504, 0.14263065, 0.75], "properties": {"magmom": 0.012}, "label": "Pb", "xyz": [2.916078596551788, 1.2413644405776765, 12.271718400000001]}, {"species": [{"element": "Pb", "occu": 1}], "abc": [0.66075496, 0.85736935, 0.25], "properties": {"magmom": 0.012}, "label": "Pb", "xyz": [5.679709853448212, 7.461985369422324, 4.0905728]}, {"species": [{"element": "Pb", "occu": 1}], "abc": [0.16075496, 0.64263065, 0.25], "properties": {"magmom": 0.012}, "label": "Pb", "xyz": [1.3818156284482122, 5.593039345577677, 4.0905728]}, {"species": [{"element": "Pb", "occu": 1}], "abc": [0.77439161, 0.47017354, 0.04481762], "properties": {"magmom": -0.0}, "label": "Pb", "xyz": [6.656506457014905, 4.0920847900260275, 0.7333189493309441]}, {"species": [{"element": "Pb", "occu": 1}], "abc": [0.27439161, 0.02982646, 0.45518238], "properties": {"magmom": -0.0}, "label": "Pb", "xyz": [2.3586122320149046, 0.2595901149739726, 7.4478266506690565]}, {"species": [{"element": "Pb", "occu": 1}], "abc": [0.72560839, 0.97017354, 0.95518238], "properties": {"magmom": -0.0}, "label": "Pb", "xyz": [6.237176217985096, 8.443759695026028, 15.628972250669058]}, {"species": [{"element": "Pb", "occu": 1}], "abc": [0.22560839, 0.52982646, 0.54481762], "properties": {"magmom": -0.0}, "label": "Pb", "xyz": [1.9392819929850955, 4.611265019973973, 8.914464549330944]}, {"species": [{"element": "Pb", "occu": 1}], "abc": [0.22560839, 0.52982646, 0.95518238], "properties": {"magmom": -0.0}, "label": "Pb", "xyz": [1.9392819929850955, 4.611265019973973, 15.628972250669058]}, {"species": [{"element": "Pb", "occu": 1}], "abc": [0.72560839, 0.97017354, 0.54481762], "properties": {"magmom": -0.0}, "label": "Pb", "xyz": [6.237176217985096, 8.443759695026028, 8.914464549330944]}, {"species": [{"element": "Pb", "occu": 1}], "abc": [0.27439161, 0.02982646, 0.04481762], "properties": {"magmom": -0.0}, "label": "Pb", "xyz": [2.3586122320149046, 0.2595901149739726, 0.7333189493309441]}, {"species": [{"element": "Pb", "occu": 1}], "abc": [0.77439161, 0.47017354, 0.45518238], "properties": {"magmom": -0.0}, "label": "Pb", "xyz": [6.656506457014905, 4.0920847900260275, 7.4478266506690565]}]}, "task_ids": null, "uncorrected_energy_per_atom": null, "energy_per_atom": -5.012359961666666, "formation_energy_per_atom": -0.620068427777777, "energy_above_hull": 0.0, "is_stable": true, "equilibrium_reaction_energy_per_atom": null, "decomposes_to": null, "xas": null, "grain_boundaries": null, "band_gap": 0.0, "cbm": null, "vbm": null, "efermi": 7.20556997, "is_gap_direct": null, "is_metal": null, "es_source_calc_id": null, "bandstructure": null, "dos": null, "dos_energy_up": null, "dos_energy_down": null, "is_magnetic": null, "ordering": null, "total_magnetization": 1.43e-05, "total_magnetization_normalized_vol": null, "total_magnetization_normalized_formula_units": null, "num_magnetic_sites": null, "num_unique_magnetic_sites": null, "types_of_magnetic_species": null, "bulk_modulus": null, "shear_modulus": null, "universal_anisotropy": null, "homogeneous_poisson": null, "e_total": null, "e_ionic": null, "e_electronic": null, "n": null, "e_ij_max": null, "weighted_surface_energy_EV_PER_ANG2": null, "weighted_surface_energy": null, "weighted_work_function": null, "surface_anisotropy": null, "shape_factor": null, "has_reconstructed": null, "possible_species": null, "has_props": null, "theoretical": null, "database_IDs": null, "fields_not_requested": ["builder_meta", "nsites", "elements", "nelements", "composition", "composition_reduced", "chemsys", "symmetry", "property_name", "deprecated", "deprecation_reasons", "last_updated", "origins", "warnings", "task_ids", "uncorrected_energy_per_atom", "equilibrium_reaction_energy_per_atom", "decomposes_to", "xas", "grain_boundaries", "cbm", "vbm", "is_gap_direct", "is_metal", "es_source_calc_id", "bandstructure", "dos", "dos_energy_up", "dos_energy_down", "is_magnetic", "ordering", "total_magnetization_normalized_vol", "total_magnetization_normalized_formula_units", "num_magnetic_sites", "num_unique_magnetic_sites", "types_of_magnetic_species", "bulk_modulus", "shear_modulus", "universal_anisotropy", "homogeneous_poisson", "e_total", "e_ionic", "e_electronic", "n", "e_ij_max", "weighted_surface_energy_EV_PER_ANG2", "weighted_surface_energy", "weighted_work_function", "surface_anisotropy", "shape_factor", "has_reconstructed", "possible_species", "has_props", "theoretical", "database_IDs"]}