{
  "builder_meta": null,
  "nsites": null,
  "elements": null,
  "nelements": null,
  "composition": null,
  "composition_reduced": null,
  "formula_pretty": "La5Pb3",
  "formula_anonymous": "A3B5",
  "chemsys": null,
  "volume": 568.6700140541556,
  "density": 7.6862884529994,
  "density_atomic": 35.54187587838472,
  "symmetry": null,
  "property_name": null,
  "material_id": "mp-1105896",
  "deprecated": null,
  "deprecation_reasons": null,
  "last_updated": null,
  "origins": null,
  "warnings": null,
  "structure": {
    "@module": "pymatgen.core.structure",
    "@class": "Structure",
    "charge": 0,
    "lattice": {
      "matrix": [
        [-6.528000000000004e-5, -2.1740000000000002e-5, -7.1401511],
        [-4.79476134, -8.30511548, -6.964e-5],
        [-4.79493115, 8.305213760000001, -1.845e-5]
      ],
      "pbc": [true, true, true],
      "a": 7.140151100331512,
      "b": 9.58982165884976,
      "c": 9.589991675328717,
      "alpha": 120.00147757476793,
      "beta": 89.99977893539938,
      "gamma": 89.99917093484879,
      "volume": 568.6700140541557
    },
    "properties": {},
    "sites": [
      {
        "species": [{ "element": "La", "occu": 1 }],
        "abc": [0.49999294, 0.33335514, 0.66668791],
        "properties": { "magmom": 0.146 },
        "label": "La",
        "xyz": [-4.795113604288808, 2.76842180035956, -3.570060655777123]
      },
      {
        "species": [{ "element": "La", "occu": 1 }],
        "abc": [0.50000605, 0.66663479, 0.33333129],
        "properties": { "magmom": 0.146 },
        "label": "La",
        "xyz": [-4.794687945076646, -2.7681021677205258, -3.5701713223232305]
      },
      {
        "species": [{ "element": "La", "occu": 1 }],
        "abc": [-1.377e-5, 0.66662742, 0.33333098],
        "properties": { "magmom": 0.146 },
        "label": "La",
        "xyz": [-4.794618479963065, -2.7680326632048167, 4.5745990537199996e-5]
      },
      {
        "species": [{ "element": "La", "occu": 1 }],
        "abc": [1.29e-6, 0.33335241, 0.6666885300000001],
        "properties": { "magmom": 0.146 },
        "label": "La",
        "xyz": [-4.795070847992751, 2.7684604923758225, -4.47258601299e-5]
      },
      {
        "species": [{ "element": "La", "occu": 1 }],
        "abc": [0.75005086, 0.24370196, 1.794e-5],
        "properties": { "magmom": 0.07200000000000001 },
        "label": "La",
        "xyz": [-1.1686277206751983, -2.0238402310731827, -5.355493444820433]
      },
      {
        "species": [{ "element": "La", "occu": 1 }],
        "abc": [0.75000386, 0.75629884, 0.7561881300000001],
        "properties": { "magmom": 0.07200000000000001 },
        "label": "La",
        "xyz": [-7.252191419568076, -0.0008614462492895214, -5.355207506305462]
      },
      {
        "species": [{ "element": "La", "occu": 1 }],
        "abc": [0.7499977, 1.5830000000000003e-5, 0.24373356000000002],
        "properties": { "magmom": 0.07100000000000001 },
        "label": "La",
        "xyz": [-1.1688105000662623, 2.0241115413577395, -5.355101400639053]
      },
      {
        "species": [{ "element": "La", "occu": 1 }],
        "abc": [0.25000013, 0.75627842, -1.4510000000000002e-5],
        "properties": { "magmom": 0.074 },
        "label": "La",
        "xyz": [-3.6261212760497825, -6.281105556786425, -1.7850913701811022]
      },
      {
        "species": [{ "element": "La", "occu": 1 }],
        "abc": [0.24998935, 0.24375286000000002, 0.24375095],
        "properties": { "magmom": 0.074 },
        "label": "La",
        "xyz": [-2.3375221319442927, 2.6583043299943654e-6, -1.7849832045449827]
      },
      {
        "species": [{ "element": "La", "occu": 1 }],
        "abc": [0.24999432, 1.787e-5, 0.75630424],
        "properties": { "magmom": 0.073 },
        "label": "La",
        "xyz": [-3.6265287612674313, 6.281114533504198, -1.7850111739994465]
      },
      {
        "species": [{ "element": "Pb", "occu": 1 }],
        "abc": [0.74999934, 0.6072092, -3.989e-5],
        "properties": { "magmom": -0.032 },
        "label": "Pb",
        "xyz": [-2.91128088760567, -5.0432901264809535, -5.355150897812992]
      },
      {
        "species": [{ "element": "Pb", "occu": 1 }],
        "abc": [0.749991, 0.39275682, 0.39278529],
        "properties": { "magmom": -0.032 },
        "label": "Pb",
        "xyz": [-3.7666025982526024, 0.0002587447716773106, -5.355083662113644]
      },
      {
        "species": [{ "element": "Pb", "occu": 1 }],
        "abc": [0.74999727, 1.7840000000000002e-5, 0.60725302],
        "properties": { "magmom": -0.032 },
        "label": "Pb",
        "xyz": [-2.9118709198936648, 5.043201669304743, -5.3551050374480935]
      },
      {
        "species": [{ "element": "Pb", "occu": 1 }],
        "abc": [0.24999847, 0.39273174, -3.417e-5],
        "properties": { "magmom": -0.032 },
        "label": "Pb",
        "xyz": [-1.8829074410456574, -3.2619716774822525, -1.785054199776754]
      },
      {
        "species": [{ "element": "Pb", "occu": 1 }],
        "abc": [0.249999, 0.60720412, 0.60721944],
        "properties": { "magmom": -0.032 },
        "label": "Pb",
        "xyz": [-5.822990567740997, 0.0001814769174579567, -1.7850841237424848]
      },
      {
        "species": [{ "element": "Pb", "occu": 1 }],
        "abc": [0.2499932, 4.374e-5, 0.3927963],
        "properties": { "magmom": -0.032 },
        "label": "Pb",
        "xyz": [-1.8836572568918526, 3.2618885350338247, -1.7849964721103084]
      }
    ]
  },
  "task_ids": null,
  "uncorrected_energy_per_atom": null,
  "energy_per_atom": -5.029407984374998,
  "formation_energy_per_atom": -0.552160892499998,
  "energy_above_hull": 0.0,
  "is_stable": true,
  "equilibrium_reaction_energy_per_atom": null,
  "decomposes_to": null,
  "xas": null,
  "grain_boundaries": null,
  "band_gap": 0.0,
  "cbm": null,
  "vbm": null,
  "efermi": 7.28808395,
  "is_gap_direct": null,
  "is_metal": null,
  "es_source_calc_id": null,
  "bandstructure": null,
  "dos": null,
  "dos_energy_up": null,
  "dos_energy_down": null,
  "is_magnetic": null,
  "ordering": null,
  "total_magnetization": 2.2163898,
  "total_magnetization_normalized_vol": null,
  "total_magnetization_normalized_formula_units": null,
  "num_magnetic_sites": null,
  "num_unique_magnetic_sites": null,
  "types_of_magnetic_species": null,
  "bulk_modulus": null,
  "shear_modulus": null,
  "universal_anisotropy": null,
  "homogeneous_poisson": null,
  "e_total": null,
  "e_ionic": null,
  "e_electronic": null,
  "n": null,
  "e_ij_max": null,
  "weighted_surface_energy_EV_PER_ANG2": null,
  "weighted_surface_energy": null,
  "weighted_work_function": null,
  "surface_anisotropy": null,
  "shape_factor": null,
  "has_reconstructed": null,
  "possible_species": null,
  "has_props": null,
  "theoretical": null,
  "database_IDs": null,
  "fields_not_requested": [
    "builder_meta",
    "nsites",
    "elements",
    "nelements",
    "composition",
    "composition_reduced",
    "chemsys",
    "symmetry",
    "property_name",
    "deprecated",
    "deprecation_reasons",
    "last_updated",
    "origins",
    "warnings",
    "task_ids",
    "uncorrected_energy_per_atom",
    "equilibrium_reaction_energy_per_atom",
    "decomposes_to",
    "xas",
    "grain_boundaries",
    "cbm",
    "vbm",
    "is_gap_direct",
    "is_metal",
    "es_source_calc_id",
    "bandstructure",
    "dos",
    "dos_energy_up",
    "dos_energy_down",
    "is_magnetic",
    "ordering",
    "total_magnetization_normalized_vol",
    "total_magnetization_normalized_formula_units",
    "num_magnetic_sites",
    "num_unique_magnetic_sites",
    "types_of_magnetic_species",
    "bulk_modulus",
    "shear_modulus",
    "universal_anisotropy",
    "homogeneous_poisson",
    "e_total",
    "e_ionic",
    "e_electronic",
    "n",
    "e_ij_max",
    "weighted_surface_energy_EV_PER_ANG2",
    "weighted_surface_energy",
    "weighted_work_function",
    "surface_anisotropy",
    "shape_factor",
    "has_reconstructed",
    "possible_species",
    "has_props",
    "theoretical",
    "database_IDs"
  ]
}
