{
  "builder_meta": null,
  "nsites": null,
  "elements": null,
  "nelements": null,
  "composition": null,
  "composition_reduced": null,
  "formula_pretty": "La5Rh4",
  "formula_anonymous": "A4B5",
  "chemsys": null,
  "volume": 911.1584921607044,
  "density": 8.063599143167433,
  "density_atomic": 25.309958115575125,
  "symmetry": null,
  "property_name": null,
  "material_id": "mp-1197877",
  "deprecated": null,
  "deprecation_reasons": null,
  "last_updated": null,
  "origins": null,
  "warnings": null,
  "structure": {
    "@module": "pymatgen.core.structure",
    "@class": "Structure",
    "charge": 0,
    "lattice": {
      "matrix": [
        [-7.6463719999999995, 0.0, 0.0],
        [0.0, 0.0, -7.7242560000000005],
        [0.0, -15.427013, 0.0]
      ],
      "pbc": [true, true, true],
      "a": 7.6463719999999995,
      "b": 7.7242560000000005,
      "c": 15.427013,
      "alpha": 90.0,
      "beta": 90.0,
      "gamma": 90.0,
      "volume": 911.1584921607044
    },
    "properties": {},
    "sites": [
      {
        "species": [{ "element": "La", "occu": 1 }],
        "abc": [0.339387, 0.835430999999999, 0.877961],
        "properties": { "magmom": 0.0 },
        "label": "La",
        "xyz": [-2.5950792539639997, -13.544315760493001, -6.453082914335993]
      },
      {
        "species": [{ "element": "La", "occu": 1 }],
        "abc": [0.839387, 0.664569, 0.622039],
        "properties": { "magmom": 0.0 },
        "label": "La",
        "xyz": [-6.418265253964, -9.596203739507, -5.133301085664]
      },
      {
        "species": [{ "element": "La", "occu": 1 }],
        "abc": [0.660613, 0.164569, 0.377961],
        "properties": { "magmom": 0.0 },
        "label": "La",
        "xyz": [-5.051292746035999, -5.830809260493, -1.271173085664]
      },
      {
        "species": [{ "element": "La", "occu": 1 }],
        "abc": [0.160613, 0.335431, 0.122039],
        "properties": { "magmom": 0.0 },
        "label": "La",
        "xyz": [-1.228106746036, -1.882697239507, -2.590954914336]
      },
      {
        "species": [{ "element": "La", "occu": 1 }],
        "abc": [0.660613, 0.164569, 0.122039],
        "properties": { "magmom": 0.0 },
        "label": "La",
        "xyz": [-5.051292746035999, -1.882697239507, -1.271173085664]
      },
      {
        "species": [{ "element": "La", "occu": 1 }],
        "abc": [0.160613, 0.335431, 0.377961],
        "properties": { "magmom": 0.0 },
        "label": "La",
        "xyz": [-1.228106746036, -5.830809260493, -2.590954914336]
      },
      {
        "species": [{ "element": "La", "occu": 1 }],
        "abc": [0.339387, 0.835430999999999, 0.622039],
        "properties": { "magmom": 0.0 },
        "label": "La",
        "xyz": [-2.5950792539639997, -9.596203739507, -6.453082914335993]
      },
      {
        "species": [{ "element": "La", "occu": 1 }],
        "abc": [0.839387, 0.664569, 0.877961],
        "properties": { "magmom": 0.0 },
        "label": "La",
        "xyz": [-6.418265253964, -13.544315760493001, -5.133301085664]
      },
      {
        "species": [{ "element": "La", "occu": 1 }],
        "abc": [0.496102999999999, 0.317994, 0.909454],
        "properties": { "magmom": 0.0 },
        "label": "La",
        "xyz": [-3.793388088315992, -14.030158680902, -2.456267062464]
      },
      {
        "species": [{ "element": "La", "occu": 1 }],
        "abc": [0.996103, 0.182006, 0.590546],
        "properties": { "magmom": 0.0 },
        "label": "La",
        "xyz": [-7.616574088315999, -9.110360819098, -1.405860937536]
      },
      {
        "species": [{ "element": "La", "occu": 1 }],
        "abc": [0.503896999999999, 0.682006, 0.409454],
        "properties": { "magmom": 0.0 },
        "label": "La",
        "xyz": [-3.8529839116839923, -6.316652180902, -5.267988937536001]
      },
      {
        "species": [{ "element": "La", "occu": 1 }],
        "abc": [0.003897, 0.817994, 0.090546],
        "properties": { "magmom": 0.0 },
        "label": "La",
        "xyz": [-0.029797911683999995, -1.396854319098, -6.318395062464]
      },
      {
        "species": [{ "element": "La", "occu": 1 }],
        "abc": [0.503896999999999, 0.682006, 0.090546],
        "properties": { "magmom": 0.0 },
        "label": "La",
        "xyz": [-3.8529839116839923, -1.396854319098, -5.267988937536001]
      },
      {
        "species": [{ "element": "La", "occu": 1 }],
        "abc": [0.003897, 0.817994, 0.409454],
        "properties": { "magmom": 0.0 },
        "label": "La",
        "xyz": [-0.029797911683999995, -6.316652180902, -6.318395062464]
      },
      {
        "species": [{ "element": "La", "occu": 1 }],
        "abc": [0.496102999999999, 0.317994, 0.590546],
        "properties": { "magmom": 0.0 },
        "label": "La",
        "xyz": [-3.793388088315992, -9.110360819098, -2.456267062464]
      },
      {
        "species": [{ "element": "La", "occu": 1 }],
        "abc": [0.996103, 0.182006, 0.909454],
        "properties": { "magmom": 0.0 },
        "label": "La",
        "xyz": [-7.616574088315999, -14.030158680902, -1.405860937536]
      },
      {
        "species": [{ "element": "La", "occu": 1 }],
        "abc": [0.18556, 0.475641, 0.75],
        "properties": { "magmom": 0.0 },
        "label": "La",
        "xyz": [-1.41886078832, -11.57025975, -3.673972848096]
      },
      {
        "species": [{ "element": "La", "occu": 1 }],
        "abc": [0.6855600000000001, 0.024359, 0.75],
        "properties": { "magmom": 0.0 },
        "label": "La",
        "xyz": [-5.24204678832, -11.57025975, -0.188155151904]
      },
      {
        "species": [{ "element": "La", "occu": 1 }],
        "abc": [0.81444, 0.524359, 0.25],
        "properties": { "magmom": 0.0 },
        "label": "La",
        "xyz": [-6.22751121168, -3.85675325, -4.050283151904001]
      },
      {
        "species": [{ "element": "La", "occu": 1 }],
        "abc": [0.31444000000000005, 0.975641, 0.25],
        "properties": { "magmom": 0.0 },
        "label": "La",
        "xyz": [-2.4043252116800002, -3.85675325, -7.536100848096]
      },
      {
        "species": [{ "element": "Rh", "occu": 1 }],
        "abc": [0.312535, 0.029207, 0.041159],
        "properties": { "magmom": -0.0 },
        "label": "Rh",
        "xyz": [-2.38975887302, -0.634960428067, -0.22560234499200002]
      },
      {
        "species": [{ "element": "Rh", "occu": 1 }],
        "abc": [0.812535, 0.470792999999999, 0.458841],
        "properties": { "magmom": -0.0 },
        "label": "Rh",
        "xyz": [-6.21294487302, -7.078546071933, -3.6365256550079925]
      },
      {
        "species": [{ "element": "Rh", "occu": 1 }],
        "abc": [0.687465, 0.9707929999999991, 0.541159],
        "properties": { "magmom": -0.0 },
        "label": "Rh",
        "xyz": [-5.25661312698, -8.348466928067, -7.498653655007994]
      },
      {
        "species": [{ "element": "Rh", "occu": 1 }],
        "abc": [0.187465, 0.529207, 0.958840999999999],
        "properties": { "magmom": -0.0 },
        "label": "Rh",
        "xyz": [-1.4334271269799999, -14.792052571932986, -4.087730344992]
      },
      {
        "species": [{ "element": "Rh", "occu": 1 }],
        "abc": [0.687465, 0.9707929999999991, 0.958840999999999],
        "properties": { "magmom": -0.0 },
        "label": "Rh",
        "xyz": [-5.25661312698, -14.792052571932986, -7.498653655007994]
      },
      {
        "species": [{ "element": "Rh", "occu": 1 }],
        "abc": [0.187465, 0.529207, 0.541159],
        "properties": { "magmom": -0.0 },
        "label": "Rh",
        "xyz": [-1.4334271269799999, -8.348466928067, -4.087730344992]
      },
      {
        "species": [{ "element": "Rh", "occu": 1 }],
        "abc": [0.312535, 0.029207, 0.458841],
        "properties": { "magmom": -0.0 },
        "label": "Rh",
        "xyz": [-2.38975887302, -7.078546071933, -0.22560234499200002]
      },
      {
        "species": [{ "element": "Rh", "occu": 1 }],
        "abc": [0.812535, 0.470792999999999, 0.041159],
        "properties": { "magmom": -0.0 },
        "label": "Rh",
        "xyz": [-6.21294487302, -0.634960428067, -3.6365256550079925]
      },
      {
        "species": [{ "element": "Rh", "occu": 1 }],
        "abc": [0.530168, 0.610324, 0.75],
        "properties": { "magmom": 0.0 },
        "label": "Rh",
        "xyz": [-4.053861750496, -11.57025975, -4.714298818944]
      },
      {
        "species": [{ "element": "Rh", "occu": 1 }],
        "abc": [0.030167999999999, 0.889675999999999, 0.75],
        "properties": { "magmom": 0.0 },
        "label": "Rh",
        "xyz": [-0.23067575049599234, -11.57025975, -6.872085181055993]
      },
      {
        "species": [{ "element": "Rh", "occu": 1 }],
        "abc": [0.46983199999999903, 0.389675999999999, 0.25],
        "properties": { "magmom": 0.0 },
        "label": "Rh",
        "xyz": [-3.5925102495039924, -3.85675325, -3.0099571810559924]
      },
      {
        "species": [{ "element": "Rh", "occu": 1 }],
        "abc": [0.969831999999999, 0.110323999999999, 0.25],
        "properties": { "magmom": 0.0 },
        "label": "Rh",
        "xyz": [-7.415696249503992, -3.85675325, -0.8521708189439924]
      },
      {
        "species": [{ "element": "Rh", "occu": 1 }],
        "abc": [0.301052, 0.138646, 0.75],
        "properties": { "magmom": -0.0 },
        "label": "Rh",
        "xyz": [-2.3019555833439997, -11.57025975, -1.070937197376]
      },
      {
        "species": [{ "element": "Rh", "occu": 1 }],
        "abc": [0.801052, 0.361354, 0.75],
        "properties": { "magmom": -0.0 },
        "label": "Rh",
        "xyz": [-6.125141583344, -11.57025975, -2.7911908026240004]
      },
      {
        "species": [{ "element": "Rh", "occu": 1 }],
        "abc": [0.698948, 0.861354, 0.25],
        "properties": { "magmom": -0.0 },
        "label": "Rh",
        "xyz": [-5.344416416655999, -3.85675325, -6.653318802624]
      },
      {
        "species": [{ "element": "Rh", "occu": 1 }],
        "abc": [0.19894799999999901, 0.638645999999999, 0.25],
        "properties": { "magmom": -0.0 },
        "label": "Rh",
        "xyz": [-1.5212304166559925, -3.85675325, -4.933065197375993]
      }
    ]
  },
  "task_ids": null,
  "uncorrected_energy_per_atom": null,
  "energy_per_atom": -6.709212150555555,
  "formation_energy_per_atom": -0.6939602611111111,
  "energy_above_hull": 0.018963846666667002,
  "is_stable": false,
  "equilibrium_reaction_energy_per_atom": null,
  "decomposes_to": null,
  "xas": null,
  "grain_boundaries": null,
  "band_gap": 0.0,
  "cbm": null,
  "vbm": null,
  "efermi": 8.05658995,
  "is_gap_direct": null,
  "is_metal": null,
  "es_source_calc_id": null,
  "bandstructure": null,
  "dos": null,
  "dos_energy_up": null,
  "dos_energy_down": null,
  "is_magnetic": null,
  "ordering": null,
  "total_magnetization": 0.006868699999999001,
  "total_magnetization_normalized_vol": null,
  "total_magnetization_normalized_formula_units": null,
  "num_magnetic_sites": null,
  "num_unique_magnetic_sites": null,
  "types_of_magnetic_species": null,
  "bulk_modulus": null,
  "shear_modulus": null,
  "universal_anisotropy": null,
  "homogeneous_poisson": null,
  "e_total": null,
  "e_ionic": null,
  "e_electronic": null,
  "n": null,
  "e_ij_max": null,
  "weighted_surface_energy_EV_PER_ANG2": null,
  "weighted_surface_energy": null,
  "weighted_work_function": null,
  "surface_anisotropy": null,
  "shape_factor": null,
  "has_reconstructed": null,
  "possible_species": null,
  "has_props": null,
  "theoretical": null,
  "database_IDs": null,
  "fields_not_requested": [
    "builder_meta",
    "nsites",
    "elements",
    "nelements",
    "composition",
    "composition_reduced",
    "chemsys",
    "symmetry",
    "property_name",
    "deprecated",
    "deprecation_reasons",
    "last_updated",
    "origins",
    "warnings",
    "task_ids",
    "uncorrected_energy_per_atom",
    "equilibrium_reaction_energy_per_atom",
    "decomposes_to",
    "xas",
    "grain_boundaries",
    "cbm",
    "vbm",
    "is_gap_direct",
    "is_metal",
    "es_source_calc_id",
    "bandstructure",
    "dos",
    "dos_energy_up",
    "dos_energy_down",
    "is_magnetic",
    "ordering",
    "total_magnetization_normalized_vol",
    "total_magnetization_normalized_formula_units",
    "num_magnetic_sites",
    "num_unique_magnetic_sites",
    "types_of_magnetic_species",
    "bulk_modulus",
    "shear_modulus",
    "universal_anisotropy",
    "homogeneous_poisson",
    "e_total",
    "e_ionic",
    "e_electronic",
    "n",
    "e_ij_max",
    "weighted_surface_energy_EV_PER_ANG2",
    "weighted_surface_energy",
    "weighted_work_function",
    "surface_anisotropy",
    "shape_factor",
    "has_reconstructed",
    "possible_species",
    "has_props",
    "theoretical",
    "database_IDs"
  ]
}
