{
  "builder_meta": null,
  "nsites": null,
  "elements": null,
  "nelements": null,
  "composition": null,
  "composition_reduced": null,
  "formula_pretty": "La5Ru2",
  "formula_anonymous": "A2B5",
  "chemsys": null,
  "volume": 420.957839224389,
  "density": 7.074110638552661,
  "density_atomic": 30.068417087456357,
  "symmetry": null,
  "property_name": null,
  "material_id": "mp-1104417",
  "deprecated": null,
  "deprecation_reasons": null,
  "last_updated": null,
  "origins": null,
  "warnings": null,
  "structure": {
    "@module": "pymatgen.core.structure",
    "@class": "Structure",
    "charge": 0,
    "lattice": {
      "matrix": [
        [0.0, 6.83790242, 0.0],
        [0.12746277, 0.0, 7.29617663],
        [8.42566773, -3.41895121, -0.68461344]
      ],
      "pbc": [true, true, true],
      "a": 6.83790242,
      "b": 7.297289919819153,
      "c": 9.118651196035106,
      "alpha": 93.37823758621938,
      "beta": 112.02063251628253,
      "gamma": 90.0,
      "volume": 420.957839224389
    },
    "properties": {},
    "sites": [
      {
        "species": [{ "element": "La", "occu": 1 }],
        "abc": [0.9777343700000001, 0.895116799999999, 0.18528489],
        "properties": { "magmom": -0.0 },
        "label": "La",
        "xyz": [1.6752429853311357, 6.052172215879959, 6.404081751357455]
      },
      {
        "species": [{ "element": "La", "occu": 1 }],
        "abc": [0.79244949, 0.6048832, 0.81471511],
        "properties": { "magmom": -0.0 },
        "label": "La",
        "xyz": [6.941618899668865, 2.6332210742589823, 3.855569753642537]
      },
      {
        "species": [{ "element": "La", "occu": 1 }],
        "abc": [0.02226563, 0.1048832, 0.81471511],
        "properties": { "magmom": -0.0 },
        "label": "La",
        "xyz": [6.877887514668864, -2.633221005879958, 0.20748143864253754]
      },
      {
        "species": [{ "element": "La", "occu": 1 }],
        "abc": [0.20755051, 0.3951168, 0.18528489],
        "properties": { "magmom": -0.0 },
        "label": "La",
        "xyz": [1.6115116003311358, 0.7857301357410171, 2.7559934363574623]
      },
      {
        "species": [{ "element": "La", "occu": 1 }],
        "abc": [0.64197891, 0.82646595, 0.42878968],
        "properties": { "magmom": 0.0 },
        "label": "La",
        "xyz": [3.718183009030708, 2.9237781470064483, 5.736486372019449]
      },
      {
        "species": [{ "element": "La", "occu": 1 }],
        "abc": [0.21318923, 0.67353405, 0.57121032],
        "properties": { "magmom": 0.0 },
        "label": "La",
        "xyz": [4.898678875969293, -0.4951730629935507, 4.52316513298055]
      },
      {
        "species": [{ "element": "La", "occu": 1 }],
        "abc": [0.35802109, 0.17353405, 0.57121032],
        "properties": { "magmom": 0.0 },
        "label": "La",
        "xyz": [4.834947490969292, 0.49517306299355024, 0.8750768179805506]
      },
      {
        "species": [{ "element": "La", "occu": 1 }],
        "abc": [0.78681077, 0.32646595, 0.42878968],
        "properties": { "magmom": 0.0 },
        "label": "La",
        "xyz": [3.654451624030708, 3.9141242729935506, 2.0883980570194494]
      },
      {
        "species": [{ "element": "La", "occu": 1 }],
        "abc": [0.42557954000000003, 0.75, -0.0],
        "properties": { "magmom": 0.0 },
        "label": "La",
        "xyz": [0.0955970775, 2.910071366468487, 5.4721324725]
      },
      {
        "species": [{ "element": "La", "occu": 1 }],
        "abc": [0.57442046, 0.25, -0.0],
        "properties": { "magmom": 0.0 },
        "label": "La",
        "xyz": [0.0318656925, 3.9278310535315133, 1.8240441575]
      },
      {
        "species": [{ "element": "Ru", "occu": 1 }],
        "abc": [0.83329664, 0.58240424, 0.22139273],
        "properties": { "magmom": 0.0 },
        "label": "Ru",
        "xyz": [1.939616438507748, 4.941070169115165, 4.09775576662462]
      },
      {
        "species": [{ "element": "Ru", "occu": 1 }],
        "abc": [0.61190491, 0.91759576, 0.77860727],
        "properties": { "magmom": 0.0 },
        "label": "Ru",
        "xyz": [6.677245446492253, 1.5221257970175857, 6.16189573837538]
      },
      {
        "species": [{ "element": "Ru", "occu": 1 }],
        "abc": [0.16670336, 0.41759576, 0.77860727],
        "properties": { "magmom": 0.0 },
        "label": "Ru",
        "xyz": [6.6135140614922525, -1.5221189591151651, 2.51380742337538]
      },
      {
        "species": [{ "element": "Ru", "occu": 1 }],
        "abc": [0.38809509000000003, 0.08240424, 0.22139273],
        "properties": { "magmom": 0.0 },
        "label": "Ru",
        "xyz": [1.8758850535077478, 1.8968254129824147, 0.44966745162461996]
      }
    ]
  },
  "task_ids": null,
  "uncorrected_energy_per_atom": null,
  "energy_per_atom": -6.448343539285718,
  "formation_energy_per_atom": -0.272794881428576,
  "energy_above_hull": 0.0,
  "is_stable": true,
  "equilibrium_reaction_energy_per_atom": null,
  "decomposes_to": null,
  "xas": null,
  "grain_boundaries": null,
  "band_gap": 0.0,
  "cbm": null,
  "vbm": null,
  "efermi": 8.04252095,
  "is_gap_direct": null,
  "is_metal": null,
  "es_source_calc_id": null,
  "bandstructure": null,
  "dos": null,
  "dos_energy_up": null,
  "dos_energy_down": null,
  "is_magnetic": null,
  "ordering": null,
  "total_magnetization": 1.1e-6,
  "total_magnetization_normalized_vol": null,
  "total_magnetization_normalized_formula_units": null,
  "num_magnetic_sites": null,
  "num_unique_magnetic_sites": null,
  "types_of_magnetic_species": null,
  "bulk_modulus": null,
  "shear_modulus": null,
  "universal_anisotropy": null,
  "homogeneous_poisson": null,
  "e_total": null,
  "e_ionic": null,
  "e_electronic": null,
  "n": null,
  "e_ij_max": null,
  "weighted_surface_energy_EV_PER_ANG2": null,
  "weighted_surface_energy": null,
  "weighted_work_function": null,
  "surface_anisotropy": null,
  "shape_factor": null,
  "has_reconstructed": null,
  "possible_species": null,
  "has_props": null,
  "theoretical": null,
  "database_IDs": null,
  "fields_not_requested": [
    "builder_meta",
    "nsites",
    "elements",
    "nelements",
    "composition",
    "composition_reduced",
    "chemsys",
    "symmetry",
    "property_name",
    "deprecated",
    "deprecation_reasons",
    "last_updated",
    "origins",
    "warnings",
    "task_ids",
    "uncorrected_energy_per_atom",
    "equilibrium_reaction_energy_per_atom",
    "decomposes_to",
    "xas",
    "grain_boundaries",
    "cbm",
    "vbm",
    "is_gap_direct",
    "is_metal",
    "es_source_calc_id",
    "bandstructure",
    "dos",
    "dos_energy_up",
    "dos_energy_down",
    "is_magnetic",
    "ordering",
    "total_magnetization_normalized_vol",
    "total_magnetization_normalized_formula_units",
    "num_magnetic_sites",
    "num_unique_magnetic_sites",
    "types_of_magnetic_species",
    "bulk_modulus",
    "shear_modulus",
    "universal_anisotropy",
    "homogeneous_poisson",
    "e_total",
    "e_ionic",
    "e_electronic",
    "n",
    "e_ij_max",
    "weighted_surface_energy_EV_PER_ANG2",
    "weighted_surface_energy",
    "weighted_work_function",
    "surface_anisotropy",
    "shape_factor",
    "has_reconstructed",
    "possible_species",
    "has_props",
    "theoretical",
    "database_IDs"
  ]
}
