{
  "builder_meta": null,
  "nsites": null,
  "elements": null,
  "nelements": null,
  "composition": null,
  "composition_reduced": null,
  "formula_pretty": "La5S8",
  "formula_anonymous": "A5B8",
  "chemsys": null,
  "volume": 334.687361023319,
  "density": 4.718586546061328,
  "density_atomic": 25.745181617178385,
  "symmetry": null,
  "property_name": null,
  "material_id": "mp-32640",
  "deprecated": null,
  "deprecation_reasons": null,
  "last_updated": null,
  "origins": null,
  "warnings": null,
  "structure": {
    "@module": "pymatgen.core.structure",
    "@class": "Structure",
    "charge": 0,
    "lattice": {
      "matrix": [
        [-4.375975, 4.375975, 4.369479],
        [4.375975, -4.375975, 4.369479],
        [4.375975, 4.375975, -4.369479]
      ],
      "pbc": [true, true, true],
      "a": 7.575662422038815,
      "b": 7.575662422038815,
      "c": 7.575662422038815,
      "alpha": 109.43112093756416,
      "beta": 109.43112093756416,
      "gamma": 109.55144982981285,
      "volume": 334.687361023319
    },
    "properties": {},
    "sites": [
      {
        "species": [{ "element": "La", "occu": 1 }],
        "abc": [0.630873999999999, 0.015231, 0.880116999999999],
        "properties": { "magmom": 0.01 },
        "label": "La",
        "xyz": [1.1573316121500001, 6.545408365999992, -1.0225105197479998]
      },
      {
        "species": [{ "element": "La", "occu": 1 }],
        "abc": [0.5, 0.5, 0.0],
        "properties": { "magmom": 0.003 },
        "label": "La",
        "xyz": [0.0, 0.0, 4.369479]
      },
      {
        "species": [{ "element": "La", "occu": 1 }],
        "abc": [0.135113999999999, 0.750757, 0.119882999999999],
        "properties": { "magmom": 0.01 },
        "label": "La",
        "xyz": [3.2186433878500003, -2.1694333660000087, 3.346968480252]
      },
      {
        "species": [{ "element": "La", "occu": 1 }],
        "abc": [0.249243, 0.369126, 0.384357],
        "properties": { "magmom": 0.01 },
        "label": "La",
        "xyz": [2.2065416340000006, 1.15733161215, 1.0225105197480002]
      },
      {
        "species": [{ "element": "La", "occu": 1 }],
        "abc": [0.984769, 0.864885999999999, 0.615642999999999],
        "properties": { "magmom": 0.01 },
        "label": "La",
        "xyz": [2.169433365999992, 3.2186433878500003, 5.391989519748]
      },
      {
        "species": [{ "element": "S", "occu": 1 }],
        "abc": [0.881842, 0.482975, 0.23764000000000002],
        "properties": { "magmom": 0.023 },
        "label": "S",
        "xyz": [-0.7055253213250003, 2.7853387193250008, 4.925176230782999]
      },
      {
        "species": [{ "element": "S", "occu": 1 }],
        "abc": [0.872203, 0.957695, 0.231064],
        "properties": { "magmom": 0.122 },
        "label": "S",
        "xyz": [1.3852411421000006, 0.6370194326999996, 6.986071587486]
      },
      {
        "species": [{ "element": "S", "occu": 1 }],
        "abc": [0.358861, 0.127797, 0.085492],
        "properties": { "magmom": 0.121 },
        "label": "S",
        "xyz": [-0.6370194327, 1.3852411421000002, 1.7528864125139998]
      },
      {
        "species": [{ "element": "S", "occu": 1 }],
        "abc": [0.726630999999999, 0.641139, 0.768936],
        "properties": { "magmom": 0.122 },
        "label": "S",
        "xyz": [2.9907338579000045, 3.7389555672999957, 2.616592587485995]
      },
      {
        "species": [{ "element": "S", "occu": 1 }],
        "abc": [0.517025, 0.754666, 0.398868],
        "properties": { "magmom": 0.024 },
        "label": "S",
        "xyz": [2.785347471275, 0.7055253213250001, 3.813781769217]
      },
      {
        "species": [{ "element": "S", "occu": 1 }],
        "abc": [0.245334, 0.644201999999999, 0.76236],
        "properties": { "magmom": 0.023 },
        "label": "S",
        "xyz": [5.081504697299996, 1.5906319047000046, 0.5556928613039958]
      },
      {
        "species": [{ "element": "S", "occu": 1 }],
        "abc": [0.355798, 0.118158, 0.601132],
        "properties": { "magmom": 0.024 },
        "label": "S",
        "xyz": [1.5906319047000002, 3.6704453027, -0.5556928613039998]
      },
      {
        "species": [{ "element": "S", "occu": 1 }],
        "abc": [0.042304999999999, 0.273369, 0.914508],
        "properties": { "magmom": 0.121 },
        "label": "S",
        "xyz": [5.012994432700005, 2.9907338578999956, -2.6165925874860045]
      }
    ]
  },
  "task_ids": null,
  "uncorrected_energy_per_atom": null,
  "energy_per_atom": -18.712872428197116,
  "formation_energy_per_atom": -2.327957529543268,
  "energy_above_hull": 0.09537048451922901,
  "is_stable": false,
  "equilibrium_reaction_energy_per_atom": null,
  "decomposes_to": null,
  "xas": null,
  "grain_boundaries": null,
  "band_gap": 0.0,
  "cbm": null,
  "vbm": null,
  "efermi": 5.50633834,
  "is_gap_direct": null,
  "is_metal": null,
  "es_source_calc_id": null,
  "bandstructure": null,
  "dos": null,
  "dos_energy_up": null,
  "dos_energy_down": null,
  "is_magnetic": null,
  "ordering": null,
  "total_magnetization": 1.0004511,
  "total_magnetization_normalized_vol": null,
  "total_magnetization_normalized_formula_units": null,
  "num_magnetic_sites": null,
  "num_unique_magnetic_sites": null,
  "types_of_magnetic_species": null,
  "bulk_modulus": null,
  "shear_modulus": null,
  "universal_anisotropy": null,
  "homogeneous_poisson": null,
  "e_total": null,
  "e_ionic": null,
  "e_electronic": null,
  "n": null,
  "e_ij_max": null,
  "weighted_surface_energy_EV_PER_ANG2": null,
  "weighted_surface_energy": null,
  "weighted_work_function": null,
  "surface_anisotropy": null,
  "shape_factor": null,
  "has_reconstructed": null,
  "possible_species": null,
  "has_props": null,
  "theoretical": null,
  "database_IDs": null,
  "fields_not_requested": [
    "builder_meta",
    "nsites",
    "elements",
    "nelements",
    "composition",
    "composition_reduced",
    "chemsys",
    "symmetry",
    "property_name",
    "deprecated",
    "deprecation_reasons",
    "last_updated",
    "origins",
    "warnings",
    "task_ids",
    "uncorrected_energy_per_atom",
    "equilibrium_reaction_energy_per_atom",
    "decomposes_to",
    "xas",
    "grain_boundaries",
    "cbm",
    "vbm",
    "is_gap_direct",
    "is_metal",
    "es_source_calc_id",
    "bandstructure",
    "dos",
    "dos_energy_up",
    "dos_energy_down",
    "is_magnetic",
    "ordering",
    "total_magnetization_normalized_vol",
    "total_magnetization_normalized_formula_units",
    "num_magnetic_sites",
    "num_unique_magnetic_sites",
    "types_of_magnetic_species",
    "bulk_modulus",
    "shear_modulus",
    "universal_anisotropy",
    "homogeneous_poisson",
    "e_total",
    "e_ionic",
    "e_electronic",
    "n",
    "e_ij_max",
    "weighted_surface_energy_EV_PER_ANG2",
    "weighted_surface_energy",
    "weighted_work_function",
    "surface_anisotropy",
    "shape_factor",
    "has_reconstructed",
    "possible_species",
    "has_props",
    "theoretical",
    "database_IDs"
  ]
}
