{
  "builder_meta": null,
  "nsites": null,
  "elements": null,
  "nelements": null,
  "composition": null,
  "composition_reduced": null,
  "formula_pretty": "La5Si3",
  "formula_anonymous": "A3B5",
  "chemsys": null,
  "volume": 451.57597559253634,
  "density": 5.727501360829827,
  "density_atomic": 28.22349847453352,
  "symmetry": null,
  "property_name": null,
  "material_id": "mp-10961",
  "deprecated": null,
  "deprecation_reasons": null,
  "last_updated": null,
  "origins": null,
  "warnings": null,
  "structure": {
    "@module": "pymatgen.core.structure",
    "@class": "Structure",
    "charge": 0,
    "lattice": {
      "matrix": [
        [7.20872866, 0.0001826, -3.54771541],
        [-1.74607528, 6.99415429, -3.54782589],
        [-0.04213018, -0.05408527, 9.01122795]
      ],
      "pbc": [true, true, true],
      "a": 8.034429261447238,
      "b": 8.034552984547851,
      "c": 9.011488741343408,
      "alpha": 116.47241412434704,
      "beta": 116.47108637439214,
      "gamma": 89.99913833961192,
      "volume": 451.5759755925364
    },
    "properties": {},
    "sites": [
      {
        "species": [{ "element": "La", "occu": 1 }],
        "abc": [0.17423353, 0.03092111, 0.70510831],
        "properties": { "magmom": -0.04 },
        "label": "La",
        "xyz": [1.172305315423013, 0.1781628558750462, 5.62605801692403]
      },
      {
        "species": [{ "element": "La", "occu": 1 }],
        "abc": [0.03072307, 0.53072886, 0.70470194],
        "properties": { "magmom": -0.13 },
        "label": "La",
        "xyz": [-0.7349074871749437, 3.6738911483339676, 4.358299519187529]
      },
      {
        "species": [{ "element": "La", "occu": 1 }],
        "abc": [0.67400023, 0.17399651, 0.70473054],
        "properties": { "magmom": -0.13 },
        "label": "La",
        "xyz": [4.525183345428622, 1.17896596777038, 3.3420172140044055]
      },
      {
        "species": [{ "element": "La", "occu": 1 }],
        "abc": [0.96914836, 0.46914978, 0.29492429000000003],
        "properties": { "magmom": -0.039 },
        "label": "La",
        "xyz": [6.154731511624487, 3.265531853075884, -2.445094301938126]
      },
      {
        "species": [{ "element": "La", "occu": 1 }],
        "abc": [0.53092465, 0.67416557, 0.7050896],
        "properties": { "magmom": -0.04 },
        "label": "La",
        "xyz": [2.6204423525872316, 4.677179999036693, 2.0783314850278565]
      },
      {
        "species": [{ "element": "La", "occu": 1 }],
        "abc": [0.82596099, 0.9692826600000001, 0.2952719],
        "properties": { "magmom": -0.13 },
        "label": "La",
        "xyz": [4.249248310400386, 6.763493434703474, -3.7083582500283185]
      },
      {
        "species": [{ "element": "La", "occu": 1 }],
        "abc": [0.46923735, 0.32596098, 0.29526442],
        "properties": { "magmom": -0.13 },
        "label": "La",
        "xyz": [2.801012780702681, 2.263937613502621, -0.16047838737179632]
      },
      {
        "species": [{ "element": "La", "occu": 1 }],
        "abc": [0.32581234000000003, 0.82580851, 0.29496921],
        "properties": { "magmom": -0.04 },
        "label": "La",
        "xyz": [0.8943418219032742, 5.759938136903755, -1.4276794818050638]
      },
      {
        "species": [{ "element": "La", "occu": 1 }],
        "abc": [0.49998811, 0.50000024, -2.299999999999998e-6],
        "properties": { "magmom": -0.28 },
        "label": "La",
        "xyz": [2.7312406560575795, 3.497170245822036, -3.5477500449662736]
      },
      {
        "species": [{ "element": "La", "occu": 1 }],
        "abc": [-2.79e-6, -7.66e-6, -7.339999999999997e-6],
        "properties": { "magmom": -0.28 },
        "label": "La",
        "xyz": [
          -6.428180795400001e-6, -5.31787454336e-5, -2.9067940841699976e-5
        ]
      },
      {
        "species": [{ "element": "Si", "occu": 1 }],
        "abc": [0.61230115, 0.11230803, 0.00034632],
        "properties": { "magmom": 0.018000000000000002 },
        "label": "Si",
        "xyz": [4.217799983103522, 0.7855927652052324, -2.567598793440974]
      },
      {
        "species": [{ "element": "Si", "occu": 1 }],
        "abc": [0.8877132, 0.61195823, -0.00035152],
        "properties": { "magmom": 0.018000000000000002 },
        "label": "Si",
        "xyz": [5.330773258505631, 4.280311388139737, -5.32364267814197]
      },
      {
        "species": [{ "element": "Si", "occu": 1 }],
        "abc": [0.11195724, 0.38771331000000003, -0.00035153],
        "properties": { "magmom": 0.018000000000000002 },
        "label": "Si",
        "xyz": [0.13010754838669703, 2.7117661664135877, -1.775899461685928]
      },
      {
        "species": [{ "element": "Si", "occu": 1 }],
        "abc": [0.38801626, 0.8880197400000001, 0.00031135],
        "properties": { "magmom": 0.018000000000000002 },
        "label": "Si",
        "xyz": [1.2465415006104414, 6.211001086445946, -4.524305043513403]
      },
      {
        "species": [{ "element": "Si", "occu": 1 }],
        "abc": [0.74999591, 0.7499946200000001, 0.49999901],
        "properties": { "magmom": 0.026000000000000002 },
        "label": "Si",
        "xyz": [4.0759048968936655, 5.218672456747504, -0.8160173236563546]
      },
      {
        "species": [{ "element": "Si", "occu": 1 }],
        "abc": [0.24999041, 0.24999951, 0.49999579],
        "properties": { "magmom": 0.026000000000000002 },
        "label": "Si",
        "xyz": [1.3445301562370957, 1.7215383863122506, 2.7317264737557982]
      }
    ]
  },
  "task_ids": null,
  "uncorrected_energy_per_atom": null,
  "energy_per_atom": -22.559670383125,
  "formation_energy_per_atom": -0.6790210318749991,
  "energy_above_hull": 0.0,
  "is_stable": true,
  "equilibrium_reaction_energy_per_atom": null,
  "decomposes_to": null,
  "xas": null,
  "grain_boundaries": null,
  "band_gap": 0.0,
  "cbm": null,
  "vbm": null,
  "efermi": 8.29584897,
  "is_gap_direct": null,
  "is_metal": null,
  "es_source_calc_id": null,
  "bandstructure": null,
  "dos": null,
  "dos_energy_up": null,
  "dos_energy_down": null,
  "is_magnetic": null,
  "ordering": null,
  "total_magnetization": 2.4519275,
  "total_magnetization_normalized_vol": null,
  "total_magnetization_normalized_formula_units": null,
  "num_magnetic_sites": null,
  "num_unique_magnetic_sites": null,
  "types_of_magnetic_species": null,
  "bulk_modulus": null,
  "shear_modulus": null,
  "universal_anisotropy": null,
  "homogeneous_poisson": null,
  "e_total": null,
  "e_ionic": null,
  "e_electronic": null,
  "n": null,
  "e_ij_max": null,
  "weighted_surface_energy_EV_PER_ANG2": null,
  "weighted_surface_energy": null,
  "weighted_work_function": null,
  "surface_anisotropy": null,
  "shape_factor": null,
  "has_reconstructed": null,
  "possible_species": null,
  "has_props": null,
  "theoretical": null,
  "database_IDs": null,
  "fields_not_requested": [
    "builder_meta",
    "nsites",
    "elements",
    "nelements",
    "composition",
    "composition_reduced",
    "chemsys",
    "symmetry",
    "property_name",
    "deprecated",
    "deprecation_reasons",
    "last_updated",
    "origins",
    "warnings",
    "task_ids",
    "uncorrected_energy_per_atom",
    "equilibrium_reaction_energy_per_atom",
    "decomposes_to",
    "xas",
    "grain_boundaries",
    "cbm",
    "vbm",
    "is_gap_direct",
    "is_metal",
    "es_source_calc_id",
    "bandstructure",
    "dos",
    "dos_energy_up",
    "dos_energy_down",
    "is_magnetic",
    "ordering",
    "total_magnetization_normalized_vol",
    "total_magnetization_normalized_formula_units",
    "num_magnetic_sites",
    "num_unique_magnetic_sites",
    "types_of_magnetic_species",
    "bulk_modulus",
    "shear_modulus",
    "universal_anisotropy",
    "homogeneous_poisson",
    "e_total",
    "e_ionic",
    "e_electronic",
    "n",
    "e_ij_max",
    "weighted_surface_energy_EV_PER_ANG2",
    "weighted_surface_energy",
    "weighted_work_function",
    "surface_anisotropy",
    "shape_factor",
    "has_reconstructed",
    "possible_species",
    "has_props",
    "theoretical",
    "database_IDs"
  ]
}
