{"builder_meta": null, "nsites": null, "elements": null, "nelements": null, "composition": null, "composition_reduced": null, "formula_pretty": "La5Si4", "formula_anonymous": "A4B5", "chemsys": null, "volume": 1016.1225228027756, "density": 5.27431701295811, "density_atomic": 28.225625633410434, "symmetry": null, "property_name": null, "material_id": "mp-18345", "deprecated": null, "deprecation_reasons": null, "last_updated": null, "origins": null, "warnings": null, "structure": {"@module": "pymatgen.core.structure", "@class": "Structure", "charge": 0, "lattice": {"matrix": [[8.04602221, -0.00052505, -0.0], [-0.00052505, 8.04602117, -0.0], [0.0, -0.0, 15.69580815]], "pbc": [true, true, true], "a": 8.046022227131292, "b": 8.046021187131293, "c": 15.69580815, "alpha": 90.0, "beta": 90.0, "gamma": 90.00747776979722, "volume": 1016.1225228027756}, "properties": {}, "sites": [{"species": [{"element": "La", "occu": 1}], "abc": [0.37407419000000003, 0.47728986, 0.37498333], "properties": {"magmom": 0.034}, "label": "La", "xyz": [3.0095586398867673, 3.8400879101328766, 5.88566640712814]}, {"species": [{"element": "La", "occu": 1}], "abc": [0.87403503, 0.02245753, 0.37512249000000003], "properties": {"magmom": 0.08}, "label": "La", "xyz": [7.032493472371891, 0.18023484971340858, 5.8878506357902936]}, {"species": [{"element": "La", "occu": 1}], "abc": [0.97754247, 0.12596497, 0.12487751], "properties": {"magmom": 0.08}, "label": "La", "xyz": [7.865262286930761, 1.0130035566245414, 1.9600534392097064]}, {"species": [{"element": "La", "occu": 1}], "abc": [0.02245753, 0.87403503, 0.62487751], "properties": {"magmom": 0.08}, "label": "La", "xyz": [0.1802348730692398, 7.032492563375459, 9.807957514209706]}, {"species": [{"element": "La", "occu": 1}], "abc": [0.62592581, 0.52271014, 0.8749833300000001], "properties": {"magmom": 0.034}, "label": "La", "xyz": [5.035938520113233, 4.205408209867124, 13.73357048212814]}, {"species": [{"element": "La", "occu": 1}], "abc": [0.47728986, 0.37407419000000003, 0.62501667], "properties": {"magmom": 0.034}, "label": "La", "xyz": [3.8400884065143317, 3.0095582508496097, 9.810141742871862]}, {"species": [{"element": "La", "occu": 1}], "abc": [0.52271014, 0.62592581, 0.12501667], "properties": {"magmom": 0.034}, "label": "La", "xyz": [4.20540875348567, 5.03593786915039, 1.9622376678718605]}, {"species": [{"element": "La", "occu": 1}], "abc": [0.12596497, 0.97754247, 0.87512249], "properties": {"magmom": 0.08}, "label": "La", "xyz": [1.0130036876281103, 7.865261270286592, 13.735754710790292]}, {"species": [{"element": "La", "occu": 1}], "abc": [0.98838751, 0.62055047, 0.05284708], "properties": {"magmom": 0.0}, "label": "La", "xyz": [7.952262037522324, 4.992443265811324, 0.8294776289677019]}, {"species": [{"element": "La", "occu": 1}], "abc": [0.01161249, 0.37944953000000003, 0.55284708], "properties": {"magmom": 0.0}, "label": "La", "xyz": [0.0932351224776764, 3.0530528541886754, 8.677381703967702]}, {"species": [{"element": "La", "occu": 1}], "abc": [0.62055147, 0.98838751, 0.9471529200000001], "properties": {"magmom": 0.0}, "label": "La", "xyz": [4.992451957206023, 7.952261009074262, 14.866330521032298]}, {"species": [{"element": "La", "occu": 1}], "abc": [0.12077336, 0.51173858, 0.80199465], "properties": {"magmom": 0.122}, "label": "La", "xyz": [0.9714764485948966, 4.11739603613307, 12.587954163726398]}, {"species": [{"element": "La", "occu": 1}], "abc": [0.8792266400000001, 0.48826142, 0.30199465000000003], "properties": {"magmom": 0.122}, "label": "La", "xyz": [7.074020711405105, 3.928100083866929, 4.740050088726398]}, {"species": [{"element": "La", "occu": 1}], "abc": [0.51173858, 0.12077436, 0.19800535], "properties": {"magmom": 0.122}, "label": "La", "xyz": [4.117396567816145, 0.9714843690117722, 3.1078539862736023]}, {"species": [{"element": "La", "occu": 1}], "abc": [0.48826142, 0.87922564, 0.69800535], "properties": {"magmom": 0.122}, "label": "La", "xyz": [3.9281005921838563, 7.074011750988228, 10.955758061273603]}, {"species": [{"element": "La", "occu": 1}], "abc": [0.37944853, 0.01161249, 0.44715292], "properties": {"magmom": 0.0}, "label": "La", "xyz": [3.0530452027939767, 0.09323511092573679, 7.018426446032298]}, {"species": [{"element": "La", "occu": 1}], "abc": [0.6926521800000001, 0.6926521800000001, 0.5], "properties": {"magmom": 0.2}, "label": "La", "xyz": [5.57273114705781, 5.572730426699541, 7.847904075]}, {"species": [{"element": "La", "occu": 1}], "abc": [0.80758935, 0.19240965000000002, 0.75], "properties": {"magmom": 0.153}, "label": "La", "xyz": [6.497780821972731, 1.5477080924240731, 11.7718561125]}, {"species": [{"element": "La", "occu": 1}], "abc": [0.19241065000000002, 0.80759035, 0.25], "properties": {"magmom": 0.153}, "label": "La", "xyz": [1.5477163380272692, 6.497788027575926, 3.9239520375]}, {"species": [{"element": "La", "occu": 1}], "abc": [0.30734782, 0.30734782, -0.0], "properties": {"magmom": 0.2}, "label": "La", "xyz": [2.4727660129421913, 2.4727656933004583, 0.0]}, {"species": [{"element": "Si", "occu": 1}], "abc": [0.08011612, 0.71113331, 0.44125031000000003], "properties": {"magmom": -0.009000000000000001}, "label": "Si", "xyz": [0.6442427003546097, 5.7217516019833665, 6.925780211888027]}, {"species": [{"element": "Si", "occu": 1}], "abc": [0.91988388, 0.28886569, 0.94125031], "properties": {"magmom": -0.009000000000000001}, "label": "Si", "xyz": [7.40125446017044, 2.3237364719954634, 14.773684286888027]}, {"species": [{"element": "Si", "occu": 1}], "abc": [0.71113331, 0.08011712, 0.55874969], "properties": {"magmom": -0.009000000000000001}, "label": "Si", "xyz": [5.721752341036959, 0.6442506630550149, 8.770027938111973]}, {"species": [{"element": "Si", "occu": 1}], "abc": [0.21073964, 0.41997356, 0.19090972], "properties": {"magmom": -0.014}, "label": "Si", "xyz": [1.6953953168497264, 3.3790055057522834, 2.996482339090218]}, {"species": [{"element": "Si", "occu": 1}], "abc": [0.78926136, 0.58002644, 0.6909097200000001], "properties": {"magmom": -0.014}, "label": "Si", "xyz": [6.350109889172484, 4.666490613722667, 10.844386414090218]}, {"species": [{"element": "Si", "occu": 1}], "abc": [0.41997356, 0.21073964, 0.80909028], "properties": {"magmom": -0.014}, "label": "Si", "xyz": [3.379005942524786, 1.6953950976805008, 12.699325810909782]}, {"species": [{"element": "Si", "occu": 1}], "abc": [0.58002644, 0.78926136, 0.30909028], "properties": {"magmom": -0.014}, "label": "Si", "xyz": [4.666491216950165, 6.350109068340669, 4.851421735909782]}, {"species": [{"element": "Si", "occu": 1}], "abc": [0.28886569, 0.9198828800000001, 0.05874969], "properties": {"magmom": -0.009000000000000001}, "label": "Si", "xyz": [2.323736772940831, 7.401245457470035, 0.9221238631119735]}, {"species": [{"element": "Si", "occu": 1}], "abc": [0.82883949, 0.80453202, 0.7939539800000001], "properties": {"magmom": -0.005}, "label": "Si", "xyz": [6.6684385255279714, 6.472846482688639, 12.461749350008937]}, {"species": [{"element": "Si", "occu": 1}], "abc": [0.17116051000000002, 0.19546798, 0.29395398], "properties": {"magmom": -0.005}, "label": "Si", "xyz": [1.3770586344720281, 1.5726496373113612, 4.613845275008937]}, {"species": [{"element": "Si", "occu": 1}], "abc": [0.80453202, 0.82883949, 0.20604602], "properties": {"magmom": -0.005}, "label": "Si", "xyz": [6.47284731940194, 6.668437663534902, 3.234058799991063]}, {"species": [{"element": "Si", "occu": 1}], "abc": [0.30416829, 0.67155405, 0.54442928], "properties": {"magmom": -0.006}, "label": "Si", "xyz": [2.4469922174637686, 5.403178399538573, 8.545257530122631]}, {"species": [{"element": "Si", "occu": 1}], "abc": [0.69583171, 0.32844595, 0.04442928], "properties": {"magmom": -0.006}, "label": "Si", "xyz": [5.598504942536231, 2.642317720461426, 0.697353455122632]}, {"species": [{"element": "Si", "occu": 1}], "abc": [0.67155405, 0.30416929, 0.45556972], "properties": {"magmom": -0.006}, "label": "Si", "xyz": [5.403179097429737, 2.446999947149916, 7.150534924069218]}, {"species": [{"element": "Si", "occu": 1}], "abc": [0.32844595, 0.69583071, 0.9555697200000001], "properties": {"magmom": -0.006}, "label": "Si", "xyz": [2.642318062570264, 5.598496172850083, 14.998438999069219]}, {"species": [{"element": "Si", "occu": 1}], "abc": [0.19546798, 0.17116051000000002, 0.70604602], "properties": {"magmom": -0.005}, "label": "Si", "xyz": [1.5726498405980605, 1.3770584564650976, 11.081962874991063]}]}, "task_ids": null, "uncorrected_energy_per_atom": null, "energy_per_atom": -21.19613794916667, "formation_energy_per_atom": -0.7718091263888911, "energy_above_hull": 0.0, "is_stable": true, "equilibrium_reaction_energy_per_atom": null, "decomposes_to": null, "xas": null, "grain_boundaries": null, "band_gap": 0.0, "cbm": null, "vbm": null, "efermi": 7.6946686, "is_gap_direct": null, "is_metal": null, "es_source_calc_id": null, "bandstructure": null, "dos": null, "dos_energy_up": null, "dos_energy_down": null, "is_magnetic": null, "ordering": null, "total_magnetization": 3.6533565, "total_magnetization_normalized_vol": null, "total_magnetization_normalized_formula_units": null, "num_magnetic_sites": null, "num_unique_magnetic_sites": null, "types_of_magnetic_species": null, "bulk_modulus": null, "shear_modulus": null, "universal_anisotropy": null, "homogeneous_poisson": null, "e_total": null, "e_ionic": null, "e_electronic": null, "n": null, "e_ij_max": null, "weighted_surface_energy_EV_PER_ANG2": null, "weighted_surface_energy": null, "weighted_work_function": null, "surface_anisotropy": null, "shape_factor": null, "has_reconstructed": null, "possible_species": null, "has_props": null, "theoretical": null, "database_IDs": null, "fields_not_requested": ["builder_meta", "nsites", "elements", "nelements", "composition", "composition_reduced", "chemsys", "symmetry", "property_name", "deprecated", "deprecation_reasons", "last_updated", "origins", "warnings", "task_ids", "uncorrected_energy_per_atom", "equilibrium_reaction_energy_per_atom", "decomposes_to", "xas", "grain_boundaries", "cbm", "vbm", "is_gap_direct", "is_metal", "es_source_calc_id", "bandstructure", "dos", "dos_energy_up", "dos_energy_down", "is_magnetic", "ordering", "total_magnetization_normalized_vol", "total_magnetization_normalized_formula_units", "num_magnetic_sites", "num_unique_magnetic_sites", "types_of_magnetic_species", "bulk_modulus", "shear_modulus", "universal_anisotropy", "homogeneous_poisson", "e_total", "e_ionic", "e_electronic", "n", "e_ij_max", "weighted_surface_energy_EV_PER_ANG2", "weighted_surface_energy", "weighted_work_function", "surface_anisotropy", "shape_factor", "has_reconstructed", "possible_species", "has_props", "theoretical", "database_IDs"]}