{
  "builder_meta": null,
  "nsites": null,
  "elements": null,
  "nelements": null,
  "composition": null,
  "composition_reduced": null,
  "formula_pretty": "La5Sb3",
  "formula_anonymous": "A3B5",
  "chemsys": null,
  "volume": 531.4256114045568,
  "density": 6.623133962601221,
  "density_atomic": 33.2141007127848,
  "symmetry": null,
  "property_name": null,
  "material_id": "mp-1106084",
  "deprecated": null,
  "deprecation_reasons": null,
  "last_updated": null,
  "origins": null,
  "warnings": null,
  "structure": {
    "@module": "pymatgen.core.structure",
    "@class": "Structure",
    "charge": 0,
    "lattice": {
      "matrix": [
        [-4.33e-6, -1.2240000000000001e-5, -6.67453722],
        [-4.79421061, -8.30391971, -1.844e-5],
        [-4.79406274, 8.30383457, 1.1670000000000002e-5]
      ],
      "pbc": [true, true, true],
      "a": 6.6745372200126285,
      "b": 9.588510725003289,
      "c": 9.588363057431627,
      "alpha": 120.00112842170998,
      "beta": 90.00014214522223,
      "gamma": 89.99978023335092,
      "volume": 531.4256114045567
    },
    "properties": {},
    "sites": [
      {
        "species": [{ "element": "La", "occu": 1 }],
        "abc": [0.50000764, 0.333331899999999, 0.6666635200000001],
        "properties": { "magmom": 0.257 },
        "label": "La",
        "xyz": [-4.794092238013781, 2.7678961294586313, -3.337317970141318]
      },
      {
        "species": [{ "element": "La", "occu": 1 }],
        "abc": [0.50001639, 0.66666779, 0.33333693000000003],
        "properties": { "magmom": 0.257 },
        "label": "La",
        "xyz": [-4.794186113213209, -2.767987198812085, -3.3373864089771104]
      },
      {
        "species": [{ "element": "La", "occu": 1 }],
        "abc": [-8.75e-6, 0.66666795, 0.33333664],
        "properties": { "magmom": 0.257 },
        "label": "La",
        "xyz": [-4.794183324899856, -2.76798481524355, 4.99988822658e-5]
      },
      {
        "species": [{ "element": "La", "occu": 1 }],
        "abc": [3.799999999999998e-6, 0.33333443, 0.66666676],
        "properties": { "magmom": 0.257 },
        "label": "La",
        "xyz": [-4.794117735113279, 2.767908145012765, -2.3729927235999986e-5]
      },
      {
        "species": [{ "element": "La", "occu": 1 }],
        "abc": [0.749993399999999, 0.25478023, 3.259999999999999e-6],
        "properties": { "magmom": 0.082 },
        "label": "La",
        "xyz": [-1.2214889580001946, -2.115656683033851, -5.005863561163738]
      },
      {
        "species": [{ "element": "La", "occu": 1 }],
        "abc": [0.74999277, 0.74510004, 0.74511881],
        "properties": { "magmom": 0.082 },
        "label": "La",
        "xyz": [-7.144316088642258, 8.32452459675892e-5, -5.005859702204124]
      },
      {
        "species": [{ "element": "La", "occu": 1 }],
        "abc": [0.74998917, 0.99998528, 0.25485083000000003],
        "properties": { "magmom": 0.082 },
        "label": "La",
        "xyz": [-6.015914155034002, -6.187567523822116, -5.005846095381285]
      },
      {
        "species": [{ "element": "La", "occu": 1 }],
        "abc": [0.25000285, 0.7452146900000001, 2.64e-6],
        "properties": { "magmom": 0.082 },
        "label": "La",
        "xyz": [-3.572729912363836, -6.18818409038416, -1.6686670691591519]
      },
      {
        "species": [{ "element": "La", "occu": 1 }],
        "abc": [0.25000809, 0.25489855, 0.25488384000000003],
        "properties": { "magmom": 0.082 },
        "label": "La",
        "xyz": [
          -2.443967535790767, -0.00014691156809343298, -1.6686900278409593
        ]
      },
      {
        "species": [{ "element": "La", "occu": 1 }],
        "abc": [0.25000719, 1.7290000000000002e-5, 0.74510818],
        "properties": { "magmom": 0.082 },
        "label": "La",
        "xyz": [-3.5721793374397928, 6.187108428613991, -1.668673599828979]
      },
      {
        "species": [{ "element": "Sb", "occu": 1 }],
        "abc": [0.74998436, 0.61749564, 1.6600000000000004e-5],
        "properties": { "magmom": -0.023 },
        "label": "Sb",
        "xyz": [-2.960486977790503, -5.12750555198977, -5.005809911663759]
      },
      {
        "species": [{ "element": "Sb", "occu": 1 }],
        "abc": [0.749987, 0.38251342, 0.38251058],
        "properties": { "magmom": -0.023 },
        "label": "Sb",
        "xyz": [-3.6676328633088855, -6.532992363794676e-5, -5.0058187356651365]
      },
      {
        "species": [{ "element": "Sb", "occu": 1 }],
        "abc": [0.74999182, 2.5e-7, 0.61748991],
        "properties": { "magmom": -0.023 },
        "label": "Sb",
        "xyz": [-2.9602898158741864, 5.127522805404384, -5.0058411111829]
      },
      {
        "species": [{ "element": "Sb", "occu": 1 }],
        "abc": [0.25001593, 0.38251894000000003, 1.997e-5],
        "properties": { "magmom": -0.023 },
        "label": "Sb",
        "xyz": [-1.8339731806758484, -3.176243797932928, -1.6687476837941184]
      },
      {
        "species": [{ "element": "Sb", "occu": 1 }],
        "abc": [0.25000301, 0.61749583, 0.617500199999999],
        "properties": { "magmom": -0.023 },
        "label": "Sb",
        "xyz": [-5.920740843092333, -1.9345874746612424e-5, -1.6686585757528039]
      },
      {
        "species": [{ "element": "Sb", "occu": 1 }],
        "abc": [0.25000533, -2.222e-5, 0.38249136],
        "properties": { "magmom": -0.023 },
        "label": "Sb",
        "xyz": [-1.8335821325112511, 3.176326430925032, -1.668665416199475]
      }
    ]
  },
  "task_ids": null,
  "uncorrected_energy_per_atom": null,
  "energy_per_atom": -29.41193622625,
  "formation_energy_per_atom": -1.181580199374998,
  "energy_above_hull": 0.010385548750001,
  "is_stable": false,
  "equilibrium_reaction_energy_per_atom": null,
  "decomposes_to": null,
  "xas": null,
  "grain_boundaries": null,
  "band_gap": 0.0,
  "cbm": null,
  "vbm": null,
  "efermi": 8.14096552,
  "is_gap_direct": null,
  "is_metal": null,
  "es_source_calc_id": null,
  "bandstructure": null,
  "dos": null,
  "dos_energy_up": null,
  "dos_energy_down": null,
  "is_magnetic": null,
  "ordering": null,
  "total_magnetization": 3.0786345,
  "total_magnetization_normalized_vol": null,
  "total_magnetization_normalized_formula_units": null,
  "num_magnetic_sites": null,
  "num_unique_magnetic_sites": null,
  "types_of_magnetic_species": null,
  "bulk_modulus": null,
  "shear_modulus": null,
  "universal_anisotropy": null,
  "homogeneous_poisson": null,
  "e_total": null,
  "e_ionic": null,
  "e_electronic": null,
  "n": null,
  "e_ij_max": null,
  "weighted_surface_energy_EV_PER_ANG2": null,
  "weighted_surface_energy": null,
  "weighted_work_function": null,
  "surface_anisotropy": null,
  "shape_factor": null,
  "has_reconstructed": null,
  "possible_species": null,
  "has_props": null,
  "theoretical": null,
  "database_IDs": null,
  "fields_not_requested": [
    "builder_meta",
    "nsites",
    "elements",
    "nelements",
    "composition",
    "composition_reduced",
    "chemsys",
    "symmetry",
    "property_name",
    "deprecated",
    "deprecation_reasons",
    "last_updated",
    "origins",
    "warnings",
    "task_ids",
    "uncorrected_energy_per_atom",
    "equilibrium_reaction_energy_per_atom",
    "decomposes_to",
    "xas",
    "grain_boundaries",
    "cbm",
    "vbm",
    "is_gap_direct",
    "is_metal",
    "es_source_calc_id",
    "bandstructure",
    "dos",
    "dos_energy_up",
    "dos_energy_down",
    "is_magnetic",
    "ordering",
    "total_magnetization_normalized_vol",
    "total_magnetization_normalized_formula_units",
    "num_magnetic_sites",
    "num_unique_magnetic_sites",
    "types_of_magnetic_species",
    "bulk_modulus",
    "shear_modulus",
    "universal_anisotropy",
    "homogeneous_poisson",
    "e_total",
    "e_ionic",
    "e_electronic",
    "n",
    "e_ij_max",
    "weighted_surface_energy_EV_PER_ANG2",
    "weighted_surface_energy",
    "weighted_work_function",
    "surface_anisotropy",
    "shape_factor",
    "has_reconstructed",
    "possible_species",
    "has_props",
    "theoretical",
    "database_IDs"
  ]
}
