{
  "builder_meta": null,
  "nsites": null,
  "elements": null,
  "nelements": null,
  "composition": null,
  "composition_reduced": null,
  "formula_pretty": "La5S7",
  "formula_anonymous": "A5B7",
  "chemsys": null,
  "volume": 655.4563551984438,
  "density": 4.656316417067512,
  "density_atomic": 27.310681466601824,
  "symmetry": null,
  "property_name": null,
  "material_id": "mp-1223399",
  "deprecated": null,
  "deprecation_reasons": null,
  "last_updated": null,
  "origins": null,
  "warnings": null,
  "structure": {
    "@module": "pymatgen.core.structure",
    "@class": "Structure",
    "charge": 0,
    "lattice": {
      "matrix": [
        [7.769566, 7.780395, 0.0],
        [-7.769566, 7.780395, 0.0],
        [0.0, 0.017797999999999002, 5.421449]
      ],
      "pbc": [true, true, true],
      "a": 10.995485536545488,
      "b": 10.995485536545488,
      "c": 5.421478214325407,
      "alpha": 89.86690438634315,
      "beta": 89.86690438634315,
      "gamma": 89.92019839843384,
      "volume": 655.4563551984438
    },
    "properties": {},
    "sites": [
      {
        "species": [{ "element": "La", "occu": 1 }],
        "abc": [0.832347, 0.832347, 0.542724],
        "properties": { "magmom": -0.024 },
        "label": "La",
        "xyz": [0.0, 12.961636275882, 2.9423504870759998]
      },
      {
        "species": [{ "element": "La", "occu": 1 }],
        "abc": [0.162592, 0.162592, 0.544256],
        "properties": { "magmom": -0.059000000000000004 },
        "label": "La",
        "xyz": [0.0, 2.539746635967999, 2.9506561469439996]
      },
      {
        "species": [{ "element": "La", "occu": 1 }],
        "abc": [0.638803999999999, 0.347265, 0.54422],
        "properties": { "magmom": -0.146 },
        "label": "La",
        "xyz": [2.265131502073993, 7.681692344814992, 2.9504609747800004]
      },
      {
        "species": [{ "element": "La", "occu": 1 }],
        "abc": [0.347265, 0.638803999999999, 0.54422],
        "properties": { "magmom": -0.14400000000000002 },
        "label": "La",
        "xyz": [-2.265131502073993, 7.681692344814992, 2.9504609747800004]
      },
      {
        "species": [{ "element": "La", "occu": 1 }],
        "abc": [0.166964, 0.819037, 0.046985],
        "properties": { "magmom": -0.02 },
        "label": "La",
        "xyz": [-5.066324210318001, 7.672313489425, 0.254726781265]
      },
      {
        "species": [{ "element": "La", "occu": 1 }],
        "abc": [0.819037, 0.166964, 0.046985],
        "properties": { "magmom": -0.02 },
        "label": "La",
        "xyz": [5.066324210318001, 7.672313489425, 0.254726781265]
      },
      {
        "species": [{ "element": "La", "occu": 1 }],
        "abc": [0.329148999999999, 0.329148999999999, 0.033075],
        "properties": { "magmom": -0.138 },
        "label": "La",
        "xyz": [0.0, 5.122407136559985, 0.179314425675]
      },
      {
        "species": [{ "element": "La", "occu": 1 }],
        "abc": [0.66008, 0.66008, 0.037925],
        "properties": { "magmom": -0.091 },
        "label": "La",
        "xyz": [0.0, 10.27204125235, 0.205608453325]
      },
      {
        "species": [{ "element": "La", "occu": 1 }],
        "abc": [0.502085, 0.995691999999999, 0.82986],
        "properties": { "magmom": -0.015 },
        "label": "La",
        "xyz": [-3.8351121645619926, 11.668066530194992, 4.4990436671400005]
      },
      {
        "species": [{ "element": "La", "occu": 1 }],
        "abc": [0.995691999999999, 0.502085, 0.82986],
        "properties": { "magmom": -0.013000000000000001 },
        "label": "La",
        "xyz": [3.8351121645619926, 11.668066530194992, 4.4990436671400005]
      },
      {
        "species": [{ "element": "S", "occu": 1 }],
        "abc": [0.057458999999999004, 0.260306, 0.014882],
        "properties": { "magmom": 0.001 },
        "label": "S",
        "xyz": [-1.5760331544020074, 2.4726020870109924, 0.08068200401799999]
      },
      {
        "species": [{ "element": "S", "occu": 1 }],
        "abc": [0.923488, 0.727148, 0.040582],
        "properties": { "magmom": -0.004 },
        "label": "S",
        "xyz": [1.5254765884400001, 12.843322359656, 0.220013243318]
      },
      {
        "species": [{ "element": "S", "occu": 1 }],
        "abc": [0.417578, 0.771959, 0.037742],
        "properties": { "magmom": 0.004 },
        "label": "S",
        "xyz": [-2.753386568646, 9.255739459231, 0.204616328158]
      },
      {
        "species": [{ "element": "S", "occu": 1 }],
        "abc": [0.569041, 0.226662, 0.036236],
        "properties": { "magmom": 0.004 },
        "label": "S",
        "xyz": [2.660136237514, 6.1915285710129995, 0.19645162596399998]
      },
      {
        "species": [{ "element": "S", "occu": 1 }],
        "abc": [0.771959, 0.417578, 0.037742],
        "properties": { "magmom": 0.001 },
        "label": "S",
        "xyz": [2.753386568646, 9.255739459231, 0.204616328158]
      },
      {
        "species": [{ "element": "S", "occu": 1 }],
        "abc": [0.226662, 0.569041, 0.036236],
        "properties": { "magmom": 0.001 },
        "label": "S",
        "xyz": [-2.660136237514, 6.1915285710129995, 0.19645162596399998]
      },
      {
        "species": [{ "element": "S", "occu": 1 }],
        "abc": [0.260306, 0.057458999999999004, 0.014882],
        "properties": { "magmom": 0.003 },
        "label": "S",
        "xyz": [1.5760331544020074, 2.4726020870109924, 0.08068200401799999]
      },
      {
        "species": [{ "element": "S", "occu": 1 }],
        "abc": [0.727148, 0.923488, 0.040582],
        "properties": { "magmom": 0.001 },
        "label": "S",
        "xyz": [-1.5254765884400001, 12.843322359656, 0.220013243318]
      },
      {
        "species": [{ "element": "S", "occu": 1 }],
        "abc": [0.409005, 0.204974, 0.535372],
        "properties": { "magmom": 0.007 },
        "label": "S",
        "xyz": [1.5852323205460004, 4.786527692560999, 2.902491994028]
      },
      {
        "species": [{ "element": "S", "occu": 1 }],
        "abc": [0.576869, 0.778519, 0.543906],
        "properties": { "magmom": 0.005 },
        "label": "S",
        "xyz": [-1.5667329839000006, 10.555134457247998, 2.9487586397939998]
      },
      {
        "species": [{ "element": "S", "occu": 1 }],
        "abc": [0.11894, 0.795037, 0.547225],
        "properties": { "magmom": -0.005 },
        "label": "S",
        "xyz": [-5.252980263902001, 7.120841591464999, 2.9667524290249996]
      },
      {
        "species": [{ "element": "S", "occu": 1 }],
        "abc": [0.795037, 0.11894, 0.547225],
        "properties": { "magmom": -0.001 },
        "label": "S",
        "xyz": [5.252980263902001, 7.120841591464999, 2.9667524290249996]
      },
      {
        "species": [{ "element": "S", "occu": 1 }],
        "abc": [0.204974, 0.409005, 0.535372],
        "properties": { "magmom": 0.007 },
        "label": "S",
        "xyz": [-1.5852323205460004, 4.786527692560999, 2.902491994028]
      },
      {
        "species": [{ "element": "S", "occu": 1 }],
        "abc": [0.778519, 0.576869, 0.543906],
        "properties": { "magmom": 0.004 },
        "label": "S",
        "xyz": [1.5667329839000006, 10.555134457247998, 2.9487586397939998]
      }
    ]
  },
  "task_ids": null,
  "uncorrected_energy_per_atom": null,
  "energy_per_atom": -19.32477798958333,
  "formation_energy_per_atom": -2.244036772890619,
  "energy_above_hull": 0.25072544833333704,
  "is_stable": false,
  "equilibrium_reaction_energy_per_atom": null,
  "decomposes_to": null,
  "xas": null,
  "grain_boundaries": null,
  "band_gap": 0.0,
  "cbm": null,
  "vbm": null,
  "efermi": 6.72779156,
  "is_gap_direct": null,
  "is_metal": null,
  "es_source_calc_id": null,
  "bandstructure": null,
  "dos": null,
  "dos_energy_up": null,
  "dos_energy_down": null,
  "is_magnetic": null,
  "ordering": null,
  "total_magnetization": 1.981946,
  "total_magnetization_normalized_vol": null,
  "total_magnetization_normalized_formula_units": null,
  "num_magnetic_sites": null,
  "num_unique_magnetic_sites": null,
  "types_of_magnetic_species": null,
  "bulk_modulus": null,
  "shear_modulus": null,
  "universal_anisotropy": null,
  "homogeneous_poisson": null,
  "e_total": null,
  "e_ionic": null,
  "e_electronic": null,
  "n": null,
  "e_ij_max": null,
  "weighted_surface_energy_EV_PER_ANG2": null,
  "weighted_surface_energy": null,
  "weighted_work_function": null,
  "surface_anisotropy": null,
  "shape_factor": null,
  "has_reconstructed": null,
  "possible_species": null,
  "has_props": null,
  "theoretical": null,
  "database_IDs": null,
  "fields_not_requested": [
    "builder_meta",
    "nsites",
    "elements",
    "nelements",
    "composition",
    "composition_reduced",
    "chemsys",
    "symmetry",
    "property_name",
    "deprecated",
    "deprecation_reasons",
    "last_updated",
    "origins",
    "warnings",
    "task_ids",
    "uncorrected_energy_per_atom",
    "equilibrium_reaction_energy_per_atom",
    "decomposes_to",
    "xas",
    "grain_boundaries",
    "cbm",
    "vbm",
    "is_gap_direct",
    "is_metal",
    "es_source_calc_id",
    "bandstructure",
    "dos",
    "dos_energy_up",
    "dos_energy_down",
    "is_magnetic",
    "ordering",
    "total_magnetization_normalized_vol",
    "total_magnetization_normalized_formula_units",
    "num_magnetic_sites",
    "num_unique_magnetic_sites",
    "types_of_magnetic_species",
    "bulk_modulus",
    "shear_modulus",
    "universal_anisotropy",
    "homogeneous_poisson",
    "e_total",
    "e_ionic",
    "e_electronic",
    "n",
    "e_ij_max",
    "weighted_surface_energy_EV_PER_ANG2",
    "weighted_surface_energy",
    "weighted_work_function",
    "surface_anisotropy",
    "shape_factor",
    "has_reconstructed",
    "possible_species",
    "has_props",
    "theoretical",
    "database_IDs"
  ]
}
