{
  "builder_meta": null,
  "nsites": null,
  "elements": null,
  "nelements": null,
  "composition": null,
  "composition_reduced": null,
  "formula_pretty": "La5Sn3",
  "formula_anonymous": "A3B5",
  "chemsys": null,
  "volume": 533.1975145289032,
  "density": 6.544132437777357,
  "density_atomic": 33.32484465805645,
  "symmetry": null,
  "property_name": null,
  "material_id": "mp-510494",
  "deprecated": null,
  "deprecation_reasons": null,
  "last_updated": null,
  "origins": null,
  "warnings": null,
  "structure": {
    "@module": "pymatgen.core.structure",
    "@class": "Structure",
    "charge": 0,
    "lattice": {
      "matrix": [
        [6.08844001, 5.6810000000000013e-5, 2.14249835],
        [3.04323307, 9.08905401, 1.07125843],
        [0.02761611, 0.000365, 9.64500729]
      ],
      "pbc": [true, true, true],
      "a": 6.454409418246483,
      "b": 9.644675470895056,
      "c": 9.645046832800228,
      "alpha": 83.56873550373132,
      "beta": 70.44917598946324,
      "gamma": 70.4565220891271,
      "volume": 533.1975145289032
    },
    "properties": {},
    "sites": [
      {
        "species": [{ "element": "La", "occu": 1 }],
        "abc": [0.25001097, 0.5000215100000001, 0.49996125],
        "properties": { "magmom": 0.371 },
        "label": "La",
        "xyz": [3.0576657725059833, 4.544919199531211, 5.8934302494432425]
      },
      {
        "species": [{ "element": "La", "occu": 1 }],
        "abc": [0.7499890300000001, 0.49997849, 0.50003875],
        "properties": { "magmom": 0.371 },
        "label": "La",
        "xyz": [6.101623417494018, 4.54455662046879, 6.965333820556758]
      },
      {
        "species": [{ "element": "La", "occu": 1 }],
        "abc": [0.08352231, 0.13203974000000002, 0.70104727],
        "properties": { "magmom": 0.277 },
        "label": "La",
        "xyz": [0.9297084757773446, 1.200376955482339, 7.082001125717795]
      },
      {
        "species": [{ "element": "La", "occu": 1 }],
        "abc": [0.78470001, 0.29889805, 0.13200188000000002],
        "properties": { "magmom": 0.277 },
        "label": "La",
        "xyz": [5.690860745488201, 2.7167932794274487, 3.2745746273367504]
      },
      {
        "species": [{ "element": "La", "occu": 1 }],
        "abc": [0.21529999, 0.70110195, 0.86799812],
        "properties": { "magmom": 0.277 },
        "label": "La",
        "xyz": [3.4684284445117997, 6.372682540572551, 9.58418944266325]
      },
      {
        "species": [{ "element": "La", "occu": 1 }],
        "abc": [0.91647769, 0.86796026, 0.29895273],
        "properties": { "magmom": 0.277 },
        "label": "La",
        "xyz": [8.229580714222655, 7.8890988645176625, 5.776762944282205]
      },
      {
        "species": [{ "element": "La", "occu": 1 }],
        "abc": [0.28464595, 0.13199406, 0.29883469],
        "properties": { "magmom": 0.277 },
        "label": "La",
        "xyz": [2.1429911307708798, 1.19982638573745, 3.6335159912489985]
      },
      {
        "species": [{ "element": "La", "occu": 1 }],
        "abc": [0.71535405, 0.86800594, 0.70116531],
        "properties": { "magmom": 0.277 },
        "label": "La",
        "xyz": [7.01629805922912, 7.88964943426255, 9.225248078751001]
      },
      {
        "species": [{ "element": "La", "occu": 1 }],
        "abc": [0.41653249000000003, 0.29889774, 0.86795144],
        "properties": { "magmom": 0.277 },
        "label": "La",
        "xyz": [3.4696180069388856, 2.7170381678132944, 9.584014862395339]
      },
      {
        "species": [{ "element": "La", "occu": 1 }],
        "abc": [0.58346751, 0.70110226, 0.13204856],
        "properties": { "magmom": 0.277 },
        "label": "La",
        "xyz": [5.689671183061115, 6.372437652186705, 3.2747492076046623]
      },
      {
        "species": [{ "element": "Sn", "occu": 1 }],
        "abc": [0.24998375, -4.9000000000000005e-6, -9.45e-6],
        "properties": { "magmom": -0.052000000000000005 },
        "label": "Sn",
        "xyz": [1.521995892535555, -3.03382370615e-5, 0.535493377416615]
      },
      {
        "species": [{ "element": "Sn", "occu": 1 }],
        "abc": [0.75001625, 4.9000000000000005e-6, 9.45e-6],
        "properties": { "magmom": -0.052000000000000005 },
        "label": "Sn",
        "xyz": [4.566444117464445, 8.714823706150001e-5, 1.607004972583385]
      },
      {
        "species": [{ "element": "Sn", "occu": 1 }],
        "abc": [0.159652799999999, 0.5000757, 0.18029545],
        "properties": { "magmom": -0.059000000000000004 },
        "label": "Sn",
        "xyz": [2.4988624619516204, 4.545289924103375, 2.6167170994398594]
      },
      {
        "species": [{ "element": "Sn", "occu": 1 }],
        "abc": [0.3403363, 0.81972077, 0.49992271],
        "properties": { "magmom": -0.059000000000000004 },
        "label": "Sn",
        "xyz": [4.580524421756085, 7.45068815794314, 6.4290609286902525]
      },
      {
        "species": [{ "element": "Sn", "occu": 1 }],
        "abc": [0.6596637, 0.18027923, 0.50007729],
        "properties": { "magmom": -0.059000000000000004 },
        "label": "Sn",
        "xyz": [4.578764768243915, 1.6387876620568593, 6.429703141309748]
      },
      {
        "species": [{ "element": "Sn", "occu": 1 }],
        "abc": [0.8403472, 0.4999243, 0.81970455],
        "properties": { "magmom": -0.059000000000000004 },
        "label": "Sn",
        "xyz": [6.660426728048373, 4.544185895896625, 10.24204697056014]
      }
    ]
  },
  "task_ids": null,
  "uncorrected_energy_per_atom": null,
  "energy_per_atom": -28.71025230125,
  "formation_energy_per_atom": -0.8399457556250021,
  "energy_above_hull": 0.0,
  "is_stable": true,
  "equilibrium_reaction_energy_per_atom": null,
  "decomposes_to": null,
  "xas": null,
  "grain_boundaries": null,
  "band_gap": 0.0,
  "cbm": null,
  "vbm": null,
  "efermi": 8.03200199,
  "is_gap_direct": null,
  "is_metal": null,
  "es_source_calc_id": null,
  "bandstructure": null,
  "dos": null,
  "dos_energy_up": null,
  "dos_energy_down": null,
  "is_magnetic": null,
  "ordering": null,
  "total_magnetization": 6.6876857,
  "total_magnetization_normalized_vol": null,
  "total_magnetization_normalized_formula_units": null,
  "num_magnetic_sites": null,
  "num_unique_magnetic_sites": null,
  "types_of_magnetic_species": null,
  "bulk_modulus": null,
  "shear_modulus": null,
  "universal_anisotropy": null,
  "homogeneous_poisson": null,
  "e_total": null,
  "e_ionic": null,
  "e_electronic": null,
  "n": null,
  "e_ij_max": null,
  "weighted_surface_energy_EV_PER_ANG2": null,
  "weighted_surface_energy": null,
  "weighted_work_function": null,
  "surface_anisotropy": null,
  "shape_factor": null,
  "has_reconstructed": null,
  "possible_species": null,
  "has_props": null,
  "theoretical": null,
  "database_IDs": null,
  "fields_not_requested": [
    "builder_meta",
    "nsites",
    "elements",
    "nelements",
    "composition",
    "composition_reduced",
    "chemsys",
    "symmetry",
    "property_name",
    "deprecated",
    "deprecation_reasons",
    "last_updated",
    "origins",
    "warnings",
    "task_ids",
    "uncorrected_energy_per_atom",
    "equilibrium_reaction_energy_per_atom",
    "decomposes_to",
    "xas",
    "grain_boundaries",
    "cbm",
    "vbm",
    "is_gap_direct",
    "is_metal",
    "es_source_calc_id",
    "bandstructure",
    "dos",
    "dos_energy_up",
    "dos_energy_down",
    "is_magnetic",
    "ordering",
    "total_magnetization_normalized_vol",
    "total_magnetization_normalized_formula_units",
    "num_magnetic_sites",
    "num_unique_magnetic_sites",
    "types_of_magnetic_species",
    "bulk_modulus",
    "shear_modulus",
    "universal_anisotropy",
    "homogeneous_poisson",
    "e_total",
    "e_ionic",
    "e_electronic",
    "n",
    "e_ij_max",
    "weighted_surface_energy_EV_PER_ANG2",
    "weighted_surface_energy",
    "weighted_work_function",
    "surface_anisotropy",
    "shape_factor",
    "has_reconstructed",
    "possible_species",
    "has_props",
    "theoretical",
    "database_IDs"
  ]
}
