{
  "builder_meta": null,
  "nsites": null,
  "elements": null,
  "nelements": null,
  "composition": null,
  "composition_reduced": null,
  "formula_pretty": "La5Tl3",
  "formula_anonymous": "A3B5",
  "chemsys": null,
  "volume": 530.0329135415607,
  "density": 8.193638940721323,
  "density_atomic": 33.12705709634754,
  "symmetry": null,
  "property_name": null,
  "material_id": "mp-1189767",
  "deprecated": null,
  "deprecation_reasons": null,
  "last_updated": null,
  "origins": null,
  "warnings": null,
  "structure": {
    "@module": "pymatgen.core.structure",
    "@class": "Structure",
    "charge": 0,
    "lattice": {
      "matrix": [
        [0.0, 0.0, -6.392902],
        [-6.43854, -6.43854, -3.196451],
        [-6.43854, 6.43854, -3.196451]
      ],
      "pbc": [true, true, true],
      "a": 6.392902,
      "b": 9.650227648019554,
      "c": 9.650227648019554,
      "alpha": 83.7011862931392,
      "beta": 70.65651315036285,
      "gamma": 70.65651315036285,
      "volume": 530.0329135415607
    },
    "properties": {},
    "sites": [
      {
        "species": [{ "element": "La", "occu": 1 }],
        "abc": [0.221188, 0.6961700000000001, 0.861455],
        "properties": { "magmom": 0.036000000000000004 },
        "label": "La",
        "xyz": [-10.028830867499998, 1.0641940838999995, -6.392905196451]
      },
      {
        "species": [{ "element": "La", "occu": 1 }],
        "abc": [0.778812, 0.30383000000000004, 0.138545],
        "properties": { "magmom": 0.036000000000000004 },
        "label": "La",
        "xyz": [-2.8482491325000003, -1.0641940839000001, -6.3928988035489995]
      },
      {
        "species": [{ "element": "La", "occu": 1 }],
        "abc": [0.278812, 0.138545, 0.30383000000000004],
        "properties": { "magmom": 0.036000000000000004 },
        "label": "La",
        "xyz": [-2.8482491325000003, 1.0641940839000001, -3.1964478035490003]
      },
      {
        "species": [{ "element": "La", "occu": 1 }],
        "abc": [0.721187999999999, 0.861455, 0.6961700000000001],
        "properties": { "magmom": 0.036000000000000004 },
        "label": "La",
        "xyz": [-10.028830867499998, -1.0641940838999995, -9.589356196450995]
      },
      {
        "species": [{ "element": "La", "occu": 1 }],
        "abc": [0.082642, 0.138545, 0.6961700000000001],
        "properties": { "magmom": 0.036000000000000004 },
        "label": "La",
        "xyz": [-5.374345916099999, 3.5902908675, -3.1964478035490003]
      },
      {
        "species": [{ "element": "La", "occu": 1 }],
        "abc": [0.917358, 0.861455, 0.30383000000000004],
        "properties": { "magmom": 0.036000000000000004 },
        "label": "La",
        "xyz": [-7.502734083899999, -3.5902908674999994, -9.589356196451]
      },
      {
        "species": [{ "element": "La", "occu": 1 }],
        "abc": [0.582642, 0.6961700000000001, 0.138545],
        "properties": { "magmom": 0.036000000000000004 },
        "label": "La",
        "xyz": [-5.374345916099999, -3.5902908675, -6.392898803549]
      },
      {
        "species": [{ "element": "La", "occu": 1 }],
        "abc": [0.417358, 0.30383000000000004, 0.861455],
        "properties": { "magmom": 0.036000000000000004 },
        "label": "La",
        "xyz": [-7.502734083899999, 3.5902908674999994, -6.392905196451]
      },
      {
        "species": [{ "element": "La", "occu": 1 }],
        "abc": [0.75, 0.5, 0.5],
        "properties": { "magmom": 0.03 },
        "label": "La",
        "xyz": [-6.43854, 0.0, -7.9911275]
      },
      {
        "species": [{ "element": "La", "occu": 1 }],
        "abc": [0.25, 0.5, 0.5],
        "properties": { "magmom": 0.03 },
        "label": "La",
        "xyz": [-6.43854, 0.0, -4.7946765000000005]
      },
      {
        "species": [{ "element": "Tl", "occu": 1 }],
        "abc": [0.663385, 0.173229, 0.5],
        "properties": { "magmom": -0.001 },
        "label": "Tl",
        "xyz": [-4.33461184566, 2.10392815434, -6.3928988035489995]
      },
      {
        "species": [{ "element": "Tl", "occu": 1 }],
        "abc": [0.336615, 0.826770999999999, 0.5],
        "properties": { "magmom": -0.001 },
        "label": "Tl",
        "xyz": [-8.542468154339993, -2.103928154339994, -6.392905196450997]
      },
      {
        "species": [{ "element": "Tl", "occu": 1 }],
        "abc": [0.836615, 0.5, 0.826770999999999],
        "properties": { "magmom": -0.001 },
        "label": "Tl",
        "xyz": [-8.542468154339993, 2.103928154339994, -9.589356196450996]
      },
      {
        "species": [{ "element": "Tl", "occu": 1 }],
        "abc": [0.163385, 0.5, 0.173229],
        "properties": { "magmom": -0.001 },
        "label": "Tl",
        "xyz": [-4.33461184566, -2.10392815434, -3.196447803549]
      },
      {
        "species": [{ "element": "Tl", "occu": 1 }],
        "abc": [0.25, 0.0, 0.0],
        "properties": { "magmom": 0.003 },
        "label": "Tl",
        "xyz": [0.0, 0.0, -1.5982255]
      },
      {
        "species": [{ "element": "Tl", "occu": 1 }],
        "abc": [0.75, 0.0, 0.0],
        "properties": { "magmom": 0.003 },
        "label": "Tl",
        "xyz": [0.0, 0.0, -4.7946765000000005]
      }
    ]
  },
  "task_ids": null,
  "uncorrected_energy_per_atom": null,
  "energy_per_atom": -4.32119982,
  "formation_energy_per_atom": -0.346893335625004,
  "energy_above_hull": 0.0,
  "is_stable": true,
  "equilibrium_reaction_energy_per_atom": null,
  "decomposes_to": null,
  "xas": null,
  "grain_boundaries": null,
  "band_gap": 0.0,
  "cbm": null,
  "vbm": null,
  "efermi": 7.68302443,
  "is_gap_direct": null,
  "is_metal": null,
  "es_source_calc_id": null,
  "bandstructure": null,
  "dos": null,
  "dos_energy_up": null,
  "dos_energy_down": null,
  "is_magnetic": null,
  "ordering": null,
  "total_magnetization": 0.9124903,
  "total_magnetization_normalized_vol": null,
  "total_magnetization_normalized_formula_units": null,
  "num_magnetic_sites": null,
  "num_unique_magnetic_sites": null,
  "types_of_magnetic_species": null,
  "bulk_modulus": null,
  "shear_modulus": null,
  "universal_anisotropy": null,
  "homogeneous_poisson": null,
  "e_total": null,
  "e_ionic": null,
  "e_electronic": null,
  "n": null,
  "e_ij_max": null,
  "weighted_surface_energy_EV_PER_ANG2": null,
  "weighted_surface_energy": null,
  "weighted_work_function": null,
  "surface_anisotropy": null,
  "shape_factor": null,
  "has_reconstructed": null,
  "possible_species": null,
  "has_props": null,
  "theoretical": null,
  "database_IDs": null,
  "fields_not_requested": [
    "builder_meta",
    "nsites",
    "elements",
    "nelements",
    "composition",
    "composition_reduced",
    "chemsys",
    "symmetry",
    "property_name",
    "deprecated",
    "deprecation_reasons",
    "last_updated",
    "origins",
    "warnings",
    "task_ids",
    "uncorrected_energy_per_atom",
    "equilibrium_reaction_energy_per_atom",
    "decomposes_to",
    "xas",
    "grain_boundaries",
    "cbm",
    "vbm",
    "is_gap_direct",
    "is_metal",
    "es_source_calc_id",
    "bandstructure",
    "dos",
    "dos_energy_up",
    "dos_energy_down",
    "is_magnetic",
    "ordering",
    "total_magnetization_normalized_vol",
    "total_magnetization_normalized_formula_units",
    "num_magnetic_sites",
    "num_unique_magnetic_sites",
    "types_of_magnetic_species",
    "bulk_modulus",
    "shear_modulus",
    "universal_anisotropy",
    "homogeneous_poisson",
    "e_total",
    "e_ionic",
    "e_electronic",
    "n",
    "e_ij_max",
    "weighted_surface_energy_EV_PER_ANG2",
    "weighted_surface_energy",
    "weighted_work_function",
    "surface_anisotropy",
    "shape_factor",
    "has_reconstructed",
    "possible_species",
    "has_props",
    "theoretical",
    "database_IDs"
  ]
}
