{"builder_meta": null, "nsites": null, "elements": null, "nelements": null, "composition": null, "composition_reduced": null, "formula_pretty": "La7Ir3", "formula_anonymous": "A3B7", "chemsys": null, "volume": 593.6199608388913, "density": 8.666006534399811, "density_atomic": 29.680998041944566, "symmetry": null, "property_name": null, "material_id": "mp-1105837", "deprecated": null, "deprecation_reasons": null, "last_updated": null, "origins": null, "warnings": null, "structure": {"@module": "pymatgen.core.structure", "@class": "Structure", "charge": 0, "lattice": {"matrix": [[0.0, 0.0, -6.479866], [-5.143879, -8.90475, 0.0], [-5.143879, 8.90475, 0.0]], "pbc": [true, true, true], "a": 6.479866, "b": 10.283679483975616, "c": 10.283679483975616, "alpha": 119.97375936412037, "beta": 90.0, "gamma": 90.0, "volume": 593.6199608388913}, "properties": {}, "sites": [{"species": [{"element": "La", "occu": 1}], "abc": [0.46736000000000005, 0.333299, 0.666701], "properties": {"magmom": 0.051000000000000004}, "label": "La", "xyz": [-5.143879, 2.9688614594999994, -3.0284301737600003]}, {"species": [{"element": "La", "occu": 1}], "abc": [0.9673600000000001, 0.666701, 0.333299], "properties": {"magmom": 0.051000000000000004}, "label": "La", "xyz": [-5.143879, -2.9688614594999994, -6.268363173760001]}, {"species": [{"element": "La", "occu": 1}], "abc": [0.249956999999999, 0.125519, 0.874481], "properties": {"magmom": 0.028}, "label": "La", "xyz": [-5.143878999999999, 6.669319369499999, -1.6196878657619938]}, {"species": [{"element": "La", "occu": 1}], "abc": [0.249965, 0.748877999999999, 0.874464999999999], "properties": {"magmom": 0.024}, "label": "La", "xyz": [-8.350279967496991, 1.1183208382499998, -1.61973970469]}, {"species": [{"element": "La", "occu": 1}], "abc": [0.249965, 0.125535, 0.251122], "properties": {"magmom": 0.024}, "label": "La", "xyz": [-1.937478032503, 1.1183208382499998, -1.61973970469]}, {"species": [{"element": "La", "occu": 1}], "abc": [0.749957, 0.874481, 0.125519], "properties": {"magmom": 0.028}, "label": "La", "xyz": [-5.143878999999999, -6.669319369499999, -4.859620865762]}, {"species": [{"element": "La", "occu": 1}], "abc": [0.749965, 0.251122, 0.125535], "properties": {"magmom": 0.024}, "label": "La", "xyz": [-1.937478032503, -1.1183208382499998, -4.85967270469]}, {"species": [{"element": "La", "occu": 1}], "abc": [0.749965, 0.874464999999999, 0.748877999999999], "properties": {"magmom": 0.024}, "label": "La", "xyz": [-8.350279967496991, -1.1183208382499998, -4.85967270469]}, {"species": [{"element": "La", "occu": 1}], "abc": [0.44004000000000004, 0.540148, 0.459852], "properties": {"magmom": 0.054}, "label": "La", "xyz": [-5.143879, -0.7150158059999994, -2.8514002346400003]}, {"species": [{"element": "La", "occu": 1}], "abc": [0.439895, 0.919744999999999, 0.459933], "properties": {"magmom": 0.043000000000000003}, "label": "La", "xyz": [-7.096896690961994, -4.094510906999991, -2.85046065407]}, {"species": [{"element": "La", "occu": 1}], "abc": [0.439895, 0.540067, 0.08025499999999901], "properties": {"magmom": 0.043000000000000003}, "label": "La", "xyz": [-3.1908613090379947, -4.094510907000008, -2.85046065407]}, {"species": [{"element": "La", "occu": 1}], "abc": [0.9400400000000001, 0.459852, 0.540148], "properties": {"magmom": 0.054}, "label": "La", "xyz": [-5.143879, 0.7150158059999994, -6.091333234640001]}, {"species": [{"element": "La", "occu": 1}], "abc": [0.939894999999999, 0.08025499999999901, 0.540067], "properties": {"magmom": 0.043000000000000003}, "label": "La", "xyz": [-3.1908613090379947, 4.094510907000008, -6.090393654069994]}, {"species": [{"element": "La", "occu": 1}], "abc": [0.939894999999999, 0.459933, 0.919744999999999], "properties": {"magmom": 0.043000000000000003}, "label": "La", "xyz": [-7.096896690961994, 4.094510906999991, -6.090393654069994]}, {"species": [{"element": "Ir", "occu": 1}], "abc": [0.187968, 0.811147, 0.188853], "properties": {"magmom": 0.008}, "label": "Ir", "xyz": [-5.143878999999999, -5.541372496499999, -1.218007452288]}, {"species": [{"element": "Ir", "occu": 1}], "abc": [0.187977, 0.377691, 0.188859], "properties": {"magmom": 0.005}, "label": "Ir", "xyz": [-2.91426464745, -1.6815017520000002, -1.2180657710820002]}, {"species": [{"element": "Ir", "occu": 1}], "abc": [0.187977, 0.811141, 0.622309], "properties": {"magmom": 0.005}, "label": "Ir", "xyz": [-7.37349335255, -1.681501752, -1.2180657710820002]}, {"species": [{"element": "Ir", "occu": 1}], "abc": [0.687968, 0.188853, 0.811147], "properties": {"magmom": 0.008}, "label": "Ir", "xyz": [-5.143878999999999, 5.541372496499999, -4.457940452288001]}, {"species": [{"element": "Ir", "occu": 1}], "abc": [0.687977, 0.622309, 0.811141], "properties": {"magmom": 0.005}, "label": "Ir", "xyz": [-7.37349335255, 1.681501752, -4.457998771082]}, {"species": [{"element": "Ir", "occu": 1}], "abc": [0.687977, 0.188859, 0.377691], "properties": {"magmom": 0.005}, "label": "Ir", "xyz": [-2.91426464745, 1.6815017520000002, -4.457998771082]}]}, "task_ids": null, "uncorrected_energy_per_atom": null, "energy_per_atom": -6.6925785565, "formation_energy_per_atom": -0.585843329000001, "energy_above_hull": 0.0, "is_stable": true, "equilibrium_reaction_energy_per_atom": null, "decomposes_to": null, "xas": null, "grain_boundaries": null, "band_gap": 0.0, "cbm": null, "vbm": null, "efermi": 8.18095115, "is_gap_direct": null, "is_metal": null, "es_source_calc_id": null, "bandstructure": null, "dos": null, "dos_energy_up": null, "dos_energy_down": null, "is_magnetic": null, "ordering": null, "total_magnetization": 1.2825868, "total_magnetization_normalized_vol": null, "total_magnetization_normalized_formula_units": null, "num_magnetic_sites": null, "num_unique_magnetic_sites": null, "types_of_magnetic_species": null, "bulk_modulus": null, "shear_modulus": null, "universal_anisotropy": null, "homogeneous_poisson": null, "e_total": null, "e_ionic": null, "e_electronic": null, "n": null, "e_ij_max": null, "weighted_surface_energy_EV_PER_ANG2": null, "weighted_surface_energy": null, "weighted_work_function": null, "surface_anisotropy": null, "shape_factor": null, "has_reconstructed": null, "possible_species": null, "has_props": null, "theoretical": null, "database_IDs": null, "fields_not_requested": ["builder_meta", "nsites", "elements", "nelements", "composition", "composition_reduced", "chemsys", "symmetry", "property_name", "deprecated", "deprecation_reasons", "last_updated", "origins", "warnings", "task_ids", "uncorrected_energy_per_atom", "equilibrium_reaction_energy_per_atom", "decomposes_to", "xas", "grain_boundaries", "cbm", "vbm", "is_gap_direct", "is_metal", "es_source_calc_id", "bandstructure", "dos", "dos_energy_up", "dos_energy_down", "is_magnetic", "ordering", "total_magnetization_normalized_vol", "total_magnetization_normalized_formula_units", "num_magnetic_sites", "num_unique_magnetic_sites", "types_of_magnetic_species", "bulk_modulus", "shear_modulus", "universal_anisotropy", "homogeneous_poisson", "e_total", "e_ionic", "e_electronic", "n", "e_ij_max", "weighted_surface_energy_EV_PER_ANG2", "weighted_surface_energy", "weighted_work_function", "surface_anisotropy", "shape_factor", "has_reconstructed", "possible_species", "has_props", "theoretical", "database_IDs"]}