{"builder_meta": null, "nsites": null, "elements": null, "nelements": null, "composition": null, "composition_reduced": null, "formula_pretty": "La7Ni3", "formula_anonymous": "A3B7", "chemsys": null, "volume": 569.4014579362588, "density": 6.6982398477253575, "density_atomic": 28.47007289681294, "symmetry": null, "property_name": null, "material_id": "mp-573855", "deprecated": null, "deprecation_reasons": null, "last_updated": null, "origins": null, "warnings": null, "structure": {"@module": "pymatgen.core.structure", "@class": "Structure", "charge": 0, "lattice": {"matrix": [[10.04634704, -1e-08, -0.0], [-5.02317403, 8.70039284, 0.0], [0.0, 0.0, 6.51435672]], "pbc": [true, true, true], "a": 10.04634704, "b": 10.046348237344239, "c": 6.51435672, "alpha": 90.0, "beta": 90.0, "gamma": 119.99999947308791, "volume": 569.4014579362588}, "properties": {}, "sites": [{"species": [{"element": "La", "occu": 1}], "abc": [0.4624084, 0.5375916, 0.32123112], "properties": {"magmom": -0.0}, "label": "La", "xyz": [1.9450990967449884, 4.677258102860059, 2.0926141052451266]}, {"species": [{"element": "La", "occu": 1}], "abc": [0.333333, 0.666667, 0.77490254], "properties": {"magmom": -0.0}, "label": "La", "xyz": [-5.3631736900427995e-06, 5.800264790130949, 5.047991568794069]}, {"species": [{"element": "La", "occu": 1}], "abc": [0.87401109, 0.12598891, 0.49573119], "properties": {"magmom": 0.0}, "label": "La", "xyz": [8.147754506168667, 1.0961530017432934, 3.229369808890097]}, {"species": [{"element": "La", "occu": 1}], "abc": [0.74802318, 0.87401109, 0.99573119], "properties": {"magmom": 0.0}, "label": "La", "xyz": [3.124590651024395, 7.604239822036363, 6.486548168890097]}, {"species": [{"element": "La", "occu": 1}], "abc": [0.87401109, 0.74802318, 0.49573119], "properties": {"magmom": 0.0}, "label": "La", "xyz": [5.023168115334659, 6.50809551068592, 3.229369808890097]}, {"species": [{"element": "La", "occu": 1}], "abc": [0.075183199999999, 0.5375916, 0.32123112], "properties": {"magmom": -0.0}, "label": "La", "xyz": [-1.9450996450884293, 4.677258106732311, 2.0926141052451266]}, {"species": [{"element": "La", "occu": 1}], "abc": [0.12598891, 0.87401109, 0.99573119], "properties": {"magmom": 0.0}, "label": "La", "xyz": [-3.124581496168666, 7.604239828256706, 6.486548168890097]}, {"species": [{"element": "La", "occu": 1}], "abc": [0.5375916, 0.075183199999999, 0.82123112], "properties": {"magmom": -0.0}, "label": "La", "xyz": [5.023173481656573, 0.6541233695923633, 5.349792465245127]}, {"species": [{"element": "La", "occu": 1}], "abc": [0.9248168, 0.4624084, 0.82123112], "properties": {"magmom": -0.0}, "label": "La", "xyz": [6.96827265508842, 4.023134723267688, 5.349792465245127]}, {"species": [{"element": "La", "occu": 1}], "abc": [0.666667, 0.333333, 0.27490254000000003], "properties": {"magmom": -0.0}, "label": "La", "xyz": [5.023178373173691, 2.90012803986905, 1.7908132087940691]}, {"species": [{"element": "La", "occu": 1}], "abc": [0.4624084, 0.9248168, 0.32123112], "properties": {"magmom": -0.0}, "label": "La", "xyz": [-4.716565680240592e-07, 8.046269460407627, 2.0926141052451266]}, {"species": [{"element": "La", "occu": 1}], "abc": [0.25197682, 0.12598891, 0.49573119], "properties": {"magmom": 0.0}, "label": "La", "xyz": [1.8985823589756055, 1.0961530079636361, 3.229369808890097]}, {"species": [{"element": "La", "occu": 1}], "abc": [0.5375916, 0.4624084, 0.82123112], "properties": {"magmom": -0.0}, "label": "La", "xyz": [3.078073913255012, 4.02313472713994, 5.349792465245127]}, {"species": [{"element": "La", "occu": 1}], "abc": [0.12598891, 0.25197682, 0.99573119], "properties": {"magmom": 0.0}, "label": "La", "xyz": [4.894665342147775e-06, 2.1922973193140796, 6.486548168890097]}, {"species": [{"element": "Ni", "occu": 1}], "abc": [0.37533181, 0.1876659, 0.04840317], "properties": {"magmom": 0.0}, "label": "Ni", "xyz": [2.8280351432147652, 1.6327670489188377, 0.31531551575880246]}, {"species": [{"element": "Ni", "occu": 1}], "abc": [0.1876659, 0.8123341, 0.54840317], "properties": {"magmom": 0.0}, "label": "Ni", "xyz": [-2.195138795829487, 7.067625785451184, 3.572493875758803]}, {"species": [{"element": "Ni", "occu": 1}], "abc": [0.8123341, 0.6246681900000001, 0.04840317], "properties": {"magmom": 0.0}, "label": "Ni", "xyz": [5.023173251650959, 5.434858639528419, 0.31531551575880246]}, {"species": [{"element": "Ni", "occu": 1}], "abc": [0.1876659, 0.37533181, 0.54840317], "properties": {"magmom": 0.0}, "label": "Ni", "xyz": [-2.4165095791062186e-07, 3.2655341904715813, 3.572493875758803]}, {"species": [{"element": "Ni", "occu": 1}], "abc": [0.8123341, 0.1876659, 0.04840317], "properties": {"magmom": 0.0}, "label": "Ni", "xyz": [7.2183118058294875, 1.6327670445488147, 0.31531551575880246]}, {"species": [{"element": "Ni", "occu": 1}], "abc": [0.6246681900000001, 0.8123341, 0.54840317], "properties": {"magmom": 0.0}, "label": "Ni", "xyz": [2.1951378667852355, 7.06762578108116, 3.572493875758803]}]}, "task_ids": null, "uncorrected_energy_per_atom": null, "energy_per_atom": -5.41567929, "formation_energy_per_atom": -0.226433312500001, "energy_above_hull": 0.0, "is_stable": true, "equilibrium_reaction_energy_per_atom": null, "decomposes_to": null, "xas": null, "grain_boundaries": null, "band_gap": 0.0, "cbm": null, "vbm": null, "efermi": 8.08113676, "is_gap_direct": null, "is_metal": null, "es_source_calc_id": null, "bandstructure": null, "dos": null, "dos_energy_up": null, "dos_energy_down": null, "is_magnetic": null, "ordering": null, "total_magnetization": 5.2999999999999975e-06, "total_magnetization_normalized_vol": null, "total_magnetization_normalized_formula_units": null, "num_magnetic_sites": null, "num_unique_magnetic_sites": null, "types_of_magnetic_species": null, "bulk_modulus": null, "shear_modulus": null, "universal_anisotropy": null, "homogeneous_poisson": null, "e_total": null, "e_ionic": null, "e_electronic": null, "n": null, "e_ij_max": null, "weighted_surface_energy_EV_PER_ANG2": null, "weighted_surface_energy": null, "weighted_work_function": null, "surface_anisotropy": null, "shape_factor": null, "has_reconstructed": null, "possible_species": null, "has_props": null, "theoretical": null, "database_IDs": null, "fields_not_requested": ["builder_meta", "nsites", "elements", "nelements", "composition", "composition_reduced", "chemsys", "symmetry", "property_name", "deprecated", "deprecation_reasons", "last_updated", "origins", "warnings", "task_ids", "uncorrected_energy_per_atom", "equilibrium_reaction_energy_per_atom", "decomposes_to", "xas", "grain_boundaries", "cbm", "vbm", "is_gap_direct", "is_metal", "es_source_calc_id", "bandstructure", "dos", "dos_energy_up", "dos_energy_down", "is_magnetic", "ordering", "total_magnetization_normalized_vol", "total_magnetization_normalized_formula_units", "num_magnetic_sites", "num_unique_magnetic_sites", "types_of_magnetic_species", "bulk_modulus", "shear_modulus", "universal_anisotropy", "homogeneous_poisson", "e_total", "e_ionic", "e_electronic", "n", "e_ij_max", "weighted_surface_energy_EV_PER_ANG2", "weighted_surface_energy", "weighted_work_function", "surface_anisotropy", "shape_factor", "has_reconstructed", "possible_species", "has_props", "theoretical", "database_IDs"]}