{
  "builder_meta": null,
  "nsites": null,
  "elements": null,
  "nelements": null,
  "composition": null,
  "composition_reduced": null,
  "formula_pretty": "La7Pd3",
  "formula_anonymous": "A3B7",
  "chemsys": null,
  "volume": 615.4166976408394,
  "density": 6.9700722360004725,
  "density_atomic": 30.77083488204197,
  "symmetry": null,
  "property_name": null,
  "material_id": "mp-1105925",
  "deprecated": null,
  "deprecation_reasons": null,
  "last_updated": null,
  "origins": null,
  "warnings": null,
  "structure": {
    "@module": "pymatgen.core.structure",
    "@class": "Structure",
    "charge": 0,
    "lattice": {
      "matrix": [
        [3.508e-5, 3.379e-5, -6.6267732],
        [-5.17784339, -8.9681267, 2.2850000000000003e-5],
        [-5.17760237, 8.96798772, 2.5350000000000003e-5]
      ],
      "pbc": [true, true, true],
      "a": 6.626773200178999,
      "b": 10.355547241896089,
      "c": 10.355306371544158,
      "alpha": 119.9998789166849,
      "beta": 90.00003890063442,
      "gamma": 90.00053109038494,
      "volume": 615.4166976408394
    },
    "properties": {},
    "sites": [
      {
        "species": [{ "element": "La", "occu": 1 }],
        "abc": [0.45703509000000003, 0.33343186, 0.66672588],
        "properties": { "magmom": -0.0 },
        "label": "La",
        "xyz": [-5.178483415953783, 2.9889457813652225, -3.0286433654525293]
      },
      {
        "species": [{ "element": "La", "occu": 1 }],
        "abc": [0.95704234, 0.66657809, 0.33327844],
        "properties": { "magmom": 0.0 },
        "label": "La",
        "xyz": [-5.1769866249939405, -2.989087470842577, -6.342078850059477]
      },
      {
        "species": [{ "element": "La", "occu": 1 }],
        "abc": [0.2421, 0.12541265000000001, 0.8747029900000001],
        "properties": { "magmom": -0.0 },
        "label": "La",
        "xyz": [-5.17822284202697, 6.719617318543528, -1.604316752320151]
      },
      {
        "species": [{ "element": "La", "occu": 1 }],
        "abc": [0.242095199999999, 0.74922676, 0.87462587],
        "properties": { "magmom": -0.0 },
        "label": "La",
        "xyz": [-8.407835311552812, 1.1244817314406337, -1.604270691611363]
      },
      {
        "species": [{ "element": "La", "occu": 1 }],
        "abc": [0.24209763, 0.12539319000000002, 0.25068993],
        "properties": { "magmom": -0.0 },
        "label": "La",
        "xyz": [-1.9472305829107879, 1.1236503790094043, -1.6043168660433988]
      },
      {
        "species": [{ "element": "La", "occu": 1 }],
        "abc": [0.7420960600000001, 0.87457973, 0.12528884],
        "properties": { "magmom": 0.0 },
        "label": "La",
        "xyz": [-5.17710663619725, -6.719727973892878, -4.917679122014667]
      },
      {
        "species": [{ "element": "La", "occu": 1 }],
        "abc": [0.74210533, 0.2507688, 0.12537562],
        "properties": { "magmom": 0.0 },
        "label": "La",
        "xyz": [-1.9475606476954748, -1.1245342745204727, -4.917754804082108]
      },
      {
        "species": [{ "element": "La", "occu": 1 }],
        "abc": [0.74210116, 0.87459966, 0.74931337],
        "properties": { "magmom": 0.0 },
        "label": "La",
        "xyz": [-8.408160715903241, -1.1236623864669086, -4.917697099080751]
      },
      {
        "species": [{ "element": "La", "occu": 1 }],
        "abc": [0.440321099999999, 0.5365698, 0.46338863],
        "properties": { "magmom": -0.0 },
        "label": "La",
        "xyz": [-5.177501014658487, -0.6563475279160667, -2.917884057352813]
      },
      {
        "species": [{ "element": "La", "occu": 1 }],
        "abc": [0.44030278, 0.92675913, 0.46338037],
        "properties": { "magmom": -0.0 },
        "label": "La",
        "xyz": [-7.197797491494605, -4.155688952541777, -2.9177537392509953]
      },
      {
        "species": [{ "element": "La", "occu": 1 }],
        "abc": [0.4403141, 0.53656587, 0.0731672],
        "properties": { "magmom": 0.0 },
        "label": "La",
        "xyz": [-3.1570692651867347, -4.155813275735505, -2.9178475621434705]
      },
      {
        "species": [{ "element": "La", "occu": 1 }],
        "abc": [0.94032329, 0.46342797, 0.536620099999999],
        "properties": { "magmom": -0.0 },
        "label": "La",
        "xyz": [-5.177929966214236, 0.6563534893453333, -6.231284984859178]
      },
      {
        "species": [{ "element": "La", "occu": 1 }],
        "abc": [0.94031282, 0.07326073, 0.5366353700000001],
        "properties": { "magmom": -0.0 },
        "label": "La",
        "xyz": [-3.157784163941176, 4.155559672673354, -6.231224517478114]
      },
      {
        "species": [{ "element": "La", "occu": 1 }],
        "abc": [0.9403134200000001, 0.46342939, 0.9268156200000001],
        "properties": { "magmom": -0.0 },
        "label": "La",
        "xyz": [-7.198214568213478, 4.155609386030936, -6.231209687118815]
      },
      {
        "species": [{ "element": "Pd", "occu": 1 }],
        "abc": [0.19624907, 0.81147483, 0.18841248],
        "properties": { "magmom": -0.0 },
        "label": "Pd",
        "xyz": [-5.177207603235075, -5.587721651110139, -1.3004747591446904]
      },
      {
        "species": [{ "element": "Pd", "occu": 1 }],
        "abc": [0.19623923000000001, 0.37696066, 0.1884728],
        "properties": { "magmom": 0.0 },
        "label": "Pd",
        "xyz": [-2.927673593559385, -1.6904025729180239, -1.300419478816075]
      },
      {
        "species": [{ "element": "Pd", "occu": 1 }],
        "abc": [0.19625722, 0.81148095, 0.62305949],
        "properties": { "magmom": -0.0 },
        "label": "Pd",
        "xyz": [-7.427668680440134, -1.6898674875554374, -1.300517748904725]
      },
      {
        "species": [{ "element": "Pd", "occu": 1 }],
        "abc": [0.69623002, 0.18852639000000002, 0.81158692],
        "properties": { "magmom": 0.0 },
        "label": "Pd",
        "xyz": [-5.178210059005961, 5.587596506071385, -4.61373355601503]
      },
      {
        "species": [{ "element": "Pd", "occu": 1 }],
        "abc": [0.69623427, 0.62304625, 0.81152696],
        "properties": { "magmom": 0.0 },
        "label": "Pd",
        "xyz": [-7.427775394743492, 1.6902296275250404, -4.613751792542315]
      },
      {
        "species": [{ "element": "Pd", "occu": 1 }],
        "abc": [0.69622887, 0.18850431, 0.37693112],
        "properties": { "magmom": 0.0 },
        "label": "Pd",
        "xyz": [-2.927620832050006, 1.689806645443287, -4.613736954254908]
      }
    ]
  },
  "task_ids": null,
  "uncorrected_energy_per_atom": null,
  "energy_per_atom": -28.2514377325,
  "formation_energy_per_atom": -0.5419555059999991,
  "energy_above_hull": 0.0,
  "is_stable": true,
  "equilibrium_reaction_energy_per_atom": null,
  "decomposes_to": null,
  "xas": null,
  "grain_boundaries": null,
  "band_gap": 0.0,
  "cbm": null,
  "vbm": null,
  "efermi": 7.50487809,
  "is_gap_direct": null,
  "is_metal": null,
  "es_source_calc_id": null,
  "bandstructure": null,
  "dos": null,
  "dos_energy_up": null,
  "dos_energy_down": null,
  "is_magnetic": null,
  "ordering": null,
  "total_magnetization": 4.89e-5,
  "total_magnetization_normalized_vol": null,
  "total_magnetization_normalized_formula_units": null,
  "num_magnetic_sites": null,
  "num_unique_magnetic_sites": null,
  "types_of_magnetic_species": null,
  "bulk_modulus": null,
  "shear_modulus": null,
  "universal_anisotropy": null,
  "homogeneous_poisson": null,
  "e_total": null,
  "e_ionic": null,
  "e_electronic": null,
  "n": null,
  "e_ij_max": null,
  "weighted_surface_energy_EV_PER_ANG2": null,
  "weighted_surface_energy": null,
  "weighted_work_function": null,
  "surface_anisotropy": null,
  "shape_factor": null,
  "has_reconstructed": null,
  "possible_species": null,
  "has_props": null,
  "theoretical": null,
  "database_IDs": null,
  "fields_not_requested": [
    "builder_meta",
    "nsites",
    "elements",
    "nelements",
    "composition",
    "composition_reduced",
    "chemsys",
    "symmetry",
    "property_name",
    "deprecated",
    "deprecation_reasons",
    "last_updated",
    "origins",
    "warnings",
    "task_ids",
    "uncorrected_energy_per_atom",
    "equilibrium_reaction_energy_per_atom",
    "decomposes_to",
    "xas",
    "grain_boundaries",
    "cbm",
    "vbm",
    "is_gap_direct",
    "is_metal",
    "es_source_calc_id",
    "bandstructure",
    "dos",
    "dos_energy_up",
    "dos_energy_down",
    "is_magnetic",
    "ordering",
    "total_magnetization_normalized_vol",
    "total_magnetization_normalized_formula_units",
    "num_magnetic_sites",
    "num_unique_magnetic_sites",
    "types_of_magnetic_species",
    "bulk_modulus",
    "shear_modulus",
    "universal_anisotropy",
    "homogeneous_poisson",
    "e_total",
    "e_ionic",
    "e_electronic",
    "n",
    "e_ij_max",
    "weighted_surface_energy_EV_PER_ANG2",
    "weighted_surface_energy",
    "weighted_work_function",
    "surface_anisotropy",
    "shape_factor",
    "has_reconstructed",
    "possible_species",
    "has_props",
    "theoretical",
    "database_IDs"
  ]
}
