{
  "builder_meta": null,
  "nsites": null,
  "elements": null,
  "nelements": null,
  "composition": null,
  "composition_reduced": null,
  "formula_pretty": "La7Pt3",
  "formula_anonymous": "A3B7",
  "chemsys": null,
  "volume": 613.4664033819852,
  "density": 8.432212463610115,
  "density_atomic": 30.67332016909926,
  "symmetry": null,
  "property_name": null,
  "material_id": "mp-1189501",
  "deprecated": null,
  "deprecation_reasons": null,
  "last_updated": null,
  "origins": null,
  "warnings": null,
  "structure": {
    "@module": "pymatgen.core.structure",
    "@class": "Structure",
    "charge": 0,
    "lattice": {
      "matrix": [
        [0.0, 0.0, -6.622047],
        [-5.17130199, -8.95714727, 0.0],
        [-5.17128166, 8.95713769, 0.0]
      ],
      "pbc": [true, true, true],
      "a": 6.622047,
      "b": 10.342768076692352,
      "c": 10.342749615294323,
      "alpha": 120.00112067211397,
      "beta": 90.0,
      "gamma": 90.0,
      "volume": 613.4664033819852
    },
    "properties": {},
    "sites": [
      {
        "species": [{ "element": "La", "occu": 1 }],
        "abc": [0.46484443000000003, 0.33326017, 0.66672245],
        "properties": { "magmom": 0.0 },
        "label": "La",
        "xyz": [-5.171198558304005, 2.986864363748904, -3.07822166314821]
      },
      {
        "species": [{ "element": "La", "occu": 1 }],
        "abc": [0.96484443, 0.66673983, 0.33327755000000003],
        "properties": { "magmom": 0.0 },
        "label": "La",
        "xyz": [-5.171385091695995, -2.9868739437489045, -6.38924516314821]
      },
      {
        "species": [{ "element": "La", "occu": 1 }],
        "abc": [0.24473024000000002, 0.12650682, 0.87348034],
        "properties": { "magmom": 0.0 },
        "label": "La",
        "xyz": [-5.171217832627136, 6.690743457488633, -1.6206151516012801]
      },
      {
        "species": [{ "element": "La", "occu": 1 }],
        "abc": [0.24470652, 0.74704202, 0.87359809],
        "properties": { "magmom": 0.0 },
        "label": "La",
        "xyz": [-8.380801665667649, 1.1335729878327268, -1.62045807664644]
      },
      {
        "species": [{ "element": "La", "occu": 1 }],
        "abc": [0.24470725000000002, 0.1264015, 0.25296589],
        "properties": { "magmom": 0.0 },
        "label": "La",
        "xyz": [-1.9618181960515626, 1.1336534569544892, -1.6204629107407502]
      },
      {
        "species": [{ "element": "La", "occu": 1 }],
        "abc": [0.74473024, 0.87349318, 0.12651966],
        "properties": { "magmom": 0.0 },
        "label": "La",
        "xyz": [-5.171365817372863, -6.6907530374886335, -4.93163865160128]
      },
      {
        "species": [{ "element": "La", "occu": 1 }],
        "abc": [0.74470652, 0.25295798, 0.12640191],
        "properties": { "magmom": 0.0 },
        "label": "La",
        "xyz": [-1.961781984332351, -1.1335825678327267, -4.931481576646441]
      },
      {
        "species": [{ "element": "La", "occu": 1 }],
        "abc": [0.74470725, 0.8735985, 0.74703411],
        "properties": { "magmom": 0.0 },
        "label": "La",
        "xyz": [-8.380765453948436, -1.1336630369544896, -4.93148641074075]
      },
      {
        "species": [{ "element": "La", "occu": 1 }],
        "abc": [0.43594851, 0.53634466, 0.46365735],
        "properties": { "magmom": -0.0 },
        "label": "La",
        "xyz": [-5.171302958163075, -0.6510753821675568, -2.88687152279997]
      },
      {
        "species": [{ "element": "La", "occu": 1 }],
        "abc": [0.43591309, 0.92737505, 0.46366164],
        "properties": { "magmom": -0.0 },
        "label": "La",
        "xyz": [-7.193461376918871, -4.153553746322402, -2.88663696989523]
      },
      {
        "species": [{ "element": "La", "occu": 1 }],
        "abc": [0.43591167000000003, 0.53634427, 0.07263227],
        "properties": { "magmom": 0.0 },
        "label": "La",
        "xyz": [-3.149200116551265, -4.153537370683386, -2.88662756658849]
      },
      {
        "species": [{ "element": "La", "occu": 1 }],
        "abc": [0.93594851, 0.46365534, 0.53634265],
        "properties": { "magmom": -0.0 },
        "label": "La",
        "xyz": [-5.171280691836926, 0.6510658021675564, -6.197895022799971]
      },
      {
        "species": [{ "element": "La", "occu": 1 }],
        "abc": [0.93591309, 0.07262495000000001, 0.53633836],
        "properties": { "magmom": -0.0 },
        "label": "La",
        "xyz": [-3.149122273081128, 4.153544166322402, -6.19766046989523]
      },
      {
        "species": [{ "element": "La", "occu": 1 }],
        "abc": [0.93591167, 0.46365573, 0.9273677300000001],
        "properties": { "magmom": 0.0 },
        "label": "La",
        "xyz": [-7.193383533448735, 4.153527790683388, -6.19765106658849]
      },
      {
        "species": [{ "element": "Pt", "occu": 1 }],
        "abc": [0.19541323, 0.81156111, 0.18845498],
        "properties": { "magmom": -0.0 },
        "label": "Pt",
        "xyz": [-5.1713813649592755, -5.581255176648473, -1.29403559348181]
      },
      {
        "species": [{ "element": "Pt", "occu": 1 }],
        "abc": [0.19541448, 0.376865399999999, 0.18837668],
        "properties": { "magmom": -0.0 },
        "label": "Pt",
        "xyz": [-2.9230336634378298, -1.6883230284223802, -1.29404387104056]
      },
      {
        "species": [{ "element": "Pt", "occu": 1 }],
        "abc": [0.1954106, 0.8116266400000001, 0.62313209],
        "properties": { "magmom": -0.0 },
        "label": "Pt",
        "xyz": [-7.4195580073434835, -1.6883794135478007, -1.2940181774982]
      },
      {
        "species": [{ "element": "Pt", "occu": 1 }],
        "abc": [0.69541323, 0.18843889, 0.8115450200000001],
        "properties": { "magmom": -0.0 },
        "label": "Pt",
        "xyz": [-5.171202285040725, 5.581245596648474, -4.6050590934818105]
      },
      {
        "species": [{ "element": "Pt", "occu": 1 }],
        "abc": [0.6954144800000001, 0.6231346, 0.81162332],
        "properties": { "magmom": -0.0 },
        "label": "Pt",
        "xyz": [-7.419549986562165, 1.688313448422389, -4.605067371040561]
      },
      {
        "species": [{ "element": "Pt", "occu": 1 }],
        "abc": [0.6954106, 0.18837336000000002, 0.37686791000000003],
        "properties": { "magmom": -0.0 },
        "label": "Pt",
        "xyz": [-2.9230256426565173, 1.6883698335478006, -4.6050416774982]
      }
    ]
  },
  "task_ids": null,
  "uncorrected_energy_per_atom": null,
  "energy_per_atom": -37.128228037999996,
  "formation_energy_per_atom": -0.8605668244999941,
  "energy_above_hull": 0.0,
  "is_stable": true,
  "equilibrium_reaction_energy_per_atom": null,
  "decomposes_to": null,
  "xas": null,
  "grain_boundaries": null,
  "band_gap": 0.0,
  "cbm": null,
  "vbm": null,
  "efermi": 7.86385735,
  "is_gap_direct": null,
  "is_metal": null,
  "es_source_calc_id": null,
  "bandstructure": null,
  "dos": null,
  "dos_energy_up": null,
  "dos_energy_down": null,
  "is_magnetic": null,
  "ordering": null,
  "total_magnetization": 5.5300000000000016e-5,
  "total_magnetization_normalized_vol": null,
  "total_magnetization_normalized_formula_units": null,
  "num_magnetic_sites": null,
  "num_unique_magnetic_sites": null,
  "types_of_magnetic_species": null,
  "bulk_modulus": null,
  "shear_modulus": null,
  "universal_anisotropy": null,
  "homogeneous_poisson": null,
  "e_total": null,
  "e_ionic": null,
  "e_electronic": null,
  "n": null,
  "e_ij_max": null,
  "weighted_surface_energy_EV_PER_ANG2": null,
  "weighted_surface_energy": null,
  "weighted_work_function": null,
  "surface_anisotropy": null,
  "shape_factor": null,
  "has_reconstructed": null,
  "possible_species": null,
  "has_props": null,
  "theoretical": null,
  "database_IDs": null,
  "fields_not_requested": [
    "builder_meta",
    "nsites",
    "elements",
    "nelements",
    "composition",
    "composition_reduced",
    "chemsys",
    "symmetry",
    "property_name",
    "deprecated",
    "deprecation_reasons",
    "last_updated",
    "origins",
    "warnings",
    "task_ids",
    "uncorrected_energy_per_atom",
    "equilibrium_reaction_energy_per_atom",
    "decomposes_to",
    "xas",
    "grain_boundaries",
    "cbm",
    "vbm",
    "is_gap_direct",
    "is_metal",
    "es_source_calc_id",
    "bandstructure",
    "dos",
    "dos_energy_up",
    "dos_energy_down",
    "is_magnetic",
    "ordering",
    "total_magnetization_normalized_vol",
    "total_magnetization_normalized_formula_units",
    "num_magnetic_sites",
    "num_unique_magnetic_sites",
    "types_of_magnetic_species",
    "bulk_modulus",
    "shear_modulus",
    "universal_anisotropy",
    "homogeneous_poisson",
    "e_total",
    "e_ionic",
    "e_electronic",
    "n",
    "e_ij_max",
    "weighted_surface_energy_EV_PER_ANG2",
    "weighted_surface_energy",
    "weighted_work_function",
    "surface_anisotropy",
    "shape_factor",
    "has_reconstructed",
    "possible_species",
    "has_props",
    "theoretical",
    "database_IDs"
  ]
}
