{
  "builder_meta": null,
  "nsites": null,
  "elements": null,
  "nelements": null,
  "composition": null,
  "composition_reduced": null,
  "formula_pretty": "La7Ru3",
  "formula_anonymous": "A3B7",
  "chemsys": null,
  "volume": 1191.4783491701469,
  "density": 7.110822511731111,
  "density_atomic": 29.786958729253673,
  "symmetry": null,
  "property_name": null,
  "material_id": "mp-1202486",
  "deprecated": null,
  "deprecation_reasons": null,
  "last_updated": null,
  "origins": null,
  "warnings": null,
  "structure": {
    "@module": "pymatgen.core.structure",
    "@class": "Structure",
    "charge": 0,
    "lattice": {
      "matrix": [
        [6.759538, 0.0, 0.0],
        [0.0, 7.41355, 0.0],
        [0.0, 0.0, 23.776226]
      ],
      "pbc": [true, true, true],
      "a": 6.759538,
      "b": 7.41355,
      "c": 23.776226,
      "alpha": 90.0,
      "beta": 90.0,
      "gamma": 90.0,
      "volume": 1191.4783491701469
    },
    "properties": {},
    "sites": [
      {
        "species": [{ "element": "La", "occu": 1 }],
        "abc": [0.317891, 0.819245, 0.174695],
        "properties": { "magmom": 0.0 },
        "label": "La",
        "xyz": [2.1487962943579997, 6.07351376975, 4.15358780107]
      },
      {
        "species": [{ "element": "La", "occu": 1 }],
        "abc": [0.182109, 0.319245, 0.325305],
        "properties": { "magmom": 0.0 },
        "label": "La",
        "xyz": [1.230972705642, 2.36673876975, 7.734525198930001]
      },
      {
        "species": [{ "element": "La", "occu": 1 }],
        "abc": [0.682109, 0.180755, 0.674694999999999],
        "properties": { "magmom": 0.0 },
        "label": "La",
        "xyz": [4.610741705642, 1.34003623025, 16.04170080106998]
      },
      {
        "species": [{ "element": "La", "occu": 1 }],
        "abc": [0.817890999999999, 0.680755, 0.825305],
        "properties": { "magmom": 0.0 },
        "label": "La",
        "xyz": [5.5285652943579935, 5.04681123025, 19.62263819893]
      },
      {
        "species": [{ "element": "La", "occu": 1 }],
        "abc": [0.682109, 0.180755, 0.825305],
        "properties": { "magmom": 0.0 },
        "label": "La",
        "xyz": [4.610741705642, 1.34003623025, 19.62263819893]
      },
      {
        "species": [{ "element": "La", "occu": 1 }],
        "abc": [0.817890999999999, 0.680755, 0.674694999999999],
        "properties": { "magmom": 0.0 },
        "label": "La",
        "xyz": [5.5285652943579935, 5.04681123025, 16.04170080106998]
      },
      {
        "species": [{ "element": "La", "occu": 1 }],
        "abc": [0.317891, 0.819245, 0.325305],
        "properties": { "magmom": 0.0 },
        "label": "La",
        "xyz": [2.1487962943579997, 6.07351376975, 7.734525198930001]
      },
      {
        "species": [{ "element": "La", "occu": 1 }],
        "abc": [0.182109, 0.319245, 0.174695],
        "properties": { "magmom": 0.0 },
        "label": "La",
        "xyz": [1.230972705642, 2.36673876975, 4.15358780107]
      },
      {
        "species": [{ "element": "La", "occu": 1 }],
        "abc": [0.319380999999999, 0.830132, 0.023870000000000002],
        "properties": { "magmom": -0.0 },
        "label": "La",
        "xyz": [2.158868005977993, 6.1542250886, 0.56753851462]
      },
      {
        "species": [{ "element": "La", "occu": 1 }],
        "abc": [0.180619, 0.330132, 0.47613000000000005],
        "properties": { "magmom": -0.0 },
        "label": "La",
        "xyz": [1.220900994022, 2.4474500885999997, 11.320574485380002]
      },
      {
        "species": [{ "element": "La", "occu": 1 }],
        "abc": [0.680619, 0.169868, 0.5238700000000001],
        "properties": { "magmom": -0.0 },
        "label": "La",
        "xyz": [4.600669994022, 1.2593249113999998, 12.455651514620001]
      },
      {
        "species": [{ "element": "La", "occu": 1 }],
        "abc": [0.819380999999999, 0.669868, 0.97613],
        "properties": { "magmom": -0.0 },
        "label": "La",
        "xyz": [5.538637005977994, 4.9660999114, 23.208687485380004]
      },
      {
        "species": [{ "element": "La", "occu": 1 }],
        "abc": [0.680619, 0.169868, 0.97613],
        "properties": { "magmom": -0.0 },
        "label": "La",
        "xyz": [4.600669994022, 1.2593249113999998, 23.208687485380004]
      },
      {
        "species": [{ "element": "La", "occu": 1 }],
        "abc": [0.819380999999999, 0.669868, 0.5238700000000001],
        "properties": { "magmom": -0.0 },
        "label": "La",
        "xyz": [5.538637005977994, 4.9660999114, 12.455651514620001]
      },
      {
        "species": [{ "element": "La", "occu": 1 }],
        "abc": [0.319380999999999, 0.830132, 0.47613000000000005],
        "properties": { "magmom": -0.0 },
        "label": "La",
        "xyz": [2.158868005977993, 6.1542250886, 11.320574485380002]
      },
      {
        "species": [{ "element": "La", "occu": 1 }],
        "abc": [0.180619, 0.330132, 0.023870000000000002],
        "properties": { "magmom": -0.0 },
        "label": "La",
        "xyz": [1.220900994022, 2.4474500885999997, 0.56753851462]
      },
      {
        "species": [{ "element": "La", "occu": 1 }],
        "abc": [0.857151, 0.682827, 0.25],
        "properties": { "magmom": 0.0 },
        "label": "La",
        "xyz": [5.793944756238, 5.062172105849999, 5.9440565]
      },
      {
        "species": [{ "element": "La", "occu": 1 }],
        "abc": [0.642849, 0.182827, 0.25],
        "properties": { "magmom": 0.0 },
        "label": "La",
        "xyz": [4.345362243762, 1.3553971058499998, 5.9440565]
      },
      {
        "species": [{ "element": "La", "occu": 1 }],
        "abc": [0.142849, 0.317173, 0.75],
        "properties": { "magmom": 0.0 },
        "label": "La",
        "xyz": [0.9655932437620001, 2.3513778941499996, 17.8321695]
      },
      {
        "species": [{ "element": "La", "occu": 1 }],
        "abc": [0.357151, 0.817172999999999, 0.75],
        "properties": { "magmom": 0.0 },
        "label": "La",
        "xyz": [2.414175756238, 6.058152894149993, 17.8321695]
      },
      {
        "species": [{ "element": "La", "occu": 1 }],
        "abc": [0.850887, 0.949562999999999, 0.114715],
        "properties": { "magmom": -0.0 },
        "label": "La",
        "xyz": [5.751603010206, 7.039632778649993, 2.72748976559]
      },
      {
        "species": [{ "element": "La", "occu": 1 }],
        "abc": [0.649112999999999, 0.449563, 0.385285],
        "properties": { "magmom": -0.0 },
        "label": "La",
        "xyz": [4.387703989793994, 3.3328577786499998, 9.16062323441]
      },
      {
        "species": [{ "element": "La", "occu": 1 }],
        "abc": [0.149113, 0.050436999999999, 0.614715],
        "properties": { "magmom": -0.0 },
        "label": "La",
        "xyz": [1.007934989794, 0.3739172213499926, 14.615602765590001]
      },
      {
        "species": [{ "element": "La", "occu": 1 }],
        "abc": [0.350887, 0.550437, 0.885285],
        "properties": { "magmom": -0.0 },
        "label": "La",
        "xyz": [2.3718340102060003, 4.08069222135, 21.04873623441]
      },
      {
        "species": [{ "element": "La", "occu": 1 }],
        "abc": [0.149113, 0.050436999999999, 0.885285],
        "properties": { "magmom": -0.0 },
        "label": "La",
        "xyz": [1.007934989794, 0.3739172213499926, 21.04873623441]
      },
      {
        "species": [{ "element": "La", "occu": 1 }],
        "abc": [0.350887, 0.550437, 0.614715],
        "properties": { "magmom": -0.0 },
        "label": "La",
        "xyz": [2.3718340102060003, 4.08069222135, 14.615602765590001]
      },
      {
        "species": [{ "element": "La", "occu": 1 }],
        "abc": [0.850887, 0.949562999999999, 0.385285],
        "properties": { "magmom": -0.0 },
        "label": "La",
        "xyz": [5.751603010206, 7.039632778649993, 9.16062323441]
      },
      {
        "species": [{ "element": "La", "occu": 1 }],
        "abc": [0.649112999999999, 0.449563, 0.114715],
        "properties": { "magmom": -0.0 },
        "label": "La",
        "xyz": [4.387703989793994, 3.3328577786499998, 2.72748976559]
      },
      {
        "species": [{ "element": "Ru", "occu": 1 }],
        "abc": [0.47134000000000004, 0.519201, 0.25],
        "properties": { "magmom": -0.0 },
        "label": "Ru",
        "xyz": [3.1860406409200004, 3.8491225735500003, 5.9440565]
      },
      {
        "species": [{ "element": "Ru", "occu": 1 }],
        "abc": [0.02866, 0.019201, 0.25],
        "properties": { "magmom": -0.0 },
        "label": "Ru",
        "xyz": [0.19372835908000002, 0.14234757355, 5.9440565]
      },
      {
        "species": [{ "element": "Ru", "occu": 1 }],
        "abc": [0.52866, 0.480799, 0.75],
        "properties": { "magmom": -0.0 },
        "label": "Ru",
        "xyz": [3.57349735908, 3.5644274264499995, 17.8321695]
      },
      {
        "species": [{ "element": "Ru", "occu": 1 }],
        "abc": [0.9713400000000001, 0.980799, 0.75],
        "properties": { "magmom": -0.0 },
        "label": "Ru",
        "xyz": [6.56580964092, 7.2712024264499995, 17.8321695]
      },
      {
        "species": [{ "element": "Ru", "occu": 1 }],
        "abc": [0.028595, 0.620522, 0.094957],
        "properties": { "magmom": 0.0 },
        "label": "Ru",
        "xyz": [0.19328898911, 4.6002708731, 2.257719092282]
      },
      {
        "species": [{ "element": "Ru", "occu": 1 }],
        "abc": [0.471404999999999, 0.120521999999999, 0.405043],
        "properties": { "magmom": 0.0 },
        "label": "Ru",
        "xyz": [3.1864800108899933, 0.8934958730999926, 9.630393907718]
      },
      {
        "species": [{ "element": "Ru", "occu": 1 }],
        "abc": [0.971405, 0.379478, 0.594957],
        "properties": { "magmom": 0.0 },
        "label": "Ru",
        "xyz": [6.56624901089, 2.8132791269, 14.145832092282]
      },
      {
        "species": [{ "element": "Ru", "occu": 1 }],
        "abc": [0.528594999999999, 0.879478, 0.905042999999999],
        "properties": { "magmom": 0.0 },
        "label": "Ru",
        "xyz": [3.5730579891099934, 6.5200541269, 21.518506907717978]
      },
      {
        "species": [{ "element": "Ru", "occu": 1 }],
        "abc": [0.971405, 0.379478, 0.905042999999999],
        "properties": { "magmom": 0.0 },
        "label": "Ru",
        "xyz": [6.56624901089, 2.8132791269, 21.518506907717978]
      },
      {
        "species": [{ "element": "Ru", "occu": 1 }],
        "abc": [0.528594999999999, 0.879478, 0.594957],
        "properties": { "magmom": 0.0 },
        "label": "Ru",
        "xyz": [3.5730579891099934, 6.5200541269, 14.145832092282]
      },
      {
        "species": [{ "element": "Ru", "occu": 1 }],
        "abc": [0.028595, 0.620522, 0.405043],
        "properties": { "magmom": 0.0 },
        "label": "Ru",
        "xyz": [0.19328898911, 4.6002708731, 9.630393907718]
      },
      {
        "species": [{ "element": "Ru", "occu": 1 }],
        "abc": [0.471404999999999, 0.120521999999999, 0.094957],
        "properties": { "magmom": 0.0 },
        "label": "Ru",
        "xyz": [3.1864800108899933, 0.8934958730999926, 2.257719092282]
      }
    ]
  },
  "task_ids": null,
  "uncorrected_energy_per_atom": null,
  "energy_per_atom": -6.518327621,
  "formation_energy_per_atom": -0.280801885500001,
  "energy_above_hull": 0.0,
  "is_stable": true,
  "equilibrium_reaction_energy_per_atom": null,
  "decomposes_to": null,
  "xas": null,
  "grain_boundaries": null,
  "band_gap": 0.044599999999999,
  "cbm": null,
  "vbm": null,
  "efermi": 7.96139759,
  "is_gap_direct": null,
  "is_metal": null,
  "es_source_calc_id": null,
  "bandstructure": null,
  "dos": null,
  "dos_energy_up": null,
  "dos_energy_down": null,
  "is_magnetic": null,
  "ordering": null,
  "total_magnetization": 0.005263299999999,
  "total_magnetization_normalized_vol": null,
  "total_magnetization_normalized_formula_units": null,
  "num_magnetic_sites": null,
  "num_unique_magnetic_sites": null,
  "types_of_magnetic_species": null,
  "bulk_modulus": null,
  "shear_modulus": null,
  "universal_anisotropy": null,
  "homogeneous_poisson": null,
  "e_total": null,
  "e_ionic": null,
  "e_electronic": null,
  "n": null,
  "e_ij_max": null,
  "weighted_surface_energy_EV_PER_ANG2": null,
  "weighted_surface_energy": null,
  "weighted_work_function": null,
  "surface_anisotropy": null,
  "shape_factor": null,
  "has_reconstructed": null,
  "possible_species": null,
  "has_props": null,
  "theoretical": null,
  "database_IDs": null,
  "fields_not_requested": [
    "builder_meta",
    "nsites",
    "elements",
    "nelements",
    "composition",
    "composition_reduced",
    "chemsys",
    "symmetry",
    "property_name",
    "deprecated",
    "deprecation_reasons",
    "last_updated",
    "origins",
    "warnings",
    "task_ids",
    "uncorrected_energy_per_atom",
    "equilibrium_reaction_energy_per_atom",
    "decomposes_to",
    "xas",
    "grain_boundaries",
    "cbm",
    "vbm",
    "is_gap_direct",
    "is_metal",
    "es_source_calc_id",
    "bandstructure",
    "dos",
    "dos_energy_up",
    "dos_energy_down",
    "is_magnetic",
    "ordering",
    "total_magnetization_normalized_vol",
    "total_magnetization_normalized_formula_units",
    "num_magnetic_sites",
    "num_unique_magnetic_sites",
    "types_of_magnetic_species",
    "bulk_modulus",
    "shear_modulus",
    "universal_anisotropy",
    "homogeneous_poisson",
    "e_total",
    "e_ionic",
    "e_electronic",
    "n",
    "e_ij_max",
    "weighted_surface_energy_EV_PER_ANG2",
    "weighted_surface_energy",
    "weighted_work_function",
    "surface_anisotropy",
    "shape_factor",
    "has_reconstructed",
    "possible_species",
    "has_props",
    "theoretical",
    "database_IDs"
  ]
}
