{"builder_meta": null, "nsites": null, "elements": null, "nelements": null, "composition": null, "composition_reduced": null, "formula_pretty": "La7Rh3", "formula_anonymous": "A3B7", "chemsys": null, "volume": 597.9519519794685, "density": 7.115091833743528, "density_atomic": 29.897597598973427, "symmetry": null, "property_name": null, "material_id": "mp-1189031", "deprecated": null, "deprecation_reasons": null, "last_updated": null, "origins": null, "warnings": null, "structure": {"@module": "pymatgen.core.structure", "@class": "Structure", "charge": 0, "lattice": {"matrix": [[10.315863, 0.0, 0.0], [-5.157932, 8.9338, 0.0], [0.0, 0.0, 6.488204]], "pbc": [true, true, true], "a": 10.315863, "b": 10.315863752329419, "c": 6.488204, "alpha": 90.0, "beta": 90.0, "gamma": 120.00000079420175, "volume": 597.9519519794685}, "properties": {}, "sites": [{"species": [{"element": "La", "occu": 1}], "abc": [0.666667, 0.333333, 0.567124], "properties": {"magmom": 0.001}, "label": "La", "xyz": [5.1579364912650005, 2.9779303554, 3.6796162052959995]}, {"species": [{"element": "La", "occu": 1}], "abc": [0.333333, 0.666667, 0.067124], "properties": {"magmom": 0.001}, "label": "La", "xyz": [-5.491265000046042e-06, 5.9558696446, 0.435514205296]}, {"species": [{"element": "La", "occu": 1}], "abc": [0.874884, 0.749768, 0.764106], "properties": {"magmom": -0.001}, "label": "La", "xyz": [5.157931125116001, 6.6982773583999995, 4.957675605623999]}, {"species": [{"element": "La", "occu": 1}], "abc": [0.250232, 0.125116, 0.764106], "properties": {"magmom": -0.001}, "label": "La", "xyz": [1.9360192101040004, 1.1177613208, 4.957675605623999]}, {"species": [{"element": "La", "occu": 1}], "abc": [0.874884, 0.125116, 0.764106], "properties": {"magmom": -0.001}, "label": "La", "xyz": [8.379843664780001, 1.1177613208, 4.957675605623999]}, {"species": [{"element": "La", "occu": 1}], "abc": [0.125116, 0.250232, 0.264106], "properties": {"magmom": -0.001}, "label": "La", "xyz": [-1.2511599978282106e-07, 2.2355226416, 1.7135736056239999]}, {"species": [{"element": "La", "occu": 1}], "abc": [0.749768, 0.874884, 0.264106], "properties": {"magmom": -0.001}, "label": "La", "xyz": [3.2219117898960006, 7.8160386792, 1.7135736056239999]}, {"species": [{"element": "La", "occu": 1}], "abc": [0.125116, 0.874884, 0.264106], "properties": {"magmom": -0.001}, "label": "La", "xyz": [-3.221912664779999, 7.8160386792, 1.7135736056239999]}, {"species": [{"element": "La", "occu": 1}], "abc": [0.457812, 0.915624999999999, 0.59313], "properties": {"magmom": 0.0}, "label": "La", "xyz": [-5.615743994269451e-06, 8.18001062499999, 3.84834843852]}, {"species": [{"element": "La", "occu": 1}], "abc": [0.084374999999999, 0.542188, 0.59313], "properties": {"magmom": 0.0}, "label": "La", "xyz": [-1.9261678945910103, 4.8437991544, 3.84834843852]}, {"species": [{"element": "La", "occu": 1}], "abc": [0.457812, 0.542188, 0.59313], "properties": {"magmom": 0.0}, "label": "La", "xyz": [1.9261570365400003, 4.8437991544, 3.84834843852]}, {"species": [{"element": "La", "occu": 1}], "abc": [0.542188, 0.084374999999999, 0.09313], "properties": {"magmom": 0.0}, "label": "La", "xyz": [5.157936615744005, 0.7537893749999911, 0.60424643852]}, {"species": [{"element": "La", "occu": 1}], "abc": [0.915624999999999, 0.457812, 0.09313], "properties": {"magmom": 0.0}, "label": "La", "xyz": [7.08409889459099, 4.0900008456, 0.60424643852]}, {"species": [{"element": "La", "occu": 1}], "abc": [0.542188, 0.457812, 0.09313], "properties": {"magmom": 0.0}, "label": "La", "xyz": [3.2317739634600002, 4.0900008456, 0.60424643852]}, {"species": [{"element": "Rh", "occu": 1}], "abc": [0.189973, 0.379945, 0.856231], "properties": {"magmom": 0.001}, "label": "Rh", "xyz": [4.967959000179434e-06, 3.394352641, 5.555401399123999]}, {"species": [{"element": "Rh", "occu": 1}], "abc": [0.620055, 0.810026999999999, 0.856231], "properties": {"magmom": 0.001}, "label": "Rh", "xyz": [2.218338248301005, 7.236619212599991, 5.555401399123999]}, {"species": [{"element": "Rh", "occu": 1}], "abc": [0.189973, 0.810026999999999, 0.856231], "properties": {"magmom": 0.001}, "label": "Rh", "xyz": [-2.218328742464995, 7.236619212599991, 5.555401399123999]}, {"species": [{"element": "Rh", "occu": 1}], "abc": [0.810026999999999, 0.620055, 0.356230999999999], "properties": {"magmom": 0.001}, "label": "Rh", "xyz": [5.15792603204099, 5.539447359, 2.3112993991239934]}, {"species": [{"element": "Rh", "occu": 1}], "abc": [0.379945, 0.189973, 0.356230999999999], "properties": {"magmom": 0.001}, "label": "Rh", "xyz": [2.939592751699, 1.6971807874, 2.3112993991239934]}, {"species": [{"element": "Rh", "occu": 1}], "abc": [0.810026999999999, 0.189973, 0.356230999999999], "properties": {"magmom": 0.001}, "label": "Rh", "xyz": [7.37625974246499, 1.6971807874, 2.3112993991239934]}]}, "task_ids": null, "uncorrected_energy_per_atom": null, "energy_per_atom": -6.204070043, "formation_energy_per_atom": -0.539572708500001, "energy_above_hull": 0.0, "is_stable": true, "equilibrium_reaction_energy_per_atom": null, "decomposes_to": null, "xas": null, "grain_boundaries": null, "band_gap": 0.0, "cbm": null, "vbm": null, "efermi": 7.80711097, "is_gap_direct": null, "is_metal": null, "es_source_calc_id": null, "bandstructure": null, "dos": null, "dos_energy_up": null, "dos_energy_down": null, "is_magnetic": null, "ordering": null, "total_magnetization": 0.0208063, "total_magnetization_normalized_vol": null, "total_magnetization_normalized_formula_units": null, "num_magnetic_sites": null, "num_unique_magnetic_sites": null, "types_of_magnetic_species": null, "bulk_modulus": null, "shear_modulus": null, "universal_anisotropy": null, "homogeneous_poisson": null, "e_total": null, "e_ionic": null, "e_electronic": null, "n": null, "e_ij_max": null, "weighted_surface_energy_EV_PER_ANG2": null, "weighted_surface_energy": null, "weighted_work_function": null, "surface_anisotropy": null, "shape_factor": null, "has_reconstructed": null, "possible_species": null, "has_props": null, "theoretical": null, "database_IDs": null, "fields_not_requested": ["builder_meta", "nsites", "elements", "nelements", "composition", "composition_reduced", "chemsys", "symmetry", "property_name", "deprecated", "deprecation_reasons", "last_updated", "origins", "warnings", "task_ids", "uncorrected_energy_per_atom", "equilibrium_reaction_energy_per_atom", "decomposes_to", "xas", "grain_boundaries", "cbm", "vbm", "is_gap_direct", "is_metal", "es_source_calc_id", "bandstructure", "dos", "dos_energy_up", "dos_energy_down", "is_magnetic", "ordering", "total_magnetization_normalized_vol", "total_magnetization_normalized_formula_units", "num_magnetic_sites", "num_unique_magnetic_sites", "types_of_magnetic_species", "bulk_modulus", "shear_modulus", "universal_anisotropy", "homogeneous_poisson", "e_total", "e_ionic", "e_electronic", "n", "e_ij_max", "weighted_surface_energy_EV_PER_ANG2", "weighted_surface_energy", "weighted_work_function", "surface_anisotropy", "shape_factor", "has_reconstructed", "possible_species", "has_props", "theoretical", "database_IDs"]}