{
  "builder_meta": null,
  "nsites": null,
  "elements": null,
  "nelements": null,
  "composition": null,
  "composition_reduced": null,
  "formula_pretty": "LaAg2",
  "formula_anonymous": "AB2",
  "chemsys": null,
  "volume": 146.33421958490382,
  "density": 8.048653028082715,
  "density_atomic": 24.38903659748397,
  "symmetry": null,
  "property_name": null,
  "material_id": "mp-1025059",
  "deprecated": null,
  "deprecation_reasons": null,
  "last_updated": null,
  "origins": null,
  "warnings": null,
  "structure": {
    "@module": "pymatgen.core.structure",
    "@class": "Structure",
    "charge": 0,
    "lattice": {
      "matrix": [
        [-4.83808348, -9.62e-6, 0.0050291],
        [-2.42332164, -3.69826333, 4.09177099],
        [-2.42330616, 3.69826646, 4.09178328]
      ],
      "pbc": [true, true, true],
      "a": 4.838086093837961,
      "b": 6.024303218092575,
      "c": 6.024307260153853,
      "alpha": 75.7427198811516,
      "beta": 66.23668855257637,
      "gamma": 66.23635805940894,
      "volume": 146.33421958490382
    },
    "properties": {},
    "sites": [
      {
        "species": [{ "element": "La", "occu": 1 }],
        "abc": [0.46432157, 0.28521108, 0.7852102],
        "properties": { "magmom": 0.0 },
        "label": "La",
        "xyz": [-4.840389413911266, 1.8491264014626925, 4.382263510423712]
      },
      {
        "species": [{ "element": "La", "occu": 1 }],
        "abc": [0.53567864, 0.7147892100000001, 0.21478968],
        "properties": { "magmom": -0.0 },
        "label": "La",
        "xyz": [-4.8443232940528, -1.8491344077530534, 3.8063205562319924]
      },
      {
        "species": [{ "element": "Ag", "occu": 1 }],
        "abc": [0.8343151, 0.1220193, 0.20955343],
        "properties": { "magmom": 0.0 },
        "label": "Ag",
        "xyz": [-4.839990230380329, 0.3237168928934269, 1.3609181071701673]
      },
      {
        "species": [{ "element": "Ag", "occu": 1 }],
        "abc": [0.16568455, 0.87798136, 0.79044708],
        "properties": { "magmom": 0.0 },
        "label": "Ag",
        "xyz": [-4.844722191568877, -0.32372393762796303, 6.827670048447973]
      },
      {
        "species": [{ "element": "Ag", "occu": 1 }],
        "abc": [0.834313699999999, 0.70955194, 0.62202114],
        "properties": { "magmom": -0.0 },
        "label": "Ag",
        "xyz": [-7.263299560225876, -0.32371802705718977, 5.452695591477429]
      },
      {
        "species": [{ "element": "Ag", "occu": 1 }],
        "abc": [0.16568744, 0.29044711, 0.37797848],
        "properties": { "magmom": 0.0 },
        "label": "Ag",
        "xyz": [-2.4214140121773884, 0.3237136450551319, 2.735882342195657]
      }
    ]
  },
  "task_ids": null,
  "uncorrected_energy_per_atom": null,
  "energy_per_atom": -24.46317347,
  "formation_energy_per_atom": -0.310995305000001,
  "energy_above_hull": 0.0,
  "is_stable": true,
  "equilibrium_reaction_energy_per_atom": null,
  "decomposes_to": null,
  "xas": null,
  "grain_boundaries": null,
  "band_gap": 0.0,
  "cbm": null,
  "vbm": null,
  "efermi": 5.41521131,
  "is_gap_direct": null,
  "is_metal": null,
  "es_source_calc_id": null,
  "bandstructure": null,
  "dos": null,
  "dos_energy_up": null,
  "dos_energy_down": null,
  "is_magnetic": null,
  "ordering": null,
  "total_magnetization": 0.0,
  "total_magnetization_normalized_vol": null,
  "total_magnetization_normalized_formula_units": null,
  "num_magnetic_sites": null,
  "num_unique_magnetic_sites": null,
  "types_of_magnetic_species": null,
  "bulk_modulus": null,
  "shear_modulus": null,
  "universal_anisotropy": null,
  "homogeneous_poisson": null,
  "e_total": null,
  "e_ionic": null,
  "e_electronic": null,
  "n": null,
  "e_ij_max": null,
  "weighted_surface_energy_EV_PER_ANG2": null,
  "weighted_surface_energy": null,
  "weighted_work_function": null,
  "surface_anisotropy": null,
  "shape_factor": null,
  "has_reconstructed": null,
  "possible_species": null,
  "has_props": null,
  "theoretical": null,
  "database_IDs": null,
  "fields_not_requested": [
    "builder_meta",
    "nsites",
    "elements",
    "nelements",
    "composition",
    "composition_reduced",
    "chemsys",
    "symmetry",
    "property_name",
    "deprecated",
    "deprecation_reasons",
    "last_updated",
    "origins",
    "warnings",
    "task_ids",
    "uncorrected_energy_per_atom",
    "equilibrium_reaction_energy_per_atom",
    "decomposes_to",
    "xas",
    "grain_boundaries",
    "cbm",
    "vbm",
    "is_gap_direct",
    "is_metal",
    "es_source_calc_id",
    "bandstructure",
    "dos",
    "dos_energy_up",
    "dos_energy_down",
    "is_magnetic",
    "ordering",
    "total_magnetization_normalized_vol",
    "total_magnetization_normalized_formula_units",
    "num_magnetic_sites",
    "num_unique_magnetic_sites",
    "types_of_magnetic_species",
    "bulk_modulus",
    "shear_modulus",
    "universal_anisotropy",
    "homogeneous_poisson",
    "e_total",
    "e_ionic",
    "e_electronic",
    "n",
    "e_ij_max",
    "weighted_surface_energy_EV_PER_ANG2",
    "weighted_surface_energy",
    "weighted_work_function",
    "surface_anisotropy",
    "shape_factor",
    "has_reconstructed",
    "possible_species",
    "has_props",
    "theoretical",
    "database_IDs"
  ]
}
