{"builder_meta": null, "nsites": null, "elements": null, "nelements": null, "composition": null, "composition_reduced": null, "formula_pretty": "LaAg5", "formula_anonymous": "AB5", "chemsys": null, "volume": 258.0352064518227, "density": 8.72946584076949, "density_atomic": 21.502933870985228, "symmetry": null, "property_name": null, "material_id": "mp-1223062", "deprecated": null, "deprecation_reasons": null, "last_updated": null, "origins": null, "warnings": null, "structure": {"@module": "pymatgen.core.structure", "@class": "Structure", "charge": 0, "lattice": {"matrix": [[2.832519, -4.906067, 0.0], [2.832519, 4.906067, 0.0], [0.0, 0.0, 9.284161]], "pbc": [true, true, true], "a": 5.665038154668511, "b": 5.665038154668511, "c": 9.284161, "alpha": 90.0, "beta": 90.0, "gamma": 120.00000180630491, "volume": 258.0352064518227}, "properties": {}, "sites": [{"species": [{"element": "La", "occu": 1}], "abc": [0.666667, 0.333333, 0.910288999999999], "properties": {"magmom": -0.0}, "label": "La", "xyz": [2.832519, -1.6353589373780002, 8.45126963252899]}, {"species": [{"element": "La", "occu": 1}], "abc": [0.333333, 0.666667, 0.089711], "properties": {"magmom": -0.0}, "label": "La", "xyz": [2.832519, 1.6353589373780002, 0.8328913674709999]}, {"species": [{"element": "Ag", "occu": 1}], "abc": [0.0, 0.0, 0.5], "properties": {"magmom": 0.0}, "label": "Ag", "xyz": [0.0, 0.0, 4.6420805]}, {"species": [{"element": "Ag", "occu": 1}], "abc": [0.0, 0.0, 0.0], "properties": {"magmom": 0.0}, "label": "Ag", "xyz": [0.0, 0.0, 0.0]}, {"species": [{"element": "Ag", "occu": 1}], "abc": [0.829828, 0.170172, 0.261587], "properties": {"magmom": 0.0}, "label": "Ag", "xyz": [2.832519, -3.236316532952, 2.428615823507]}, {"species": [{"element": "Ag", "occu": 1}], "abc": [0.829828, 0.659656, 0.261587], "properties": {"magmom": 0.0}, "label": "Ag", "xyz": [4.2189917301960005, -0.8348752335239995, 2.428615823507]}, {"species": [{"element": "Ag", "occu": 1}], "abc": [0.340344, 0.170172, 0.261587], "properties": {"magmom": 0.0}, "label": "Ag", "xyz": [1.446046269804, -0.834875233524, 2.428615823507]}, {"species": [{"element": "Ag", "occu": 1}], "abc": [0.170172, 0.829828, 0.738413], "properties": {"magmom": 0.0}, "label": "Ag", "xyz": [2.832519, 3.236316532952, 6.855545176492999]}, {"species": [{"element": "Ag", "occu": 1}], "abc": [0.170172, 0.340344, 0.738413], "properties": {"magmom": 0.0}, "label": "Ag", "xyz": [1.446046269804, 0.834875233524, 6.855545176492999]}, {"species": [{"element": "Ag", "occu": 1}], "abc": [0.659656, 0.829828, 0.738413], "properties": {"magmom": 0.0}, "label": "Ag", "xyz": [4.2189917301960005, 0.8348752335239995, 6.855545176492999]}, {"species": [{"element": "Ag", "occu": 1}], "abc": [0.333333, 0.666667, 0.448642], "properties": {"magmom": -0.0}, "label": "Ag", "xyz": [2.832519, 1.6353589373780002, 4.165264559362]}, {"species": [{"element": "Ag", "occu": 1}], "abc": [0.666667, 0.333333, 0.551358], "properties": {"magmom": -0.0}, "label": "Ag", "xyz": [2.832519, -1.6353589373780002, 5.118896440637999]}]}, "task_ids": null, "uncorrected_energy_per_atom": null, "energy_per_atom": -22.83395944, "formation_energy_per_atom": -0.079931784999999, "energy_above_hull": 0.07556586749999901, "is_stable": false, "equilibrium_reaction_energy_per_atom": null, "decomposes_to": null, "xas": null, "grain_boundaries": null, "band_gap": 0.0, "cbm": null, "vbm": null, "efermi": 4.4778846, "is_gap_direct": null, "is_metal": null, "es_source_calc_id": null, "bandstructure": null, "dos": null, "dos_energy_up": null, "dos_energy_down": null, "is_magnetic": null, "ordering": null, "total_magnetization": 0.0010169, "total_magnetization_normalized_vol": null, "total_magnetization_normalized_formula_units": null, "num_magnetic_sites": null, "num_unique_magnetic_sites": null, "types_of_magnetic_species": null, "bulk_modulus": null, "shear_modulus": null, "universal_anisotropy": null, "homogeneous_poisson": null, "e_total": null, "e_ionic": null, "e_electronic": null, "n": null, "e_ij_max": null, "weighted_surface_energy_EV_PER_ANG2": null, "weighted_surface_energy": null, "weighted_work_function": null, "surface_anisotropy": null, "shape_factor": null, "has_reconstructed": null, "possible_species": null, "has_props": null, "theoretical": null, "database_IDs": null, "fields_not_requested": ["builder_meta", "nsites", "elements", "nelements", "composition", "composition_reduced", "chemsys", "symmetry", "property_name", "deprecated", "deprecation_reasons", "last_updated", "origins", "warnings", "task_ids", "uncorrected_energy_per_atom", "equilibrium_reaction_energy_per_atom", "decomposes_to", "xas", "grain_boundaries", "cbm", "vbm", "is_gap_direct", "is_metal", "es_source_calc_id", "bandstructure", "dos", "dos_energy_up", "dos_energy_down", "is_magnetic", "ordering", "total_magnetization_normalized_vol", "total_magnetization_normalized_formula_units", "num_magnetic_sites", "num_unique_magnetic_sites", "types_of_magnetic_species", "bulk_modulus", "shear_modulus", "universal_anisotropy", "homogeneous_poisson", "e_total", "e_ionic", "e_electronic", "n", "e_ij_max", "weighted_surface_energy_EV_PER_ANG2", "weighted_surface_energy", "weighted_work_function", "surface_anisotropy", "shape_factor", "has_reconstructed", "possible_species", "has_props", "theoretical", "database_IDs"]}