{"builder_meta": null, "nsites": null, "elements": null, "nelements": null, "composition": null, "composition_reduced": null, "formula_pretty": "LaAl3", "formula_anonymous": "AB3", "chemsys": null, "volume": 179.41201336621177, "density": 4.069623314700671, "density_atomic": 22.42650167077647, "symmetry": null, "property_name": null, "material_id": "mp-959", "deprecated": null, "deprecation_reasons": null, "last_updated": null, "origins": null, "warnings": null, "structure": {"@module": "pymatgen.core.structure", "@class": "Structure", "charge": 0, "lattice": {"matrix": [[6.69457614, 1e-08, -0.0], [-3.34728755, 5.79767394, 0.0], [-0.0, -0.0, 4.62247581]], "pbc": [true, true, true], "a": 6.69457614, "b": 6.69457668989908, "c": 4.62247581, "alpha": 90.0, "beta": 90.0, "gamma": 119.99999205828892, "volume": 179.41201336621177}, "properties": {}, "sites": [{"species": [{"element": "La", "occu": 1}], "abc": [0.333333, 0.666667, 0.25], "properties": {"magmom": 0.0}, "label": "La", "xyz": [-3.000621230153655e-06, 3.86511789589131, 1.1556189525]}, {"species": [{"element": "La", "occu": 1}], "abc": [0.666667, 0.333333, 0.75], "properties": {"magmom": 0.0}, "label": "La", "xyz": [3.3472915906212304, 1.9325560541086901, 3.4668568575]}, {"species": [{"element": "Al", "occu": 1}], "abc": [0.86446291, 0.72892782, 0.25], "properties": {"magmom": 0.0}, "label": "Al", "xyz": [3.3472817544663265, 4.2260858347996395, 1.1556189525]}, {"species": [{"element": "Al", "occu": 1}], "abc": [0.13553709, 0.86446291, 0.75], "properties": {"magmom": 0.0}, "label": "Al", "xyz": [-1.9862425672807376, 5.011874086758937, 3.4668568575]}, {"species": [{"element": "Al", "occu": 1}], "abc": [0.72892782, 0.86446291, 0.75], "properties": {"magmom": 0.0}, "label": "Al", "xyz": [1.9862568554744442, 5.011874092692844, 3.4668568575]}, {"species": [{"element": "Al", "occu": 1}], "abc": [0.27107218, 0.13553709, 0.25], "properties": {"magmom": 0.0}, "label": "Al", "xyz": [1.3610317345255556, 0.7857998573071564, 1.1556189525]}, {"species": [{"element": "Al", "occu": 1}], "abc": [0.86446291, 0.13553709, 0.25], "properties": {"magmom": 0.0}, "label": "Al", "xyz": [5.333531157280738, 0.7857998632410638, 1.1556189525]}, {"species": [{"element": "Al", "occu": 1}], "abc": [0.13553709, 0.27107218, 0.75], "properties": {"magmom": 0.0}, "label": "Al", "xyz": [6.835533673643646e-06, 1.5715881152003601, 3.4668568575]}]}, "task_ids": null, "uncorrected_energy_per_atom": null, "energy_per_atom": -12.97462224625, "formation_energy_per_atom": -0.48935344749999904, "energy_above_hull": 0.0, "is_stable": true, "equilibrium_reaction_energy_per_atom": null, "decomposes_to": null, "xas": null, "grain_boundaries": null, "band_gap": 0.0, "cbm": null, "vbm": null, "efermi": 6.98603163, "is_gap_direct": null, "is_metal": null, "es_source_calc_id": null, "bandstructure": null, "dos": null, "dos_energy_up": null, "dos_energy_down": null, "is_magnetic": null, "ordering": null, "total_magnetization": 2.39e-05, "total_magnetization_normalized_vol": null, "total_magnetization_normalized_formula_units": null, "num_magnetic_sites": null, "num_unique_magnetic_sites": null, "types_of_magnetic_species": null, "bulk_modulus": null, "shear_modulus": null, "universal_anisotropy": null, "homogeneous_poisson": null, "e_total": null, "e_ionic": null, "e_electronic": null, "n": null, "e_ij_max": null, "weighted_surface_energy_EV_PER_ANG2": null, "weighted_surface_energy": null, "weighted_work_function": null, "surface_anisotropy": null, "shape_factor": null, "has_reconstructed": null, "possible_species": null, "has_props": null, "theoretical": null, "database_IDs": null, "fields_not_requested": ["builder_meta", "nsites", "elements", "nelements", "composition", "composition_reduced", "chemsys", "symmetry", "property_name", "deprecated", "deprecation_reasons", "last_updated", "origins", "warnings", "task_ids", "uncorrected_energy_per_atom", "equilibrium_reaction_energy_per_atom", "decomposes_to", "xas", "grain_boundaries", "cbm", "vbm", "is_gap_direct", "is_metal", "es_source_calc_id", "bandstructure", "dos", "dos_energy_up", "dos_energy_down", "is_magnetic", "ordering", "total_magnetization_normalized_vol", "total_magnetization_normalized_formula_units", "num_magnetic_sites", "num_unique_magnetic_sites", "types_of_magnetic_species", "bulk_modulus", "shear_modulus", "universal_anisotropy", "homogeneous_poisson", "e_total", "e_ionic", "e_electronic", "n", "e_ij_max", "weighted_surface_energy_EV_PER_ANG2", "weighted_surface_energy", "weighted_work_function", "surface_anisotropy", "shape_factor", "has_reconstructed", "possible_species", "has_props", "theoretical", "database_IDs"]}