{
  "builder_meta": null,
  "nsites": null,
  "elements": null,
  "nelements": null,
  "composition": null,
  "composition_reduced": null,
  "formula_pretty": "LaAl4",
  "formula_anonymous": "AB4",
  "chemsys": null,
  "volume": 317.1984131598248,
  "density": 3.876503206042371,
  "density_atomic": 21.14656087732165,
  "symmetry": null,
  "property_name": null,
  "material_id": "mp-21109",
  "deprecated": null,
  "deprecation_reasons": null,
  "last_updated": null,
  "origins": null,
  "warnings": null,
  "structure": {
    "@module": "pymatgen.core.structure",
    "@class": "Structure",
    "charge": 0,
    "lattice": {
      "matrix": [
        [-2.16894807, 5.5901744, 6.54028244],
        [2.16894807, -5.5901744, 6.54028244],
        [2.16894807, 5.5901744, -6.54028244]
      ],
      "pbc": [true, true, true],
      "a": 8.87297469554289,
      "b": 8.87297469554289,
      "c": 8.87297469554289,
      "alpha": 151.70200829675156,
      "beta": 101.89642323120239,
      "gamma": 85.02983056220144,
      "volume": 317.1984131598248
    },
    "properties": {},
    "sites": [
      {
        "species": [{ "element": "La", "occu": 1 }],
        "abc": [0.0007530999999990001, -0.0, 0.0007530999999990001],
        "properties": { "magmom": 0.0 },
        "label": "La",
        "xyz": [0.0, 0.008419920681268822, 0.0]
      },
      {
        "species": [{ "element": "La", "occu": 1 }],
        "abc": [0.33412884, 0.33340587, 0.00072297],
        "properties": { "magmom": 0.0 },
        "label": "La",
        "xyz": [5.4860629927766524e-17, 0.008083056771936051, 4.361137113907845]
      },
      {
        "species": [{ "element": "La", "occu": 1 }],
        "abc": [0.6673171, 0.66659413, 0.00072297],
        "properties": { "magmom": 0.0 },
        "label": "La",
        "xyz": [5.4860629927766524e-17, 0.008083056771936274, 8.719427766092155]
      },
      {
        "species": [{ "element": "Al", "occu": 1 }],
        "abc": [0.61554043, -0.0, 0.61554043],
        "properties": { "magmom": 0.0 },
        "label": "Al",
        "xyz": [0.0, 6.881956707901985, 0.0]
      },
      {
        "species": [{ "element": "Al", "occu": 1 }],
        "abc": [0.38554284, 0.0, 0.38554284],
        "properties": { "magmom": 0.0 },
        "label": "Al",
        "xyz": [0.0, 4.310503428542592, 0.0]
      },
      {
        "species": [{ "element": "Al", "occu": 1 }],
        "abc": [0.24986357, 0.5, 0.74986357],
        "properties": { "magmom": 0.0 },
        "label": "Al",
        "xyz": [2.16894807, 2.7935618650132166, 0.0]
      },
      {
        "species": [{ "element": "Al", "occu": 1 }],
        "abc": [0.75137198, 0.5, 0.25137198],
        "properties": { "magmom": -0.0 },
        "label": "Al",
        "xyz": [-2.220446049250313e-16, 2.8104264149466243, 6.54028244]
      },
      {
        "species": [{ "element": "Al", "occu": 1 }],
        "abc": [0.58388351, 0.83357642, 0.75030808],
        "properties": { "magmom": -0.0 },
        "label": "Al",
        "xyz": [2.168950217258589, 2.7985261075856487, 4.363361529368514]
      },
      {
        "species": [{ "element": "Al", "occu": 1 }],
        "abc": [0.91673266, 0.16642358000000002, 0.75030808],
        "properties": { "magmom": -0.0 },
        "label": "Al",
        "xyz": [-2.1689480698139363e-6, 8.388711632032704, 2.1769209760343093]
      },
      {
        "species": [{ "element": "Al", "occu": 1 }],
        "abc": [0.28266347000000003, 0.66694597, 0.615717499999999],
        "properties": { "magmom": -0.0 },
        "label": "Al",
        "xyz": [2.1689480699999977, 1.2937620122639948, 2.1837475920395404]
      },
      {
        "species": [{ "element": "Al", "occu": 1 }],
        "abc": [0.94877153, 0.33305403, 0.615717499999999],
        "properties": { "magmom": -0.0 },
        "label": "Al",
        "xyz": [-2.4424906541753444e-15, 6.883936412263996, 4.356534847960473]
      },
      {
        "species": [{ "element": "Al", "occu": 1 }],
        "abc": [0.05261241, 0.66669455, 0.38591786],
        "properties": { "magmom": -0.0 },
        "label": "Al",
        "xyz": [2.16894807, -1.2754781170504321, 2.1804588764174047]
      },
      {
        "species": [{ "element": "Al", "occu": 1 }],
        "abc": [0.7192213, 0.33330545, 0.38591786],
        "properties": { "magmom": -0.0 },
        "label": "Al",
        "xyz": [4.359585620838935e-6, 4.314685046699024, 4.3598104176148915]
      },
      {
        "species": [{ "element": "Al", "occu": 1 }],
        "abc": [0.08453715, 0.83323901, 0.25129914000000003],
        "properties": { "magmom": 0.0 },
        "label": "Al",
        "xyz": [2.16895023894807, -2.7805679518343682, 4.358947950569529]
      },
      {
        "species": [{ "element": "Al", "occu": 1 }],
        "abc": [0.41805913, 0.16676099, 0.25129914000000003],
        "properties": { "magmom": 0.0 },
        "label": "Al",
        "xyz": [2.168948070147003e-6, 2.809606448165632, 2.181321408865591]
      }
    ]
  },
  "task_ids": null,
  "uncorrected_energy_per_atom": null,
  "energy_per_atom": -11.713077591333334,
  "formation_energy_per_atom": -0.378442886333333,
  "energy_above_hull": 0.014523722666664001,
  "is_stable": false,
  "equilibrium_reaction_energy_per_atom": null,
  "decomposes_to": null,
  "xas": null,
  "grain_boundaries": null,
  "band_gap": 0.0,
  "cbm": null,
  "vbm": null,
  "efermi": 7.6217986,
  "is_gap_direct": null,
  "is_metal": null,
  "es_source_calc_id": null,
  "bandstructure": null,
  "dos": null,
  "dos_energy_up": null,
  "dos_energy_down": null,
  "is_magnetic": null,
  "ordering": null,
  "total_magnetization": 0.0001087,
  "total_magnetization_normalized_vol": null,
  "total_magnetization_normalized_formula_units": null,
  "num_magnetic_sites": null,
  "num_unique_magnetic_sites": null,
  "types_of_magnetic_species": null,
  "bulk_modulus": null,
  "shear_modulus": null,
  "universal_anisotropy": null,
  "homogeneous_poisson": null,
  "e_total": null,
  "e_ionic": null,
  "e_electronic": null,
  "n": null,
  "e_ij_max": null,
  "weighted_surface_energy_EV_PER_ANG2": null,
  "weighted_surface_energy": null,
  "weighted_work_function": null,
  "surface_anisotropy": null,
  "shape_factor": null,
  "has_reconstructed": null,
  "possible_species": null,
  "has_props": null,
  "theoretical": null,
  "database_IDs": null,
  "fields_not_requested": [
    "builder_meta",
    "nsites",
    "elements",
    "nelements",
    "composition",
    "composition_reduced",
    "chemsys",
    "symmetry",
    "property_name",
    "deprecated",
    "deprecation_reasons",
    "last_updated",
    "origins",
    "warnings",
    "task_ids",
    "uncorrected_energy_per_atom",
    "equilibrium_reaction_energy_per_atom",
    "decomposes_to",
    "xas",
    "grain_boundaries",
    "cbm",
    "vbm",
    "is_gap_direct",
    "is_metal",
    "es_source_calc_id",
    "bandstructure",
    "dos",
    "dos_energy_up",
    "dos_energy_down",
    "is_magnetic",
    "ordering",
    "total_magnetization_normalized_vol",
    "total_magnetization_normalized_formula_units",
    "num_magnetic_sites",
    "num_unique_magnetic_sites",
    "types_of_magnetic_species",
    "bulk_modulus",
    "shear_modulus",
    "universal_anisotropy",
    "homogeneous_poisson",
    "e_total",
    "e_ionic",
    "e_electronic",
    "n",
    "e_ij_max",
    "weighted_surface_energy_EV_PER_ANG2",
    "weighted_surface_energy",
    "weighted_work_function",
    "surface_anisotropy",
    "shape_factor",
    "has_reconstructed",
    "possible_species",
    "has_props",
    "theoretical",
    "database_IDs"
  ]
}
