{"builder_meta": null, "nsites": null, "elements": null, "nelements": null, "composition": null, "composition_reduced": null, "formula_pretty": "LaAl", "formula_anonymous": "AB", "chemsys": null, "volume": 211.96546164247079, "density": 5.19824043572421, "density_atomic": 26.495682705308848, "symmetry": null, "property_name": null, "material_id": "mp-12684", "deprecated": null, "deprecation_reasons": null, "last_updated": null, "origins": null, "warnings": null, "structure": {"@module": "pymatgen.core.structure", "@class": "Structure", "charge": 0, "lattice": {"matrix": [[5.74227809, 0.0, -0.0], [0.0, 6.01647936, -1.19081408], [0.0, 0.01087848, 6.13318425]], "pbc": [true, true, true], "a": 5.74227809, "b": 6.13319346363966, "c": 6.133193897617715, "alpha": 101.09396701615604, "beta": 90.0, "gamma": 90.0, "volume": 211.96546164247079}, "properties": {}, "sites": [{"species": [{"element": "La", "occu": 1}], "abc": [0.75, 0.15832602, 0.51310091], "properties": {"magmom": -0.0}, "label": "La", "xyz": [4.3067085675, 0.9581469894683641, 2.958405566026306]}, {"species": [{"element": "La", "occu": 1}], "abc": [0.25, 0.84167398, 0.48689909000000003], "properties": {"magmom": -0.0}, "label": "La", "xyz": [1.4355695225, 5.069210850531636, 1.9839646039736945]}, {"species": [{"element": "La", "occu": 1}], "abc": [0.75, 0.51310091, 0.15832602], "properties": {"magmom": -0.0}, "label": "La", "xyz": [4.3067085675, 3.0887833810542675, 0.3600348641403722]}, {"species": [{"element": "La", "occu": 1}], "abc": [0.25, 0.48689909000000003, 0.84167398], "properties": {"magmom": -0.0}, "label": "La", "xyz": [1.4355695225, 2.938574458945733, 4.582335305859628]}, {"species": [{"element": "Al", "occu": 1}], "abc": [0.75, 0.69831525, 0.69831525], "properties": {"magmom": 0.0}, "label": "Al", "xyz": [4.3067085675, 4.208995896879061, 3.4513324608560927]}, {"species": [{"element": "Al", "occu": 1}], "abc": [0.25, 0.30168475, 0.30168475], "properties": {"magmom": 0.0}, "label": "Al", "xyz": [1.4355695225, 1.81836194312094, 1.4910377091439078]}, {"species": [{"element": "Al", "occu": 1}], "abc": [0.5, -0.0, -0.0], "properties": {"magmom": -0.0}, "label": "Al", "xyz": [2.871139045, 0.0, 0.0]}, {"species": [{"element": "Al", "occu": 1}], "abc": [-0.0, -0.0, -0.0], "properties": {"magmom": -0.0}, "label": "Al", "xyz": [0.0, 0.0, 0.0]}]}, "task_ids": null, "uncorrected_energy_per_atom": null, "energy_per_atom": -18.70844404625, "formation_energy_per_atom": -0.470004778749999, "energy_above_hull": 0.0, "is_stable": true, "equilibrium_reaction_energy_per_atom": null, "decomposes_to": null, "xas": null, "grain_boundaries": null, "band_gap": 0.0, "cbm": null, "vbm": null, "efermi": 7.74291283, "is_gap_direct": null, "is_metal": null, "es_source_calc_id": null, "bandstructure": null, "dos": null, "dos_energy_up": null, "dos_energy_down": null, "is_magnetic": null, "ordering": null, "total_magnetization": 1e-07, "total_magnetization_normalized_vol": null, "total_magnetization_normalized_formula_units": null, "num_magnetic_sites": null, "num_unique_magnetic_sites": null, "types_of_magnetic_species": null, "bulk_modulus": null, "shear_modulus": null, "universal_anisotropy": null, "homogeneous_poisson": null, "e_total": null, "e_ionic": null, "e_electronic": null, "n": null, "e_ij_max": null, "weighted_surface_energy_EV_PER_ANG2": null, "weighted_surface_energy": null, "weighted_work_function": null, "surface_anisotropy": null, "shape_factor": null, "has_reconstructed": null, "possible_species": null, "has_props": null, "theoretical": null, "database_IDs": null, "fields_not_requested": ["builder_meta", "nsites", "elements", "nelements", "composition", "composition_reduced", "chemsys", "symmetry", "property_name", "deprecated", "deprecation_reasons", "last_updated", "origins", "warnings", "task_ids", "uncorrected_energy_per_atom", "equilibrium_reaction_energy_per_atom", "decomposes_to", "xas", "grain_boundaries", "cbm", "vbm", "is_gap_direct", "is_metal", "es_source_calc_id", "bandstructure", "dos", "dos_energy_up", "dos_energy_down", "is_magnetic", "ordering", "total_magnetization_normalized_vol", "total_magnetization_normalized_formula_units", "num_magnetic_sites", "num_unique_magnetic_sites", "types_of_magnetic_species", "bulk_modulus", "shear_modulus", "universal_anisotropy", "homogeneous_poisson", "e_total", "e_ionic", "e_electronic", "n", "e_ij_max", "weighted_surface_energy_EV_PER_ANG2", "weighted_surface_energy", "weighted_work_function", "surface_anisotropy", "shape_factor", "has_reconstructed", "possible_species", "has_props", "theoretical", "database_IDs"]}