{
  "builder_meta": null,
  "nsites": null,
  "elements": null,
  "nelements": null,
  "composition": null,
  "composition_reduced": null,
  "formula_pretty": "LaAs3",
  "formula_anonymous": "AB3",
  "chemsys": null,
  "volume": 200.9248993970412,
  "density": 6.01108864564013,
  "density_atomic": 25.11561242463015,
  "symmetry": null,
  "property_name": null,
  "material_id": "mp-1185145",
  "deprecated": null,
  "deprecation_reasons": null,
  "last_updated": null,
  "origins": null,
  "warnings": null,
  "structure": {
    "@module": "pymatgen.core.structure",
    "@class": "Structure",
    "charge": 0,
    "lattice": {
      "matrix": [
        [3.156942, -5.467983999999999, 0.0],
        [3.156942, 5.467983999999999, 0.0],
        [0.0, 0.0, 5.819825]
      ],
      "pbc": [true, true, true],
      "a": 6.313884051486848,
      "b": 6.313884051486848,
      "c": 5.819825,
      "alpha": 90.0,
      "beta": 90.0,
      "gamma": 120.00000053950033,
      "volume": 200.92489939704114
    },
    "properties": {},
    "sites": [
      {
        "species": [{ "element": "La", "occu": 1 }],
        "abc": [0.666667, 0.333333, 0.25],
        "properties": { "magmom": -0.0 },
        "label": "La",
        "xyz": [3.156942, -1.8226649786559996, 1.45495625]
      },
      {
        "species": [{ "element": "La", "occu": 1 }],
        "abc": [0.333333, 0.666667, 0.75],
        "properties": { "magmom": -0.0 },
        "label": "La",
        "xyz": [3.156942, 1.8226649786559996, 4.364868749999999]
      },
      {
        "species": [{ "element": "As", "occu": 1 }],
        "abc": [0.801617999999999, 0.198382, 0.75],
        "properties": { "magmom": 0.0 },
        "label": "As",
        "xyz": [3.156941999999997, -3.298484796223994, 4.364868749999999]
      },
      {
        "species": [{ "element": "As", "occu": 1 }],
        "abc": [0.396764, 0.198382, 0.75],
        "properties": { "magmom": 0.0 },
        "label": "As",
        "xyz": [1.8788414035320002, -1.0847496018879998, 4.364868749999999]
      },
      {
        "species": [{ "element": "As", "occu": 1 }],
        "abc": [0.801617999999999, 0.603236, 0.75],
        "properties": { "magmom": 0.0 },
        "label": "As",
        "xyz": [4.435042596467997, -1.084749601887995, 4.364868749999999]
      },
      {
        "species": [{ "element": "As", "occu": 1 }],
        "abc": [0.198382, 0.801617999999999, 0.25],
        "properties": { "magmom": 0.0 },
        "label": "As",
        "xyz": [3.156941999999997, 3.298484796223994, 1.45495625]
      },
      {
        "species": [{ "element": "As", "occu": 1 }],
        "abc": [0.198382, 0.396764, 0.25],
        "properties": { "magmom": 0.0 },
        "label": "As",
        "xyz": [1.8788414035320002, 1.0847496018879998, 1.45495625]
      },
      {
        "species": [{ "element": "As", "occu": 1 }],
        "abc": [0.603236, 0.801617999999999, 0.25],
        "properties": { "magmom": 0.0 },
        "label": "As",
        "xyz": [4.435042596467997, 1.084749601887995, 1.45495625]
      }
    ]
  },
  "task_ids": null,
  "uncorrected_energy_per_atom": null,
  "energy_per_atom": -19.22558425,
  "formation_energy_per_atom": -0.7587409581249991,
  "energy_above_hull": 0.173691973749999,
  "is_stable": false,
  "equilibrium_reaction_energy_per_atom": null,
  "decomposes_to": null,
  "xas": null,
  "grain_boundaries": null,
  "band_gap": 0.0,
  "cbm": null,
  "vbm": null,
  "efermi": 6.07782014,
  "is_gap_direct": null,
  "is_metal": null,
  "es_source_calc_id": null,
  "bandstructure": null,
  "dos": null,
  "dos_energy_up": null,
  "dos_energy_down": null,
  "is_magnetic": null,
  "ordering": null,
  "total_magnetization": 0.0009611,
  "total_magnetization_normalized_vol": null,
  "total_magnetization_normalized_formula_units": null,
  "num_magnetic_sites": null,
  "num_unique_magnetic_sites": null,
  "types_of_magnetic_species": null,
  "bulk_modulus": null,
  "shear_modulus": null,
  "universal_anisotropy": null,
  "homogeneous_poisson": null,
  "e_total": null,
  "e_ionic": null,
  "e_electronic": null,
  "n": null,
  "e_ij_max": null,
  "weighted_surface_energy_EV_PER_ANG2": null,
  "weighted_surface_energy": null,
  "weighted_work_function": null,
  "surface_anisotropy": null,
  "shape_factor": null,
  "has_reconstructed": null,
  "possible_species": null,
  "has_props": null,
  "theoretical": null,
  "database_IDs": null,
  "fields_not_requested": [
    "builder_meta",
    "nsites",
    "elements",
    "nelements",
    "composition",
    "composition_reduced",
    "chemsys",
    "symmetry",
    "property_name",
    "deprecated",
    "deprecation_reasons",
    "last_updated",
    "origins",
    "warnings",
    "task_ids",
    "uncorrected_energy_per_atom",
    "equilibrium_reaction_energy_per_atom",
    "decomposes_to",
    "xas",
    "grain_boundaries",
    "cbm",
    "vbm",
    "is_gap_direct",
    "is_metal",
    "es_source_calc_id",
    "bandstructure",
    "dos",
    "dos_energy_up",
    "dos_energy_down",
    "is_magnetic",
    "ordering",
    "total_magnetization_normalized_vol",
    "total_magnetization_normalized_formula_units",
    "num_magnetic_sites",
    "num_unique_magnetic_sites",
    "types_of_magnetic_species",
    "bulk_modulus",
    "shear_modulus",
    "universal_anisotropy",
    "homogeneous_poisson",
    "e_total",
    "e_ionic",
    "e_electronic",
    "n",
    "e_ij_max",
    "weighted_surface_energy_EV_PER_ANG2",
    "weighted_surface_energy",
    "weighted_work_function",
    "surface_anisotropy",
    "shape_factor",
    "has_reconstructed",
    "possible_species",
    "has_props",
    "theoretical",
    "database_IDs"
  ]
}
