{
  "builder_meta": null,
  "nsites": null,
  "elements": null,
  "nelements": null,
  "composition": null,
  "composition_reduced": null,
  "formula_pretty": "LaAs2",
  "formula_anonymous": "AB2",
  "chemsys": null,
  "volume": 305.69977572160457,
  "density": 6.273847546429921,
  "density_atomic": 25.474981310133714,
  "symmetry": null,
  "property_name": null,
  "material_id": "mp-1102055",
  "deprecated": null,
  "deprecation_reasons": null,
  "last_updated": null,
  "origins": null,
  "warnings": null,
  "structure": {
    "@module": "pymatgen.core.structure",
    "@class": "Structure",
    "charge": 0,
    "lattice": {
      "matrix": [
        [-4.08268972, 0.0, 1.21657754],
        [0.0, -6.98209088, 0.0],
        [4.07180152, 0.0, 9.51082605]
      ],
      "pbc": [true, true, true],
      "a": 4.260095804160528,
      "b": 6.98209088,
      "c": 10.345790437256735,
      "alpha": 90.0,
      "beta": 96.58363959467722,
      "gamma": 90.0,
      "volume": 305.69977572160457
    },
    "properties": {},
    "sites": [
      {
        "species": [{ "element": "La", "occu": 1 }],
        "abc": [0.72799804, 0.81401452, 0.63955994],
        "properties": { "magmom": 0.0 },
        "label": "La",
        "xyz": [-0.3680289782650399, -5.6835233562795775, 6.96840940251646]
      },
      {
        "species": [{ "element": "La", "occu": 1 }],
        "abc": [0.77200196, 0.31401452, 0.8604400600000001],
        "properties": { "magmom": 0.0 },
        "label": "La",
        "xyz": [0.35169667826504014, -2.1924779162795778, 9.122695982483542]
      },
      {
        "species": [{ "element": "La", "occu": 1 }],
        "abc": [0.27200196, 0.18598548, 0.36044006],
        "properties": { "magmom": 0.0 },
        "label": "La",
        "xyz": [0.35714077826504, -1.2985675237204226, 3.758994187483542]
      },
      {
        "species": [{ "element": "La", "occu": 1 }],
        "abc": [0.22799804, 0.68598548, 0.13955994],
        "properties": { "magmom": 0.0 },
        "label": "La",
        "xyz": [-0.36258487826504004, -4.789612963720423, 1.6047076075164588]
      },
      {
        "species": [{ "element": "As", "occu": 1 }],
        "abc": [0.20306595, 0.14957819, 0.66958383],
        "properties": { "magmom": -0.0 },
        "label": "As",
        "xyz": [1.8973571902143878, -1.0443685162459073, 6.615340806931535]
      },
      {
        "species": [{ "element": "As", "occu": 1 }],
        "abc": [0.29693405, 0.64957819, 0.83041617],
        "properties": { "magmom": -0.0 },
        "label": "As",
        "xyz": [2.1690002297856124, -4.5354139562459075, 8.259187038068466]
      },
      {
        "species": [{ "element": "As", "occu": 1 }],
        "abc": [0.7969340500000001, 0.8504218100000001, 0.33041617],
        "properties": { "magmom": -0.0 },
        "label": "As",
        "xyz": [-1.908245390214388, -5.9377223637540935, 4.112062783068466]
      },
      {
        "species": [{ "element": "As", "occu": 1 }],
        "abc": [0.70306595, 0.35042181, 0.16958383],
        "properties": { "magmom": -0.0 },
        "label": "As",
        "xyz": [-2.1798884297856125, -2.446676923754093, 2.4682165519315347]
      },
      {
        "species": [{ "element": "As", "occu": 1 }],
        "abc": [0.66657264, 0.87686193, 0.95118217],
        "properties": { "magmom": -0.0 },
        "label": "As",
        "xyz": [1.1516157406416374, -6.122329684472199, 9.857465463334036]
      },
      {
        "species": [{ "element": "As", "occu": 1 }],
        "abc": [0.8334273600000001, 0.37686193, 0.5488178300000001],
        "properties": { "magmom": -0.0 },
        "label": "As",
        "xyz": [-1.1679480406416376, -2.6312842444721984, 6.233639921665967]
      },
      {
        "species": [{ "element": "As", "occu": 1 }],
        "abc": [0.33342736, 0.12313807, 0.04881783],
        "properties": { "magmom": -0.0 },
        "label": "As",
        "xyz": [-1.1625039406416378, -0.8597611955278016, 0.8699381266659659]
      },
      {
        "species": [{ "element": "As", "occu": 1 }],
        "abc": [0.16657264, 0.62313807, 0.45118217],
        "properties": { "magmom": -0.0 },
        "label": "As",
        "xyz": [1.1570598406416375, -4.3508066355278014, 4.493763668334035]
      }
    ]
  },
  "task_ids": null,
  "uncorrected_energy_per_atom": null,
  "energy_per_atom": -20.9631913025,
  "formation_energy_per_atom": -1.243243909166667,
  "energy_above_hull": 0.0,
  "is_stable": true,
  "equilibrium_reaction_energy_per_atom": null,
  "decomposes_to": null,
  "xas": null,
  "grain_boundaries": null,
  "band_gap": 0.18400000000000002,
  "cbm": null,
  "vbm": null,
  "efermi": 6.49246895,
  "is_gap_direct": null,
  "is_metal": null,
  "es_source_calc_id": null,
  "bandstructure": null,
  "dos": null,
  "dos_energy_up": null,
  "dos_energy_down": null,
  "is_magnetic": null,
  "ordering": null,
  "total_magnetization": 0.0,
  "total_magnetization_normalized_vol": null,
  "total_magnetization_normalized_formula_units": null,
  "num_magnetic_sites": null,
  "num_unique_magnetic_sites": null,
  "types_of_magnetic_species": null,
  "bulk_modulus": null,
  "shear_modulus": null,
  "universal_anisotropy": null,
  "homogeneous_poisson": null,
  "e_total": null,
  "e_ionic": null,
  "e_electronic": null,
  "n": null,
  "e_ij_max": null,
  "weighted_surface_energy_EV_PER_ANG2": null,
  "weighted_surface_energy": null,
  "weighted_work_function": null,
  "surface_anisotropy": null,
  "shape_factor": null,
  "has_reconstructed": null,
  "possible_species": null,
  "has_props": null,
  "theoretical": null,
  "database_IDs": null,
  "fields_not_requested": [
    "builder_meta",
    "nsites",
    "elements",
    "nelements",
    "composition",
    "composition_reduced",
    "chemsys",
    "symmetry",
    "property_name",
    "deprecated",
    "deprecation_reasons",
    "last_updated",
    "origins",
    "warnings",
    "task_ids",
    "uncorrected_energy_per_atom",
    "equilibrium_reaction_energy_per_atom",
    "decomposes_to",
    "xas",
    "grain_boundaries",
    "cbm",
    "vbm",
    "is_gap_direct",
    "is_metal",
    "es_source_calc_id",
    "bandstructure",
    "dos",
    "dos_energy_up",
    "dos_energy_down",
    "is_magnetic",
    "ordering",
    "total_magnetization_normalized_vol",
    "total_magnetization_normalized_formula_units",
    "num_magnetic_sites",
    "num_unique_magnetic_sites",
    "types_of_magnetic_species",
    "bulk_modulus",
    "shear_modulus",
    "universal_anisotropy",
    "homogeneous_poisson",
    "e_total",
    "e_ionic",
    "e_electronic",
    "n",
    "e_ij_max",
    "weighted_surface_energy_EV_PER_ANG2",
    "weighted_surface_energy",
    "weighted_work_function",
    "surface_anisotropy",
    "shape_factor",
    "has_reconstructed",
    "possible_species",
    "has_props",
    "theoretical",
    "database_IDs"
  ]
}
