{
  "builder_meta": null,
  "nsites": null,
  "elements": null,
  "nelements": null,
  "composition": null,
  "composition_reduced": null,
  "formula_pretty": "LaAu3",
  "formula_anonymous": "AB3",
  "chemsys": null,
  "volume": 181.67442536999485,
  "density": 13.341118376429211,
  "density_atomic": 22.709303171249356,
  "symmetry": null,
  "property_name": null,
  "material_id": "mp-864901",
  "deprecated": null,
  "deprecation_reasons": null,
  "last_updated": null,
  "origins": null,
  "warnings": null,
  "structure": {
    "@module": "pymatgen.core.structure",
    "@class": "Structure",
    "charge": 0,
    "lattice": {
      "matrix": [
        [6.6808712, 1.859999999999999e-6, 5.2e-7],
        [-3.34043295, 5.78580363, 1e-8],
        [3.6e-7, 2.299999999999999e-7, 4.69999003]
      ],
      "pbc": [true, true, true],
      "a": 6.680871200000279,
      "b": 6.680869399888527,
      "c": 4.69999003000002,
      "alpha": 89.9999996803502,
      "beta": 89.99999115180813,
      "gamma": 119.99996671907816,
      "volume": 181.67442536999482
    },
    "properties": {},
    "sites": [
      {
        "species": [{ "element": "La", "occu": 1 }],
        "abc": [0.66666592, 0.33333407, 0.25000353000000003],
        "properties": { "magmom": -0.0 },
        "label": "La",
        "xyz": [3.3404291241651687, 1.928606769708097, 1.1750144484644252]
      },
      {
        "species": [{ "element": "La", "occu": 1 }],
        "abc": [0.33333295, 0.66666741, 0.7500023100000001],
        "properties": { "magmom": -0.0 },
        "label": "La",
        "xyz": [-3.007388287605054e-6, 3.8572075132805166, 3.5250035594767777]
      },
      {
        "species": [{ "element": "Au", "occu": 1 }],
        "abc": [0.15085813, 0.84914224, 0.250002599999999],
        "properties": { "magmom": 0.0 },
        "label": "Au",
        "xyz": [-1.828638891729016, 4.912970592675051, 1.1750098144117234]
      },
      {
        "species": [{ "element": "Au", "occu": 1 }],
        "abc": [0.69828362, 0.84914197, 0.25000257],
        "properties": { "magmom": 0.0 },
        "label": "Au",
        "xyz": [1.8286412004747576, 4.912970048719476, 1.1750099580732791]
      },
      {
        "species": [{ "element": "Au", "occu": 1 }],
        "abc": [0.15085813, 0.30171638, 0.250002599999999],
        "properties": { "magmom": 0.0 },
        "label": "Au",
        "xyz": [4.886970712175907e-7, 1.7456720647311794, 1.1750098089374648]
      },
      {
        "species": [{ "element": "Au", "occu": 1 }],
        "abc": [0.84914155, 0.6982842300000001, 0.74999945],
        "properties": { "magmom": 0.0 },
        "label": "Au",
        "xyz": [3.340433945760784, 4.040137184608912, 3.524990386041932]
      },
      {
        "species": [{ "element": "Au", "occu": 1 }],
        "abc": [0.30171596, 0.15085854, 0.74999945],
        "properties": { "magmom": 0.0 },
        "label": "Au",
        "xyz": [1.5117928999392614, 0.8728386220400594, 3.524990095906368]
      },
      {
        "species": [{ "element": "Au", "occu": 1 }],
        "abc": [0.84914174, 0.15085815, 0.749999499999999],
        "properties": { "magmom": 0.0 },
        "label": "Au",
        "xyz": [5.169075330447665, 0.872837383788606, 3.5249906155672672]
      }
    ]
  },
  "task_ids": null,
  "uncorrected_energy_per_atom": null,
  "energy_per_atom": -4.373106431250001,
  "formation_energy_per_atom": -0.683693155000001,
  "energy_above_hull": 0.02150910543478,
  "is_stable": false,
  "equilibrium_reaction_energy_per_atom": null,
  "decomposes_to": null,
  "xas": null,
  "grain_boundaries": null,
  "band_gap": 0.0,
  "cbm": null,
  "vbm": null,
  "efermi": 6.02453212,
  "is_gap_direct": null,
  "is_metal": null,
  "es_source_calc_id": null,
  "bandstructure": null,
  "dos": null,
  "dos_energy_up": null,
  "dos_energy_down": null,
  "is_magnetic": null,
  "ordering": null,
  "total_magnetization": 3e-7,
  "total_magnetization_normalized_vol": null,
  "total_magnetization_normalized_formula_units": null,
  "num_magnetic_sites": null,
  "num_unique_magnetic_sites": null,
  "types_of_magnetic_species": null,
  "bulk_modulus": null,
  "shear_modulus": null,
  "universal_anisotropy": null,
  "homogeneous_poisson": null,
  "e_total": null,
  "e_ionic": null,
  "e_electronic": null,
  "n": null,
  "e_ij_max": null,
  "weighted_surface_energy_EV_PER_ANG2": null,
  "weighted_surface_energy": null,
  "weighted_work_function": null,
  "surface_anisotropy": null,
  "shape_factor": null,
  "has_reconstructed": null,
  "possible_species": null,
  "has_props": null,
  "theoretical": null,
  "database_IDs": null,
  "fields_not_requested": [
    "builder_meta",
    "nsites",
    "elements",
    "nelements",
    "composition",
    "composition_reduced",
    "chemsys",
    "symmetry",
    "property_name",
    "deprecated",
    "deprecation_reasons",
    "last_updated",
    "origins",
    "warnings",
    "task_ids",
    "uncorrected_energy_per_atom",
    "equilibrium_reaction_energy_per_atom",
    "decomposes_to",
    "xas",
    "grain_boundaries",
    "cbm",
    "vbm",
    "is_gap_direct",
    "is_metal",
    "es_source_calc_id",
    "bandstructure",
    "dos",
    "dos_energy_up",
    "dos_energy_down",
    "is_magnetic",
    "ordering",
    "total_magnetization_normalized_vol",
    "total_magnetization_normalized_formula_units",
    "num_magnetic_sites",
    "num_unique_magnetic_sites",
    "types_of_magnetic_species",
    "bulk_modulus",
    "shear_modulus",
    "universal_anisotropy",
    "homogeneous_poisson",
    "e_total",
    "e_ionic",
    "e_electronic",
    "n",
    "e_ij_max",
    "weighted_surface_energy_EV_PER_ANG2",
    "weighted_surface_energy",
    "weighted_work_function",
    "surface_anisotropy",
    "shape_factor",
    "has_reconstructed",
    "possible_species",
    "has_props",
    "theoretical",
    "database_IDs"
  ]
}
