{
  "builder_meta": null,
  "nsites": null,
  "elements": null,
  "nelements": null,
  "composition": null,
  "composition_reduced": null,
  "formula_pretty": "LaAu",
  "formula_anonymous": "AB",
  "chemsys": null,
  "volume": 110.61375856804796,
  "density": 10.084254424733109,
  "density_atomic": 27.65343964201199,
  "symmetry": null,
  "property_name": null,
  "material_id": "mp-1002136",
  "deprecated": null,
  "deprecation_reasons": null,
  "last_updated": null,
  "origins": null,
  "warnings": null,
  "structure": {
    "@module": "pymatgen.core.structure",
    "@class": "Structure",
    "charge": 0.0,
    "lattice": {
      "matrix": [
        [1.99633262, -5.78031047, -0.0],
        [1.99633262, 5.78031047, 0.0],
        [-0.0, 0.0, 4.79286377]
      ],
      "pbc": [true, true, true],
      "a": 6.115335890960338,
      "b": 6.115335890960338,
      "c": 4.79286377,
      "alpha": 90.0,
      "beta": 90.0,
      "gamma": 141.89348040970364,
      "volume": 110.61375856804796
    },
    "properties": {},
    "sites": [
      {
        "species": [{ "element": "La", "occu": 1 }],
        "abc": [0.86498265, 0.13501735, 0.75],
        "properties": { "magmom": 0.0 },
        "label": "La",
        "xyz": [1.99633262, -4.21942606632669, 3.5946478275000002]
      },
      {
        "species": [{ "element": "La", "occu": 1 }],
        "abc": [0.13501735, 0.86498265, 0.25],
        "properties": { "magmom": 0.0 },
        "label": "La",
        "xyz": [1.99633262, 4.21942606632669, 1.1982159425]
      },
      {
        "species": [{ "element": "Au", "occu": 1 }],
        "abc": [0.58699904, 0.41300096000000003, 0.75],
        "properties": { "magmom": -0.0 },
        "label": "Au",
        "xyz": [1.9963326200000002, -1.0057629235838976, 3.5946478275000002]
      },
      {
        "species": [{ "element": "Au", "occu": 1 }],
        "abc": [0.41300096000000003, 0.58699904, 0.25],
        "properties": { "magmom": -0.0 },
        "label": "Au",
        "xyz": [1.9963326200000002, 1.0057629235838976, 1.1982159425]
      }
    ]
  },
  "task_ids": null,
  "uncorrected_energy_per_atom": null,
  "energy_per_atom": -4.929354017500003,
  "formation_energy_per_atom": -0.8244094650000041,
  "energy_above_hull": 0.0,
  "is_stable": true,
  "equilibrium_reaction_energy_per_atom": null,
  "decomposes_to": null,
  "xas": null,
  "grain_boundaries": null,
  "band_gap": 0.0,
  "cbm": null,
  "vbm": null,
  "efermi": 7.23998722,
  "is_gap_direct": null,
  "is_metal": null,
  "es_source_calc_id": null,
  "bandstructure": null,
  "dos": null,
  "dos_energy_up": null,
  "dos_energy_down": null,
  "is_magnetic": null,
  "ordering": null,
  "total_magnetization": 1.2e-6,
  "total_magnetization_normalized_vol": null,
  "total_magnetization_normalized_formula_units": null,
  "num_magnetic_sites": null,
  "num_unique_magnetic_sites": null,
  "types_of_magnetic_species": null,
  "bulk_modulus": null,
  "shear_modulus": null,
  "universal_anisotropy": null,
  "homogeneous_poisson": null,
  "e_total": null,
  "e_ionic": null,
  "e_electronic": null,
  "n": null,
  "e_ij_max": null,
  "weighted_surface_energy_EV_PER_ANG2": null,
  "weighted_surface_energy": null,
  "weighted_work_function": null,
  "surface_anisotropy": null,
  "shape_factor": null,
  "has_reconstructed": null,
  "possible_species": null,
  "has_props": null,
  "theoretical": null,
  "database_IDs": null,
  "fields_not_requested": [
    "builder_meta",
    "nsites",
    "elements",
    "nelements",
    "composition",
    "composition_reduced",
    "chemsys",
    "symmetry",
    "property_name",
    "deprecated",
    "deprecation_reasons",
    "last_updated",
    "origins",
    "warnings",
    "task_ids",
    "uncorrected_energy_per_atom",
    "equilibrium_reaction_energy_per_atom",
    "decomposes_to",
    "xas",
    "grain_boundaries",
    "cbm",
    "vbm",
    "is_gap_direct",
    "is_metal",
    "es_source_calc_id",
    "bandstructure",
    "dos",
    "dos_energy_up",
    "dos_energy_down",
    "is_magnetic",
    "ordering",
    "total_magnetization_normalized_vol",
    "total_magnetization_normalized_formula_units",
    "num_magnetic_sites",
    "num_unique_magnetic_sites",
    "types_of_magnetic_species",
    "bulk_modulus",
    "shear_modulus",
    "universal_anisotropy",
    "homogeneous_poisson",
    "e_total",
    "e_ionic",
    "e_electronic",
    "n",
    "e_ij_max",
    "weighted_surface_energy_EV_PER_ANG2",
    "weighted_surface_energy",
    "weighted_work_function",
    "surface_anisotropy",
    "shape_factor",
    "has_reconstructed",
    "possible_species",
    "has_props",
    "theoretical",
    "database_IDs"
  ]
}
