{
  "builder_meta": null,
  "nsites": null,
  "elements": null,
  "nelements": null,
  "composition": null,
  "composition_reduced": null,
  "formula_pretty": "LaAu2",
  "formula_anonymous": "AB2",
  "chemsys": null,
  "volume": 145.08227623763625,
  "density": 12.197207649644453,
  "density_atomic": 24.180379372939374,
  "symmetry": null,
  "property_name": null,
  "material_id": "mp-1072087",
  "deprecated": null,
  "deprecation_reasons": null,
  "last_updated": null,
  "origins": null,
  "warnings": null,
  "structure": {
    "@module": "pymatgen.core.structure",
    "@class": "Structure",
    "charge": 0,
    "lattice": {
      "matrix": [
        [-4.72999593, 0.0, -1e-8],
        [-2.36499745, -3.70563546, 4.138671],
        [-2.36499745, 3.70563546, 4.138671]
      ],
      "pbc": [true, true, true],
      "a": 4.72999593,
      "b": 6.037677098616397,
      "c": 6.037677098616397,
      "alpha": 75.7225660434817,
      "beta": 66.93927464471852,
      "gamma": 66.93927464471852,
      "volume": 145.08227623763625
    },
    "properties": {},
    "sites": [
      {
        "species": [{ "element": "La", "occu": 1 }],
        "abc": [0.51645292, 0.73354708, 0.23354708000000002],
        "properties": { "magmom": 0.0 },
        "label": "La",
        "xyz": [-4.7299954319465085, -1.85281773, 4.002484549096831]
      },
      {
        "species": [{ "element": "La", "occu": 1 }],
        "abc": [0.48354708, 0.26645292, 0.76645292],
        "properties": { "magmom": 0.0 },
        "label": "La",
        "xyz": [-4.729995398053493, 1.85281773, 4.27485744090317]
      },
      {
        "species": [{ "element": "Au", "occu": 1 }],
        "abc": [0.16560675, 0.31720929000000003, 0.35157821],
        "properties": { "magmom": 0.0 },
        "label": "Au",
        "xyz": [-2.364999985572403, 0.1273586886739031, 2.7678914297564328]
      },
      {
        "species": [{ "element": "Au", "occu": 1 }],
        "abc": [0.83439325, 0.68279071, 0.64842179],
        "properties": { "magmom": 0.0 },
        "label": "Au",
        "xyz": [-7.094990844427597, -0.12735868867390332, 5.509450560243568]
      },
      {
        "species": [{ "element": "Au", "occu": 1 }],
        "abc": [0.83439325, 0.14842179, 0.18279171],
        "properties": { "magmom": 0.0 },
        "label": "Au",
        "xyz": [-4.729995759425048, 0.12736239430936314, 1.3707836989145674]
      },
      {
        "species": [{ "element": "Au", "occu": 1 }],
        "abc": [0.16560675, 0.85157821, 0.81720929],
        "properties": { "magmom": 0.0 },
        "label": "Au",
        "xyz": [-4.729997435572402, -0.12735868867390332, 6.906562429756433]
      }
    ]
  },
  "task_ids": null,
  "uncorrected_energy_per_atom": null,
  "energy_per_atom": -4.633786351666662,
  "formation_energy_per_atom": -0.805862649999995,
  "energy_above_hull": 0.0,
  "is_stable": true,
  "equilibrium_reaction_energy_per_atom": null,
  "decomposes_to": null,
  "xas": null,
  "grain_boundaries": null,
  "band_gap": 0.0,
  "cbm": null,
  "vbm": null,
  "efermi": 6.52545651,
  "is_gap_direct": null,
  "is_metal": null,
  "es_source_calc_id": null,
  "bandstructure": null,
  "dos": null,
  "dos_energy_up": null,
  "dos_energy_down": null,
  "is_magnetic": null,
  "ordering": null,
  "total_magnetization": 1.2e-6,
  "total_magnetization_normalized_vol": null,
  "total_magnetization_normalized_formula_units": null,
  "num_magnetic_sites": null,
  "num_unique_magnetic_sites": null,
  "types_of_magnetic_species": null,
  "bulk_modulus": null,
  "shear_modulus": null,
  "universal_anisotropy": null,
  "homogeneous_poisson": null,
  "e_total": null,
  "e_ionic": null,
  "e_electronic": null,
  "n": null,
  "e_ij_max": null,
  "weighted_surface_energy_EV_PER_ANG2": null,
  "weighted_surface_energy": null,
  "weighted_work_function": null,
  "surface_anisotropy": null,
  "shape_factor": null,
  "has_reconstructed": null,
  "possible_species": null,
  "has_props": null,
  "theoretical": null,
  "database_IDs": null,
  "fields_not_requested": [
    "builder_meta",
    "nsites",
    "elements",
    "nelements",
    "composition",
    "composition_reduced",
    "chemsys",
    "symmetry",
    "property_name",
    "deprecated",
    "deprecation_reasons",
    "last_updated",
    "origins",
    "warnings",
    "task_ids",
    "uncorrected_energy_per_atom",
    "equilibrium_reaction_energy_per_atom",
    "decomposes_to",
    "xas",
    "grain_boundaries",
    "cbm",
    "vbm",
    "is_gap_direct",
    "is_metal",
    "es_source_calc_id",
    "bandstructure",
    "dos",
    "dos_energy_up",
    "dos_energy_down",
    "is_magnetic",
    "ordering",
    "total_magnetization_normalized_vol",
    "total_magnetization_normalized_formula_units",
    "num_magnetic_sites",
    "num_unique_magnetic_sites",
    "types_of_magnetic_species",
    "bulk_modulus",
    "shear_modulus",
    "universal_anisotropy",
    "homogeneous_poisson",
    "e_total",
    "e_ionic",
    "e_electronic",
    "n",
    "e_ij_max",
    "weighted_surface_energy_EV_PER_ANG2",
    "weighted_surface_energy",
    "weighted_work_function",
    "surface_anisotropy",
    "shape_factor",
    "has_reconstructed",
    "possible_species",
    "has_props",
    "theoretical",
    "database_IDs"
  ]
}
