{
  "builder_meta": null,
  "nsites": null,
  "elements": null,
  "nelements": null,
  "composition": null,
  "composition_reduced": null,
  "formula_pretty": "LaB4",
  "formula_anonymous": "AB4",
  "chemsys": null,
  "volume": 224.35940157228782,
  "density": 5.392531960342765,
  "density_atomic": 11.21797007861439,
  "symmetry": null,
  "property_name": null,
  "material_id": "mp-7283",
  "deprecated": null,
  "deprecation_reasons": null,
  "last_updated": null,
  "origins": null,
  "warnings": null,
  "structure": {
    "@module": "pymatgen.core.structure",
    "@class": "Structure",
    "charge": 0,
    "lattice": {
      "matrix": [
        [4.18757793, -0.0, 0.0],
        [0.0, 7.31965624, 0.0],
        [0.0, 0.0, 7.31965624]
      ],
      "pbc": [true, true, true],
      "a": 4.18757793,
      "b": 7.31965624,
      "c": 7.31965624,
      "alpha": 90.0,
      "beta": 90.0,
      "gamma": 90.0,
      "volume": 224.35940157228782
    },
    "properties": {},
    "sites": [
      {
        "species": [{ "element": "La", "occu": 1 }],
        "abc": [0.0, 0.68377381, 0.18377381],
        "properties": { "magmom": -0.0 },
        "label": "La",
        "xyz": [0.0, 5.004989235115074, 1.3451611151150744]
      },
      {
        "species": [{ "element": "La", "occu": 1 }],
        "abc": [0.0, 0.81622619, 0.68377381],
        "properties": { "magmom": -0.0 },
        "label": "La",
        "xyz": [0.0, 5.974495124884925, 5.004989235115074]
      },
      {
        "species": [{ "element": "La", "occu": 1 }],
        "abc": [0.0, 0.18377381, 0.31622619],
        "properties": { "magmom": -0.0 },
        "label": "La",
        "xyz": [0.0, 1.3451611151150744, 2.3146670048849254]
      },
      {
        "species": [{ "element": "La", "occu": 1 }],
        "abc": [0.0, 0.31622619, 0.81622619],
        "properties": { "magmom": -0.0 },
        "label": "La",
        "xyz": [0.0, 2.3146670048849254, 5.974495124884925]
      },
      {
        "species": [{ "element": "B", "occu": 1 }],
        "abc": [0.5, 0.46121556, 0.32711622],
        "properties": { "magmom": 0.0 },
        "label": "B",
        "xyz": [2.093788965, 3.3759393517390945, 2.394378280928213]
      },
      {
        "species": [{ "element": "B", "occu": 1 }],
        "abc": [0.5, 0.53878444, 0.67288378],
        "properties": { "magmom": 0.0 },
        "label": "B",
        "xyz": [2.093788965, 3.9437168882609055, 4.925277959071788]
      },
      {
        "species": [{ "element": "B", "occu": 1 }],
        "abc": [0.5, 0.32711622, 0.53878444],
        "properties": { "magmom": 0.0 },
        "label": "B",
        "xyz": [2.093788965, 2.394378280928213, 3.9437168882609055]
      },
      {
        "species": [{ "element": "B", "occu": 1 }],
        "abc": [0.5, 0.67288378, 0.46121556],
        "properties": { "magmom": 0.0 },
        "label": "B",
        "xyz": [2.093788965, 4.925277959071788, 3.3759393517390945]
      },
      {
        "species": [{ "element": "B", "occu": 1 }],
        "abc": [0.20639914, -0.0, 0.0],
        "properties": { "magmom": 0.0 },
        "label": "B",
        "xyz": [0.8643124834349802, 0.0, 0.0]
      },
      {
        "species": [{ "element": "B", "occu": 1 }],
        "abc": [0.79360086, 0.5, 0.5],
        "properties": { "magmom": 0.0 },
        "label": "B",
        "xyz": [3.3232654465650193, 3.65982812, 3.65982812]
      },
      {
        "species": [{ "element": "B", "occu": 1 }],
        "abc": [0.79360086, -0.0, 0.0],
        "properties": { "magmom": 0.0 },
        "label": "B",
        "xyz": [3.3232654465650193, 0.0, 0.0]
      },
      {
        "species": [{ "element": "B", "occu": 1 }],
        "abc": [0.20639914, 0.5, 0.5],
        "properties": { "magmom": 0.0 },
        "label": "B",
        "xyz": [0.8643124834349802, 3.65982812, 3.65982812]
      },
      {
        "species": [{ "element": "B", "occu": 1 }],
        "abc": [0.5, 0.08881339, 0.58881339],
        "properties": { "magmom": 0.0 },
        "label": "B",
        "xyz": [2.093788965, 0.6500834843090536, 4.309911604309053]
      },
      {
        "species": [{ "element": "B", "occu": 1 }],
        "abc": [0.5, 0.41118661, 0.08881339],
        "properties": { "magmom": 0.0 },
        "label": "B",
        "xyz": [2.093788965, 3.009744635690946, 0.6500834843090536]
      },
      {
        "species": [{ "element": "B", "occu": 1 }],
        "abc": [0.5, 0.58881339, 0.91118661],
        "properties": { "magmom": 0.0 },
        "label": "B",
        "xyz": [2.093788965, 4.309911604309053, 6.669572755690946]
      },
      {
        "species": [{ "element": "B", "occu": 1 }],
        "abc": [0.5, 0.91118661, 0.41118661],
        "properties": { "magmom": 0.0 },
        "label": "B",
        "xyz": [2.093788965, 6.669572755690946, 3.009744635690946]
      },
      {
        "species": [{ "element": "B", "occu": 1 }],
        "abc": [0.5, 0.17288378000000001, 0.03878444],
        "properties": { "magmom": 0.0 },
        "label": "B",
        "xyz": [2.093788965, 1.2654498390717872, 0.2838887682609056]
      },
      {
        "species": [{ "element": "B", "occu": 1 }],
        "abc": [0.5, 0.96121556, 0.17288378000000001],
        "properties": { "magmom": 0.0 },
        "label": "B",
        "xyz": [2.093788965, 7.035767471739094, 1.2654498390717872]
      },
      {
        "species": [{ "element": "B", "occu": 1 }],
        "abc": [0.5, 0.03878444, 0.8271162200000001],
        "properties": { "magmom": 0.0 },
        "label": "B",
        "xyz": [2.093788965, 0.2838887682609056, 6.054206400928213]
      },
      {
        "species": [{ "element": "B", "occu": 1 }],
        "abc": [0.5, 0.8271162200000001, 0.96121556],
        "properties": { "magmom": 0.0 },
        "label": "B",
        "xyz": [2.093788965, 6.054206400928213, 7.035767471739094]
      }
    ]
  },
  "task_ids": null,
  "uncorrected_energy_per_atom": null,
  "energy_per_atom": -12.4535199875,
  "formation_energy_per_atom": -0.6274805885000001,
  "energy_above_hull": 0.0,
  "is_stable": true,
  "equilibrium_reaction_energy_per_atom": null,
  "decomposes_to": null,
  "xas": null,
  "grain_boundaries": null,
  "band_gap": 0.0,
  "cbm": null,
  "vbm": null,
  "efermi": 8.38943966,
  "is_gap_direct": null,
  "is_metal": null,
  "es_source_calc_id": null,
  "bandstructure": null,
  "dos": null,
  "dos_energy_up": null,
  "dos_energy_down": null,
  "is_magnetic": null,
  "ordering": null,
  "total_magnetization": 0.000299899999999,
  "total_magnetization_normalized_vol": null,
  "total_magnetization_normalized_formula_units": null,
  "num_magnetic_sites": null,
  "num_unique_magnetic_sites": null,
  "types_of_magnetic_species": null,
  "bulk_modulus": null,
  "shear_modulus": null,
  "universal_anisotropy": null,
  "homogeneous_poisson": null,
  "e_total": null,
  "e_ionic": null,
  "e_electronic": null,
  "n": null,
  "e_ij_max": null,
  "weighted_surface_energy_EV_PER_ANG2": null,
  "weighted_surface_energy": null,
  "weighted_work_function": null,
  "surface_anisotropy": null,
  "shape_factor": null,
  "has_reconstructed": null,
  "possible_species": null,
  "has_props": null,
  "theoretical": null,
  "database_IDs": null,
  "fields_not_requested": [
    "builder_meta",
    "nsites",
    "elements",
    "nelements",
    "composition",
    "composition_reduced",
    "chemsys",
    "symmetry",
    "property_name",
    "deprecated",
    "deprecation_reasons",
    "last_updated",
    "origins",
    "warnings",
    "task_ids",
    "uncorrected_energy_per_atom",
    "equilibrium_reaction_energy_per_atom",
    "decomposes_to",
    "xas",
    "grain_boundaries",
    "cbm",
    "vbm",
    "is_gap_direct",
    "is_metal",
    "es_source_calc_id",
    "bandstructure",
    "dos",
    "dos_energy_up",
    "dos_energy_down",
    "is_magnetic",
    "ordering",
    "total_magnetization_normalized_vol",
    "total_magnetization_normalized_formula_units",
    "num_magnetic_sites",
    "num_unique_magnetic_sites",
    "types_of_magnetic_species",
    "bulk_modulus",
    "shear_modulus",
    "universal_anisotropy",
    "homogeneous_poisson",
    "e_total",
    "e_ionic",
    "e_electronic",
    "n",
    "e_ij_max",
    "weighted_surface_energy_EV_PER_ANG2",
    "weighted_surface_energy",
    "weighted_work_function",
    "surface_anisotropy",
    "shape_factor",
    "has_reconstructed",
    "possible_species",
    "has_props",
    "theoretical",
    "database_IDs"
  ]
}
