{
  "builder_meta": null,
  "nsites": null,
  "elements": null,
  "nelements": null,
  "composition": null,
  "composition_reduced": null,
  "formula_pretty": "LaBr",
  "formula_anonymous": "AB",
  "chemsys": null,
  "volume": 157.2496349734765,
  "density": 4.621208477060388,
  "density_atomic": 39.312408743369126,
  "symmetry": null,
  "property_name": null,
  "material_id": "mp-27679",
  "deprecated": null,
  "deprecation_reasons": null,
  "last_updated": null,
  "origins": null,
  "warnings": null,
  "structure": {
    "@module": "pymatgen.core.structure",
    "@class": "Structure",
    "charge": 0,
    "lattice": {
      "matrix": [
        [10.701248, -2.066045, 0.0],
        [10.701248, 2.066045, 0.0],
        [10.302365, 0.0, 3.556194]
      ],
      "pbc": [true, true, true],
      "a": 10.898864651858421,
      "b": 10.898864651858421,
      "c": 10.89886417746643,
      "alpha": 21.854815743701025,
      "beta": 21.854815743701025,
      "gamma": 21.85481682536516,
      "volume": 157.2496349734765
    },
    "properties": {},
    "sites": [
      {
        "species": [{ "element": "La", "occu": 1 }],
        "abc": [0.880107, 0.880107, 0.880107],
        "properties": { "magmom": -0.331 },
        "label": "La",
        "xyz": [27.903670100126998, 0.0, 3.129831232758]
      },
      {
        "species": [{ "element": "La", "occu": 1 }],
        "abc": [0.119893, 0.119893, 0.119893],
        "properties": { "magmom": -0.331 },
        "label": "La",
        "xyz": [3.8011908998729997, 0.0, 0.426362767242]
      },
      {
        "species": [{ "element": "Br", "occu": 1 }],
        "abc": [0.607426, 0.607426, 0.607426],
        "properties": { "magmom": -0.014 },
        "label": "Br",
        "xyz": [19.258356897786, 0.0, 2.160124696644]
      },
      {
        "species": [{ "element": "Br", "occu": 1 }],
        "abc": [0.392574, 0.392574, 0.392574],
        "properties": { "magmom": -0.014 },
        "label": "Br",
        "xyz": [12.446504102214, 0.0, 1.3960693033559999]
      }
    ]
  },
  "task_ids": null,
  "uncorrected_energy_per_atom": null,
  "energy_per_atom": -4.820800017500001,
  "formation_energy_per_atom": -1.534323197500001,
  "energy_above_hull": 0.09736768799999701,
  "is_stable": false,
  "equilibrium_reaction_energy_per_atom": null,
  "decomposes_to": null,
  "xas": null,
  "grain_boundaries": null,
  "band_gap": 0.0,
  "cbm": null,
  "vbm": null,
  "efermi": 4.58905373,
  "is_gap_direct": null,
  "is_metal": null,
  "es_source_calc_id": null,
  "bandstructure": null,
  "dos": null,
  "dos_energy_up": null,
  "dos_energy_down": null,
  "is_magnetic": null,
  "ordering": null,
  "total_magnetization": 1.8003498,
  "total_magnetization_normalized_vol": null,
  "total_magnetization_normalized_formula_units": null,
  "num_magnetic_sites": null,
  "num_unique_magnetic_sites": null,
  "types_of_magnetic_species": null,
  "bulk_modulus": null,
  "shear_modulus": null,
  "universal_anisotropy": null,
  "homogeneous_poisson": null,
  "e_total": null,
  "e_ionic": null,
  "e_electronic": null,
  "n": null,
  "e_ij_max": null,
  "weighted_surface_energy_EV_PER_ANG2": null,
  "weighted_surface_energy": null,
  "weighted_work_function": null,
  "surface_anisotropy": null,
  "shape_factor": null,
  "has_reconstructed": null,
  "possible_species": null,
  "has_props": null,
  "theoretical": null,
  "database_IDs": null,
  "fields_not_requested": [
    "builder_meta",
    "nsites",
    "elements",
    "nelements",
    "composition",
    "composition_reduced",
    "chemsys",
    "symmetry",
    "property_name",
    "deprecated",
    "deprecation_reasons",
    "last_updated",
    "origins",
    "warnings",
    "task_ids",
    "uncorrected_energy_per_atom",
    "equilibrium_reaction_energy_per_atom",
    "decomposes_to",
    "xas",
    "grain_boundaries",
    "cbm",
    "vbm",
    "is_gap_direct",
    "is_metal",
    "es_source_calc_id",
    "bandstructure",
    "dos",
    "dos_energy_up",
    "dos_energy_down",
    "is_magnetic",
    "ordering",
    "total_magnetization_normalized_vol",
    "total_magnetization_normalized_formula_units",
    "num_magnetic_sites",
    "num_unique_magnetic_sites",
    "types_of_magnetic_species",
    "bulk_modulus",
    "shear_modulus",
    "universal_anisotropy",
    "homogeneous_poisson",
    "e_total",
    "e_ionic",
    "e_electronic",
    "n",
    "e_ij_max",
    "weighted_surface_energy_EV_PER_ANG2",
    "weighted_surface_energy",
    "weighted_work_function",
    "surface_anisotropy",
    "shape_factor",
    "has_reconstructed",
    "possible_species",
    "has_props",
    "theoretical",
    "database_IDs"
  ]
}
