{
  "builder_meta": null,
  "nsites": null,
  "elements": null,
  "nelements": null,
  "composition": null,
  "composition_reduced": null,
  "formula_pretty": "LaBr3",
  "formula_anonymous": "AB3",
  "chemsys": null,
  "volume": 253.37225341251914,
  "density": 4.962730462902288,
  "density_atomic": 31.671531676564893,
  "symmetry": null,
  "property_name": null,
  "material_id": "mp-23263",
  "deprecated": null,
  "deprecation_reasons": null,
  "last_updated": null,
  "origins": null,
  "warnings": null,
  "structure": {
    "@module": "pymatgen.core.structure",
    "@class": "Structure",
    "charge": 0,
    "lattice": {
      "matrix": [
        [8.05395617, 0.00011856, 0.0],
        [-4.02708042, 6.97487005, -0.0],
        [-0.0, 0.0, 4.51034726]
      ],
      "pbc": [true, true, true],
      "a": 8.053956170872643,
      "b": 8.053954862273216,
      "c": 4.51034726,
      "alpha": 90.0,
      "beta": 90.0,
      "gamma": 120.00000257400043,
      "volume": 253.37225341251914
    },
    "properties": {},
    "sites": [
      {
        "species": [{ "element": "La", "occu": 1 }],
        "abc": [0.666667, 0.333333, 0.75],
        "properties": { "magmom": 0.0 },
        "label": "La",
        "xyz": [4.02694800034553, 2.3250333984161697, 3.3827604449999997]
      },
      {
        "species": [{ "element": "La", "occu": 1 }],
        "abc": [0.333333, 0.666667, 0.25],
        "properties": { "magmom": 0.0 },
        "label": "La",
        "xyz": [-7.225034553037801e-5, 4.64995521158383, 1.127586815]
      },
      {
        "species": [{ "element": "Br", "occu": 1 }],
        "abc": [0.61344222, 0.70019377, 0.75],
        "properties": { "magmom": -0.0 },
        "label": "Br",
        "xyz": [2.120900131334514, 4.883833285279192, 3.3827604449999997]
      },
      {
        "species": [{ "element": "Br", "occu": 1 }],
        "abc": [0.91324845, 0.61344222, 0.25],
        "properties": { "magmom": -0.0 },
        "label": "Br",
        "xyz": [4.8848818356571035, 4.278788042419743, 1.127586815]
      },
      {
        "species": [{ "element": "Br", "occu": 1 }],
        "abc": [0.38655778, 0.29980623, 0.25],
        "properties": { "magmom": -0.0 },
        "label": "Br",
        "xyz": [1.905975618665486, 2.0911553247208086, 1.127586815]
      },
      {
        "species": [{ "element": "Br", "occu": 1 }],
        "abc": [0.08675155, 0.38655778, 0.75],
        "properties": { "magmom": -0.0 },
        "label": "Br",
        "xyz": [-0.8580060856571043, 2.6962005675802567, 3.3827604449999997]
      },
      {
        "species": [{ "element": "Br", "occu": 1 }],
        "abc": [0.29980623, 0.91324845, 0.75],
        "properties": { "magmom": -0.0 },
        "label": "Br",
        "xyz": [-1.2630987156774096, 6.369824807140551, 3.3827604449999997]
      },
      {
        "species": [{ "element": "Br", "occu": 1 }],
        "abc": [0.70019377, 0.08675155, 0.25],
        "properties": { "magmom": -0.0 },
        "label": "Br",
        "xyz": [5.28997446567741, 0.6051638028594486, 1.127586815]
      }
    ]
  },
  "task_ids": null,
  "uncorrected_energy_per_atom": null,
  "energy_per_atom": -4.884754481249999,
  "formation_energy_per_atom": -2.423042803749999,
  "energy_above_hull": 0.0,
  "is_stable": true,
  "equilibrium_reaction_energy_per_atom": null,
  "decomposes_to": null,
  "xas": null,
  "grain_boundaries": null,
  "band_gap": 2.9266,
  "cbm": null,
  "vbm": null,
  "efermi": 1.81661217,
  "is_gap_direct": null,
  "is_metal": null,
  "es_source_calc_id": null,
  "bandstructure": null,
  "dos": null,
  "dos_energy_up": null,
  "dos_energy_down": null,
  "is_magnetic": null,
  "ordering": null,
  "total_magnetization": 0.0,
  "total_magnetization_normalized_vol": null,
  "total_magnetization_normalized_formula_units": null,
  "num_magnetic_sites": null,
  "num_unique_magnetic_sites": null,
  "types_of_magnetic_species": null,
  "bulk_modulus": null,
  "shear_modulus": null,
  "universal_anisotropy": null,
  "homogeneous_poisson": null,
  "e_total": null,
  "e_ionic": null,
  "e_electronic": null,
  "n": null,
  "e_ij_max": null,
  "weighted_surface_energy_EV_PER_ANG2": null,
  "weighted_surface_energy": null,
  "weighted_work_function": null,
  "surface_anisotropy": null,
  "shape_factor": null,
  "has_reconstructed": null,
  "possible_species": null,
  "has_props": null,
  "theoretical": null,
  "database_IDs": null,
  "fields_not_requested": [
    "builder_meta",
    "nsites",
    "elements",
    "nelements",
    "composition",
    "composition_reduced",
    "chemsys",
    "symmetry",
    "property_name",
    "deprecated",
    "deprecation_reasons",
    "last_updated",
    "origins",
    "warnings",
    "task_ids",
    "uncorrected_energy_per_atom",
    "equilibrium_reaction_energy_per_atom",
    "decomposes_to",
    "xas",
    "grain_boundaries",
    "cbm",
    "vbm",
    "is_gap_direct",
    "is_metal",
    "es_source_calc_id",
    "bandstructure",
    "dos",
    "dos_energy_up",
    "dos_energy_down",
    "is_magnetic",
    "ordering",
    "total_magnetization_normalized_vol",
    "total_magnetization_normalized_formula_units",
    "num_magnetic_sites",
    "num_unique_magnetic_sites",
    "types_of_magnetic_species",
    "bulk_modulus",
    "shear_modulus",
    "universal_anisotropy",
    "homogeneous_poisson",
    "e_total",
    "e_ionic",
    "e_electronic",
    "n",
    "e_ij_max",
    "weighted_surface_energy_EV_PER_ANG2",
    "weighted_surface_energy",
    "weighted_work_function",
    "surface_anisotropy",
    "shape_factor",
    "has_reconstructed",
    "possible_species",
    "has_props",
    "theoretical",
    "database_IDs"
  ]
}
