{"builder_meta": null, "nsites": null, "elements": null, "nelements": null, "composition": null, "composition_reduced": null, "formula_pretty": "LaCd3", "formula_anonymous": "AB3", "chemsys": null, "volume": 100.25766030470957, "density": 7.886145838065319, "density_atomic": 25.064415076177394, "symmetry": null, "property_name": null, "material_id": "mp-862559", "deprecated": null, "deprecation_reasons": null, "last_updated": null, "origins": null, "warnings": null, "structure": {"@module": "pymatgen.core.structure", "@class": "Structure", "charge": 0, "lattice": {"matrix": [[-0.00017409, 3.68729935, 3.68731492], [3.68720623, 7.248000000000001e-05, 3.68706735], [3.6872, 3.687046559999999, 7.871000000000002e-05]], "pbc": [true, true, true], "a": 5.214639761869687, "b": 5.214398856171264, "c": 5.214379750440419, "alpha": 59.99733227010866, "beta": 60.00161383728799, "gamma": 60.00146473782901, "volume": 100.25766030470956}, "properties": {}, "sites": [{"species": [{"element": "La", "occu": 1}], "abc": [0.75, 0.75, 0.75], "properties": {"magmom": -0.0}, "label": "La", "xyz": [5.530674104999999, 5.530813792499999, 5.530845735000001]}, {"species": [{"element": "Cd", "occu": 1}], "abc": [6.945000000000002e-05, 0.99996617, 0.99996617], "properties": {"magmom": 0.0}, "label": "Cd", "xyz": [7.374156741746688, 3.6872503877027327, 3.687277407869984]}, {"species": [{"element": "Cd", "occu": 1}], "abc": [0.49992755, 0.50003283, 0.50003283], "properties": {"magmom": 0.0}, "label": "Cd", "xyz": [3.6873581843693515, 3.6870630982801753, 3.6870843930391954]}, {"species": [{"element": "Cd", "occu": 1}], "abc": [0.249999, 0.25, 0.25], "properties": {"magmom": 0.0}, "label": "Cd", "xyz": [1.8435580351740901, 1.8436009102006499, 1.84361155768508]}]}, "task_ids": null, "uncorrected_energy_per_atom": null, "energy_per_atom": -2.253215902499999, "formation_energy_per_atom": -0.29920648374999803, "energy_above_hull": 0.0, "is_stable": true, "equilibrium_reaction_energy_per_atom": null, "decomposes_to": null, "xas": null, "grain_boundaries": null, "band_gap": 0.0, "cbm": null, "vbm": null, "efermi": 4.4439715, "is_gap_direct": null, "is_metal": null, "es_source_calc_id": null, "bandstructure": null, "dos": null, "dos_energy_up": null, "dos_energy_down": null, "is_magnetic": null, "ordering": null, "total_magnetization": 2e-06, "total_magnetization_normalized_vol": null, "total_magnetization_normalized_formula_units": null, "num_magnetic_sites": null, "num_unique_magnetic_sites": null, "types_of_magnetic_species": null, "bulk_modulus": null, "shear_modulus": null, "universal_anisotropy": null, "homogeneous_poisson": null, "e_total": null, "e_ionic": null, "e_electronic": null, "n": null, "e_ij_max": null, "weighted_surface_energy_EV_PER_ANG2": null, "weighted_surface_energy": null, "weighted_work_function": null, "surface_anisotropy": null, "shape_factor": null, "has_reconstructed": null, "possible_species": null, "has_props": null, "theoretical": null, "database_IDs": null, "fields_not_requested": ["builder_meta", "nsites", "elements", "nelements", "composition", "composition_reduced", "chemsys", "symmetry", "property_name", "deprecated", "deprecation_reasons", "last_updated", "origins", "warnings", "task_ids", "uncorrected_energy_per_atom", "equilibrium_reaction_energy_per_atom", "decomposes_to", "xas", "grain_boundaries", "cbm", "vbm", "is_gap_direct", "is_metal", "es_source_calc_id", "bandstructure", "dos", "dos_energy_up", "dos_energy_down", "is_magnetic", "ordering", "total_magnetization_normalized_vol", "total_magnetization_normalized_formula_units", "num_magnetic_sites", "num_unique_magnetic_sites", "types_of_magnetic_species", "bulk_modulus", "shear_modulus", "universal_anisotropy", "homogeneous_poisson", "e_total", "e_ionic", "e_electronic", "n", "e_ij_max", "weighted_surface_energy_EV_PER_ANG2", "weighted_surface_energy", "weighted_work_function", "surface_anisotropy", "shape_factor", "has_reconstructed", "possible_species", "has_props", "theoretical", "database_IDs"]}