{
  "builder_meta": null,
  "nsites": null,
  "elements": null,
  "nelements": null,
  "composition": null,
  "composition_reduced": null,
  "formula_pretty": "LaCe4",
  "formula_anonymous": "AB4",
  "chemsys": null,
  "volume": 138.3428459539326,
  "density": 8.39458172856335,
  "density_atomic": 27.66856919078652,
  "symmetry": null,
  "property_name": null,
  "material_id": "mp-1222945",
  "deprecated": null,
  "deprecation_reasons": null,
  "last_updated": null,
  "origins": null,
  "warnings": null,
  "structure": {
    "@module": "pymatgen.core.structure",
    "@class": "Structure",
    "charge": 0,
    "lattice": {
      "matrix": [
        [13.868905999999999, -1.699050999999999, 0.0],
        [13.868905999999999, 1.699050999999999, 0.0],
        [13.660759, 0.0, 2.935473]
      ],
      "pbc": [true, true, true],
      "a": 13.97259202644366,
      "b": 13.97259202644366,
      "c": 13.97259239331807,
      "alpha": 13.96877272765301,
      "beta": 13.96877272765301,
      "gamma": 13.968770477091024,
      "volume": 138.3428459539325
    },
    "properties": {},
    "sites": [
      {
        "species": [{ "element": "La", "occu": 1 }],
        "abc": [0.0, 0.0, 0.0],
        "properties": { "magmom": 0.009000000000000001 },
        "label": "La",
        "xyz": [0.0, 0.0, 0.0]
      },
      {
        "species": [{ "element": "Ce", "occu": 1 }],
        "abc": [0.598053, 0.598053, 0.598053],
        "properties": { "magmom": 0.201 },
        "label": "Ce",
        "xyz": [24.758539582262998, 0.0, 1.7555684340689999]
      },
      {
        "species": [{ "element": "Ce", "occu": 1 }],
        "abc": [0.199468999999999, 0.199468999999999, 0.199468999999999],
        "properties": { "magmom": -0.022 },
        "label": "Ce",
        "xyz": [8.257731558798959, 0.0, 0.5855358638369971]
      },
      {
        "species": [{ "element": "Ce", "occu": 1 }],
        "abc": [0.800531, 0.800531, 0.800531],
        "properties": { "magmom": -0.022 },
        "label": "Ce",
        "xyz": [33.140839441200995, 0.0, 2.349937136163]
      },
      {
        "species": [{ "element": "Ce", "occu": 1 }],
        "abc": [0.401947, 0.401947, 0.401947],
        "properties": { "magmom": 0.201 },
        "label": "Ce",
        "xyz": [16.640031417737, 0.0, 1.179904565931]
      }
    ]
  },
  "task_ids": null,
  "uncorrected_energy_per_atom": null,
  "energy_per_atom": -30.545967952,
  "formation_energy_per_atom": 0.075491097000002,
  "energy_above_hull": 0.07549109700000001,
  "is_stable": false,
  "equilibrium_reaction_energy_per_atom": null,
  "decomposes_to": null,
  "xas": null,
  "grain_boundaries": null,
  "band_gap": 0.0,
  "cbm": null,
  "vbm": null,
  "efermi": 9.3584999,
  "is_gap_direct": null,
  "is_metal": null,
  "es_source_calc_id": null,
  "bandstructure": null,
  "dos": null,
  "dos_energy_up": null,
  "dos_energy_down": null,
  "is_magnetic": null,
  "ordering": null,
  "total_magnetization": 0.467150599999999,
  "total_magnetization_normalized_vol": null,
  "total_magnetization_normalized_formula_units": null,
  "num_magnetic_sites": null,
  "num_unique_magnetic_sites": null,
  "types_of_magnetic_species": null,
  "bulk_modulus": null,
  "shear_modulus": null,
  "universal_anisotropy": null,
  "homogeneous_poisson": null,
  "e_total": null,
  "e_ionic": null,
  "e_electronic": null,
  "n": null,
  "e_ij_max": null,
  "weighted_surface_energy_EV_PER_ANG2": null,
  "weighted_surface_energy": null,
  "weighted_work_function": null,
  "surface_anisotropy": null,
  "shape_factor": null,
  "has_reconstructed": null,
  "possible_species": null,
  "has_props": null,
  "theoretical": null,
  "database_IDs": null,
  "fields_not_requested": [
    "builder_meta",
    "nsites",
    "elements",
    "nelements",
    "composition",
    "composition_reduced",
    "chemsys",
    "symmetry",
    "property_name",
    "deprecated",
    "deprecation_reasons",
    "last_updated",
    "origins",
    "warnings",
    "task_ids",
    "uncorrected_energy_per_atom",
    "equilibrium_reaction_energy_per_atom",
    "decomposes_to",
    "xas",
    "grain_boundaries",
    "cbm",
    "vbm",
    "is_gap_direct",
    "is_metal",
    "es_source_calc_id",
    "bandstructure",
    "dos",
    "dos_energy_up",
    "dos_energy_down",
    "is_magnetic",
    "ordering",
    "total_magnetization_normalized_vol",
    "total_magnetization_normalized_formula_units",
    "num_magnetic_sites",
    "num_unique_magnetic_sites",
    "types_of_magnetic_species",
    "bulk_modulus",
    "shear_modulus",
    "universal_anisotropy",
    "homogeneous_poisson",
    "e_total",
    "e_ionic",
    "e_electronic",
    "n",
    "e_ij_max",
    "weighted_surface_energy_EV_PER_ANG2",
    "weighted_surface_energy",
    "weighted_work_function",
    "surface_anisotropy",
    "shape_factor",
    "has_reconstructed",
    "possible_species",
    "has_props",
    "theoretical",
    "database_IDs"
  ]
}
