{
  "builder_meta": null,
  "nsites": null,
  "elements": null,
  "nelements": null,
  "composition": null,
  "composition_reduced": null,
  "formula_pretty": "LaCl3",
  "formula_anonymous": "AB3",
  "chemsys": null,
  "volume": 215.46853392303896,
  "density": 3.780331417017139,
  "density_atomic": 26.93356674037987,
  "symmetry": null,
  "property_name": null,
  "material_id": "mp-22896",
  "deprecated": null,
  "deprecation_reasons": null,
  "last_updated": null,
  "origins": null,
  "warnings": null,
  "structure": {
    "@module": "pymatgen.core.structure",
    "@class": "Structure",
    "charge": 0,
    "lattice": {
      "matrix": [
        [7.54401208, 3.03e-6, 0.0],
        [-3.77200908, 6.53330514, -0.0],
        [-0.0, 0.0, 4.37168074]
      ],
      "pbc": [true, true, true],
      "a": 7.544012080000608,
      "b": 7.544012761916093,
      "c": 4.37168074,
      "alpha": 90.0,
      "beta": 90.0,
      "gamma": 120.00000065760388,
      "volume": 215.46853392303896
    },
    "properties": {},
    "sites": [
      {
        "species": [{ "element": "La", "occu": 1 }],
        "abc": [0.666667, 0.333333, 0.75],
        "properties": { "magmom": -0.0 },
        "label": "La",
        "xyz": [3.7720087986737205, 2.17776822223263, 3.2787605550000003]
      },
      {
        "species": [{ "element": "La", "occu": 1 }],
        "abc": [0.333333, 0.666667, 0.25],
        "properties": { "magmom": -0.0 },
        "label": "La",
        "xyz": [-5.798673720303071e-6, 4.355539947767371, 1.092920185]
      },
      {
        "species": [{ "element": "Cl", "occu": 1 }],
        "abc": [0.61033399, 0.69640628, 0.75],
        "properties": { "magmom": 0.0 },
        "label": "Cl",
        "xyz": [1.9775161818655764, 4.549836577964269, 3.2787605550000003]
      },
      {
        "species": [{ "element": "Cl", "occu": 1 }],
        "abc": [0.91392571, 0.61033399, 0.25],
        "properties": { "magmom": 0.0 },
        "label": "Cl",
        "xyz": [4.592481244349948, 3.98750096317861, 1.092920185]
      },
      {
        "species": [{ "element": "Cl", "occu": 1 }],
        "abc": [0.38966501000000003, 0.30359372, 0.25],
        "properties": { "magmom": 0.0 },
        "label": "Cl",
        "xyz": [1.7944792741223434, 1.9834715920327013, 1.092920185]
      },
      {
        "species": [{ "element": "Cl", "occu": 1 }],
        "abc": [0.08607429, 0.38966501000000003, 0.75],
        "properties": { "magmom": 0.0 },
        "label": "Cl",
        "xyz": [-0.8204744723408678, 2.5458006735162506, 3.2787605550000003]
      },
      {
        "species": [{ "element": "Cl", "occu": 1 }],
        "abc": [0.30359372, 0.91392571, 0.75],
        "properties": { "magmom": 0.0 },
        "label": "Cl",
        "xyz": [-1.1570213854733091, 5.970956458610121, 3.2787605550000003]
      },
      {
        "species": [{ "element": "Cl", "occu": 1 }],
        "abc": [0.69640628, 0.08607429, 0.25],
        "properties": { "magmom": 0.0 },
        "label": "Cl",
        "xyz": [4.92902438547331, 0.5623517113898789, 1.092920185]
      }
    ]
  },
  "task_ids": null,
  "uncorrected_energy_per_atom": null,
  "energy_per_atom": -14.753791852500001,
  "formation_energy_per_atom": -2.703267628124999,
  "energy_above_hull": 0.0,
  "is_stable": true,
  "equilibrium_reaction_energy_per_atom": null,
  "decomposes_to": null,
  "xas": null,
  "grain_boundaries": null,
  "band_gap": 3.6454,
  "cbm": null,
  "vbm": null,
  "efermi": 2.01513369,
  "is_gap_direct": null,
  "is_metal": null,
  "es_source_calc_id": null,
  "bandstructure": null,
  "dos": null,
  "dos_energy_up": null,
  "dos_energy_down": null,
  "is_magnetic": null,
  "ordering": null,
  "total_magnetization": 0.0,
  "total_magnetization_normalized_vol": null,
  "total_magnetization_normalized_formula_units": null,
  "num_magnetic_sites": null,
  "num_unique_magnetic_sites": null,
  "types_of_magnetic_species": null,
  "bulk_modulus": null,
  "shear_modulus": null,
  "universal_anisotropy": null,
  "homogeneous_poisson": null,
  "e_total": null,
  "e_ionic": null,
  "e_electronic": null,
  "n": null,
  "e_ij_max": null,
  "weighted_surface_energy_EV_PER_ANG2": null,
  "weighted_surface_energy": null,
  "weighted_work_function": null,
  "surface_anisotropy": null,
  "shape_factor": null,
  "has_reconstructed": null,
  "possible_species": null,
  "has_props": null,
  "theoretical": null,
  "database_IDs": null,
  "fields_not_requested": [
    "builder_meta",
    "nsites",
    "elements",
    "nelements",
    "composition",
    "composition_reduced",
    "chemsys",
    "symmetry",
    "property_name",
    "deprecated",
    "deprecation_reasons",
    "last_updated",
    "origins",
    "warnings",
    "task_ids",
    "uncorrected_energy_per_atom",
    "equilibrium_reaction_energy_per_atom",
    "decomposes_to",
    "xas",
    "grain_boundaries",
    "cbm",
    "vbm",
    "is_gap_direct",
    "is_metal",
    "es_source_calc_id",
    "bandstructure",
    "dos",
    "dos_energy_up",
    "dos_energy_down",
    "is_magnetic",
    "ordering",
    "total_magnetization_normalized_vol",
    "total_magnetization_normalized_formula_units",
    "num_magnetic_sites",
    "num_unique_magnetic_sites",
    "types_of_magnetic_species",
    "bulk_modulus",
    "shear_modulus",
    "universal_anisotropy",
    "homogeneous_poisson",
    "e_total",
    "e_ionic",
    "e_electronic",
    "n",
    "e_ij_max",
    "weighted_surface_energy_EV_PER_ANG2",
    "weighted_surface_energy",
    "weighted_work_function",
    "surface_anisotropy",
    "shape_factor",
    "has_reconstructed",
    "possible_species",
    "has_props",
    "theoretical",
    "database_IDs"
  ]
}
