{
  "builder_meta": null,
  "nsites": null,
  "elements": null,
  "nelements": null,
  "composition": null,
  "composition_reduced": null,
  "formula_pretty": "LaCl",
  "formula_anonymous": "AB",
  "chemsys": null,
  "volume": 156.52680955122764,
  "density": 3.699418033980279,
  "density_atomic": 39.13170238780691,
  "symmetry": null,
  "property_name": null,
  "material_id": "mp-27929",
  "deprecated": null,
  "deprecation_reasons": null,
  "last_updated": null,
  "origins": null,
  "warnings": null,
  "structure": {
    "@module": "pymatgen.core.structure",
    "@class": "Structure",
    "charge": 0,
    "lattice": {
      "matrix": [
        [10.90539, -2.041523, 0.0],
        [10.90539, 2.041523, 0.0],
        [10.523211, 0.0, 3.515307]
      ],
      "pbc": [true, true, true],
      "a": 11.09483425796118,
      "b": 11.09483425796118,
      "c": 11.094834521288274,
      "alpha": 21.20644082827466,
      "beta": 21.20644082827466,
      "gamma": 21.206443904899924,
      "volume": 156.52680955122764
    },
    "properties": {},
    "sites": [
      {
        "species": [{ "element": "La", "occu": 1 }],
        "abc": [0.7873829999999991, 0.7873829999999991, 0.7873829999999991],
        "properties": { "magmom": -0.343 },
        "label": "La",
        "xyz": [25.45923483555297, 0.0, 2.767892971580997]
      },
      {
        "species": [{ "element": "La", "occu": 1 }],
        "abc": [0.212617, 0.212617, 0.212617],
        "properties": { "magmom": -0.343 },
        "label": "La",
        "xyz": [6.874756164447, 0.0, 0.747414028419]
      },
      {
        "species": [{ "element": "Cl", "occu": 1 }],
        "abc": [0.59921, 0.59921, 0.59921],
        "properties": { "magmom": -0.012 },
        "label": "Cl",
        "xyz": [19.37485074711, 0.0, 2.10640710747]
      },
      {
        "species": [{ "element": "Cl", "occu": 1 }],
        "abc": [0.40079000000000004, 0.40079000000000004, 0.40079000000000004],
        "properties": { "magmom": -0.012 },
        "label": "Cl",
        "xyz": [12.959140252890002, 0.0, 1.40889989253]
      }
    ]
  },
  "task_ids": null,
  "uncorrected_energy_per_atom": null,
  "energy_per_atom": -19.6336012675,
  "formation_energy_per_atom": -1.684991716249999,
  "energy_above_hull": 0.117186702499999,
  "is_stable": false,
  "equilibrium_reaction_energy_per_atom": null,
  "decomposes_to": null,
  "xas": null,
  "grain_boundaries": null,
  "band_gap": 0.0,
  "cbm": null,
  "vbm": null,
  "efermi": 4.4137580100000005,
  "is_gap_direct": null,
  "is_metal": null,
  "es_source_calc_id": null,
  "bandstructure": null,
  "dos": null,
  "dos_energy_up": null,
  "dos_energy_down": null,
  "is_magnetic": null,
  "ordering": null,
  "total_magnetization": 1.8555478,
  "total_magnetization_normalized_vol": null,
  "total_magnetization_normalized_formula_units": null,
  "num_magnetic_sites": null,
  "num_unique_magnetic_sites": null,
  "types_of_magnetic_species": null,
  "bulk_modulus": null,
  "shear_modulus": null,
  "universal_anisotropy": null,
  "homogeneous_poisson": null,
  "e_total": null,
  "e_ionic": null,
  "e_electronic": null,
  "n": null,
  "e_ij_max": null,
  "weighted_surface_energy_EV_PER_ANG2": null,
  "weighted_surface_energy": null,
  "weighted_work_function": null,
  "surface_anisotropy": null,
  "shape_factor": null,
  "has_reconstructed": null,
  "possible_species": null,
  "has_props": null,
  "theoretical": null,
  "database_IDs": null,
  "fields_not_requested": [
    "builder_meta",
    "nsites",
    "elements",
    "nelements",
    "composition",
    "composition_reduced",
    "chemsys",
    "symmetry",
    "property_name",
    "deprecated",
    "deprecation_reasons",
    "last_updated",
    "origins",
    "warnings",
    "task_ids",
    "uncorrected_energy_per_atom",
    "equilibrium_reaction_energy_per_atom",
    "decomposes_to",
    "xas",
    "grain_boundaries",
    "cbm",
    "vbm",
    "is_gap_direct",
    "is_metal",
    "es_source_calc_id",
    "bandstructure",
    "dos",
    "dos_energy_up",
    "dos_energy_down",
    "is_magnetic",
    "ordering",
    "total_magnetization_normalized_vol",
    "total_magnetization_normalized_formula_units",
    "num_magnetic_sites",
    "num_unique_magnetic_sites",
    "types_of_magnetic_species",
    "bulk_modulus",
    "shear_modulus",
    "universal_anisotropy",
    "homogeneous_poisson",
    "e_total",
    "e_ionic",
    "e_electronic",
    "n",
    "e_ij_max",
    "weighted_surface_energy_EV_PER_ANG2",
    "weighted_surface_energy",
    "weighted_work_function",
    "surface_anisotropy",
    "shape_factor",
    "has_reconstructed",
    "possible_species",
    "has_props",
    "theoretical",
    "database_IDs"
  ]
}
