{
  "builder_meta": null,
  "nsites": null,
  "elements": null,
  "nelements": null,
  "composition": null,
  "composition_reduced": null,
  "formula_pretty": "LaCo5",
  "formula_anonymous": "AB5",
  "chemsys": null,
  "volume": 174.4675014302882,
  "density": 8.25325423568799,
  "density_atomic": 14.538958452524016,
  "symmetry": null,
  "property_name": null,
  "material_id": "mp-570460",
  "deprecated": null,
  "deprecation_reasons": null,
  "last_updated": null,
  "origins": null,
  "warnings": null,
  "structure": {
    "@module": "pymatgen.core.structure",
    "@class": "Structure",
    "charge": 0,
    "lattice": {
      "matrix": [
        [5.039095, -0.002493999999999, 0.0],
        [-2.485378, 4.383536, 0.0],
        [0.0, 0.0, 7.900586]
      ],
      "pbc": [true, true, true],
      "a": 5.039095617177848,
      "b": 5.039096314437739,
      "c": 7.900586,
      "alpha": 90.0,
      "beta": 90.0,
      "gamma": 119.58073441835903,
      "volume": 174.46750143028822
    },
    "properties": {},
    "sites": [
      {
        "species": [{ "element": "La", "occu": 1 }],
        "abc": [0.0, 0.0, 0.5],
        "properties": { "magmom": -0.23500000000000001 },
        "label": "La",
        "xyz": [0.0, 0.0, 3.950293]
      },
      {
        "species": [{ "element": "La", "occu": 1 }],
        "abc": [0.0, 0.0, 0.0],
        "properties": { "magmom": -0.23500000000000001 },
        "label": "La",
        "xyz": [0.0, 0.0, 0.0]
      },
      {
        "species": [{ "element": "Co", "occu": 1 }],
        "abc": [0.629164, 0.305504, 0.0],
        "properties": { "magmom": 1.464 },
        "label": "Co",
        "xyz": [2.411124246068, 1.3376186471280007, 0.0]
      },
      {
        "species": [{ "element": "Co", "occu": 1 }],
        "abc": [0.0, 0.5, 0.760328],
        "properties": { "magmom": 1.492 },
        "label": "Co",
        "xyz": [-1.242689, 2.191768, 6.007036752208]
      },
      {
        "species": [{ "element": "Co", "occu": 1 }],
        "abc": [0.305504, 0.629164, 0.5],
        "properties": { "magmom": 1.464 },
        "label": "Co",
        "xyz": [-0.02424668511200001, 2.7572011169280004, 3.950293]
      },
      {
        "species": [{ "element": "Co", "occu": 1 }],
        "abc": [0.694496, 0.370836, 0.5],
        "properties": { "magmom": 1.464 },
        "label": "Co",
        "xyz": [2.577963685112, 1.6238408830720008, 3.950293]
      },
      {
        "species": [{ "element": "Co", "occu": 1 }],
        "abc": [0.370836, 0.694496, 0.0],
        "properties": { "magmom": 1.464 },
        "label": "Co",
        "xyz": [0.142592753932, 3.0434233528720007, 0.0]
      },
      {
        "species": [{ "element": "Co", "occu": 1 }],
        "abc": [0.5, 0.0, 0.260328],
        "properties": { "magmom": 1.492 },
        "label": "Co",
        "xyz": [2.5195475, -0.0012469999999995, 2.056743752208]
      },
      {
        "species": [{ "element": "Co", "occu": 1 }],
        "abc": [0.5, 0.0, 0.739672],
        "properties": { "magmom": 1.492 },
        "label": "Co",
        "xyz": [2.5195475, -0.0012469999999995, 5.843842247792]
      },
      {
        "species": [{ "element": "Co", "occu": 1 }],
        "abc": [0.0, 0.5, 0.239672],
        "properties": { "magmom": 1.492 },
        "label": "Co",
        "xyz": [-1.242689, 2.191768, 1.893549247792]
      },
      {
        "species": [{ "element": "Co", "occu": 1 }],
        "abc": [0.5, 0.5, 0.75],
        "properties": { "magmom": 1.502 },
        "label": "Co",
        "xyz": [1.2768585, 2.190521000000001, 5.9254394999999995]
      },
      {
        "species": [{ "element": "Co", "occu": 1 }],
        "abc": [0.5, 0.5, 0.25],
        "properties": { "magmom": 1.502 },
        "label": "Co",
        "xyz": [1.2768585, 2.190521000000001, 1.9751465]
      }
    ]
  },
  "task_ids": null,
  "uncorrected_energy_per_atom": null,
  "energy_per_atom": -15.976327330463382,
  "formation_energy_per_atom": 0.009661978703285001,
  "energy_above_hull": 0.030441443659421002,
  "is_stable": false,
  "equilibrium_reaction_energy_per_atom": null,
  "decomposes_to": null,
  "xas": null,
  "grain_boundaries": null,
  "band_gap": 0.0,
  "cbm": null,
  "vbm": null,
  "efermi": 6.2069195,
  "is_gap_direct": null,
  "is_metal": null,
  "es_source_calc_id": null,
  "bandstructure": null,
  "dos": null,
  "dos_energy_up": null,
  "dos_energy_down": null,
  "is_magnetic": null,
  "ordering": null,
  "total_magnetization": 13.6410567,
  "total_magnetization_normalized_vol": null,
  "total_magnetization_normalized_formula_units": null,
  "num_magnetic_sites": null,
  "num_unique_magnetic_sites": null,
  "types_of_magnetic_species": null,
  "bulk_modulus": null,
  "shear_modulus": null,
  "universal_anisotropy": null,
  "homogeneous_poisson": null,
  "e_total": null,
  "e_ionic": null,
  "e_electronic": null,
  "n": null,
  "e_ij_max": null,
  "weighted_surface_energy_EV_PER_ANG2": null,
  "weighted_surface_energy": null,
  "weighted_work_function": null,
  "surface_anisotropy": null,
  "shape_factor": null,
  "has_reconstructed": null,
  "possible_species": null,
  "has_props": null,
  "theoretical": null,
  "database_IDs": null,
  "fields_not_requested": [
    "builder_meta",
    "nsites",
    "elements",
    "nelements",
    "composition",
    "composition_reduced",
    "chemsys",
    "symmetry",
    "property_name",
    "deprecated",
    "deprecation_reasons",
    "last_updated",
    "origins",
    "warnings",
    "task_ids",
    "uncorrected_energy_per_atom",
    "equilibrium_reaction_energy_per_atom",
    "decomposes_to",
    "xas",
    "grain_boundaries",
    "cbm",
    "vbm",
    "is_gap_direct",
    "is_metal",
    "es_source_calc_id",
    "bandstructure",
    "dos",
    "dos_energy_up",
    "dos_energy_down",
    "is_magnetic",
    "ordering",
    "total_magnetization_normalized_vol",
    "total_magnetization_normalized_formula_units",
    "num_magnetic_sites",
    "num_unique_magnetic_sites",
    "types_of_magnetic_species",
    "bulk_modulus",
    "shear_modulus",
    "universal_anisotropy",
    "homogeneous_poisson",
    "e_total",
    "e_ionic",
    "e_electronic",
    "n",
    "e_ij_max",
    "weighted_surface_energy_EV_PER_ANG2",
    "weighted_surface_energy",
    "weighted_work_function",
    "surface_anisotropy",
    "shape_factor",
    "has_reconstructed",
    "possible_species",
    "has_props",
    "theoretical",
    "database_IDs"
  ]
}
