{"builder_meta": null, "nsites": null, "elements": null, "nelements": null, "composition": null, "composition_reduced": null, "formula_pretty": "LaCo2", "formula_anonymous": "AB2", "chemsys": null, "volume": 93.24319580365032, "density": 9.145540348732958, "density_atomic": 15.540532633941721, "symmetry": null, "property_name": null, "material_id": "mp-568769", "deprecated": null, "deprecation_reasons": null, "last_updated": null, "origins": null, "warnings": null, "structure": {"@module": "pymatgen.core.structure", "@class": "Structure", "charge": 0, "lattice": {"matrix": [[-3.9180000000000015e-05, 3.59908603, 3.59908522], [3.59911258, -6.428e-05, 3.59911032], [3.59908062, 3.59907918, -3.232e-05]], "pbc": [true, true, true], "a": 5.089875703167876, "b": 5.0899122254884395, "c": 5.089867606747118, "alpha": 60.00087085697653, "beta": 60.0006600623701, "gamma": 60.00096501952483, "volume": 93.24319580365034}, "properties": {}, "sites": [{"species": [{"element": "La", "occu": 1}], "abc": [0.24998981, 0.250004, 0.25000482], "properties": {"magmom": -0.0}, "label": "La", "xyz": [1.7995702494181527, 1.7995059051178819, 1.7995185266071057]}, {"species": [{"element": "La", "occu": 1}], "abc": [1.019e-05, 0.999996, 0.99999518], "properties": {"magmom": -0.0}, "label": "La", "xyz": [7.198161455581848, 3.599034227382118, 3.599100278392894]}, {"species": [{"element": "Co", "occu": 1}], "abc": [0.625, 0.625, 0.125], "properties": {"magmom": 0.0}, "label": "Co", "xyz": [2.6993059524999996, 2.69927349125, 4.4988681725]}, {"species": [{"element": "Co", "occu": 1}], "abc": [0.625, 0.125, 0.625], "properties": {"magmom": 0.0}, "label": "Co", "xyz": [2.6992899725, 4.49884522125, 2.6992968525000003]}, {"species": [{"element": "Co", "occu": 1}], "abc": [0.125, 0.625, 0.625], "properties": {"magmom": -0.0}, "label": "Co", "xyz": [4.4988658525, 2.69927006625, 2.6993094025]}, {"species": [{"element": "Co", "occu": 1}], "abc": [0.625, 0.625, 0.625], "properties": {"magmom": 0.0}, "label": "Co", "xyz": [4.4988462625, 4.49881308125, 4.4988520125]}]}, "task_ids": null, "uncorrected_energy_per_atom": null, "energy_per_atom": -18.556353995, "formation_energy_per_atom": 0.18139349333333302, "energy_above_hull": 0.205877328837718, "is_stable": false, "equilibrium_reaction_energy_per_atom": null, "decomposes_to": null, "xas": null, "grain_boundaries": null, "band_gap": 0.0, "cbm": null, "vbm": null, "efermi": 8.2655708, "is_gap_direct": null, "is_metal": null, "es_source_calc_id": null, "bandstructure": null, "dos": null, "dos_energy_up": null, "dos_energy_down": null, "is_magnetic": null, "ordering": null, "total_magnetization": 0.0003895, "total_magnetization_normalized_vol": null, "total_magnetization_normalized_formula_units": null, "num_magnetic_sites": null, "num_unique_magnetic_sites": null, "types_of_magnetic_species": null, "bulk_modulus": null, "shear_modulus": null, "universal_anisotropy": null, "homogeneous_poisson": null, "e_total": null, "e_ionic": null, "e_electronic": null, "n": null, "e_ij_max": null, "weighted_surface_energy_EV_PER_ANG2": null, "weighted_surface_energy": null, "weighted_work_function": null, "surface_anisotropy": null, "shape_factor": null, "has_reconstructed": null, "possible_species": null, "has_props": null, "theoretical": null, "database_IDs": null, "fields_not_requested": ["builder_meta", "nsites", "elements", "nelements", "composition", "composition_reduced", "chemsys", "symmetry", "property_name", "deprecated", "deprecation_reasons", "last_updated", "origins", "warnings", "task_ids", "uncorrected_energy_per_atom", "equilibrium_reaction_energy_per_atom", "decomposes_to", "xas", "grain_boundaries", "cbm", "vbm", "is_gap_direct", "is_metal", "es_source_calc_id", "bandstructure", "dos", "dos_energy_up", "dos_energy_down", "is_magnetic", "ordering", "total_magnetization_normalized_vol", "total_magnetization_normalized_formula_units", "num_magnetic_sites", "num_unique_magnetic_sites", "types_of_magnetic_species", "bulk_modulus", "shear_modulus", "universal_anisotropy", "homogeneous_poisson", "e_total", "e_ionic", "e_electronic", "n", "e_ij_max", "weighted_surface_energy_EV_PER_ANG2", "weighted_surface_energy", "weighted_work_function", "surface_anisotropy", "shape_factor", "has_reconstructed", "possible_species", "has_props", "theoretical", "database_IDs"]}