{"builder_meta": null, "nsites": null, "elements": null, "nelements": null, "composition": null, "composition_reduced": null, "formula_pretty": "LaCo", "formula_anonymous": "AB", "chemsys": null, "volume": 169.0291321552169, "density": 7.774253536717356, "density_atomic": 21.128641519402112, "symmetry": null, "property_name": null, "material_id": "mp-1205821", "deprecated": null, "deprecation_reasons": null, "last_updated": null, "origins": null, "warnings": null, "structure": {"@module": "pymatgen.core.structure", "@class": "Structure", "charge": 0, "lattice": {"matrix": [[-3.48311, -3.48311, 3.48311], [-3.48311, 3.48311, -3.48311], [3.48311, -3.48311, -3.48311]], "pbc": [true, true, true], "a": 6.032923488351232, "b": 6.032923488351232, "c": 6.032923488351232, "alpha": 109.47122063449069, "beta": 109.47122063449069, "gamma": 109.47122063449069, "volume": 169.0291321552169}, "properties": {}, "sites": [{"species": [{"element": "La", "occu": 1}], "abc": [0.981024999999999, 0.981024999999999, 0.981024999999999], "properties": {"magmom": -0.054}, "label": "La", "xyz": [-3.4170179877499964, -3.4170179877499964, -3.4170179877499964]}, {"species": [{"element": "La", "occu": 1}], "abc": [0.518975, 0.0, 0.5], "properties": {"magmom": -0.054}, "label": "La", "xyz": [-0.06609201224999994, -3.54920201225, 0.06609201224999994]}, {"species": [{"element": "La", "occu": 1}], "abc": [0.5, 0.518975, 0.0], "properties": {"magmom": -0.054}, "label": "La", "xyz": [-3.54920201225, 0.06609201224999994, -0.06609201224999994]}, {"species": [{"element": "La", "occu": 1}], "abc": [0.0, 0.5, 0.518975], "properties": {"magmom": -0.054}, "label": "La", "xyz": [0.06609201224999994, -0.06609201224999994, -3.54920201225]}, {"species": [{"element": "Co", "occu": 1}], "abc": [0.41598, 0.41598, 0.41598], "properties": {"magmom": 0.23600000000000002}, "label": "Co", "xyz": [-1.4489040978, -1.4489040978, -1.4489040978]}, {"species": [{"element": "Co", "occu": 1}], "abc": [0.08402000000000001, 0.0, 0.5], "properties": {"magmom": 0.23600000000000002}, "label": "Co", "xyz": [1.4489040977999998, -2.0342059022, -1.4489040977999998]}, {"species": [{"element": "Co", "occu": 1}], "abc": [0.5, 0.08402000000000001, 0.0], "properties": {"magmom": 0.23600000000000002}, "label": "Co", "xyz": [-2.0342059022, -1.4489040977999998, 1.4489040977999998]}, {"species": [{"element": "Co", "occu": 1}], "abc": [0.0, 0.5, 0.08402000000000001], "properties": {"magmom": 0.23600000000000002}, "label": "Co", "xyz": [-1.4489040977999998, 1.4489040977999998, -2.0342059022]}]}, "task_ids": null, "uncorrected_energy_per_atom": null, "energy_per_atom": -21.357423425695487, "formation_energy_per_atom": 0.132082241804514, "energy_above_hull": 0.160270447857143, "is_stable": false, "equilibrium_reaction_energy_per_atom": null, "decomposes_to": null, "xas": null, "grain_boundaries": null, "band_gap": 0.0, "cbm": null, "vbm": null, "efermi": 8.07664385, "is_gap_direct": null, "is_metal": null, "es_source_calc_id": null, "bandstructure": null, "dos": null, "dos_energy_up": null, "dos_energy_down": null, "is_magnetic": null, "ordering": null, "total_magnetization": 0.5103302, "total_magnetization_normalized_vol": null, "total_magnetization_normalized_formula_units": null, "num_magnetic_sites": null, "num_unique_magnetic_sites": null, "types_of_magnetic_species": null, "bulk_modulus": null, "shear_modulus": null, "universal_anisotropy": null, "homogeneous_poisson": null, "e_total": null, "e_ionic": null, "e_electronic": null, "n": null, "e_ij_max": null, "weighted_surface_energy_EV_PER_ANG2": null, "weighted_surface_energy": null, "weighted_work_function": null, "surface_anisotropy": null, "shape_factor": null, "has_reconstructed": null, "possible_species": null, "has_props": null, "theoretical": null, "database_IDs": null, "fields_not_requested": ["builder_meta", "nsites", "elements", "nelements", "composition", "composition_reduced", "chemsys", "symmetry", "property_name", "deprecated", "deprecation_reasons", "last_updated", "origins", "warnings", "task_ids", "uncorrected_energy_per_atom", "equilibrium_reaction_energy_per_atom", "decomposes_to", "xas", "grain_boundaries", "cbm", "vbm", "is_gap_direct", "is_metal", "es_source_calc_id", "bandstructure", "dos", "dos_energy_up", "dos_energy_down", "is_magnetic", "ordering", "total_magnetization_normalized_vol", "total_magnetization_normalized_formula_units", "num_magnetic_sites", "num_unique_magnetic_sites", "types_of_magnetic_species", "bulk_modulus", "shear_modulus", "universal_anisotropy", "homogeneous_poisson", "e_total", "e_ionic", "e_electronic", "n", "e_ij_max", "weighted_surface_energy_EV_PER_ANG2", "weighted_surface_energy", "weighted_work_function", "surface_anisotropy", "shape_factor", "has_reconstructed", "possible_species", "has_props", "theoretical", "database_IDs"]}