{
  "builder_meta": null,
  "nsites": null,
  "elements": null,
  "nelements": null,
  "composition": null,
  "composition_reduced": null,
  "formula_pretty": "LaCu6",
  "formula_anonymous": "AB6",
  "chemsys": null,
  "volume": 428.07340097707527,
  "density": 8.071341509982528,
  "density_atomic": 15.28833574918126,
  "symmetry": null,
  "property_name": null,
  "material_id": "mp-636256",
  "deprecated": null,
  "deprecation_reasons": null,
  "last_updated": null,
  "origins": null,
  "warnings": null,
  "structure": {
    "@module": "pymatgen.core.structure",
    "@class": "Structure",
    "charge": 0,
    "lattice": {
      "matrix": [
        [5.155007, 0.0, 0.0],
        [0.0, 8.120473, 0.0],
        [0.0, 0.0, 10.226044]
      ],
      "pbc": [true, true, true],
      "a": 5.155007,
      "b": 8.120473,
      "c": 10.226044,
      "alpha": 90.0,
      "beta": 90.0,
      "gamma": 90.0,
      "volume": 428.07340097707527
    },
    "properties": {},
    "sites": [
      {
        "species": [{ "element": "La", "occu": 1 }],
        "abc": [0.75, 0.237873, 0.064858],
        "properties": { "magmom": -0.0 },
        "label": "La",
        "xyz": [3.86625525, 1.931641273929, 0.663240761752]
      },
      {
        "species": [{ "element": "La", "occu": 1 }],
        "abc": [0.75, 0.737873, 0.435142],
        "properties": { "magmom": -0.0 },
        "label": "La",
        "xyz": [3.86625525, 5.991877773929001, 4.449781238248]
      },
      {
        "species": [{ "element": "La", "occu": 1 }],
        "abc": [0.25, 0.762127, 0.935141999999999],
        "properties": { "magmom": -0.0 },
        "label": "La",
        "xyz": [1.28875175, 6.188831726071, 9.56280323824799]
      },
      {
        "species": [{ "element": "La", "occu": 1 }],
        "abc": [0.25, 0.262127, 0.564858],
        "properties": { "magmom": -0.0 },
        "label": "La",
        "xyz": [1.28875175, 2.128595226071, 5.776262761751999]
      },
      {
        "species": [{ "element": "Cu", "occu": 1 }],
        "abc": [0.75, 0.352929, 0.358817999999999],
        "properties": { "magmom": 0.0 },
        "label": "Cu",
        "xyz": [3.86625525, 2.865950415417, 3.66928865599199]
      },
      {
        "species": [{ "element": "Cu", "occu": 1 }],
        "abc": [0.005186, 0.935508, 0.6903100000000001],
        "properties": { "magmom": 0.0 },
        "label": "Cu",
        "xyz": [0.026733866302, 7.5967674552840005, 7.0591404336400005]
      },
      {
        "species": [{ "element": "Cu", "occu": 1 }],
        "abc": [0.75, 0.599308, 0.984155999999999],
        "properties": { "magmom": 0.0 },
        "label": "Cu",
        "xyz": [3.86625525, 4.866664432684, 10.06402255886399]
      },
      {
        "species": [{ "element": "Cu", "occu": 1 }],
        "abc": [0.25, 0.817839, 0.246648999999999],
        "properties": { "magmom": 0.0 },
        "label": "Cu",
        "xyz": [1.28875175, 6.6412395178470005, 2.52224352655599]
      },
      {
        "species": [{ "element": "Cu", "occu": 1 }],
        "abc": [0.25, 0.400692, 0.015844],
        "properties": { "magmom": 0.0 },
        "label": "Cu",
        "xyz": [1.28875175, 3.253808567316, 0.162021441136]
      },
      {
        "species": [{ "element": "Cu", "occu": 1 }],
        "abc": [0.75, 0.939415, 0.901609],
        "properties": { "magmom": 0.0 },
        "label": "Cu",
        "xyz": [3.86625525, 7.628494143295001, 9.219893304795999]
      },
      {
        "species": [{ "element": "Cu", "occu": 1 }],
        "abc": [0.994814, 0.064492, 0.30969],
        "properties": { "magmom": 0.0 },
        "label": "Cu",
        "xyz": [5.128273133698, 0.523705544716, 3.1669035663600003]
      },
      {
        "species": [{ "element": "Cu", "occu": 1 }],
        "abc": [0.25, 0.560585, 0.401609],
        "properties": { "magmom": 0.0 },
        "label": "Cu",
        "xyz": [1.28875175, 4.552215356705, 4.106871304796]
      },
      {
        "species": [{ "element": "Cu", "occu": 1 }],
        "abc": [0.75, 0.099308, 0.515844],
        "properties": { "magmom": 0.0 },
        "label": "Cu",
        "xyz": [3.86625525, 0.806427932684, 5.275043441136]
      },
      {
        "species": [{ "element": "Cu", "occu": 1 }],
        "abc": [0.25, 0.647071, 0.641181999999999],
        "properties": { "magmom": 0.0 },
        "label": "Cu",
        "xyz": [1.28875175, 5.254522584583, 6.55675534400799]
      },
      {
        "species": [{ "element": "Cu", "occu": 1 }],
        "abc": [0.005186, 0.435508, 0.80969],
        "properties": { "magmom": 0.0 },
        "label": "Cu",
        "xyz": [0.026733866302, 3.5365309552840003, 8.27992556636]
      },
      {
        "species": [{ "element": "Cu", "occu": 1 }],
        "abc": [0.994814, 0.564492, 0.19031],
        "properties": { "magmom": 0.0 },
        "label": "Cu",
        "xyz": [5.128273133698, 4.583942044716, 1.9461184336400001]
      },
      {
        "species": [{ "element": "Cu", "occu": 1 }],
        "abc": [0.75, 0.439415, 0.598391],
        "properties": { "magmom": 0.0 },
        "label": "Cu",
        "xyz": [3.86625525, 3.5682576432950004, 6.119172695204]
      },
      {
        "species": [{ "element": "Cu", "occu": 1 }],
        "abc": [0.25, 0.060585, 0.09839099999999901],
        "properties": { "magmom": 0.0 },
        "label": "Cu",
        "xyz": [1.28875175, 0.491978856705, 1.0061506952039898]
      },
      {
        "species": [{ "element": "Cu", "occu": 1 }],
        "abc": [0.505186, 0.064492, 0.30969],
        "properties": { "magmom": 0.0 },
        "label": "Cu",
        "xyz": [2.604237366302, 0.523705544716, 3.1669035663600003]
      },
      {
        "species": [{ "element": "Cu", "occu": 1 }],
        "abc": [0.75, 0.852928999999999, 0.141182],
        "properties": { "magmom": 0.0 },
        "label": "Cu",
        "xyz": [3.86625525, 6.926186915416992, 1.443733344008]
      },
      {
        "species": [{ "element": "Cu", "occu": 1 }],
        "abc": [0.494814, 0.435508, 0.80969],
        "properties": { "magmom": 0.0 },
        "label": "Cu",
        "xyz": [2.550769633698, 3.5365309552840003, 8.27992556636]
      },
      {
        "species": [{ "element": "Cu", "occu": 1 }],
        "abc": [0.75, 0.682161, 0.746649],
        "properties": { "magmom": 0.0 },
        "label": "Cu",
        "xyz": [3.86625525, 5.539469982153, 7.635265526556]
      },
      {
        "species": [{ "element": "Cu", "occu": 1 }],
        "abc": [0.25, 0.317839, 0.253351],
        "properties": { "magmom": 0.0 },
        "label": "Cu",
        "xyz": [1.28875175, 2.581003017847, 2.590778473444]
      },
      {
        "species": [{ "element": "Cu", "occu": 1 }],
        "abc": [0.25, 0.147070999999999, 0.858818],
        "properties": { "magmom": 0.0 },
        "label": "Cu",
        "xyz": [1.28875175, 1.1942860845829921, 8.782310655992]
      },
      {
        "species": [{ "element": "Cu", "occu": 1 }],
        "abc": [0.75, 0.182161, 0.753351],
        "properties": { "magmom": 0.0 },
        "label": "Cu",
        "xyz": [3.86625525, 1.479233482153, 7.703800473444]
      },
      {
        "species": [{ "element": "Cu", "occu": 1 }],
        "abc": [0.505186, 0.564492, 0.19031],
        "properties": { "magmom": 0.0 },
        "label": "Cu",
        "xyz": [2.604237366302, 4.583942044716, 1.9461184336400001]
      },
      {
        "species": [{ "element": "Cu", "occu": 1 }],
        "abc": [0.494814, 0.935508, 0.6903100000000001],
        "properties": { "magmom": 0.0 },
        "label": "Cu",
        "xyz": [2.550769633698, 7.5967674552840005, 7.0591404336400005]
      },
      {
        "species": [{ "element": "Cu", "occu": 1 }],
        "abc": [0.25, 0.900691999999999, 0.484156],
        "properties": { "magmom": 0.0 },
        "label": "Cu",
        "xyz": [1.28875175, 7.314045067315993, 4.951000558864]
      }
    ]
  },
  "task_ids": null,
  "uncorrected_energy_per_atom": null,
  "energy_per_atom": -13.671792481071432,
  "formation_energy_per_atom": -0.125284451785717,
  "energy_above_hull": 0.00043567258928600005,
  "is_stable": false,
  "equilibrium_reaction_energy_per_atom": null,
  "decomposes_to": null,
  "xas": null,
  "grain_boundaries": null,
  "band_gap": 0.0,
  "cbm": null,
  "vbm": null,
  "efermi": 7.21289987,
  "is_gap_direct": null,
  "is_metal": null,
  "es_source_calc_id": null,
  "bandstructure": null,
  "dos": null,
  "dos_energy_up": null,
  "dos_energy_down": null,
  "is_magnetic": null,
  "ordering": null,
  "total_magnetization": 0.0001695,
  "total_magnetization_normalized_vol": null,
  "total_magnetization_normalized_formula_units": null,
  "num_magnetic_sites": null,
  "num_unique_magnetic_sites": null,
  "types_of_magnetic_species": null,
  "bulk_modulus": null,
  "shear_modulus": null,
  "universal_anisotropy": null,
  "homogeneous_poisson": null,
  "e_total": null,
  "e_ionic": null,
  "e_electronic": null,
  "n": null,
  "e_ij_max": null,
  "weighted_surface_energy_EV_PER_ANG2": null,
  "weighted_surface_energy": null,
  "weighted_work_function": null,
  "surface_anisotropy": null,
  "shape_factor": null,
  "has_reconstructed": null,
  "possible_species": null,
  "has_props": null,
  "theoretical": null,
  "database_IDs": null,
  "fields_not_requested": [
    "builder_meta",
    "nsites",
    "elements",
    "nelements",
    "composition",
    "composition_reduced",
    "chemsys",
    "symmetry",
    "property_name",
    "deprecated",
    "deprecation_reasons",
    "last_updated",
    "origins",
    "warnings",
    "task_ids",
    "uncorrected_energy_per_atom",
    "equilibrium_reaction_energy_per_atom",
    "decomposes_to",
    "xas",
    "grain_boundaries",
    "cbm",
    "vbm",
    "is_gap_direct",
    "is_metal",
    "es_source_calc_id",
    "bandstructure",
    "dos",
    "dos_energy_up",
    "dos_energy_down",
    "is_magnetic",
    "ordering",
    "total_magnetization_normalized_vol",
    "total_magnetization_normalized_formula_units",
    "num_magnetic_sites",
    "num_unique_magnetic_sites",
    "types_of_magnetic_species",
    "bulk_modulus",
    "shear_modulus",
    "universal_anisotropy",
    "homogeneous_poisson",
    "e_total",
    "e_ionic",
    "e_electronic",
    "n",
    "e_ij_max",
    "weighted_surface_energy_EV_PER_ANG2",
    "weighted_surface_energy",
    "weighted_work_function",
    "surface_anisotropy",
    "shape_factor",
    "has_reconstructed",
    "possible_species",
    "has_props",
    "theoretical",
    "database_IDs"
  ]
}
