{"builder_meta": null, "nsites": null, "elements": null, "nelements": null, "composition": null, "composition_reduced": null, "formula_pretty": "LaCu", "formula_anonymous": "AB", "chemsys": null, "volume": 196.83055996299777, "density": 6.831836988906524, "density_atomic": 24.60381999537472, "symmetry": null, "property_name": null, "material_id": "mp-1078920", "deprecated": null, "deprecation_reasons": null, "last_updated": null, "origins": null, "warnings": null, "structure": {"@module": "pymatgen.core.structure", "@class": "Structure", "charge": 0, "lattice": {"matrix": [[0.0, 4.62182087, 0.0], [0.0, 0.0, 5.62165291], [7.57557131, 0.0, 0.0]], "pbc": [true, true, true], "a": 4.62182087, "b": 5.62165291, "c": 7.57557131, "alpha": 90.0, "beta": 90.0, "gamma": 90.0, "volume": 196.83055996299777}, "properties": {}, "sites": [{"species": [{"element": "La", "occu": 1}], "abc": [0.25, 0.39430231, 0.67608204], "properties": {"magmom": 0.0}, "label": "La", "xyz": [5.121707705430273, 1.1554552175, 2.216630728431222]}, {"species": [{"element": "La", "occu": 1}], "abc": [0.25, 0.10569769, 0.17608204], "properties": {"magmom": 0.0}, "label": "La", "xyz": [1.3339220504302725, 1.1554552175, 0.5941957265687778]}, {"species": [{"element": "La", "occu": 1}], "abc": [0.75, 0.6056976900000001, 0.32391796], "properties": {"magmom": 0.0}, "label": "La", "xyz": [2.4538636045697277, 3.4663656524999995, 3.405022181568778]}, {"species": [{"element": "La", "occu": 1}], "abc": [0.75, 0.89430231, 0.8239179600000001], "properties": {"magmom": 0.0}, "label": "La", "xyz": [6.241649259569728, 3.4663656524999995, 5.027457183431222]}, {"species": [{"element": "Cu", "occu": 1}], "abc": [0.25, 0.89601544, 0.5320094400000001], "properties": {"magmom": 0.0}, "label": "Cu", "xyz": [4.030275450313167, 1.1554552175, 5.0370878056809305]}, {"species": [{"element": "Cu", "occu": 1}], "abc": [0.25, 0.60398456, 0.03200944], "properties": {"magmom": 0.0}, "label": "Cu", "xyz": [0.2424897953131664, 1.1554552175, 3.3953915593190698]}, {"species": [{"element": "Cu", "occu": 1}], "abc": [0.75, 0.10398456, 0.46799056], "properties": {"magmom": 0.0}, "label": "Cu", "xyz": [3.5452958596868336, 3.4663656524999995, 0.5845651043190696]}, {"species": [{"element": "Cu", "occu": 1}], "abc": [0.75, 0.39601544, 0.96799056], "properties": {"magmom": 0.0}, "label": "Cu", "xyz": [7.333081514686834, 3.4663656524999995, 2.22626135068093]}]}, "task_ids": null, "uncorrected_energy_per_atom": null, "energy_per_atom": -20.46419801, "formation_energy_per_atom": -0.168409907499999, "energy_above_hull": 0.0, "is_stable": true, "equilibrium_reaction_energy_per_atom": null, "decomposes_to": null, "xas": null, "grain_boundaries": null, "band_gap": 0.0, "cbm": null, "vbm": null, "efermi": 7.46934135, "is_gap_direct": null, "is_metal": null, "es_source_calc_id": null, "bandstructure": null, "dos": null, "dos_energy_up": null, "dos_energy_down": null, "is_magnetic": null, "ordering": null, "total_magnetization": 0.0013231, "total_magnetization_normalized_vol": null, "total_magnetization_normalized_formula_units": null, "num_magnetic_sites": null, "num_unique_magnetic_sites": null, "types_of_magnetic_species": null, "bulk_modulus": null, "shear_modulus": null, "universal_anisotropy": null, "homogeneous_poisson": null, "e_total": null, "e_ionic": null, "e_electronic": null, "n": null, "e_ij_max": null, "weighted_surface_energy_EV_PER_ANG2": null, "weighted_surface_energy": null, "weighted_work_function": null, "surface_anisotropy": null, "shape_factor": null, "has_reconstructed": null, "possible_species": null, "has_props": null, "theoretical": null, "database_IDs": null, "fields_not_requested": ["builder_meta", "nsites", "elements", "nelements", "composition", "composition_reduced", "chemsys", "symmetry", "property_name", "deprecated", "deprecation_reasons", "last_updated", "origins", "warnings", "task_ids", "uncorrected_energy_per_atom", "equilibrium_reaction_energy_per_atom", "decomposes_to", "xas", "grain_boundaries", "cbm", "vbm", "is_gap_direct", "is_metal", "es_source_calc_id", "bandstructure", "dos", "dos_energy_up", "dos_energy_down", "is_magnetic", "ordering", "total_magnetization_normalized_vol", "total_magnetization_normalized_formula_units", "num_magnetic_sites", "num_unique_magnetic_sites", "types_of_magnetic_species", "bulk_modulus", "shear_modulus", "universal_anisotropy", "homogeneous_poisson", "e_total", "e_ionic", "e_electronic", "n", "e_ij_max", "weighted_surface_energy_EV_PER_ANG2", "weighted_surface_energy", "weighted_work_function", "surface_anisotropy", "shape_factor", "has_reconstructed", "possible_species", "has_props", "theoretical", "database_IDs"]}