{
  "builder_meta": null,
  "nsites": null,
  "elements": null,
  "nelements": null,
  "composition": null,
  "composition_reduced": null,
  "formula_pretty": "LaCu4",
  "formula_anonymous": "AB4",
  "chemsys": null,
  "volume": 743.8412460631105,
  "density": 7.897738698316774,
  "density_atomic": 16.52980546806912,
  "symmetry": null,
  "property_name": null,
  "material_id": "mp-30589",
  "deprecated": null,
  "deprecation_reasons": null,
  "last_updated": null,
  "origins": null,
  "warnings": null,
  "structure": {
    "@module": "pymatgen.core.structure",
    "@class": "Structure",
    "charge": 0,
    "lattice": {
      "matrix": [
        [8.14618331, 1e-8, -3.42572518],
        [-1.440623089999999, 8.01778845, -3.42572518],
        [-0.0028895600000000002, -0.00345393, 11.3915819]
      ],
      "pbc": [true, true, true],
      "a": 8.837188213963113,
      "b": 8.83718957165006,
      "c": 11.391582790095372,
      "alpha": 112.82280144059816,
      "beta": 112.82281056177109,
      "gamma": 89.99999022963671,
      "volume": 743.8412460631104
    },
    "properties": {},
    "sites": [
      {
        "species": [{ "element": "La", "occu": 1 }],
        "abc": [0.0, 0.0, 0.0],
        "properties": { "magmom": 0.0 },
        "label": "La",
        "xyz": [0.0, 0.0, 0.0]
      },
      {
        "species": [{ "element": "La", "occu": 1 }],
        "abc": [0.20631978, 0.20631978, 0.41263755],
        "properties": { "magmom": -0.0 },
        "label": "La",
        "xyz": [1.3822973684081736, 1.6528031299406674, 3.2870047148842247]
      },
      {
        "species": [{ "element": "La", "occu": 1 }],
        "abc": [0.79368022, 0.79368022, 0.58736245],
        "properties": { "magmom": -0.0 },
        "label": "La",
        "xyz": [5.320373291591827, 6.361531400059333, 1.2531268251157748]
      },
      {
        "species": [{ "element": "La", "occu": 1 }],
        "abc": [0.05112344, 0.55112344, 0.10224888],
        "properties": { "magmom": -0.0 },
        "label": "La",
        "xyz": [-0.37779569370013555, 4.418437991793404, -0.8983558106891665]
      },
      {
        "species": [{ "element": "La", "occu": 1 }],
        "abc": [0.44887656000000004, 0.94887656, 0.89775112],
        "properties": { "magmom": -0.0 },
        "label": "La",
        "xyz": [2.287063153700137, 7.604790758206596, 5.438487350689167]
      },
      {
        "species": [{ "element": "La", "occu": 1 }],
        "abc": [0.6188373500000001, 0.37418107, 0.74836214],
        "properties": { "magmom": 0.0 },
        "label": "La",
        "xyz": [4.499946165586465, 2.997519876996804, 5.123220403071451]
      },
      {
        "species": [{ "element": "La", "occu": 1 }],
        "abc": [0.62581893, 0.38116265, 0.25163686],
        "properties": { "magmom": 0.0 },
        "label": "La",
        "xyz": [4.548196888207289, 3.055212362899722, -0.5831002546533504]
      },
      {
        "species": [{ "element": "La", "occu": 1 }],
        "abc": [0.62581893, 0.87047422, 0.25163686],
        "properties": { "magmom": 0.0 },
        "label": "La",
        "xyz": [3.8432833422611377, 6.978409017297087, -2.2593472208676824]
      },
      {
        "species": [{ "element": "La", "occu": 1 }],
        "abc": [0.12952578, 0.37418107, 0.74836214],
        "properties": { "magmom": 0.0 },
        "label": "La",
        "xyz": [0.5139244206625673, 2.9975198721036884, 6.799467369285784]
      },
      {
        "species": [{ "element": "Cu", "occu": 1 }],
        "abc": [0.24644022000000002, 0.24644022000000002, -0.0],
        "properties": { "magmom": 0.0 },
        "label": "Cu",
        "xyz": [1.6525197358400487, 1.9759055519958613, -1.6884729340374793]
      },
      {
        "species": [{ "element": "Cu", "occu": 1 }],
        "abc": [0.24644022000000002, 0.75355978, -0.0],
        "properties": { "magmom": 0.0 },
        "label": "Cu",
        "xyz": [0.9219515883134088, 6.041882902932943, -3.42572518]
      },
      {
        "species": [{ "element": "Cu", "occu": 1 }],
        "abc": [0.75355978, 0.24644022000000002, 0.0],
        "properties": { "magmom": 0.0 },
        "label": "Cu",
        "xyz": [5.783608631686592, 1.9759055570670567, -3.42572518]
      },
      {
        "species": [{ "element": "Cu", "occu": 1 }],
        "abc": [0.75355978, 0.75355978, 0.0],
        "properties": { "magmom": 0.0 },
        "label": "Cu",
        "xyz": [5.053040484159952, 6.041882908004139, -5.162977425962521]
      },
      {
        "species": [{ "element": "Cu", "occu": 1 }],
        "abc": [0.55361457, 0.21003891, 0.42007782],
        "properties": { "magmom": 0.0 },
        "label": "Cu",
        "xyz": [4.206045026696835, 1.6825966327999025, 2.1692839356728313]
      },
      {
        "species": [{ "element": "Cu", "occu": 1 }],
        "abc": [0.78996109, 0.44638543, 0.5799221800000001],
        "properties": { "magmom": 0.0 },
        "label": "Cu",
        "xyz": [5.790418969475389, 3.5770209421867265, 2.370847604327169]
      },
      {
        "species": [{ "element": "Cu", "occu": 1 }],
        "abc": [0.78996109, 0.13353675, 0.5799221800000001],
        "properties": { "magmom": 0.0 },
        "label": "Cu",
        "xyz": [6.24111600155941, 1.0686664090849811, 3.4425812049329316]
      },
      {
        "species": [{ "element": "Cu", "occu": 1 }],
        "abc": [0.86646325, 0.21003891, 0.42007782],
        "properties": { "magmom": 0.0 },
        "label": "Cu",
        "xyz": [6.754567722268366, 1.6825966359283893, 1.0975503350670692]
      },
      {
        "species": [{ "element": "Cu", "occu": 1 }],
        "abc": [0.15147861, 0.79409664, 0.58819328],
        "properties": { "magmom": 0.0 },
        "label": "Cu",
        "xyz": [0.0882789495544256, 6.3648672914750035, 3.4611709786398372]
      },
      {
        "species": [{ "element": "Cu", "occu": 1 }],
        "abc": [0.20590336, 0.84852139, 0.41180672],
        "properties": { "magmom": 0.0 },
        "label": "Cu",
        "xyz": [0.45373706768618416, 6.80184265079457, 1.0789605613601627]
      },
      {
        "species": [{ "element": "Cu", "occu": 1 }],
        "abc": [0.20590336, 0.56328534, 0.41180672],
        "properties": { "magmom": 0.0 },
        "label": "Cu",
        "xyz": [0.8646547074165785, 4.514880343580947, 2.056100880088902]
      },
      {
        "species": [{ "element": "Cu", "occu": 1 }],
        "abc": [0.43671466000000003, 0.79409664, 0.58819328],
        "properties": { "magmom": 0.0 },
        "label": "Cu",
        "xyz": [2.4118640994747507, 6.364867294327364, 2.484030659911098]
      },
      {
        "species": [{ "element": "Cu", "occu": 1 }],
        "abc": [0.92642301, 0.6694393200000001, 0.33887963],
        "properties": { "magmom": 0.0 },
        "label": "Cu",
        "xyz": [6.581422707292402, 5.366252390615639, -1.6066107083077732]
      },
      {
        "species": [{ "element": "Cu", "occu": 1 }],
        "abc": [0.33056068, 0.07357699, 0.66112037],
        "properties": { "magmom": 0.0 },
        "label": "Cu",
        "xyz": [2.5849008366952146, 0.5876412804338181, 6.146742248307772]
      },
      {
        "species": [{ "element": "Cu", "occu": 1 }],
        "abc": [0.33056068, 0.58754437, 0.66112037],
        "properties": { "magmom": 0.0 },
        "label": "Cu",
        "xyz": [1.8444675615604107, 4.708523003474579, 4.386031252943145]
      },
      {
        "species": [{ "element": "Cu", "occu": 1 }],
        "abc": [0.41245563, 0.6694393200000001, 0.33887963],
        "properties": { "magmom": 0.0 },
        "label": "Cu",
        "xyz": [2.394550214451974, 5.366252385475965, 0.1541002870568553]
      },
      {
        "species": [{ "element": "Cu", "occu": 1 }],
        "abc": [0.69721834, 0.54095138, 0.08190477],
        "properties": { "magmom": -0.0 },
        "label": "Cu",
        "xyz": [4.900124687391341, 4.336950840205499, -3.3086042914618865]
      },
      {
        "species": [{ "element": "Cu", "occu": 1 }],
        "abc": [0.45904862, 0.30278166, 0.91809523],
        "properties": { "magmom": -0.0 },
        "label": "Cu",
        "xyz": [3.300647064845204, 2.4244682643525595, 7.8487358314618865]
      },
      {
        "species": [{ "element": "Cu", "occu": 1 }],
        "abc": [0.45904862, 0.61531358, 0.91809523],
        "properties": { "magmom": -0.0 },
        "label": "Cu",
        "xyz": [2.8504063645311715, 4.930283082784883, 6.778087363564141]
      },
      {
        "species": [{ "element": "Cu", "occu": 1 }],
        "abc": [0.38468642000000003, 0.54095138, 0.08190477],
        "properties": { "magmom": -0.0 },
        "label": "Cu",
        "xyz": [2.3541823768450856, 4.336950837080179, -2.237955823564141]
      },
      {
        "species": [{ "element": "Cu", "occu": 1 }],
        "abc": [0.36340763, 0.08101724, 0.16203548],
        "properties": { "magmom": 0.0 },
        "label": "Cu",
        "xyz": [2.843201652358995, 0.6490194355515179, 0.32336297334858566]
      },
      {
        "species": [{ "element": "Cu", "occu": 1 }],
        "abc": [0.91898276, 0.63659237, 0.83796452],
        "properties": { "magmom": 0.0 },
        "label": "Cu",
        "xyz": [6.566691005791501, 5.10116868993939, 4.216768566651414]
      },
      {
        "species": [{ "element": "Cu", "occu": 1 }],
        "abc": [0.91898276, 0.20137115, 0.83796452],
        "properties": { "magmom": 0.0 },
        "label": "Cu",
        "xyz": [7.19368074458147, 1.6116570190284814, 5.7077168588757345]
      },
      {
        "species": [{ "element": "Cu", "occu": 1 }],
        "abc": [0.7986288500000001, 0.08101724, 0.16203548],
        "properties": { "magmom": 0.0 },
        "label": "Cu",
        "xyz": [6.388593490880833, 0.6490194399037301, -1.1675853188757341]
      },
      {
        "species": [{ "element": "Cu", "occu": 1 }],
        "abc": [0.00565287, 0.50565287, 0.5],
        "properties": { "magmom": -0.0 },
        "label": "Cu",
        "xyz": [-0.6838506647991682, 4.052490775851881, 3.944198001803467]
      },
      {
        "species": [{ "element": "Cu", "occu": 1 }],
        "abc": [0.00565287, 0.99434713, 0.5],
        "properties": { "magmom": -0.0 },
        "label": "Cu",
        "xyz": [-1.387874899705631, 7.970737969261177, 2.27006577]
      },
      {
        "species": [{ "element": "Cu", "occu": 1 }],
        "abc": [0.49434713, 0.50565287, 0.5],
        "properties": { "magmom": -0.0 },
        "label": "Cu",
        "xyz": [3.2971423597056324, 4.0524907807388235, 2.2700657699999995]
      },
      {
        "species": [{ "element": "Cu", "occu": 1 }],
        "abc": [0.49434713, 0.99434713, 0.5],
        "properties": { "magmom": -0.0 },
        "label": "Cu",
        "xyz": [2.5931181247991697, 7.970737974148119, 0.5959335381965332]
      },
      {
        "species": [{ "element": "Cu", "occu": 1 }],
        "abc": [0.28380142, 0.35760303, 0.24252256],
        "properties": { "magmom": 0.0 },
        "label": "Cu",
        "xyz": [1.7960264253978642, 2.866347790511357, 0.5654402299086128]
      },
      {
        "species": [{ "element": "Cu", "occu": 1 }],
        "abc": [0.11508146, 0.71619858, 0.7574774400000001],
        "properties": { "magmom": 0.0 },
        "label": "Cu",
        "xyz": [-0.09648631914230534, 5.739712429726876, 5.78112933050293]
      },
      {
        "species": [{ "element": "Cu", "occu": 1 }],
        "abc": [0.6423969700000001, 0.041281860000000004, 0.7574774400000001],
        "properties": { "magmom": 0.0 },
        "label": "Cu",
        "xyz": [5.171423098182897, 0.3283729526721475, 6.286770512198398]
      },
      {
        "species": [{ "element": "Cu", "occu": 1 }],
        "abc": [0.11508146, 0.041281860000000004, 0.7574774400000001],
        "properties": { "magmom": 0.0 },
        "label": "Cu",
        "xyz": [0.8758142915167588, 0.3283729473989924, 8.09320853260994]
      },
      {
        "species": [{ "element": "Cu", "occu": 1 }],
        "abc": [0.6423969700000001, 0.71619858, 0.7574774400000001],
        "properties": { "magmom": 0.0 },
        "label": "Cu",
        "xyz": [4.199122487523833, 5.7397124350000315, 3.974691310091388]
      },
      {
        "species": [{ "element": "Cu", "occu": 1 }],
        "abc": [0.95871814, 0.88491854, 0.24252256],
        "properties": { "magmom": 0.0 },
        "label": "Cu",
        "xyz": [6.534358846080681, 7.094252002844383, -3.5530769926099386]
      },
      {
        "species": [{ "element": "Cu", "occu": 1 }],
        "abc": [0.95871814, 0.35760303, 0.24252256],
        "properties": { "magmom": 0.0 },
        "label": "Cu",
        "xyz": [7.294021745501807, 2.866347797260524, -1.7466389721983968]
      },
      {
        "species": [{ "element": "Cu", "occu": 1 }],
        "abc": [0.28380142, 0.88491854, 0.24252256],
        "properties": { "magmom": 0.0 },
        "label": "Cu",
        "xyz": [1.0363635259767388, 7.094251996095216, -1.2409977905029295]
      }
    ]
  },
  "task_ids": null,
  "uncorrected_energy_per_atom": null,
  "energy_per_atom": -14.771239006000002,
  "formation_energy_per_atom": -0.144846165,
  "energy_above_hull": 0.007857694666665001,
  "is_stable": false,
  "equilibrium_reaction_energy_per_atom": null,
  "decomposes_to": null,
  "xas": null,
  "grain_boundaries": null,
  "band_gap": 0.0,
  "cbm": null,
  "vbm": null,
  "efermi": 7.31037245,
  "is_gap_direct": null,
  "is_metal": null,
  "es_source_calc_id": null,
  "bandstructure": null,
  "dos": null,
  "dos_energy_up": null,
  "dos_energy_down": null,
  "is_magnetic": null,
  "ordering": null,
  "total_magnetization": 2.8e-6,
  "total_magnetization_normalized_vol": null,
  "total_magnetization_normalized_formula_units": null,
  "num_magnetic_sites": null,
  "num_unique_magnetic_sites": null,
  "types_of_magnetic_species": null,
  "bulk_modulus": null,
  "shear_modulus": null,
  "universal_anisotropy": null,
  "homogeneous_poisson": null,
  "e_total": null,
  "e_ionic": null,
  "e_electronic": null,
  "n": null,
  "e_ij_max": null,
  "weighted_surface_energy_EV_PER_ANG2": null,
  "weighted_surface_energy": null,
  "weighted_work_function": null,
  "surface_anisotropy": null,
  "shape_factor": null,
  "has_reconstructed": null,
  "possible_species": null,
  "has_props": null,
  "theoretical": null,
  "database_IDs": null,
  "fields_not_requested": [
    "builder_meta",
    "nsites",
    "elements",
    "nelements",
    "composition",
    "composition_reduced",
    "chemsys",
    "symmetry",
    "property_name",
    "deprecated",
    "deprecation_reasons",
    "last_updated",
    "origins",
    "warnings",
    "task_ids",
    "uncorrected_energy_per_atom",
    "equilibrium_reaction_energy_per_atom",
    "decomposes_to",
    "xas",
    "grain_boundaries",
    "cbm",
    "vbm",
    "is_gap_direct",
    "is_metal",
    "es_source_calc_id",
    "bandstructure",
    "dos",
    "dos_energy_up",
    "dos_energy_down",
    "is_magnetic",
    "ordering",
    "total_magnetization_normalized_vol",
    "total_magnetization_normalized_formula_units",
    "num_magnetic_sites",
    "num_unique_magnetic_sites",
    "types_of_magnetic_species",
    "bulk_modulus",
    "shear_modulus",
    "universal_anisotropy",
    "homogeneous_poisson",
    "e_total",
    "e_ionic",
    "e_electronic",
    "n",
    "e_ij_max",
    "weighted_surface_energy_EV_PER_ANG2",
    "weighted_surface_energy",
    "weighted_work_function",
    "surface_anisotropy",
    "shape_factor",
    "has_reconstructed",
    "possible_species",
    "has_props",
    "theoretical",
    "database_IDs"
  ]
}
