{
  "builder_meta": null,
  "nsites": null,
  "elements": null,
  "nelements": null,
  "composition": null,
  "composition_reduced": null,
  "formula_pretty": "LaF3",
  "formula_anonymous": "AB3",
  "chemsys": null,
  "volume": 326.1652750807279,
  "density": 5.984096220582201,
  "density_atomic": 13.590219795030329,
  "symmetry": null,
  "property_name": null,
  "material_id": "mp-905",
  "deprecated": null,
  "deprecation_reasons": null,
  "last_updated": null,
  "origins": null,
  "warnings": null,
  "structure": {
    "@module": "pymatgen.core.structure",
    "@class": "Structure",
    "charge": 0,
    "lattice": {
      "matrix": [
        [7.16720035, 0.0, -0.0],
        [-3.58359967, 6.20697791, 0.0],
        [-0.0, -0.0, 7.33175557]
      ],
      "pbc": [true, true, true],
      "a": 7.16720035,
      "b": 7.167200385788867,
      "c": 7.33175557,
      "alpha": 90.0,
      "beta": 90.0,
      "gamma": 119.99999517323161,
      "volume": 326.1652750807279
    },
    "properties": {},
    "sites": [
      {
        "species": [{ "element": "La", "occu": 1 }],
        "abc": [0.34180189, 0.34180189, 0.75],
        "properties": { "magmom": -0.0 },
        "label": "La",
        "xyz": [1.2248814854292853, 2.12155678082625, 5.498816677500001]
      },
      {
        "species": [{ "element": "La", "occu": 1 }],
        "abc": [0.0, 0.6581981100000001, 0.75],
        "properties": { "magmom": -0.0 },
        "label": "La",
        "xyz": [-2.358718529790624, 4.08542112917375, 5.498816677500001]
      },
      {
        "species": [{ "element": "La", "occu": 1 }],
        "abc": [0.6581981100000001, 0.0, 0.75],
        "properties": { "magmom": -0.0 },
        "label": "La",
        "xyz": [4.717437724361339, 0.0, 5.498816677500001]
      },
      {
        "species": [{ "element": "La", "occu": 1 }],
        "abc": [0.6581981100000001, 0.6581981100000001, 0.25],
        "properties": { "magmom": -0.0 },
        "label": "La",
        "xyz": [2.3587191945707153, 4.08542112917375, 1.8329388925]
      },
      {
        "species": [{ "element": "La", "occu": 1 }],
        "abc": [-0.0, 0.34180189, 0.25],
        "properties": { "magmom": -0.0 },
        "label": "La",
        "xyz": [-1.2248811402093762, 2.12155678082625, 1.8329388925]
      },
      {
        "species": [{ "element": "La", "occu": 1 }],
        "abc": [0.34180189, -0.0, 0.25],
        "properties": { "magmom": -0.0 },
        "label": "La",
        "xyz": [2.4497626256386615, 0.0, 1.8329388925]
      },
      {
        "species": [{ "element": "F", "occu": 1 }],
        "abc": [-0.0, -0.0, 0.75],
        "properties": { "magmom": 0.0 },
        "label": "F",
        "xyz": [0.0, 0.0, 5.498816677500001]
      },
      {
        "species": [{ "element": "F", "occu": 1 }],
        "abc": [-0.0, -0.0, 0.25],
        "properties": { "magmom": 0.0 },
        "label": "F",
        "xyz": [0.0, 0.0, 1.8329388925]
      },
      {
        "species": [{ "element": "F", "occu": 1 }],
        "abc": [0.333333, 0.666667, 0.81773157],
        "properties": { "magmom": 0.0 },
        "label": "F",
        "xyz": [-3.246933339973168e-6, 4.13798734232597, 5.9954079931123445]
      },
      {
        "species": [{ "element": "F", "occu": 1 }],
        "abc": [0.666667, 0.333333, 0.68226843],
        "properties": { "magmom": 0.0 },
        "label": "F",
        "xyz": [3.5836039269333404, 2.06899056767403, 5.002225361887656]
      },
      {
        "species": [{ "element": "F", "occu": 1 }],
        "abc": [0.666667, 0.333333, 0.18226843],
        "properties": { "magmom": 0.0 },
        "label": "F",
        "xyz": [3.5836039269333404, 2.06899056767403, 1.3363475768876552]
      },
      {
        "species": [{ "element": "F", "occu": 1 }],
        "abc": [0.333333, 0.666667, 0.31773157],
        "properties": { "magmom": 0.0 },
        "label": "F",
        "xyz": [-3.246933339973168e-6, 4.13798734232597, 2.3295302081123452]
      },
      {
        "species": [{ "element": "F", "occu": 1 }],
        "abc": [0.31185487, 0.94404266, 0.58139909],
        "properties": { "magmom": 0.0 },
        "label": "F",
        "xyz": [-1.147944631428718, 5.859651936717641, 4.262676016500431]
      },
      {
        "species": [{ "element": "F", "occu": 1 }],
        "abc": [0.05595734, 0.36781221000000003, 0.58139909],
        "properties": { "magmom": 0.0 },
        "label": "F",
        "xyz": [-0.9170342475449017, 2.283002262498281, 4.262676016500431]
      },
      {
        "species": [{ "element": "F", "occu": 1 }],
        "abc": [0.63218779, 0.68814513, 0.58139909],
        "properties": { "magmom": 0.0 },
        "label": "F",
        "xyz": [2.0649798889736193, 4.271301620784079, 4.262676016500431]
      },
      {
        "species": [{ "element": "F", "occu": 1 }],
        "abc": [0.36781221000000003, 0.05595734, 0.91860091],
        "properties": { "magmom": 0.0 },
        "label": "F",
        "xyz": [2.4356550950881957, 0.3473259732823594, 6.734957338499569]
      },
      {
        "species": [{ "element": "F", "occu": 1 }],
        "abc": [0.68814513, 0.63218779, 0.91860091],
        "properties": { "magmom": 0.0 },
        "label": "F",
        "xyz": [2.6665660609647657, 3.923975647501719, 6.734957338499569]
      },
      {
        "species": [{ "element": "F", "occu": 1 }],
        "abc": [0.94404266, 0.31185487, 0.91860091],
        "properties": { "magmom": 0.0 },
        "label": "F",
        "xyz": [5.648579873947038, 1.9356762892159218, 6.734957338499569]
      },
      {
        "species": [{ "element": "F", "occu": 1 }],
        "abc": [0.68814513, 0.05595734, 0.41860091],
        "properties": { "magmom": 0.0 },
        "label": "F",
        "xyz": [4.731545311428717, 0.3473259732823594, 3.0690795534995687]
      },
      {
        "species": [{ "element": "F", "occu": 1 }],
        "abc": [0.94404266, 0.63218779, 0.41860091],
        "properties": { "magmom": 0.0 },
        "label": "F",
        "xyz": [4.500634927544901, 3.923975647501719, 3.0690795534995687]
      },
      {
        "species": [{ "element": "F", "occu": 1 }],
        "abc": [0.36781221000000003, 0.31185487, 0.41860091],
        "properties": { "magmom": 0.0 },
        "label": "F",
        "xyz": [1.5186207910263807, 1.9356762892159218, 3.0690795534995687]
      },
      {
        "species": [{ "element": "F", "occu": 1 }],
        "abc": [0.63218779, 0.94404266, 0.08139909000000001],
        "properties": { "magmom": 0.0 },
        "label": "F",
        "xyz": [1.1479455849118039, 5.859651936717641, 0.5967982315004314]
      },
      {
        "species": [{ "element": "F", "occu": 1 }],
        "abc": [0.31185487, 0.36781221000000003, 0.08139909000000001],
        "properties": { "magmom": 0.0 },
        "label": "F",
        "xyz": [0.9170346190352336, 2.283002262498281, 0.5967982315004314]
      },
      {
        "species": [{ "element": "F", "occu": 1 }],
        "abc": [0.05595734, 0.68814513, 0.08139909000000001],
        "properties": { "magmom": 0.0 },
        "label": "F",
        "xyz": [-2.064979193947038, 4.271301620784079, 0.5967982315004314]
      }
    ]
  },
  "task_ids": null,
  "uncorrected_energy_per_atom": null,
  "energy_per_atom": -14.288984524583334,
  "formation_energy_per_atom": -4.508268510833333,
  "energy_above_hull": 0.0,
  "is_stable": true,
  "equilibrium_reaction_energy_per_atom": null,
  "decomposes_to": null,
  "xas": null,
  "grain_boundaries": null,
  "band_gap": 6.042899999999999,
  "cbm": null,
  "vbm": null,
  "efermi": 2.29843964,
  "is_gap_direct": null,
  "is_metal": null,
  "es_source_calc_id": null,
  "bandstructure": null,
  "dos": null,
  "dos_energy_up": null,
  "dos_energy_down": null,
  "is_magnetic": null,
  "ordering": null,
  "total_magnetization": 0.000257299999999,
  "total_magnetization_normalized_vol": null,
  "total_magnetization_normalized_formula_units": null,
  "num_magnetic_sites": null,
  "num_unique_magnetic_sites": null,
  "types_of_magnetic_species": null,
  "bulk_modulus": null,
  "shear_modulus": null,
  "universal_anisotropy": null,
  "homogeneous_poisson": null,
  "e_total": null,
  "e_ionic": null,
  "e_electronic": null,
  "n": null,
  "e_ij_max": null,
  "weighted_surface_energy_EV_PER_ANG2": null,
  "weighted_surface_energy": null,
  "weighted_work_function": null,
  "surface_anisotropy": null,
  "shape_factor": null,
  "has_reconstructed": null,
  "possible_species": null,
  "has_props": null,
  "theoretical": null,
  "database_IDs": null,
  "fields_not_requested": [
    "builder_meta",
    "nsites",
    "elements",
    "nelements",
    "composition",
    "composition_reduced",
    "chemsys",
    "symmetry",
    "property_name",
    "deprecated",
    "deprecation_reasons",
    "last_updated",
    "origins",
    "warnings",
    "task_ids",
    "uncorrected_energy_per_atom",
    "equilibrium_reaction_energy_per_atom",
    "decomposes_to",
    "xas",
    "grain_boundaries",
    "cbm",
    "vbm",
    "is_gap_direct",
    "is_metal",
    "es_source_calc_id",
    "bandstructure",
    "dos",
    "dos_energy_up",
    "dos_energy_down",
    "is_magnetic",
    "ordering",
    "total_magnetization_normalized_vol",
    "total_magnetization_normalized_formula_units",
    "num_magnetic_sites",
    "num_unique_magnetic_sites",
    "types_of_magnetic_species",
    "bulk_modulus",
    "shear_modulus",
    "universal_anisotropy",
    "homogeneous_poisson",
    "e_total",
    "e_ionic",
    "e_electronic",
    "n",
    "e_ij_max",
    "weighted_surface_energy_EV_PER_ANG2",
    "weighted_surface_energy",
    "weighted_work_function",
    "surface_anisotropy",
    "shape_factor",
    "has_reconstructed",
    "possible_species",
    "has_props",
    "theoretical",
    "database_IDs"
  ]
}
