{"builder_meta": null, "nsites": null, "elements": null, "nelements": null, "composition": null, "composition_reduced": null, "formula_pretty": "LaGa6", "formula_anonymous": "AB6", "chemsys": null, "volume": 282.7255295071506, "density": 6.545744582427899, "density_atomic": 20.194680679082186, "symmetry": null, "property_name": null, "material_id": "mp-644739", "deprecated": null, "deprecation_reasons": null, "last_updated": null, "origins": null, "warnings": null, "structure": {"@module": "pymatgen.core.structure", "@class": "Structure", "charge": 0, "lattice": {"matrix": [[6.06056003, -1.6760000000000002e-05, -2.6230000000000005e-05], [-2.888e-05, 6.06055065, -0.00015984000000000001], [-3.24e-05, -0.00011631, 7.69733138]], "pbc": [true, true, true], "a": 6.060560030079936, "b": 6.060550652176608, "c": 7.697331380946936, "alpha": 90.00237687259893, "beta": 90.0004891450767, "gamma": 90.00043146875663, "volume": 282.7255295071506}, "properties": {}, "sites": [{"species": [{"element": "La", "occu": 1}], "abc": [1.3120000000000001e-05, 0.49998192, -2.08e-06], "properties": {"magmom": 0.0}, "label": "La", "xyz": [6.507513713600001e-05, 3.0301657502662813, -9.592790350080002e-05]}, {"species": [{"element": "La", "occu": 1}], "abc": [0.50001532, -2.2660000000000003e-05, -4.2e-06], "properties": {"magmom": -0.0}, "label": "La", "xyz": [3.030372863570161, -0.00014571184599020001, -4.54405716652e-05]}, {"species": [{"element": "Ga", "occu": 1}], "abc": [0.500005399999999, 0.49999015, 0.16088011], "properties": {"magmom": 0.0}, "label": "Ga", "xyz": [3.03029308979306, 3.0301885365199994, 1.2382544855536337]}, {"species": [{"element": "Ga", "occu": 1}], "abc": [1.597e-05, -4.308e-05, 0.83912317], "properties": {"magmom": 0.0}, "label": "Ga", "xyz": [6.96007971215e-05, -0.00035868720556189997, 6.459009114593089]}, {"species": [{"element": "Ga", "occu": 1}], "abc": [0.49998489, 0.49997545, 0.83903385], "properties": {"magmom": 0.0}, "label": "Ga", "xyz": [3.0301468159502107, 3.030020570707692, 6.45822855180762]}, {"species": [{"element": "Ga", "occu": 1}], "abc": [4.0830000000000014e-05, 3.927e-05, 0.16098023], "properties": {"magmom": 0.0}, "label": "Ga", "xyz": [0.0002422357724553001, 0.0002192735291634, 1.2391181685907298]}, {"species": [{"element": "Ga", "occu": 1}], "abc": [0.21752838, 0.71750565, 0.34411485], "properties": {"magmom": 0.0}, "label": "Ga", "xyz": [1.3183119343343392, 4.34843566371232, 2.64864564135649]}, {"species": [{"element": "Ga", "occu": 1}], "abc": [0.78240717, 0.28253205, 0.34415201], "properties": {"magmom": 0.0}, "label": "Ga", "xyz": [4.741806311636688, 1.71224665780888, 2.648986383600133]}, {"species": [{"element": "Ga", "occu": 1}], "abc": [0.717606099999999, 0.21745497, 0.6559234700000001], "properties": {"magmom": 0.0}, "label": "Ga", "xyz": [4.349067314924215, 1.3178085422421988, 5.0488067276990805]}, {"species": [{"element": "Ga", "occu": 1}], "abc": [0.28248567, 0.78249196, 0.65588258], "properties": {"magmom": 0.0}, "label": "Ga", "xyz": [1.7119775116863734, 4.742251136635065, 5.048413081515349]}, {"species": [{"element": "Ga", "occu": 1}], "abc": [0.2175908, 0.28234523, 0.65592005], "properties": {"magmom": 0.0}, "label": "Ga", "xyz": [1.3186926994358616, 1.711087630318076, 5.048783146167921]}, {"species": [{"element": "Ga", "occu": 1}], "abc": [0.78248841, 0.71750017, 0.65583154], "properties": {"magmom": 0.0}, "label": "Ga", "xyz": [4.742276011237448, 4.348356727396442, 5.048017482937557]}, {"species": [{"element": "Ga", "occu": 1}], "abc": [0.717384599999999, 0.78257159, 0.34407332], "properties": {"magmom": 0.0}, "label": "Ga", "xyz": [4.347718684254446, 4.7427627159122885, 2.6483024598157776]}, {"species": [{"element": "Ga", "occu": 1}], "abc": [0.28243533, 0.21767633, 0.34409411], "properties": {"magmom": 0.0}, "label": "Ga", "xyz": [1.7116988369162855, 1.3191936680690495, 2.6485641889128786]}]}, "task_ids": null, "uncorrected_energy_per_atom": null, "energy_per_atom": -14.471698024285715, "formation_energy_per_atom": -0.414350037857143, "energy_above_hull": 0.0, "is_stable": true, "equilibrium_reaction_energy_per_atom": null, "decomposes_to": null, "xas": null, "grain_boundaries": null, "band_gap": 0.0, "cbm": null, "vbm": null, "efermi": 4.70209202, "is_gap_direct": null, "is_metal": null, "es_source_calc_id": null, "bandstructure": null, "dos": null, "dos_energy_up": null, "dos_energy_down": null, "is_magnetic": null, "ordering": null, "total_magnetization": 2.05e-05, "total_magnetization_normalized_vol": null, "total_magnetization_normalized_formula_units": null, "num_magnetic_sites": null, "num_unique_magnetic_sites": null, "types_of_magnetic_species": null, "bulk_modulus": null, "shear_modulus": null, "universal_anisotropy": null, "homogeneous_poisson": null, "e_total": null, "e_ionic": null, "e_electronic": null, "n": null, "e_ij_max": null, "weighted_surface_energy_EV_PER_ANG2": null, "weighted_surface_energy": null, "weighted_work_function": null, "surface_anisotropy": null, "shape_factor": null, "has_reconstructed": null, "possible_species": null, "has_props": null, "theoretical": null, "database_IDs": null, "fields_not_requested": ["builder_meta", "nsites", "elements", "nelements", "composition", "composition_reduced", "chemsys", "symmetry", "property_name", "deprecated", "deprecation_reasons", "last_updated", "origins", "warnings", "task_ids", "uncorrected_energy_per_atom", "equilibrium_reaction_energy_per_atom", "decomposes_to", "xas", "grain_boundaries", "cbm", "vbm", "is_gap_direct", "is_metal", "es_source_calc_id", "bandstructure", "dos", "dos_energy_up", "dos_energy_down", "is_magnetic", "ordering", "total_magnetization_normalized_vol", "total_magnetization_normalized_formula_units", "num_magnetic_sites", "num_unique_magnetic_sites", "types_of_magnetic_species", "bulk_modulus", "shear_modulus", "universal_anisotropy", "homogeneous_poisson", "e_total", "e_ionic", "e_electronic", "n", "e_ij_max", "weighted_surface_energy_EV_PER_ANG2", "weighted_surface_energy", "weighted_work_function", "surface_anisotropy", "shape_factor", "has_reconstructed", "possible_species", "has_props", "theoretical", "database_IDs"]}