{"builder_meta": null, "nsites": null, "elements": null, "nelements": null, "composition": null, "composition_reduced": null, "formula_pretty": "LaGa", "formula_anonymous": "AB", "chemsys": null, "volume": 111.81057976745174, "density": 6.196832635346626, "density_atomic": 27.952644941862935, "symmetry": null, "property_name": null, "material_id": "mp-1002133", "deprecated": null, "deprecation_reasons": null, "last_updated": null, "origins": null, "warnings": null, "structure": {"@module": "pymatgen.core.structure", "@class": "Structure", "charge": 0, "lattice": {"matrix": [[-0.0, 0.0, 4.25725253], [4.59008117, -1e-08, 0.0], [-2.29504214, 5.7218059100000005, -0.0]], "pbc": [true, true, true], "a": 4.25725253, "b": 4.59008117, "c": 6.164923462305652, "alpha": 111.8559436545823, "beta": 90.0, "gamma": 90.0, "volume": 111.81057976745176}, "properties": {}, "sites": [{"species": [{"element": "La", "occu": 1}], "abc": [0.25, 0.13953973, 0.27907946], "properties": {"magmom": 0.043000000000000003}, "label": "La", "xyz": [-4.3396856030941677e-07, 1.5968385021922114, 1.0643131325]}, {"species": [{"element": "La", "occu": 1}], "abc": [0.75, 0.86046027, 0.72092054], "properties": {"magmom": 0.043000000000000003}, "label": "La", "xyz": [2.2950394639685605, 4.12496739780779, 3.1929393975]}, {"species": [{"element": "Ga", "occu": 1}], "abc": [0.25, 0.43278541, 0.86556882], "properties": {"magmom": -0.007}, "label": "Ga", "xyz": [3.2441216548662055e-06, 4.952616785459872, 1.0643131325]}, {"species": [{"element": "Ga", "occu": 1}], "abc": [0.75, 0.56721459, 0.13443118], "properties": {"magmom": -0.007}, "label": "Ga", "xyz": [2.295035785878345, 0.7691891145401281, 3.1929393975]}]}, "task_ids": null, "uncorrected_energy_per_atom": null, "energy_per_atom": -21.2895670475, "formation_energy_per_atom": -0.6957889699999981, "energy_above_hull": 0.0, "is_stable": true, "equilibrium_reaction_energy_per_atom": null, "decomposes_to": null, "xas": null, "grain_boundaries": null, "band_gap": 0.0, "cbm": null, "vbm": null, "efermi": 6.00823503, "is_gap_direct": null, "is_metal": null, "es_source_calc_id": null, "bandstructure": null, "dos": null, "dos_energy_up": null, "dos_energy_down": null, "is_magnetic": null, "ordering": null, "total_magnetization": 0.23418049999999901, "total_magnetization_normalized_vol": null, "total_magnetization_normalized_formula_units": null, "num_magnetic_sites": null, "num_unique_magnetic_sites": null, "types_of_magnetic_species": null, "bulk_modulus": null, "shear_modulus": null, "universal_anisotropy": null, "homogeneous_poisson": null, "e_total": null, "e_ionic": null, "e_electronic": null, "n": null, "e_ij_max": null, "weighted_surface_energy_EV_PER_ANG2": null, "weighted_surface_energy": null, "weighted_work_function": null, "surface_anisotropy": null, "shape_factor": null, "has_reconstructed": null, "possible_species": null, "has_props": null, "theoretical": null, "database_IDs": null, "fields_not_requested": ["builder_meta", "nsites", "elements", "nelements", "composition", "composition_reduced", "chemsys", "symmetry", "property_name", "deprecated", "deprecation_reasons", "last_updated", "origins", "warnings", "task_ids", "uncorrected_energy_per_atom", "equilibrium_reaction_energy_per_atom", "decomposes_to", "xas", "grain_boundaries", "cbm", "vbm", "is_gap_direct", "is_metal", "es_source_calc_id", "bandstructure", "dos", "dos_energy_up", "dos_energy_down", "is_magnetic", "ordering", "total_magnetization_normalized_vol", "total_magnetization_normalized_formula_units", "num_magnetic_sites", "num_unique_magnetic_sites", "types_of_magnetic_species", "bulk_modulus", "shear_modulus", "universal_anisotropy", "homogeneous_poisson", "e_total", "e_ionic", "e_electronic", "n", "e_ij_max", "weighted_surface_energy_EV_PER_ANG2", "weighted_surface_energy", "weighted_work_function", "surface_anisotropy", "shape_factor", "has_reconstructed", "possible_species", "has_props", "theoretical", "database_IDs"]}