{"builder_meta": null, "nsites": null, "elements": null, "nelements": null, "composition": null, "composition_reduced": null, "formula_pretty": "LaGd3", "formula_anonymous": "AB3", "chemsys": null, "volume": 283.2846273727264, "density": 7.1589995798381985, "density_atomic": 35.4105784215908, "symmetry": null, "property_name": null, "material_id": "mp-1185460", "deprecated": null, "deprecation_reasons": null, "last_updated": null, "origins": null, "warnings": null, "structure": {"@module": "pymatgen.core.structure", "@class": "Structure", "charge": 0, "lattice": {"matrix": [[3.70685814, -6.42028357, 0.0], [3.70681797, 6.42026017, 0.0], [0.0, 0.0, 5.95163077]], "pbc": [true, true, true], "a": 7.4135577416849054, "b": 7.413517391441349, "c": 5.95163077, "alpha": 90.0, "beta": 90.0, "gamma": 119.99876361514814, "volume": 283.2846273727264}, "properties": {}, "sites": [{"species": [{"element": "La", "occu": 1}], "abc": [0.66666873, 0.333335899999999, 0.25], "properties": {"magmom": 0.249}, "label": "La", "xyz": [3.7068619126500817, -2.1400990918506695, 1.4879076925]}, {"species": [{"element": "La", "occu": 1}], "abc": [0.33333127, 0.6666641, 0.75], "properties": {"magmom": 0.249}, "label": "La", "xyz": [3.7068141973499147, 2.140075691850663, 4.4637230775]}, {"species": [{"element": "Gd", "occu": 1}], "abc": [0.83736603, 0.16263467, 0.75], "properties": {"magmom": 7.365}, "label": "Gd", "xyz": [3.7068542017660038, -4.331970470423033, 4.4637230775]}, {"species": [{"element": "Gd", "occu": 1}], "abc": [0.32526867, 0.1626359, 0.75], "properties": {"magmom": 7.365}, "label": "Gd", "xyz": [1.8085864937635967, -1.0441523068546485, 4.4637230775]}, {"species": [{"element": "Gd", "occu": 1}], "abc": [0.83736516, 0.67473191, 0.75], "properties": {"magmom": 7.365}, "label": "Gd", "xyz": [5.605102228418826, -1.0441673716373963, 4.4637230775]}, {"species": [{"element": "Gd", "occu": 1}], "abc": [0.16263397000000002, 0.83736533, 0.25], "properties": {"magmom": 7.365}, "label": "Gd", "xyz": [3.706821908233996, 4.331947070423033, 1.4879076925]}, {"species": [{"element": "Gd", "occu": 1}], "abc": [0.67473133, 0.8373641, 0.25], "properties": {"magmom": 7.365}, "label": "Gd", "xyz": [5.605089616236403, 1.0441289068546489, 1.4879076925]}, {"species": [{"element": "Gd", "occu": 1}], "abc": [0.16263484, 0.32526809, 0.25], "properties": {"magmom": 7.365}, "label": "Gd", "xyz": [1.808573881581175, 1.0441439716373964, 1.4879076925]}]}, "task_ids": null, "uncorrected_energy_per_atom": null, "energy_per_atom": -39.97019450875, "formation_energy_per_atom": 0.013754517500011, "energy_above_hull": 0.013754517500011, "is_stable": false, "equilibrium_reaction_energy_per_atom": null, "decomposes_to": null, "xas": null, "grain_boundaries": null, "band_gap": 0.0, "cbm": null, "vbm": null, "efermi": 4.18408171, "is_gap_direct": null, "is_metal": null, "es_source_calc_id": null, "bandstructure": null, "dos": null, "dos_energy_up": null, "dos_energy_down": null, "is_magnetic": null, "ordering": null, "total_magnetization": 49.2568729, "total_magnetization_normalized_vol": null, "total_magnetization_normalized_formula_units": null, "num_magnetic_sites": null, "num_unique_magnetic_sites": null, "types_of_magnetic_species": null, "bulk_modulus": null, "shear_modulus": null, "universal_anisotropy": null, "homogeneous_poisson": null, "e_total": null, "e_ionic": null, "e_electronic": null, "n": null, "e_ij_max": null, "weighted_surface_energy_EV_PER_ANG2": null, "weighted_surface_energy": null, "weighted_work_function": null, "surface_anisotropy": null, "shape_factor": null, "has_reconstructed": null, "possible_species": null, "has_props": null, "theoretical": null, "database_IDs": null, "fields_not_requested": ["builder_meta", "nsites", "elements", "nelements", "composition", "composition_reduced", "chemsys", "symmetry", "property_name", "deprecated", "deprecation_reasons", "last_updated", "origins", "warnings", "task_ids", "uncorrected_energy_per_atom", "equilibrium_reaction_energy_per_atom", "decomposes_to", "xas", "grain_boundaries", "cbm", "vbm", "is_gap_direct", "is_metal", "es_source_calc_id", "bandstructure", "dos", "dos_energy_up", "dos_energy_down", "is_magnetic", "ordering", "total_magnetization_normalized_vol", "total_magnetization_normalized_formula_units", "num_magnetic_sites", "num_unique_magnetic_sites", "types_of_magnetic_species", "bulk_modulus", "shear_modulus", "universal_anisotropy", "homogeneous_poisson", "e_total", "e_ionic", "e_electronic", "n", "e_ij_max", "weighted_surface_energy_EV_PER_ANG2", "weighted_surface_energy", "weighted_work_function", "surface_anisotropy", "shape_factor", "has_reconstructed", "possible_species", "has_props", "theoretical", "database_IDs"]}