{"builder_meta": null, "nsites": null, "elements": null, "nelements": null, "composition": null, "composition_reduced": null, "formula_pretty": "LaGe5", "formula_anonymous": "AB5", "chemsys": null, "volume": 126.85553287238727, "density": 6.572561161579737, "density_atomic": 21.142588812064545, "symmetry": null, "property_name": null, "material_id": "mp-1025100", "deprecated": null, "deprecation_reasons": null, "last_updated": null, "origins": null, "warnings": null, "structure": {"@module": "pymatgen.core.structure", "@class": "Structure", "charge": 0, "lattice": {"matrix": [[-3.99029051, -0.0, -1e-08], [-1.99514474, -3.16774902, 5.01792467], [-1.99514474, 3.16774902, 5.01792467]], "pbc": [true, true, true], "a": 3.99029051, "b": 6.260575403351934, "c": 6.260575403351934, "alpha": 60.79334687042191, "beta": 71.4166472345206, "gamma": 71.4166472345206, "volume": 126.85553287238727}, "properties": {}, "sites": [{"species": [{"element": "La", "occu": 1}], "abc": [0.0, -0.0, -0.0], "properties": {"magmom": -0.0}, "label": "La", "xyz": [0.0, 0.0, 0.0]}, {"species": [{"element": "Ge", "occu": 1}], "abc": [0.6732755500000001, 0.12938198, 0.52406693], "properties": {"magmom": -0.0}, "label": "Ge", "xyz": [-3.990290193425264, 1.250262863571249, 3.2789573993408547]}, {"species": [{"element": "Ge", "occu": 1}], "abc": [0.32672445, 0.87061802, 0.47593307], "properties": {"magmom": -0.0}, "label": "Ge", "xyz": [-3.9902897965747357, -1.2502628635712492, 6.756891930659146]}, {"species": [{"element": "Ge", "occu": 1}], "abc": [0.6732755500000001, 0.52406693, 0.12938198], "properties": {"magmom": -0.0}, "label": "Ge", "xyz": [-3.990290193425264, -1.250262863571249, 3.2789573993408543]}, {"species": [{"element": "Ge", "occu": 1}], "abc": [0.32672445, 0.47593307, 0.87061802], "properties": {"magmom": -0.0}, "label": "Ge", "xyz": [-3.990289796574736, 1.2502628635712492, 6.756891930659146]}, {"species": [{"element": "Ge", "occu": 1}], "abc": [0.0, 0.5, 0.5], "properties": {"magmom": 0.0}, "label": "Ge", "xyz": [-1.99514474, 0.0, 5.01792467]}]}, "task_ids": null, "uncorrected_energy_per_atom": null, "energy_per_atom": -16.787844215, "formation_energy_per_atom": -0.270399530833335, "energy_above_hull": 0.11232692416666201, "is_stable": false, "equilibrium_reaction_energy_per_atom": null, "decomposes_to": null, "xas": null, "grain_boundaries": null, "band_gap": 0.0, "cbm": null, "vbm": null, "efermi": 6.82001467, "is_gap_direct": null, "is_metal": null, "es_source_calc_id": null, "bandstructure": null, "dos": null, "dos_energy_up": null, "dos_energy_down": null, "is_magnetic": null, "ordering": null, "total_magnetization": 0.0, "total_magnetization_normalized_vol": null, "total_magnetization_normalized_formula_units": null, "num_magnetic_sites": null, "num_unique_magnetic_sites": null, "types_of_magnetic_species": null, "bulk_modulus": null, "shear_modulus": null, "universal_anisotropy": null, "homogeneous_poisson": null, "e_total": null, "e_ionic": null, "e_electronic": null, "n": null, "e_ij_max": null, "weighted_surface_energy_EV_PER_ANG2": null, "weighted_surface_energy": null, "weighted_work_function": null, "surface_anisotropy": null, "shape_factor": null, "has_reconstructed": null, "possible_species": null, "has_props": null, "theoretical": null, "database_IDs": null, "fields_not_requested": ["builder_meta", "nsites", "elements", "nelements", "composition", "composition_reduced", "chemsys", "symmetry", "property_name", "deprecated", "deprecation_reasons", "last_updated", "origins", "warnings", "task_ids", "uncorrected_energy_per_atom", "equilibrium_reaction_energy_per_atom", "decomposes_to", "xas", "grain_boundaries", "cbm", "vbm", "is_gap_direct", "is_metal", "es_source_calc_id", "bandstructure", "dos", "dos_energy_up", "dos_energy_down", "is_magnetic", "ordering", "total_magnetization_normalized_vol", "total_magnetization_normalized_formula_units", "num_magnetic_sites", "num_unique_magnetic_sites", "types_of_magnetic_species", "bulk_modulus", "shear_modulus", "universal_anisotropy", "homogeneous_poisson", "e_total", "e_ionic", "e_electronic", "n", "e_ij_max", "weighted_surface_energy_EV_PER_ANG2", "weighted_surface_energy", "weighted_work_function", "surface_anisotropy", "shape_factor", "has_reconstructed", "possible_species", "has_props", "theoretical", "database_IDs"]}