{"builder_meta": null, "nsites": null, "elements": null, "nelements": null, "composition": null, "composition_reduced": null, "formula_pretty": "LaGe2", "formula_anonymous": "AB2", "chemsys": null, "volume": 146.3900903733194, "density": 6.447172399329149, "density_atomic": 24.39834839555323, "symmetry": null, "property_name": null, "material_id": "mp-19761", "deprecated": null, "deprecation_reasons": null, "last_updated": null, "origins": null, "warnings": null, "structure": {"@module": "pymatgen.core.structure", "@class": "Structure", "charge": 0, "lattice": {"matrix": [[-2.160492, 2.160492, 7.840547], [2.160492, -2.160492, 7.840547], [2.160492, 2.160492, -7.840547]], "pbc": [true, true, true], "a": 8.4148457278394, "b": 8.4148457278394, "c": 8.4148457278394, "alpha": 150.24566543877037, "beta": 150.24566543877037, "gamma": 42.58091219814235, "volume": 146.3900903733194}, "properties": {}, "sites": [{"species": [{"element": "La", "occu": 1}], "abc": [0.25, 0.75, 0.5], "properties": {"magmom": -0.0}, "label": "La", "xyz": [2.1604920000000005, -2.220446049250313e-16, 3.9202735]}, {"species": [{"element": "La", "occu": 1}], "abc": [0.5, 0.5, 0.0], "properties": {"magmom": -0.0}, "label": "La", "xyz": [0.0, 0.0, 7.840547]}, {"species": [{"element": "Ge", "occu": 1}], "abc": [0.667876, 0.167876, 0.5], "properties": {"magmom": 0.0}, "label": "Ge", "xyz": [-2.220446049250313e-16, 2.1604920000000005, 2.632479336344]}, {"species": [{"element": "Ge", "occu": 1}], "abc": [0.082124, 0.082124, 0.0], "properties": {"magmom": 0.0}, "label": "Ge", "xyz": [0.0, 0.0, 1.287794163656]}, {"species": [{"element": "Ge", "occu": 1}], "abc": [0.832124, 0.332124, 0.5], "properties": {"magmom": 0.0}, "label": "Ge", "xyz": [0.0, 2.160492, 5.208067663655999]}, {"species": [{"element": "Ge", "occu": 1}], "abc": [0.917875999999999, 0.917875999999999, 0.0], "properties": {"magmom": 0.0}, "label": "Ge", "xyz": [0.0, 0.0, 14.393299836343985]}]}, "task_ids": null, "uncorrected_energy_per_atom": null, "energy_per_atom": -19.922462682916663, "formation_energy_per_atom": -0.759550894583332, "energy_above_hull": 0.0059020154166690006, "is_stable": false, "equilibrium_reaction_energy_per_atom": null, "decomposes_to": null, "xas": null, "grain_boundaries": null, "band_gap": 0.0, "cbm": null, "vbm": null, "efermi": 7.33949393, "is_gap_direct": null, "is_metal": null, "es_source_calc_id": null, "bandstructure": null, "dos": null, "dos_energy_up": null, "dos_energy_down": null, "is_magnetic": null, "ordering": null, "total_magnetization": 0.00045539999999900005, "total_magnetization_normalized_vol": null, "total_magnetization_normalized_formula_units": null, "num_magnetic_sites": null, "num_unique_magnetic_sites": null, "types_of_magnetic_species": null, "bulk_modulus": null, "shear_modulus": null, "universal_anisotropy": null, "homogeneous_poisson": null, "e_total": null, "e_ionic": null, "e_electronic": null, "n": null, "e_ij_max": null, "weighted_surface_energy_EV_PER_ANG2": null, "weighted_surface_energy": null, "weighted_work_function": null, "surface_anisotropy": null, "shape_factor": null, "has_reconstructed": null, "possible_species": null, "has_props": null, "theoretical": null, "database_IDs": null, "fields_not_requested": ["builder_meta", "nsites", "elements", "nelements", "composition", "composition_reduced", "chemsys", "symmetry", "property_name", "deprecated", "deprecation_reasons", "last_updated", "origins", "warnings", "task_ids", "uncorrected_energy_per_atom", "equilibrium_reaction_energy_per_atom", "decomposes_to", "xas", "grain_boundaries", "cbm", "vbm", "is_gap_direct", "is_metal", "es_source_calc_id", "bandstructure", "dos", "dos_energy_up", "dos_energy_down", "is_magnetic", "ordering", "total_magnetization_normalized_vol", "total_magnetization_normalized_formula_units", "num_magnetic_sites", "num_unique_magnetic_sites", "types_of_magnetic_species", "bulk_modulus", "shear_modulus", "universal_anisotropy", "homogeneous_poisson", "e_total", "e_ionic", "e_electronic", "n", "e_ij_max", "weighted_surface_energy_EV_PER_ANG2", "weighted_surface_energy", "weighted_work_function", "surface_anisotropy", "shape_factor", "has_reconstructed", "possible_species", "has_props", "theoretical", "database_IDs"]}