{"builder_meta": null, "nsites": null, "elements": null, "nelements": null, "composition": null, "composition_reduced": null, "formula_pretty": "LaGe", "formula_anonymous": "AB", "chemsys": null, "volume": 215.2516625915171, "density": 6.527791944889757, "density_atomic": 26.906457823939636, "symmetry": null, "property_name": null, "material_id": "mp-1084830", "deprecated": null, "deprecation_reasons": null, "last_updated": null, "origins": null, "warnings": null, "structure": {"@module": "pymatgen.core.structure", "@class": "Structure", "charge": 0, "lattice": {"matrix": [[-4.59200931, 0.00080238, 0.0], [0.0, 0.0, -6.76916224], [2.29720357, -6.92522686, 0.0]], "pbc": [true, true, true], "a": 4.592009380101519, "b": 6.76916224, "c": 7.2962943542928835, "alpha": 90.0, "beta": 108.36148303800329, "gamma": 90.0, "volume": 215.2516625915171}, "properties": {}, "sites": [{"species": [{"element": "La", "occu": 1}], "abc": [0.95257011, 0.25, 0.90502098], "properties": {"magmom": 0.029}, "label": "La", "xyz": [-2.295193387366825, -6.266711276354661, -1.69229056]}, {"species": [{"element": "La", "occu": 1}], "abc": [0.04742989, 0.75, 0.09497902], "properties": {"magmom": 0.029}, "label": "La", "xyz": [0.0003876473668255054, -0.657713203645339, -5.07687168]}, {"species": [{"element": "La", "occu": 1}], "abc": [0.77452581, 0.75, 0.54917189], "properties": {"magmom": 0.052000000000000005}, "label": "La", "xyz": [-2.295070104103644, -3.8025184593655377, -5.07687168]}, {"species": [{"element": "La", "occu": 1}], "abc": [0.22547319000000002, 0.25, 0.45082611], "properties": {"magmom": 0.052000000000000005}, "label": "La", "xyz": [0.00026436170581378704, -3.1218921709831227, -1.69229056]}, {"species": [{"element": "Ge", "occu": 1}], "abc": [0.59914131, 0.05604274, 0.19795874], "properties": {"magmom": -0.007}, "label": "Ge", "xyz": [-2.2965109492848943, -1.3704284444154387, -0.37936239943413763]}, {"species": [{"element": "Ge", "occu": 1}], "abc": [0.40085869, 0.94395726, 0.80204226], "properties": {"magmom": -0.007}, "label": "Ge", "xyz": [0.0017075064884644053, -5.554002960811422, -6.389799840565862]}, {"species": [{"element": "Ge", "occu": 1}], "abc": [0.59914131, 0.44395726, 0.19795874], "properties": {"magmom": -0.007}, "label": "Ge", "xyz": [-2.2965109492848943, -1.3704284444154387, -3.0052187205658627]}, {"species": [{"element": "Ge", "occu": 1}], "abc": [0.40085869, 0.55604274, 0.80204226], "properties": {"magmom": -0.007}, "label": "Ge", "xyz": [0.0017075064884644053, -5.554002960811422, -3.7639435194341373]}]}, "task_ids": null, "uncorrected_energy_per_atom": null, "energy_per_atom": -22.7589246975, "formation_energy_per_atom": -0.9505458049999971, "energy_above_hull": 0.0, "is_stable": true, "equilibrium_reaction_energy_per_atom": null, "decomposes_to": null, "xas": null, "grain_boundaries": null, "band_gap": 0.0, "cbm": null, "vbm": null, "efermi": 7.64450773, "is_gap_direct": null, "is_metal": null, "es_source_calc_id": null, "bandstructure": null, "dos": null, "dos_energy_up": null, "dos_energy_down": null, "is_magnetic": null, "ordering": null, "total_magnetization": 0.455252899999999, "total_magnetization_normalized_vol": null, "total_magnetization_normalized_formula_units": null, "num_magnetic_sites": null, "num_unique_magnetic_sites": null, "types_of_magnetic_species": null, "bulk_modulus": null, "shear_modulus": null, "universal_anisotropy": null, "homogeneous_poisson": null, "e_total": null, "e_ionic": null, "e_electronic": null, "n": null, "e_ij_max": null, "weighted_surface_energy_EV_PER_ANG2": null, "weighted_surface_energy": null, "weighted_work_function": null, "surface_anisotropy": null, "shape_factor": null, "has_reconstructed": null, "possible_species": null, "has_props": null, "theoretical": null, "database_IDs": null, "fields_not_requested": ["builder_meta", "nsites", "elements", "nelements", "composition", "composition_reduced", "chemsys", "symmetry", "property_name", "deprecated", "deprecation_reasons", "last_updated", "origins", "warnings", "task_ids", "uncorrected_energy_per_atom", "equilibrium_reaction_energy_per_atom", "decomposes_to", "xas", "grain_boundaries", "cbm", "vbm", "is_gap_direct", "is_metal", "es_source_calc_id", "bandstructure", "dos", "dos_energy_up", "dos_energy_down", "is_magnetic", "ordering", "total_magnetization_normalized_vol", "total_magnetization_normalized_formula_units", "num_magnetic_sites", "num_unique_magnetic_sites", "types_of_magnetic_species", "bulk_modulus", "shear_modulus", "universal_anisotropy", "homogeneous_poisson", "e_total", "e_ionic", "e_electronic", "n", "e_ij_max", "weighted_surface_energy_EV_PER_ANG2", "weighted_surface_energy", "weighted_work_function", "surface_anisotropy", "shape_factor", "has_reconstructed", "possible_species", "has_props", "theoretical", "database_IDs"]}