{"builder_meta": null, "nsites": null, "elements": null, "nelements": null, "composition": null, "composition_reduced": null, "formula_pretty": "LaHg3", "formula_anonymous": "AB3", "chemsys": null, "volume": 208.47314024081706, "density": 11.799319108318487, "density_atomic": 26.059142530102132, "symmetry": null, "property_name": null, "material_id": "mp-862332", "deprecated": null, "deprecation_reasons": null, "last_updated": null, "origins": null, "warnings": null, "structure": {"@module": "pymatgen.core.structure", "@class": "Structure", "charge": 0, "lattice": {"matrix": [[6.91458865, 0.00011652, 0.0], [-3.45718567, 5.98923999, 0.0], [0.0, 0.0, 5.0339375]], "pbc": [true, true, true], "a": 6.9145886509817585, "b": 6.915426842550541, "c": 5.0339375, "alpha": 90.0, "beta": 90.0, "gamma": 119.99398565415153, "volume": 208.47314024081706}, "properties": {}, "sites": [{"species": [{"element": "La", "occu": 1}], "abc": [0.66660851, 0.33336707, 0.25], "properties": {"magmom": -0.0}, "label": "La", "xyz": [3.4568117799855242, 1.9966930602167143, 1.258484375]}, {"species": [{"element": "La", "occu": 1}], "abc": [0.33339249, 0.6666309300000001, 0.75], "properties": {"magmom": -0.0}, "label": "La", "xyz": [0.0006050289744647941, 3.992651471419826, 3.7754531250000003]}, {"species": [{"element": "Hg", "occu": 1}], "abc": [0.8401709900000001, 0.15985343, 0.75], "properties": {"magmom": 0.0}, "label": "Hg", "xyz": [5.256793804016915, 0.9574984522184204, 3.7754531250000003]}, {"species": [{"element": "Hg", "occu": 1}], "abc": [0.31937486, 0.15959797, 0.75], "properties": {"magmom": 0.0}, "label": "Hg", "xyz": [1.656585967206249, 0.9559077578055075, 3.7754531250000003]}, {"species": [{"element": "Hg", "occu": 1}], "abc": [0.84028429, 0.68040301, 0.75], "properties": {"magmom": -0.0}, "label": "Hg", "xyz": [3.4579406784104423, 4.075194826733841, 3.7754531250000003]}, {"species": [{"element": "Hg", "occu": 1}], "abc": [0.15982801, 0.84014457, 0.25], "properties": {"magmom": 0.0}, "label": "Hg", "xyz": [-1.7993908242342251, 5.03184607918508, 1.258484375]}, {"species": [{"element": "Hg", "occu": 1}], "abc": [0.68062514, 0.84040103, 0.25], "properties": {"magmom": 0.0}, "label": "Hg", "xyz": [1.800820469979421, 5.033442762954502, 1.258484375]}, {"species": [{"element": "Hg", "occu": 1}], "abc": [0.15971571, 0.31959599, 0.25], "properties": {"magmom": -0.0}, "label": "Hg", "xyz": [-0.0005342412247717476, 1.9141556940261693, 1.258484375]}]}, "task_ids": null, "uncorrected_energy_per_atom": null, "energy_per_atom": -44.96112545, "formation_energy_per_atom": -0.499075506874994, "energy_above_hull": 0.0, "is_stable": true, "equilibrium_reaction_energy_per_atom": null, "decomposes_to": null, "xas": null, "grain_boundaries": null, "band_gap": 0.0, "cbm": null, "vbm": null, "efermi": 4.68208643, "is_gap_direct": null, "is_metal": null, "es_source_calc_id": null, "bandstructure": null, "dos": null, "dos_energy_up": null, "dos_energy_down": null, "is_magnetic": null, "ordering": null, "total_magnetization": 1e-07, "total_magnetization_normalized_vol": null, "total_magnetization_normalized_formula_units": null, "num_magnetic_sites": null, "num_unique_magnetic_sites": null, "types_of_magnetic_species": null, "bulk_modulus": null, "shear_modulus": null, "universal_anisotropy": null, "homogeneous_poisson": null, "e_total": null, "e_ionic": null, "e_electronic": null, "n": null, "e_ij_max": null, "weighted_surface_energy_EV_PER_ANG2": null, "weighted_surface_energy": null, "weighted_work_function": null, "surface_anisotropy": null, "shape_factor": null, "has_reconstructed": null, "possible_species": null, "has_props": null, "theoretical": null, "database_IDs": null, "fields_not_requested": ["builder_meta", "nsites", "elements", "nelements", "composition", "composition_reduced", "chemsys", "symmetry", "property_name", "deprecated", "deprecation_reasons", "last_updated", "origins", "warnings", "task_ids", "uncorrected_energy_per_atom", "equilibrium_reaction_energy_per_atom", "decomposes_to", "xas", "grain_boundaries", "cbm", "vbm", "is_gap_direct", "is_metal", "es_source_calc_id", "bandstructure", "dos", "dos_energy_up", "dos_energy_down", "is_magnetic", "ordering", "total_magnetization_normalized_vol", "total_magnetization_normalized_formula_units", "num_magnetic_sites", "num_unique_magnetic_sites", "types_of_magnetic_species", "bulk_modulus", "shear_modulus", "universal_anisotropy", "homogeneous_poisson", "e_total", "e_ionic", "e_electronic", "n", "e_ij_max", "weighted_surface_energy_EV_PER_ANG2", "weighted_surface_energy", "weighted_work_function", "surface_anisotropy", "shape_factor", "has_reconstructed", "possible_species", "has_props", "theoretical", "database_IDs"]}