{"builder_meta": null, "nsites": null, "elements": null, "nelements": null, "composition": null, "composition_reduced": null, "formula_pretty": "LaHg2", "formula_anonymous": "AB2", "chemsys": null, "volume": 79.00974118942497, "density": 11.350917098790072, "density_atomic": 26.33658039647499, "symmetry": null, "property_name": null, "material_id": "mp-11463", "deprecated": null, "deprecation_reasons": null, "last_updated": null, "origins": null, "warnings": null, "structure": {"@module": "pymatgen.core.structure", "@class": "Structure", "charge": 0, "lattice": {"matrix": [[5.06559181, 0.0009380300000000001, -0.0691953], [-2.53198719, 4.38506198, -1.5920000000000003e-05], [0.04889257, 0.02822266, 3.55565428]], "pbc": [true, true, true], "a": 5.06606447402532, "b": 5.063568672292207, "c": 3.55610241146413, "alpha": 90.00029863631144, "beta": 89.99471514319775, "gamma": 119.98895305450876, "volume": 79.00974118942497}, "properties": {}, "sites": [{"species": [{"element": "La", "occu": 1}], "abc": [4.4e-07, 4e-07, 2.5e-07], "properties": {"magmom": 0.14300000000000002}, "label": "La", "xyz": [1.2282886629e-06, 1.7614931901999998e-06, 8.584612699999999e-07]}, {"species": [{"element": "Hg", "occu": 1}], "abc": [0.66670979, 0.33335458, 0.50087149], "properties": {"magmom": 0.003}, "label": "Hg", "xyz": [2.5577190199688187, 1.4765418141671456, 1.7347873662115765]}, {"species": [{"element": "Hg", "occu": 1}], "abc": [0.33328977, 0.66664601, 0.49912826], "properties": {"magmom": 0.003}, "label": "Hg", "xyz": [0.024774435075199636, 2.9376834355510244, 1.7516548353113928]}]}, "task_ids": null, "uncorrected_energy_per_atom": null, "energy_per_atom": -43.40440290666667, "formation_energy_per_atom": -0.577605156666673, "energy_above_hull": 0.0, "is_stable": true, "equilibrium_reaction_energy_per_atom": null, "decomposes_to": null, "xas": null, "grain_boundaries": null, "band_gap": 0.0, "cbm": null, "vbm": null, "efermi": 5.37737537, "is_gap_direct": null, "is_metal": null, "es_source_calc_id": null, "bandstructure": null, "dos": null, "dos_energy_up": null, "dos_energy_down": null, "is_magnetic": null, "ordering": null, "total_magnetization": 0.2843487, "total_magnetization_normalized_vol": null, "total_magnetization_normalized_formula_units": null, "num_magnetic_sites": null, "num_unique_magnetic_sites": null, "types_of_magnetic_species": null, "bulk_modulus": null, "shear_modulus": null, "universal_anisotropy": null, "homogeneous_poisson": null, "e_total": null, "e_ionic": null, "e_electronic": null, "n": null, "e_ij_max": null, "weighted_surface_energy_EV_PER_ANG2": null, "weighted_surface_energy": null, "weighted_work_function": null, "surface_anisotropy": null, "shape_factor": null, "has_reconstructed": null, "possible_species": null, "has_props": null, "theoretical": null, "database_IDs": null, "fields_not_requested": ["builder_meta", "nsites", "elements", "nelements", "composition", "composition_reduced", "chemsys", "symmetry", "property_name", "deprecated", "deprecation_reasons", "last_updated", "origins", "warnings", "task_ids", "uncorrected_energy_per_atom", "equilibrium_reaction_energy_per_atom", "decomposes_to", "xas", "grain_boundaries", "cbm", "vbm", "is_gap_direct", "is_metal", "es_source_calc_id", "bandstructure", "dos", "dos_energy_up", "dos_energy_down", "is_magnetic", "ordering", "total_magnetization_normalized_vol", "total_magnetization_normalized_formula_units", "num_magnetic_sites", "num_unique_magnetic_sites", "types_of_magnetic_species", "bulk_modulus", "shear_modulus", "universal_anisotropy", "homogeneous_poisson", "e_total", "e_ionic", "e_electronic", "n", "e_ij_max", "weighted_surface_energy_EV_PER_ANG2", "weighted_surface_energy", "weighted_work_function", "surface_anisotropy", "shape_factor", "has_reconstructed", "possible_species", "has_props", "theoretical", "database_IDs"]}