{
  "builder_meta": null,
  "nsites": null,
  "elements": null,
  "nelements": null,
  "composition": null,
  "composition_reduced": null,
  "formula_pretty": "LaI3",
  "formula_anonymous": "AB3",
  "chemsys": null,
  "volume": 331.13842768628007,
  "density": 5.211400295711964,
  "density_atomic": 41.39230346078501,
  "symmetry": null,
  "property_name": null,
  "material_id": "mp-27979",
  "deprecated": null,
  "deprecation_reasons": null,
  "last_updated": null,
  "origins": null,
  "warnings": null,
  "structure": {
    "@module": "pymatgen.core.structure",
    "@class": "Structure",
    "charge": 0,
    "lattice": {
      "matrix": [
        [4.45522596, -1e-8, 0.0],
        [-2.22761402, 7.31467997, -0.0],
        [0.0, -0.0, 10.16118872]
      ],
      "pbc": [true, true, true],
      "a": 4.45522596,
      "b": 7.646359086887024,
      "c": 10.16118872,
      "alpha": 90.0,
      "beta": 90.0,
      "gamma": 106.93759987571775,
      "volume": 331.13842768628007
    },
    "properties": {},
    "sites": [
      {
        "species": [{ "element": "La", "occu": 1 }],
        "abc": [0.742453799999999, 0.484908599999999, 0.25],
        "properties": { "magmom": 0.0 },
        "label": "La",
        "xyz": [2.2276102480820743, 3.546951216276197, 2.54029718]
      },
      {
        "species": [{ "element": "La", "occu": 1 }],
        "abc": [0.2575462, 0.5150914, 0.75],
        "properties": { "magmom": 0.0 },
        "label": "La",
        "xyz": [1.691917924206976e-6, 3.767728743723796, 7.620891540000001]
      },
      {
        "species": [{ "element": "I", "occu": 1 }],
        "abc": [0.35179359, 0.7035881700000001, 0.43370428],
        "properties": { "magmom": 0.0 },
        "label": "I",
        "xyz": [-2.9370685472596136e-6, 5.14652229071002, 4.406951037751722]
      },
      {
        "species": [{ "element": "I", "occu": 1 }],
        "abc": [0.64820641, 0.29641183, 0.56629672],
        "properties": { "magmom": 0.0 },
        "label": "I",
        "xyz": [2.227614877068547, 2.1681576692899807, 5.754247843436998]
      },
      {
        "species": [{ "element": "I", "occu": 1 }],
        "abc": [0.91418297, 0.82836594, 0.75],
        "properties": { "magmom": -0.0 },
        "label": "I",
        "xyz": [2.2276121184994224, 6.059231740006393, 7.620891540000001]
      },
      {
        "species": [{ "element": "I", "occu": 1 }],
        "abc": [0.08581703, 0.17163406, 0.25],
        "properties": { "magmom": -0.0 },
        "label": "I",
        "xyz": [-1.7849942235415028e-7, 1.2554482199936081, 2.54029718]
      },
      {
        "species": [{ "element": "I", "occu": 1 }],
        "abc": [0.35179359, 0.7035881700000001, 0.06629672],
        "properties": { "magmom": 0.0 },
        "label": "I",
        "xyz": [-2.9370685472596136e-6, 5.14652229071002, 0.6736534834369985]
      },
      {
        "species": [{ "element": "I", "occu": 1 }],
        "abc": [0.64820641, 0.29641183, 0.93370328],
        "properties": { "magmom": 0.0 },
        "label": "I",
        "xyz": [2.227614877068547, 2.1681576692899807, 9.487535236563001]
      }
    ]
  },
  "task_ids": null,
  "uncorrected_energy_per_atom": null,
  "energy_per_atom": -4.2079932975,
  "formation_energy_per_atom": -1.8309820600000002,
  "energy_above_hull": 0.0,
  "is_stable": true,
  "equilibrium_reaction_energy_per_atom": null,
  "decomposes_to": null,
  "xas": null,
  "grain_boundaries": null,
  "band_gap": 2.0709,
  "cbm": null,
  "vbm": null,
  "efermi": 2.97576586,
  "is_gap_direct": null,
  "is_metal": null,
  "es_source_calc_id": null,
  "bandstructure": null,
  "dos": null,
  "dos_energy_up": null,
  "dos_energy_down": null,
  "is_magnetic": null,
  "ordering": null,
  "total_magnetization": 0.0,
  "total_magnetization_normalized_vol": null,
  "total_magnetization_normalized_formula_units": null,
  "num_magnetic_sites": null,
  "num_unique_magnetic_sites": null,
  "types_of_magnetic_species": null,
  "bulk_modulus": null,
  "shear_modulus": null,
  "universal_anisotropy": null,
  "homogeneous_poisson": null,
  "e_total": null,
  "e_ionic": null,
  "e_electronic": null,
  "n": null,
  "e_ij_max": null,
  "weighted_surface_energy_EV_PER_ANG2": null,
  "weighted_surface_energy": null,
  "weighted_work_function": null,
  "surface_anisotropy": null,
  "shape_factor": null,
  "has_reconstructed": null,
  "possible_species": null,
  "has_props": null,
  "theoretical": null,
  "database_IDs": null,
  "fields_not_requested": [
    "builder_meta",
    "nsites",
    "elements",
    "nelements",
    "composition",
    "composition_reduced",
    "chemsys",
    "symmetry",
    "property_name",
    "deprecated",
    "deprecation_reasons",
    "last_updated",
    "origins",
    "warnings",
    "task_ids",
    "uncorrected_energy_per_atom",
    "equilibrium_reaction_energy_per_atom",
    "decomposes_to",
    "xas",
    "grain_boundaries",
    "cbm",
    "vbm",
    "is_gap_direct",
    "is_metal",
    "es_source_calc_id",
    "bandstructure",
    "dos",
    "dos_energy_up",
    "dos_energy_down",
    "is_magnetic",
    "ordering",
    "total_magnetization_normalized_vol",
    "total_magnetization_normalized_formula_units",
    "num_magnetic_sites",
    "num_unique_magnetic_sites",
    "types_of_magnetic_species",
    "bulk_modulus",
    "shear_modulus",
    "universal_anisotropy",
    "homogeneous_poisson",
    "e_total",
    "e_ionic",
    "e_electronic",
    "n",
    "e_ij_max",
    "weighted_surface_energy_EV_PER_ANG2",
    "weighted_surface_energy",
    "weighted_work_function",
    "surface_anisotropy",
    "shape_factor",
    "has_reconstructed",
    "possible_species",
    "has_props",
    "theoretical",
    "database_IDs"
  ]
}
