{"builder_meta": null, "nsites": null, "elements": null, "nelements": null, "composition": null, "composition_reduced": null, "formula_pretty": "LaIn2", "formula_anonymous": "AB2", "chemsys": null, "volume": 170.72341272838077, "density": 7.169227686080079, "density_atomic": 28.453902121396794, "symmetry": null, "property_name": null, "material_id": "mp-22282", "deprecated": null, "deprecation_reasons": null, "last_updated": null, "origins": null, "warnings": null, "structure": {"@module": "pymatgen.core.structure", "@class": "Structure", "charge": 0, "lattice": {"matrix": [[4.46359416, 1e-08, 1.71592582], [1.8656969, 5.93380703, 1.810291659999999], [0.07134769, 0.02541199, 6.47788149]], "pbc": [true, true, true], "a": 4.782057532582474, "b": 6.478274977662848, "c": 6.478324232437638, "alpha": 73.37024670787503, "beta": 68.34103771600948, "gamma": 68.34084719500876, "volume": 170.72341272838077}, "properties": {}, "sites": [{"species": [{"element": "La", "occu": 1}], "abc": [0.5595183, 0.69047946, 0.19048193], "properties": {"magmom": 0.132}, "label": "La", "xyz": [3.799278450021044, 4.102012404314127, 3.443980474098285]}, {"species": [{"element": "La", "occu": 1}], "abc": [0.4404817, 0.30952054, 0.80951807], "properties": {"magmom": 0.132}, "label": "La", "xyz": [2.601360299978956, 1.8572066256858724, 6.560118495901714]}, {"species": [{"element": "In", "occu": 1}], "abc": [0.84022951, 0.71296289, 0.60657909], "properties": {"magmom": -0.007}, "label": "In", "xyz": [5.123894204457505, 4.2459985989827, 6.661789743923489]}, {"species": [{"element": "In", "occu": 1}], "abc": [0.15977149000000002, 0.28703711, 0.39342091], "properties": {"magmom": -0.007}, "label": "In", "xyz": [1.2767490091366556, 1.713220431017309, 3.34231094200233]}, {"species": [{"element": "In", "occu": 1}], "abc": [0.84022858, 0.10657853, 0.21296432], "properties": {"magmom": -0.007}, "label": "In", "xyz": [3.964477128065071, 0.6378282861335485, 3.014265765676432]}, {"species": [{"element": "In", "occu": 1}], "abc": [0.15977142, 0.89342147, 0.78703568], "properties": {"magmom": -0.007}, "label": "In", "xyz": [2.4361616219349296, 5.321390743866451, 6.989833204323567]}]}, "task_ids": null, "uncorrected_energy_per_atom": null, "energy_per_atom": -25.640675835, "formation_energy_per_atom": -0.6733555133333341, "energy_above_hull": 0.0, "is_stable": true, "equilibrium_reaction_energy_per_atom": null, "decomposes_to": null, "xas": null, "grain_boundaries": null, "band_gap": 0.0, "cbm": null, "vbm": null, "efermi": 7.94292194, "is_gap_direct": null, "is_metal": null, "es_source_calc_id": null, "bandstructure": null, "dos": null, "dos_energy_up": null, "dos_energy_down": null, "is_magnetic": null, "ordering": null, "total_magnetization": 0.7046576, "total_magnetization_normalized_vol": null, "total_magnetization_normalized_formula_units": null, "num_magnetic_sites": null, "num_unique_magnetic_sites": null, "types_of_magnetic_species": null, "bulk_modulus": null, "shear_modulus": null, "universal_anisotropy": null, "homogeneous_poisson": null, "e_total": null, "e_ionic": null, "e_electronic": null, "n": null, "e_ij_max": null, "weighted_surface_energy_EV_PER_ANG2": null, "weighted_surface_energy": null, "weighted_work_function": null, "surface_anisotropy": null, "shape_factor": null, "has_reconstructed": null, "possible_species": null, "has_props": null, "theoretical": null, "database_IDs": null, "fields_not_requested": ["builder_meta", "nsites", "elements", "nelements", "composition", "composition_reduced", "chemsys", "symmetry", "property_name", "deprecated", "deprecation_reasons", "last_updated", "origins", "warnings", "task_ids", "uncorrected_energy_per_atom", "equilibrium_reaction_energy_per_atom", "decomposes_to", "xas", "grain_boundaries", "cbm", "vbm", "is_gap_direct", "is_metal", "es_source_calc_id", "bandstructure", "dos", "dos_energy_up", "dos_energy_down", "is_magnetic", "ordering", "total_magnetization_normalized_vol", "total_magnetization_normalized_formula_units", "num_magnetic_sites", "num_unique_magnetic_sites", "types_of_magnetic_species", "bulk_modulus", "shear_modulus", "universal_anisotropy", "homogeneous_poisson", "e_total", "e_ionic", "e_electronic", "n", "e_ij_max", "weighted_surface_energy_EV_PER_ANG2", "weighted_surface_energy", "weighted_work_function", "surface_anisotropy", "shape_factor", "has_reconstructed", "possible_species", "has_props", "theoretical", "database_IDs"]}