{"builder_meta": null, "nsites": null, "elements": null, "nelements": null, "composition": null, "composition_reduced": null, "formula_pretty": "LaIr3", "formula_anonymous": "AB3", "chemsys": null, "volume": 223.21026011512947, "density": 15.969823325063894, "density_atomic": 18.600855009594124, "symmetry": null, "property_name": null, "material_id": "mp-1102848", "deprecated": null, "deprecation_reasons": null, "last_updated": null, "origins": null, "warnings": null, "structure": {"@module": "pymatgen.core.structure", "@class": "Structure", "charge": 0, "lattice": {"matrix": [[8.99671814, -2.6966255500000003, 0.01146636], [8.99671814, 2.6966255500000003, 0.01146636], [8.18258509, -0.0, 4.6106571800000005]], "pbc": [true, true, true], "a": 9.392170043442013, "b": 9.392170043442013, "c": 9.392170057370972, "alpha": 33.370534505072435, "beta": 33.370534505072435, "gamma": 33.37053408705924, "volume": 223.21026011512956}, "properties": {}, "sites": [{"species": [{"element": "La", "occu": 1}], "abc": [0.86043211, 0.86043211, 0.86043211], "properties": {"magmom": 0.0}, "label": "La", "xyz": [22.52268929879419, 0.0, 3.9868895345316893]}, {"species": [{"element": "La", "occu": 1}], "abc": [0.13956789, 0.13956789, 0.13956789], "properties": {"magmom": 0.0}, "label": "La", "xyz": [3.6533320712058095, 0.0, 0.6467003654683111]}, {"species": [{"element": "La", "occu": 1}], "abc": [-0.0, 0.0, 0.0], "properties": {"magmom": -0.0}, "label": "La", "xyz": [0.0, 0.0, 0.0]}, {"species": [{"element": "Ir", "occu": 1}], "abc": [0.42254154, 0.91473797, 0.42254154], "properties": {"magmom": 0.0}, "label": "Ir", "xyz": [15.48860893097695, 1.3272694687567868, 1.963527913531541]}, {"species": [{"element": "Ir", "occu": 1}], "abc": [0.42254154, 0.42254154, 0.91473797], "properties": {"magmom": 0.0}, "label": "Ir", "xyz": [15.087895550221939, 0.0, 4.227233216024314]}, {"species": [{"element": "Ir", "occu": 1}], "abc": [0.91473797, 0.42254154, 0.42254154], "properties": {"magmom": 0.0}, "label": "Ir", "xyz": [15.48860893097695, -1.3272694687567868, 1.963527913531541]}, {"species": [{"element": "Ir", "occu": 1}], "abc": [0.57745846, 0.08526203, 0.57745846], "properties": {"magmom": 0.0}, "label": "Ir", "xyz": [10.68741243902305, -1.3272694687567868, 2.67006198646846]}, {"species": [{"element": "Ir", "occu": 1}], "abc": [0.57745846, 0.57745846, 0.08526203], "properties": {"magmom": 0.0}, "label": "Ir", "xyz": [11.088125819778064, 0.0, 0.40635668397568664]}, {"species": [{"element": "Ir", "occu": 1}], "abc": [0.08526203, 0.57745846, 0.57745846], "properties": {"magmom": 0.0}, "label": "Ir", "xyz": [10.68741243902305, 1.3272694687567868, 2.67006198646846]}, {"species": [{"element": "Ir", "occu": 1}], "abc": [0.66869258, 0.66869258, 0.66869258], "properties": {"magmom": -0.0}, "label": "Ir", "xyz": [17.503711264040433, 0.0, 3.0984471848929425]}, {"species": [{"element": "Ir", "occu": 1}], "abc": [0.33130742, 0.33130742, 0.33130742], "properties": {"magmom": -0.0}, "label": "Ir", "xyz": [8.672310105959566, 0.0, 1.5351427151070582]}, {"species": [{"element": "Ir", "occu": 1}], "abc": [0.5, 0.5, 0.5], "properties": {"magmom": -0.0}, "label": "Ir", "xyz": [13.088010685, 0.0, 2.3167949500000002]}]}, "task_ids": null, "uncorrected_energy_per_atom": null, "energy_per_atom": -8.407939437499996, "formation_energy_per_atom": -0.545112026249995, "energy_above_hull": 0.008618540000007, "is_stable": false, "equilibrium_reaction_energy_per_atom": null, "decomposes_to": null, "xas": null, "grain_boundaries": null, "band_gap": 0.0, "cbm": null, "vbm": null, "efermi": 9.00998161, "is_gap_direct": null, "is_metal": null, "es_source_calc_id": null, "bandstructure": null, "dos": null, "dos_energy_up": null, "dos_energy_down": null, "is_magnetic": null, "ordering": null, "total_magnetization": 1e-07, "total_magnetization_normalized_vol": null, "total_magnetization_normalized_formula_units": null, "num_magnetic_sites": null, "num_unique_magnetic_sites": null, "types_of_magnetic_species": null, "bulk_modulus": null, "shear_modulus": null, "universal_anisotropy": null, "homogeneous_poisson": null, "e_total": null, "e_ionic": null, "e_electronic": null, "n": null, "e_ij_max": null, "weighted_surface_energy_EV_PER_ANG2": null, "weighted_surface_energy": null, "weighted_work_function": null, "surface_anisotropy": null, "shape_factor": null, "has_reconstructed": null, "possible_species": null, "has_props": null, "theoretical": null, "database_IDs": null, "fields_not_requested": ["builder_meta", "nsites", "elements", "nelements", "composition", "composition_reduced", "chemsys", "symmetry", "property_name", "deprecated", "deprecation_reasons", "last_updated", "origins", "warnings", "task_ids", "uncorrected_energy_per_atom", "equilibrium_reaction_energy_per_atom", "decomposes_to", "xas", "grain_boundaries", "cbm", "vbm", "is_gap_direct", "is_metal", "es_source_calc_id", "bandstructure", "dos", "dos_energy_up", "dos_energy_down", "is_magnetic", "ordering", "total_magnetization_normalized_vol", "total_magnetization_normalized_formula_units", "num_magnetic_sites", "num_unique_magnetic_sites", "types_of_magnetic_species", "bulk_modulus", "shear_modulus", "universal_anisotropy", "homogeneous_poisson", "e_total", "e_ionic", "e_electronic", "n", "e_ij_max", "weighted_surface_energy_EV_PER_ANG2", "weighted_surface_energy", "weighted_work_function", "surface_anisotropy", "shape_factor", "has_reconstructed", "possible_species", "has_props", "theoretical", "database_IDs"]}