{"builder_meta": null, "nsites": null, "elements": null, "nelements": null, "composition": null, "composition_reduced": null, "formula_pretty": "LaMg5", "formula_anonymous": "AB5", "chemsys": null, "volume": 155.796531003878, "density": 2.775767642459477, "density_atomic": 25.966088500646332, "symmetry": null, "property_name": null, "material_id": "mp-1094186", "deprecated": null, "deprecation_reasons": null, "last_updated": null, "origins": null, "warnings": null, "structure": {"@module": "pymatgen.core.structure", "@class": "Structure", "charge": 0, "lattice": {"matrix": [[1.613445, 6.51528, 0.0], [-1.613445, 6.51528, 0.0], [0.0, 1.950476, 7.410381]], "pbc": [true, true, true], "a": 6.712084493391378, "b": 6.712084493391378, "c": 7.66277385753599, "alpha": 75.6954576232406, "beta": 75.6954576232406, "gamma": 27.8178354434392, "volume": 155.796531003878}, "properties": {}, "sites": [{"species": [{"element": "La", "occu": 1}], "abc": [0.613165, 0.613165, 0.270957], "properties": {"magmom": 0.014}, "label": "La", "xyz": [0.0, 8.518378447932, 2.007894604617]}, {"species": [{"element": "Mg", "occu": 1}], "abc": [0.9901359999999991, 0.9901359999999991, 0.9919100000000001], "properties": {"magmom": 0.001}, "label": "Mg", "xyz": [0.0, 14.836723205319988, 7.350431017710001]}, {"species": [{"element": "Mg", "occu": 1}], "abc": [0.337704, 0.337704, 0.338933], "properties": {"magmom": 0.002}, "label": "Mg", "xyz": [0.0, 5.061552916347999, 2.511622663473]}, {"species": [{"element": "Mg", "occu": 1}], "abc": [0.936954, 0.936954, 0.620838], "properties": {"magmom": 0.001}, "label": "Mg", "xyz": [0.0, 13.419964933128, 4.600646119278]}, {"species": [{"element": "Mg", "occu": 1}], "abc": [0.66727, 0.66727, 0.677547999999999], "properties": {"magmom": 0.001}, "label": "Mg", "xyz": [0.0, 10.016442884047997, 5.020888825787993]}, {"species": [{"element": "Mg", "occu": 1}], "abc": [0.288103999999999, 0.288103999999999, 0.933147], "properties": {"magmom": 0.001}, "label": "Mg", "xyz": [0.0, 5.5742372862119876, 6.914974799007]}]}, "task_ids": null, "uncorrected_energy_per_atom": null, "energy_per_atom": -2.144102364999999, "formation_energy_per_atom": 0.037290498333333005, "energy_above_hull": 0.11053947833333301, "is_stable": false, "equilibrium_reaction_energy_per_atom": null, "decomposes_to": null, "xas": null, "grain_boundaries": null, "band_gap": 0.0, "cbm": null, "vbm": null, "efermi": 4.1885592, "is_gap_direct": null, "is_metal": null, "es_source_calc_id": null, "bandstructure": null, "dos": null, "dos_energy_up": null, "dos_energy_down": null, "is_magnetic": null, "ordering": null, "total_magnetization": 0.102026399999999, "total_magnetization_normalized_vol": null, "total_magnetization_normalized_formula_units": null, "num_magnetic_sites": null, "num_unique_magnetic_sites": null, "types_of_magnetic_species": null, "bulk_modulus": null, "shear_modulus": null, "universal_anisotropy": null, "homogeneous_poisson": null, "e_total": null, "e_ionic": null, "e_electronic": null, "n": null, "e_ij_max": null, "weighted_surface_energy_EV_PER_ANG2": null, "weighted_surface_energy": null, "weighted_work_function": null, "surface_anisotropy": null, "shape_factor": null, "has_reconstructed": null, "possible_species": null, "has_props": null, "theoretical": null, "database_IDs": null, "fields_not_requested": ["builder_meta", "nsites", "elements", "nelements", "composition", "composition_reduced", "chemsys", "symmetry", "property_name", "deprecated", "deprecation_reasons", "last_updated", "origins", "warnings", "task_ids", "uncorrected_energy_per_atom", "equilibrium_reaction_energy_per_atom", "decomposes_to", "xas", "grain_boundaries", "cbm", "vbm", "is_gap_direct", "is_metal", "es_source_calc_id", "bandstructure", "dos", "dos_energy_up", "dos_energy_down", "is_magnetic", "ordering", "total_magnetization_normalized_vol", "total_magnetization_normalized_formula_units", "num_magnetic_sites", "num_unique_magnetic_sites", "types_of_magnetic_species", "bulk_modulus", "shear_modulus", "universal_anisotropy", "homogeneous_poisson", "e_total", "e_ionic", "e_electronic", "n", "e_ij_max", "weighted_surface_energy_EV_PER_ANG2", "weighted_surface_energy", "weighted_work_function", "surface_anisotropy", "shape_factor", "has_reconstructed", "possible_species", "has_props", "theoretical", "database_IDs"]}