{
  "builder_meta": null,
  "nsites": null,
  "elements": null,
  "nelements": null,
  "composition": null,
  "composition_reduced": null,
  "formula_pretty": "LaMg",
  "formula_anonymous": "AB",
  "chemsys": null,
  "volume": 123.57797214201254,
  "density": 4.386175898754858,
  "density_atomic": 30.894493035503135,
  "symmetry": null,
  "property_name": null,
  "material_id": "mp-1094739",
  "deprecated": null,
  "deprecation_reasons": null,
  "last_updated": null,
  "origins": null,
  "warnings": null,
  "structure": {
    "@module": "pymatgen.core.structure",
    "@class": "Structure",
    "charge": 0,
    "lattice": {
      "matrix": [
        [3.80145904, 0.0, 0.0],
        [0.0, 5.6154733100000005, 0.0],
        [0.0, 0.0, 5.78901109]
      ],
      "pbc": [true, true, true],
      "a": 3.80145904,
      "b": 5.6154733100000005,
      "c": 5.78901109,
      "alpha": 90.0,
      "beta": 90.0,
      "gamma": 90.0,
      "volume": 123.57797214201256
    },
    "properties": {},
    "sites": [
      {
        "species": [{ "element": "La", "occu": 1 }],
        "abc": [0.0, 0.75, 0.20689652],
        "properties": { "magmom": -0.0 },
        "label": "La",
        "xyz": [0.0, 4.211604982500001, 1.1977262487624067]
      },
      {
        "species": [{ "element": "La", "occu": 1 }],
        "abc": [0.0, 0.25, 0.79310348],
        "properties": { "magmom": -0.0 },
        "label": "La",
        "xyz": [0.0, 1.4038683275000001, 4.591284841237593]
      },
      {
        "species": [{ "element": "Mg", "occu": 1 }],
        "abc": [0.5, 0.25, 0.30675905000000003],
        "properties": { "magmom": -0.0 },
        "label": "Mg",
        "xyz": [1.90072952, 1.4038683275000001, 1.7758315424078646]
      },
      {
        "species": [{ "element": "Mg", "occu": 1 }],
        "abc": [0.5, 0.75, 0.69324095],
        "properties": { "magmom": -0.0 },
        "label": "Mg",
        "xyz": [1.90072952, 4.211604982500001, 4.013179547592135]
      }
    ]
  },
  "task_ids": null,
  "uncorrected_energy_per_atom": null,
  "energy_per_atom": -3.384042367500003,
  "formation_energy_per_atom": -0.100803807500003,
  "energy_above_hull": 0.0,
  "is_stable": true,
  "equilibrium_reaction_energy_per_atom": null,
  "decomposes_to": null,
  "xas": null,
  "grain_boundaries": null,
  "band_gap": 0.0,
  "cbm": null,
  "vbm": null,
  "efermi": 5.78925392,
  "is_gap_direct": null,
  "is_metal": null,
  "es_source_calc_id": null,
  "bandstructure": null,
  "dos": null,
  "dos_energy_up": null,
  "dos_energy_down": null,
  "is_magnetic": null,
  "ordering": null,
  "total_magnetization": 2e-7,
  "total_magnetization_normalized_vol": null,
  "total_magnetization_normalized_formula_units": null,
  "num_magnetic_sites": null,
  "num_unique_magnetic_sites": null,
  "types_of_magnetic_species": null,
  "bulk_modulus": null,
  "shear_modulus": null,
  "universal_anisotropy": null,
  "homogeneous_poisson": null,
  "e_total": null,
  "e_ionic": null,
  "e_electronic": null,
  "n": null,
  "e_ij_max": null,
  "weighted_surface_energy_EV_PER_ANG2": null,
  "weighted_surface_energy": null,
  "weighted_work_function": null,
  "surface_anisotropy": null,
  "shape_factor": null,
  "has_reconstructed": null,
  "possible_species": null,
  "has_props": null,
  "theoretical": null,
  "database_IDs": null,
  "fields_not_requested": [
    "builder_meta",
    "nsites",
    "elements",
    "nelements",
    "composition",
    "composition_reduced",
    "chemsys",
    "symmetry",
    "property_name",
    "deprecated",
    "deprecation_reasons",
    "last_updated",
    "origins",
    "warnings",
    "task_ids",
    "uncorrected_energy_per_atom",
    "equilibrium_reaction_energy_per_atom",
    "decomposes_to",
    "xas",
    "grain_boundaries",
    "cbm",
    "vbm",
    "is_gap_direct",
    "is_metal",
    "es_source_calc_id",
    "bandstructure",
    "dos",
    "dos_energy_up",
    "dos_energy_down",
    "is_magnetic",
    "ordering",
    "total_magnetization_normalized_vol",
    "total_magnetization_normalized_formula_units",
    "num_magnetic_sites",
    "num_unique_magnetic_sites",
    "types_of_magnetic_species",
    "bulk_modulus",
    "shear_modulus",
    "universal_anisotropy",
    "homogeneous_poisson",
    "e_total",
    "e_ionic",
    "e_electronic",
    "n",
    "e_ij_max",
    "weighted_surface_energy_EV_PER_ANG2",
    "weighted_surface_energy",
    "weighted_work_function",
    "surface_anisotropy",
    "shape_factor",
    "has_reconstructed",
    "possible_species",
    "has_props",
    "theoretical",
    "database_IDs"
  ]
}
