{"builder_meta": null, "nsites": null, "elements": null, "nelements": null, "composition": null, "composition_reduced": null, "formula_pretty": "LaMg3", "formula_anonymous": "AB3", "chemsys": null, "volume": 208.89395298467733, "density": 3.367605050457096, "density_atomic": 26.111744123084666, "symmetry": null, "property_name": null, "material_id": "mp-2306", "deprecated": null, "deprecation_reasons": null, "last_updated": null, "origins": null, "warnings": null, "structure": {"@module": "pymatgen.core.structure", "@class": "Structure", "charge": 0, "lattice": {"matrix": [[5.28088015, 0.0, 0.0], [0.0, 5.28088015, -0.0], [0.0, -0.0, 7.49054204]], "pbc": [true, true, true], "a": 5.28088015, "b": 5.28088015, "c": 7.49054204, "alpha": 90.0, "beta": 90.0, "gamma": 90.0, "volume": 208.89395298467733}, "properties": {}, "sites": [{"species": [{"element": "La", "occu": 1}], "abc": [-0.0, -0.0, -0.0], "properties": {"magmom": -0.0}, "label": "La", "xyz": [0.0, 0.0, 0.0]}, {"species": [{"element": "La", "occu": 1}], "abc": [0.5, 0.5, 0.5], "properties": {"magmom": -0.0}, "label": "La", "xyz": [2.640440075, 2.640440075, 3.74527102]}, {"species": [{"element": "Mg", "occu": 1}], "abc": [0.5, 0.5, 0.0], "properties": {"magmom": 0.0}, "label": "Mg", "xyz": [2.640440075, 2.640440075, 0.0]}, {"species": [{"element": "Mg", "occu": 1}], "abc": [0.5, 0.0, 0.25], "properties": {"magmom": -0.0}, "label": "Mg", "xyz": [2.640440075, 0.0, 1.87263551]}, {"species": [{"element": "Mg", "occu": 1}], "abc": [0.0, 0.5, 0.25], "properties": {"magmom": -0.0}, "label": "Mg", "xyz": [0.0, 2.640440075, 1.87263551]}, {"species": [{"element": "Mg", "occu": 1}], "abc": [0.0, 0.0, 0.5], "properties": {"magmom": 0.0}, "label": "Mg", "xyz": [0.0, 0.0, 3.74527102]}, {"species": [{"element": "Mg", "occu": 1}], "abc": [0.0, 0.5, 0.75], "properties": {"magmom": -0.0}, "label": "Mg", "xyz": [0.0, 2.640440075, 5.61790653]}, {"species": [{"element": "Mg", "occu": 1}], "abc": [0.5, 0.0, 0.75], "properties": {"magmom": -0.0}, "label": "Mg", "xyz": [2.640440075, 0.0, 5.61790653]}]}, "task_ids": null, "uncorrected_energy_per_atom": null, "energy_per_atom": -2.5667277575, "formation_energy_per_atom": -0.10987347000000001, "energy_above_hull": 0.0, "is_stable": true, "equilibrium_reaction_energy_per_atom": null, "decomposes_to": null, "xas": null, "grain_boundaries": null, "band_gap": 0.0, "cbm": null, "vbm": null, "efermi": 4.33331321, "is_gap_direct": null, "is_metal": null, "es_source_calc_id": null, "bandstructure": null, "dos": null, "dos_energy_up": null, "dos_energy_down": null, "is_magnetic": null, "ordering": null, "total_magnetization": 1e-06, "total_magnetization_normalized_vol": null, "total_magnetization_normalized_formula_units": null, "num_magnetic_sites": null, "num_unique_magnetic_sites": null, "types_of_magnetic_species": null, "bulk_modulus": null, "shear_modulus": null, "universal_anisotropy": null, "homogeneous_poisson": null, "e_total": null, "e_ionic": null, "e_electronic": null, "n": null, "e_ij_max": null, "weighted_surface_energy_EV_PER_ANG2": null, "weighted_surface_energy": null, "weighted_work_function": null, "surface_anisotropy": null, "shape_factor": null, "has_reconstructed": null, "possible_species": null, "has_props": null, "theoretical": null, "database_IDs": null, "fields_not_requested": ["builder_meta", "nsites", "elements", "nelements", "composition", "composition_reduced", "chemsys", "symmetry", "property_name", "deprecated", "deprecation_reasons", "last_updated", "origins", "warnings", "task_ids", "uncorrected_energy_per_atom", "equilibrium_reaction_energy_per_atom", "decomposes_to", "xas", "grain_boundaries", "cbm", "vbm", "is_gap_direct", "is_metal", "es_source_calc_id", "bandstructure", "dos", "dos_energy_up", "dos_energy_down", "is_magnetic", "ordering", "total_magnetization_normalized_vol", "total_magnetization_normalized_formula_units", "num_magnetic_sites", "num_unique_magnetic_sites", "types_of_magnetic_species", "bulk_modulus", "shear_modulus", "universal_anisotropy", "homogeneous_poisson", "e_total", "e_ionic", "e_electronic", "n", "e_ij_max", "weighted_surface_energy_EV_PER_ANG2", "weighted_surface_energy", "weighted_work_function", "surface_anisotropy", "shape_factor", "has_reconstructed", "possible_species", "has_props", "theoretical", "database_IDs"]}