{
  "builder_meta": null,
  "nsites": null,
  "elements": null,
  "nelements": null,
  "composition": null,
  "composition_reduced": null,
  "formula_pretty": "LaMg7",
  "formula_anonymous": "AB7",
  "chemsys": null,
  "volume": 206.27011518200092,
  "density": 2.487872628289513,
  "density_atomic": 25.783764397750115,
  "symmetry": null,
  "property_name": null,
  "material_id": "mp-1016316",
  "deprecated": null,
  "deprecation_reasons": null,
  "last_updated": null,
  "origins": null,
  "warnings": null,
  "structure": {
    "@module": "pymatgen.core.structure",
    "@class": "Structure",
    "charge": 0,
    "lattice": {
      "matrix": [
        [3.377941, -5.850766, 0.0],
        [3.377941, 5.850766, 0.0],
        [0.0, 0.0, 5.21845]
      ],
      "pbc": [true, true, true],
      "a": 6.755882487598271,
      "b": 6.755882487598271,
      "c": 5.21845,
      "alpha": 90.0,
      "beta": 90.0,
      "gamma": 120.00000477498561,
      "volume": 206.27011518200092
    },
    "properties": {},
    "sites": [
      {
        "species": [{ "element": "La", "occu": 1 }],
        "abc": [0.666667, 0.333333, 0.5],
        "properties": { "magmom": 0.001 },
        "label": "La",
        "xyz": [3.377941, -1.9502592338440001, 2.609225]
      },
      {
        "species": [{ "element": "Mg", "occu": 1 }],
        "abc": [0.16239699999999901, 0.324795, 0.5],
        "properties": { "magmom": 0.0 },
        "label": "Mg",
        "xyz": [1.6457058316719966, 0.9501526968680057, 2.609225]
      },
      {
        "species": [{ "element": "Mg", "occu": 1 }],
        "abc": [0.6752049999999991, 0.837603, 0.5],
        "properties": { "magmom": 0.0 },
        "label": "Mg",
        "xyz": [5.110176168327996, 0.9501526968680052, 2.609225]
      },
      {
        "species": [{ "element": "Mg", "occu": 1 }],
        "abc": [0.16239699999999901, 0.837603, 0.5],
        "properties": { "magmom": 0.0 },
        "label": "Mg",
        "xyz": [3.3779409999999963, 3.9504723077960056, 2.609225]
      },
      {
        "species": [{ "element": "Mg", "occu": 1 }],
        "abc": [0.838935, 0.16106499999999901, 0.0],
        "properties": { "magmom": 0.0 },
        "label": "Mg",
        "xyz": [3.3779409999999963, -3.966058748420006, 0.0]
      },
      {
        "species": [{ "element": "Mg", "occu": 1 }],
        "abc": [0.322131, 0.16106499999999901, 0.0],
        "properties": { "magmom": -0.0 },
        "label": "Mg",
        "xyz": [1.6322075794359967, -0.9423594765560057, 0.0]
      },
      {
        "species": [{ "element": "Mg", "occu": 1 }],
        "abc": [0.838935, 0.6778689999999991, 0.0],
        "properties": { "magmom": 0.0 },
        "label": "Mg",
        "xyz": [5.123674420563996, -0.9423594765560055, 0.0]
      },
      {
        "species": [{ "element": "Mg", "occu": 1 }],
        "abc": [0.333333, 0.666667, 0.0],
        "properties": { "magmom": -0.0 },
        "label": "Mg",
        "xyz": [3.377941, 1.9502592338440001, 0.0]
      }
    ]
  },
  "task_ids": null,
  "uncorrected_energy_per_atom": null,
  "energy_per_atom": -1.997850765,
  "formation_energy_per_atom": 0.045811386249999,
  "energy_above_hull": 0.100748121249999,
  "is_stable": false,
  "equilibrium_reaction_energy_per_atom": null,
  "decomposes_to": null,
  "xas": null,
  "grain_boundaries": null,
  "band_gap": 0.0,
  "cbm": null,
  "vbm": null,
  "efermi": 3.92449608,
  "is_gap_direct": null,
  "is_metal": null,
  "es_source_calc_id": null,
  "bandstructure": null,
  "dos": null,
  "dos_energy_up": null,
  "dos_energy_down": null,
  "is_magnetic": null,
  "ordering": null,
  "total_magnetization": 0.0052215,
  "total_magnetization_normalized_vol": null,
  "total_magnetization_normalized_formula_units": null,
  "num_magnetic_sites": null,
  "num_unique_magnetic_sites": null,
  "types_of_magnetic_species": null,
  "bulk_modulus": null,
  "shear_modulus": null,
  "universal_anisotropy": null,
  "homogeneous_poisson": null,
  "e_total": null,
  "e_ionic": null,
  "e_electronic": null,
  "n": null,
  "e_ij_max": null,
  "weighted_surface_energy_EV_PER_ANG2": null,
  "weighted_surface_energy": null,
  "weighted_work_function": null,
  "surface_anisotropy": null,
  "shape_factor": null,
  "has_reconstructed": null,
  "possible_species": null,
  "has_props": null,
  "theoretical": null,
  "database_IDs": null,
  "fields_not_requested": [
    "builder_meta",
    "nsites",
    "elements",
    "nelements",
    "composition",
    "composition_reduced",
    "chemsys",
    "symmetry",
    "property_name",
    "deprecated",
    "deprecation_reasons",
    "last_updated",
    "origins",
    "warnings",
    "task_ids",
    "uncorrected_energy_per_atom",
    "equilibrium_reaction_energy_per_atom",
    "decomposes_to",
    "xas",
    "grain_boundaries",
    "cbm",
    "vbm",
    "is_gap_direct",
    "is_metal",
    "es_source_calc_id",
    "bandstructure",
    "dos",
    "dos_energy_up",
    "dos_energy_down",
    "is_magnetic",
    "ordering",
    "total_magnetization_normalized_vol",
    "total_magnetization_normalized_formula_units",
    "num_magnetic_sites",
    "num_unique_magnetic_sites",
    "types_of_magnetic_species",
    "bulk_modulus",
    "shear_modulus",
    "universal_anisotropy",
    "homogeneous_poisson",
    "e_total",
    "e_ionic",
    "e_electronic",
    "n",
    "e_ij_max",
    "weighted_surface_energy_EV_PER_ANG2",
    "weighted_surface_energy",
    "weighted_work_function",
    "surface_anisotropy",
    "shape_factor",
    "has_reconstructed",
    "possible_species",
    "has_props",
    "theoretical",
    "database_IDs"
  ]
}
