{"builder_meta": null, "nsites": null, "elements": null, "nelements": null, "composition": null, "composition_reduced": null, "formula_pretty": "LaMg2", "formula_anonymous": "AB2", "chemsys": null, "volume": 169.41806392315831, "density": 3.675839002245818, "density_atomic": 28.236343987193052, "symmetry": null, "property_name": null, "material_id": "mp-1909", "deprecated": null, "deprecation_reasons": null, "last_updated": null, "origins": null, "warnings": null, "structure": {"@module": "pymatgen.core.structure", "@class": "Structure", "charge": 0, "lattice": {"matrix": [[5.3788433300000005, 1.029999999999998e-06, 3.10547794], [1.79294779, 5.07122199, 3.10547794], [1.04e-06, 1.04e-06, 6.2109538]], "pbc": [true, true, true], "a": 6.210953936756672, "b": 6.210953830560334, "c": 6.2109538000001745, "alpha": 59.99997684136757, "beta": 59.99998005626881, "gamma": 59.99998345325155, "volume": 169.41806392315834}, "properties": {}, "sites": [{"species": [{"element": "La", "occu": 1}], "abc": [0.125, 0.125, 0.125], "properties": {"magmom": 0.0}, "label": "La", "xyz": [0.89647402, 0.6339030075, 1.55273871]}, {"species": [{"element": "La", "occu": 1}], "abc": [0.875, 0.875, 0.875], "properties": {"magmom": 0.0}, "label": "La", "xyz": [6.27531814, 4.4373210525, 10.86917097]}, {"species": [{"element": "Mg", "occu": 1}], "abc": [0.5, 0.0, 0.5], "properties": {"magmom": -0.0}, "label": "Mg", "xyz": [2.689422185, 1.034999999999999e-06, 4.65821587]}, {"species": [{"element": "Mg", "occu": 1}], "abc": [0.0, 0.5, 0.5], "properties": {"magmom": -0.0}, "label": "Mg", "xyz": [0.8964744149999999, 2.535611515, 4.65821587]}, {"species": [{"element": "Mg", "occu": 1}], "abc": [0.5, 0.5, 0.5], "properties": {"magmom": -0.0}, "label": "Mg", "xyz": [3.58589608, 2.53561203, 6.21095484]}, {"species": [{"element": "Mg", "occu": 1}], "abc": [0.5, 0.5, 0.0], "properties": {"magmom": -0.0}, "label": "Mg", "xyz": [3.58589556, 2.53561151, 3.10547794]}]}, "task_ids": null, "uncorrected_energy_per_atom": null, "energy_per_atom": -2.8366933399999983, "formation_energy_per_atom": -0.10437762833333201, "energy_above_hull": 0.002472620833335, "is_stable": false, "equilibrium_reaction_energy_per_atom": null, "decomposes_to": null, "xas": null, "grain_boundaries": null, "band_gap": 0.0, "cbm": null, "vbm": null, "efermi": 4.45999468, "is_gap_direct": null, "is_metal": null, "es_source_calc_id": null, "bandstructure": null, "dos": null, "dos_energy_up": null, "dos_energy_down": null, "is_magnetic": null, "ordering": null, "total_magnetization": 8.4e-06, "total_magnetization_normalized_vol": null, "total_magnetization_normalized_formula_units": null, "num_magnetic_sites": null, "num_unique_magnetic_sites": null, "types_of_magnetic_species": null, "bulk_modulus": null, "shear_modulus": null, "universal_anisotropy": null, "homogeneous_poisson": null, "e_total": null, "e_ionic": null, "e_electronic": null, "n": null, "e_ij_max": null, "weighted_surface_energy_EV_PER_ANG2": null, "weighted_surface_energy": null, "weighted_work_function": null, "surface_anisotropy": null, "shape_factor": null, "has_reconstructed": null, "possible_species": null, "has_props": null, "theoretical": null, "database_IDs": null, "fields_not_requested": ["builder_meta", "nsites", "elements", "nelements", "composition", "composition_reduced", "chemsys", "symmetry", "property_name", "deprecated", "deprecation_reasons", "last_updated", "origins", "warnings", "task_ids", "uncorrected_energy_per_atom", "equilibrium_reaction_energy_per_atom", "decomposes_to", "xas", "grain_boundaries", "cbm", "vbm", "is_gap_direct", "is_metal", "es_source_calc_id", "bandstructure", "dos", "dos_energy_up", "dos_energy_down", "is_magnetic", "ordering", "total_magnetization_normalized_vol", "total_magnetization_normalized_formula_units", "num_magnetic_sites", "num_unique_magnetic_sites", "types_of_magnetic_species", "bulk_modulus", "shear_modulus", "universal_anisotropy", "homogeneous_poisson", "e_total", "e_ionic", "e_electronic", "n", "e_ij_max", "weighted_surface_energy_EV_PER_ANG2", "weighted_surface_energy", "weighted_work_function", "surface_anisotropy", "shape_factor", "has_reconstructed", "possible_species", "has_props", "theoretical", "database_IDs"]}