{"builder_meta": null, "nsites": null, "elements": null, "nelements": null, "composition": null, "composition_reduced": null, "formula_pretty": "LaN3", "formula_anonymous": "AB3", "chemsys": null, "volume": 600.5514865839915, "density": 4.00210784711602, "density_atomic": 18.767233955749735, "symmetry": null, "property_name": null, "material_id": "mp-1196867", "deprecated": null, "deprecation_reasons": null, "last_updated": null, "origins": null, "warnings": null, "structure": {"@module": "pymatgen.core.structure", "@class": "Structure", "charge": 0, "lattice": {"matrix": [[10.234643, 0.0, 0.0], [0.0, 7.400594, 0.0], [0.0, 3.607477, 7.928864]], "pbc": [true, true, true], "a": 10.234643, "b": 7.400594, "c": 8.71095715957925, "alpha": 65.5353995568861, "beta": 90.0, "gamma": 90.0, "volume": 600.5514865839915}, "properties": {}, "sites": [{"species": [{"element": "La", "occu": 1}], "abc": [0.338752, 0.415109, 0.068095], "properties": {"magmom": 0.0}, "label": "La", "xyz": [3.467005785536, 3.317704321061, 0.53991599408]}, {"species": [{"element": "La", "occu": 1}], "abc": [0.838751999999999, 0.584890999999999, 0.431905], "properties": {"magmom": 0.0}, "label": "La", "xyz": [8.584327285535991, 5.8866281789389925, 3.4245160059199997]}, {"species": [{"element": "La", "occu": 1}], "abc": [0.661248, 0.584890999999999, 0.931905], "properties": {"magmom": 0.0}, "label": "La", "xyz": [6.767637214463999, 7.690366678938992, 7.38894800592]}, {"species": [{"element": "La", "occu": 1}], "abc": [0.161248, 0.415109, 0.568095], "properties": {"magmom": 0.0}, "label": "La", "xyz": [1.6503157144640002, 5.121442821061, 4.50434799408]}, {"species": [{"element": "La", "occu": 1}], "abc": [0.562273999999999, 0.989537999999999, 0.28756000000000004], "properties": {"magmom": 0.0}, "label": "La", "xyz": [5.75467365818199, 8.360535071691993, 2.2800241318400003]}, {"species": [{"element": "La", "occu": 1}], "abc": [0.062273999999999004, 0.010461999999999002, 0.21244000000000002], "properties": {"magmom": 0.0}, "label": "La", "xyz": [0.6373521581819898, 0.8437974283079926, 1.68440786816]}, {"species": [{"element": "La", "occu": 1}], "abc": [0.437726, 0.010461999999999002, 0.7124400000000001], "properties": {"magmom": 0.0}, "label": "La", "xyz": [4.479969341818, 2.6475359283079927, 5.6488398681600005]}, {"species": [{"element": "La", "occu": 1}], "abc": [0.937726, 0.989537999999999, 0.78756], "properties": {"magmom": 0.0}, "label": "La", "xyz": [9.597290841818, 10.164273571691993, 6.24445613184]}, {"species": [{"element": "N", "occu": 1}], "abc": [0.851248, 0.890732, 0.096328], "properties": {"magmom": -0.0}, "label": "N", "xyz": [8.712219384464, 6.939446939264, 0.763771611392]}, {"species": [{"element": "N", "occu": 1}], "abc": [0.351248, 0.109267999999999, 0.403672], "properties": {"magmom": -0.0}, "label": "N", "xyz": [3.5948978844640003, 2.2648855607359923, 3.2006603886079996]}, {"species": [{"element": "N", "occu": 1}], "abc": [0.148752, 0.109267999999999, 0.903671999999999], "properties": {"magmom": -0.0}, "label": "N", "xyz": [1.522423615536, 4.0686240607359885, 7.1650923886079925]}, {"species": [{"element": "N", "occu": 1}], "abc": [0.648752, 0.890732, 0.596328], "properties": {"magmom": -0.0}, "label": "N", "xyz": [6.639745115536, 8.743185439264, 4.728203611392]}, {"species": [{"element": "N", "occu": 1}], "abc": [0.521988999999999, 0.592585, 0.308747], "properties": {"magmom": -0.0}, "label": "N", "xyz": [5.34237106492699, 5.499278696809, 2.448012973408]}, {"species": [{"element": "N", "occu": 1}], "abc": [0.021988999999999002, 0.40741499999999903, 0.191252999999999], "properties": {"magmom": -0.0}, "label": "N", "xyz": [0.2250495649269898, 3.705053803190989, 1.5164190265919921]}, {"species": [{"element": "N", "occu": 1}], "abc": [0.478010999999999, 0.40741499999999903, 0.691253], "properties": {"magmom": -0.0}, "label": "N", "xyz": [4.89227193507299, 5.508792303190992, 5.480851026592]}, {"species": [{"element": "N", "occu": 1}], "abc": [0.978011, 0.592585, 0.808747], "properties": {"magmom": -0.0}, "label": "N", "xyz": [10.009593435073, 7.303017196809, 6.412444973408]}, {"species": [{"element": "N", "occu": 1}], "abc": [0.042718, 0.710008, 0.416367999999999], "properties": {"magmom": -0.0}, "label": "N", "xyz": [0.437203479674, 6.756518928287996, 3.301325245951992]}, {"species": [{"element": "N", "occu": 1}], "abc": [0.542717999999999, 0.28999199999999903, 0.083632], "properties": {"magmom": -0.0}, "label": "N", "xyz": [5.554524979673991, 2.4478135717119924, 0.663106754048]}, {"species": [{"element": "N", "occu": 1}], "abc": [0.957282, 0.28999199999999903, 0.583631999999999], "properties": {"magmom": -0.0}, "label": "N", "xyz": [9.797439520326, 4.2515520717119895, 4.627538754047992]}, {"species": [{"element": "N", "occu": 1}], "abc": [0.457281999999999, 0.710008, 0.916368], "properties": {"magmom": -0.0}, "label": "N", "xyz": [4.68011802032599, 8.560257428287999, 7.265757245952]}, {"species": [{"element": "N", "occu": 1}], "abc": [0.08633, 0.540038, 0.167141999999999], "properties": {"magmom": -0.0}, "label": "N", "xyz": [0.88355673019, 4.599562903305997, 1.325246186687992]}, {"species": [{"element": "N", "occu": 1}], "abc": [0.58633, 0.459962, 0.332858], "properties": {"magmom": -0.0}, "label": "N", "xyz": [6.0008782301900006, 4.604769596693999, 2.639185813312]}, {"species": [{"element": "N", "occu": 1}], "abc": [0.9136700000000001, 0.459962, 0.832858], "properties": {"magmom": -0.0}, "label": "N", "xyz": [9.35108626981, 6.408508096694, 6.603617813312]}, {"species": [{"element": "N", "occu": 1}], "abc": [0.41367000000000004, 0.540038, 0.667142], "properties": {"magmom": -0.0}, "label": "N", "xyz": [4.2337647698100005, 6.403301403306, 5.289678186688]}, {"species": [{"element": "N", "occu": 1}], "abc": [0.810232, 0.956961, 0.205566], "properties": {"magmom": -0.0}, "label": "N", "xyz": [8.292435267176, 7.823654451815999, 1.629904857024]}, {"species": [{"element": "N", "occu": 1}], "abc": [0.310232, 0.043039, 0.294434], "properties": {"magmom": -0.0}, "label": "N", "xyz": [3.175113767176, 1.3806780481839998, 2.334527142976]}, {"species": [{"element": "N", "occu": 1}], "abc": [0.189768, 0.043039, 0.794434], "properties": {"magmom": -0.0}, "label": "N", "xyz": [1.942207732824, 3.1844165481839997, 6.298959142976]}, {"species": [{"element": "N", "occu": 1}], "abc": [0.689767999999999, 0.956961, 0.705565999999999], "properties": {"magmom": -0.0}, "label": "N", "xyz": [7.059529232823991, 9.627392951815995, 5.594336857023992]}, {"species": [{"element": "N", "occu": 1}], "abc": [0.8013100000000001, 0.739584999999999, 0.07592499999999901], "properties": {"magmom": -0.0}, "label": "N", "xyz": [8.20112178233, 5.747266004714989, 0.6019989991999921]}, {"species": [{"element": "N", "occu": 1}], "abc": [0.30131, 0.260415, 0.424075], "properties": {"magmom": -0.0}, "label": "N", "xyz": [3.0838002823300004, 3.457066495285, 3.3624330008]}, {"species": [{"element": "N", "occu": 1}], "abc": [0.19869, 0.260415, 0.924075], "properties": {"magmom": -0.0}, "label": "N", "xyz": [2.03352121767, 5.260804995285, 7.3268650008]}, {"species": [{"element": "N", "occu": 1}], "abc": [0.69869, 0.739584999999999, 0.575925], "properties": {"magmom": -0.0}, "label": "N", "xyz": [7.150842717670001, 7.551004504714992, 4.5664309992000005]}]}, "task_ids": null, "uncorrected_energy_per_atom": null, "energy_per_atom": -14.959795781875, "formation_energy_per_atom": -0.6770377271874991, "energy_above_hull": 0.11065742375000001, "is_stable": false, "equilibrium_reaction_energy_per_atom": null, "decomposes_to": null, "xas": null, "grain_boundaries": null, "band_gap": 0.47730000000000006, "cbm": null, "vbm": null, "efermi": 4.70653616, "is_gap_direct": null, "is_metal": null, "es_source_calc_id": null, "bandstructure": null, "dos": null, "dos_energy_up": null, "dos_energy_down": null, "is_magnetic": null, "ordering": null, "total_magnetization": 0.0023041, "total_magnetization_normalized_vol": null, "total_magnetization_normalized_formula_units": null, "num_magnetic_sites": null, "num_unique_magnetic_sites": null, "types_of_magnetic_species": null, "bulk_modulus": null, "shear_modulus": null, "universal_anisotropy": null, "homogeneous_poisson": null, "e_total": null, "e_ionic": null, "e_electronic": null, "n": null, "e_ij_max": null, "weighted_surface_energy_EV_PER_ANG2": null, "weighted_surface_energy": null, "weighted_work_function": null, "surface_anisotropy": null, "shape_factor": null, "has_reconstructed": null, "possible_species": null, "has_props": null, "theoretical": null, "database_IDs": null, "fields_not_requested": ["builder_meta", "nsites", "elements", "nelements", "composition", "composition_reduced", "chemsys", "symmetry", "property_name", "deprecated", "deprecation_reasons", "last_updated", "origins", "warnings", "task_ids", "uncorrected_energy_per_atom", "equilibrium_reaction_energy_per_atom", "decomposes_to", "xas", "grain_boundaries", "cbm", "vbm", "is_gap_direct", "is_metal", "es_source_calc_id", "bandstructure", "dos", "dos_energy_up", "dos_energy_down", "is_magnetic", "ordering", "total_magnetization_normalized_vol", "total_magnetization_normalized_formula_units", "num_magnetic_sites", "num_unique_magnetic_sites", "types_of_magnetic_species", "bulk_modulus", "shear_modulus", "universal_anisotropy", "homogeneous_poisson", "e_total", "e_ionic", "e_electronic", "n", "e_ij_max", "weighted_surface_energy_EV_PER_ANG2", "weighted_surface_energy", "weighted_work_function", "surface_anisotropy", "shape_factor", "has_reconstructed", "possible_species", "has_props", "theoretical", "database_IDs"]}