{"builder_meta": null, "nsites": null, "elements": null, "nelements": null, "composition": null, "composition_reduced": null, "formula_pretty": "LaNi2", "formula_anonymous": "AB2", "chemsys": null, "volume": 97.50594687993556, "density": 8.729381959166846, "density_atomic": 16.250991146655927, "symmetry": null, "property_name": null, "material_id": "mp-2708", "deprecated": null, "deprecation_reasons": null, "last_updated": null, "origins": null, "warnings": null, "structure": {"@module": "pymatgen.core.structure", "@class": "Structure", "charge": 0, "lattice": {"matrix": [[4.47417232, -1e-08, 2.58316436], [1.49139009, 4.2182893, 2.58316436], [-0.0, -0.0, 5.16632872]], "pbc": [true, true, true], "a": 5.166329070029163, "b": 5.166328205778153, "c": 5.16632872, "alpha": 59.999996707463914, "beta": 60.00000224121832, "gamma": 60.00000364327616, "volume": 97.50594687993556}, "properties": {}, "sites": [{"species": [{"element": "La", "occu": 1}], "abc": [0.125, 0.125, 0.125], "properties": {"magmom": 0.0}, "label": "La", "xyz": [0.74569530125, 0.52728616125, 1.29158218]}, {"species": [{"element": "La", "occu": 1}], "abc": [0.875, 0.875, 0.875], "properties": {"magmom": 0.0}, "label": "La", "xyz": [5.21986710875, 3.6910031287500003, 9.04107526]}, {"species": [{"element": "Ni", "occu": 1}], "abc": [0.5, -0.0, 0.5], "properties": {"magmom": -0.0}, "label": "Ni", "xyz": [2.23708616, -5e-09, 3.8747465400000003]}, {"species": [{"element": "Ni", "occu": 1}], "abc": [-0.0, 0.5, 0.5], "properties": {"magmom": -0.0}, "label": "Ni", "xyz": [0.745695045, 2.10914465, 3.8747465400000003]}, {"species": [{"element": "Ni", "occu": 1}], "abc": [0.5, 0.5, 0.5], "properties": {"magmom": -0.0}, "label": "Ni", "xyz": [2.982781205, 2.109144645, 5.16632872]}, {"species": [{"element": "Ni", "occu": 1}], "abc": [0.5, 0.5, -0.0], "properties": {"magmom": -0.0}, "label": "Ni", "xyz": [2.982781205, 2.109144645, 2.58316436]}]}, "task_ids": null, "uncorrected_energy_per_atom": null, "energy_per_atom": -5.8177081699999995, "formation_energy_per_atom": -0.31894801499999903, "energy_above_hull": 0.02363942888889, "is_stable": false, "equilibrium_reaction_energy_per_atom": null, "decomposes_to": null, "xas": null, "grain_boundaries": null, "band_gap": 0.0, "cbm": null, "vbm": null, "efermi": 9.65673913, "is_gap_direct": null, "is_metal": null, "es_source_calc_id": null, "bandstructure": null, "dos": null, "dos_energy_up": null, "dos_energy_down": null, "is_magnetic": null, "ordering": null, "total_magnetization": 1e-07, "total_magnetization_normalized_vol": null, "total_magnetization_normalized_formula_units": null, "num_magnetic_sites": null, "num_unique_magnetic_sites": null, "types_of_magnetic_species": null, "bulk_modulus": null, "shear_modulus": null, "universal_anisotropy": null, "homogeneous_poisson": null, "e_total": null, "e_ionic": null, "e_electronic": null, "n": null, "e_ij_max": null, "weighted_surface_energy_EV_PER_ANG2": null, "weighted_surface_energy": null, "weighted_work_function": null, "surface_anisotropy": null, "shape_factor": null, "has_reconstructed": null, "possible_species": null, "has_props": null, "theoretical": null, "database_IDs": null, "fields_not_requested": ["builder_meta", "nsites", "elements", "nelements", "composition", "composition_reduced", "chemsys", "symmetry", "property_name", "deprecated", "deprecation_reasons", "last_updated", "origins", "warnings", "task_ids", "uncorrected_energy_per_atom", "equilibrium_reaction_energy_per_atom", "decomposes_to", "xas", "grain_boundaries", "cbm", "vbm", "is_gap_direct", "is_metal", "es_source_calc_id", "bandstructure", "dos", "dos_energy_up", "dos_energy_down", "is_magnetic", "ordering", "total_magnetization_normalized_vol", "total_magnetization_normalized_formula_units", "num_magnetic_sites", "num_unique_magnetic_sites", "types_of_magnetic_species", "bulk_modulus", "shear_modulus", "universal_anisotropy", "homogeneous_poisson", "e_total", "e_ionic", "e_electronic", "n", "e_ij_max", "weighted_surface_energy_EV_PER_ANG2", "weighted_surface_energy", "weighted_work_function", "surface_anisotropy", "shape_factor", "has_reconstructed", "possible_species", "has_props", "theoretical", "database_IDs"]}