{"builder_meta": null, "nsites": null, "elements": null, "nelements": null, "composition": null, "composition_reduced": null, "formula_pretty": "LaNi3", "formula_anonymous": "AB3", "chemsys": null, "volume": 179.72210114853556, "density": 8.730913011448022, "density_atomic": 14.976841762377964, "symmetry": null, "property_name": null, "material_id": "mp-2764", "deprecated": null, "deprecation_reasons": null, "last_updated": null, "origins": null, "warnings": null, "structure": {"@module": "pymatgen.core.structure", "@class": "Structure", "charge": 0, "lattice": {"matrix": [[8.41450638, -2.5017168400000003, 0.00307384], [8.4145074, 2.50171788, 0.00307282], [7.66916143, 1e-08, 4.27158902]], "pbc": [true, true, true], "a": 8.778525742691231, "b": 8.778527016418483, "c": 8.778525490945745, "alpha": 33.11548556260725, "beta": 33.11547760176038, "gamma": 33.11548203355854, "volume": 179.72210114853556}, "properties": {}, "sites": [{"species": [{"element": "La", "occu": 1}], "abc": [0.86211004, 0.86211004, 0.86211004], "properties": {"magmom": 0.0}, "label": "La", "xyz": [21.12012281022011, 9.052155417574789e-07, 3.687878878194228]}, {"species": [{"element": "La", "occu": 1}], "abc": [0.13788996, 0.13788996, 0.13788996], "properties": {"magmom": 0.0}, "label": "La", "xyz": [3.378052399779892, 1.4478445797266678e-07, 0.5898568018057729]}, {"species": [{"element": "La", "occu": 1}], "abc": [0.0, -0.0, 0.0], "properties": {"magmom": 0.0}, "label": "La", "xyz": [0.0, 0.0, 0.0]}, {"species": [{"element": "Ni", "occu": 1}], "abc": [0.42069087, 0.42069087, 0.9173179300000001], "properties": {"magmom": -0.001}, "label": "Ni", "xyz": [14.114871736153628, 4.46691684058927e-07, 3.9209910413801237]}, {"species": [{"element": "Ni", "occu": 1}], "abc": [0.9173179300000001, 0.42069087, 0.42069087], "properties": {"magmom": -0.001}, "label": "Ni", "xyz": [14.485030207357976, -1.2424198374762774, 1.8011308969713522]}, {"species": [{"element": "Ni", "occu": 1}], "abc": [0.42069087, 0.9173179300000001, 0.42069087], "properties": {"magmom": -0.001}, "label": "Ni", "xyz": [14.485030713917578, 1.2424212374192463, 1.801130390411751]}, {"species": [{"element": "Ni", "occu": 1}], "abc": [0.5, 0.5, 0.5], "properties": {"magmom": -0.001}, "label": "Ni", "xyz": [12.249087605, 5.249999999483395e-07, 2.13886784]}, {"species": [{"element": "Ni", "occu": 1}], "abc": [0.33211967000000003, 0.33211867, 0.33211967000000003], "properties": {"magmom": -0.001}, "label": "Ni", "xyz": [8.136317451839982, -2.1529922266737456e-06, 1.420720159316006]}, {"species": [{"element": "Ni", "occu": 1}], "abc": [0.66788033, 0.66788133, 0.66788033], "properties": {"magmom": -0.001}, "label": "Ni", "xyz": [16.36185775816002, 3.2029922263483805e-06, 2.857015520683995]}, {"species": [{"element": "Ni", "occu": 1}], "abc": [0.08268207, 0.5793091300000001, 0.5793091300000001], "properties": {"magmom": -0.001}, "label": "Ni", "xyz": [10.013145002642027, 1.242420887476277, 2.4766047830286486]}, {"species": [{"element": "Ni", "occu": 1}], "abc": [0.5793091300000001, 0.5793091300000001, 0.08268207], "properties": {"magmom": -0.001}, "label": "Ni", "xyz": [10.383303473846373, 6.033083158377522e-07, 0.35674463861987726]}, {"species": [{"element": "Ni", "occu": 1}], "abc": [0.5793091300000001, 0.08268207, 0.5793091300000001], "properties": {"magmom": -0.001}, "label": "Ni", "xyz": [10.013144496082425, -1.2424201874192464, 2.47660528958825]}]}, "task_ids": null, "uncorrected_energy_per_atom": null, "energy_per_atom": -5.892770630833333, "formation_energy_per_atom": -0.32366634458333204, "energy_above_hull": 0.001762432916667, "is_stable": false, "equilibrium_reaction_energy_per_atom": null, "decomposes_to": null, "xas": null, "grain_boundaries": null, "band_gap": 0.0, "cbm": null, "vbm": null, "efermi": 9.02867082, "is_gap_direct": null, "is_metal": null, "es_source_calc_id": null, "bandstructure": null, "dos": null, "dos_energy_up": null, "dos_energy_down": null, "is_magnetic": null, "ordering": null, "total_magnetization": 0.007324, "total_magnetization_normalized_vol": null, "total_magnetization_normalized_formula_units": null, "num_magnetic_sites": null, "num_unique_magnetic_sites": null, "types_of_magnetic_species": null, "bulk_modulus": null, "shear_modulus": null, "universal_anisotropy": null, "homogeneous_poisson": null, "e_total": null, "e_ionic": null, "e_electronic": null, "n": null, "e_ij_max": null, "weighted_surface_energy_EV_PER_ANG2": null, "weighted_surface_energy": null, "weighted_work_function": null, "surface_anisotropy": null, "shape_factor": null, "has_reconstructed": null, "possible_species": null, "has_props": null, "theoretical": null, "database_IDs": null, "fields_not_requested": ["builder_meta", "nsites", "elements", "nelements", "composition", "composition_reduced", "chemsys", "symmetry", "property_name", "deprecated", "deprecation_reasons", "last_updated", "origins", "warnings", "task_ids", "uncorrected_energy_per_atom", "equilibrium_reaction_energy_per_atom", "decomposes_to", "xas", "grain_boundaries", "cbm", "vbm", "is_gap_direct", "is_metal", "es_source_calc_id", "bandstructure", "dos", "dos_energy_up", "dos_energy_down", "is_magnetic", "ordering", "total_magnetization_normalized_vol", "total_magnetization_normalized_formula_units", "num_magnetic_sites", "num_unique_magnetic_sites", "types_of_magnetic_species", "bulk_modulus", "shear_modulus", "universal_anisotropy", "homogeneous_poisson", "e_total", "e_ionic", "e_electronic", "n", "e_ij_max", "weighted_surface_energy_EV_PER_ANG2", "weighted_surface_energy", "weighted_work_function", "surface_anisotropy", "shape_factor", "has_reconstructed", "possible_species", "has_props", "theoretical", "database_IDs"]}