{"builder_meta": null, "nsites": null, "elements": null, "nelements": null, "composition": null, "composition_reduced": null, "formula_pretty": "LaO2", "formula_anonymous": "AB2", "chemsys": null, "volume": 106.21319751699899, "density": 5.34384094666455, "density_atomic": 17.702199586166497, "symmetry": null, "property_name": null, "material_id": "mp-1206559", "deprecated": null, "deprecation_reasons": null, "last_updated": null, "origins": null, "warnings": null, "structure": {"@module": "pymatgen.core.structure", "@class": "Structure", "charge": 0, "lattice": {"matrix": [[3.934101, 0.0, 0.0], [0.0, 4.307106, 0.0], [0.0, 1.098855, 6.268266]], "pbc": [true, true, true], "a": 3.934101, "b": 4.307106, "c": 6.363854253342152, "alpha": 80.05682933020034, "beta": 90.0, "gamma": 90.0, "volume": 106.21319751699899}, "properties": {}, "sites": [{"species": [{"element": "La", "occu": 1}], "abc": [0.25, 0.195301, 0.19946000000000003], "properties": {"magmom": -0.009000000000000001}, "label": "La", "xyz": [0.98352525, 1.060359727206, 1.25026833636]}, {"species": [{"element": "La", "occu": 1}], "abc": [0.75, 0.804698999999999, 0.80054], "properties": {"magmom": -0.009000000000000001}, "label": "La", "xyz": [2.95057575, 4.345601272793996, 5.01799766364]}, {"species": [{"element": "O", "occu": 1}], "abc": [0.25, 0.826912, 0.545509], "properties": {"magmom": -0.736}, "label": "O", "xyz": [0.98352525, 4.161032928867, 3.419395517394]}, {"species": [{"element": "O", "occu": 1}], "abc": [0.75, 0.173088, 0.454491], "properties": {"magmom": -0.736}, "label": "O", "xyz": [2.95057575, 1.244928071133, 2.848870482606]}, {"species": [{"element": "O", "occu": 1}], "abc": [0.25, 0.74458, 0.030858], "properties": {"magmom": -0.091}, "label": "O", "xyz": [0.98352525, 3.24089345307, 0.193426152228]}, {"species": [{"element": "O", "occu": 1}], "abc": [0.75, 0.25542000000000004, 0.969142], "properties": {"magmom": -0.091}, "label": "O", "xyz": [2.95057575, 2.16506754693, 6.074839847771999]}]}, "task_ids": null, "uncorrected_energy_per_atom": null, "energy_per_atom": -8.033883676666667, "formation_energy_per_atom": -3.089907305, "energy_above_hull": 0.14003346124999802, "is_stable": false, "equilibrium_reaction_energy_per_atom": null, "decomposes_to": null, "xas": null, "grain_boundaries": null, "band_gap": 0.0, "cbm": null, "vbm": null, "efermi": 3.68802918, "is_gap_direct": null, "is_metal": null, "es_source_calc_id": null, "bandstructure": null, "dos": null, "dos_energy_up": null, "dos_energy_down": null, "is_magnetic": null, "ordering": null, "total_magnetization": 1.9903724, "total_magnetization_normalized_vol": null, "total_magnetization_normalized_formula_units": null, "num_magnetic_sites": null, "num_unique_magnetic_sites": null, "types_of_magnetic_species": null, "bulk_modulus": null, "shear_modulus": null, "universal_anisotropy": null, "homogeneous_poisson": null, "e_total": null, "e_ionic": null, "e_electronic": null, "n": null, "e_ij_max": null, "weighted_surface_energy_EV_PER_ANG2": null, "weighted_surface_energy": null, "weighted_work_function": null, "surface_anisotropy": null, "shape_factor": null, "has_reconstructed": null, "possible_species": null, "has_props": null, "theoretical": null, "database_IDs": null, "fields_not_requested": ["builder_meta", "nsites", "elements", "nelements", "composition", "composition_reduced", "chemsys", "symmetry", "property_name", "deprecated", "deprecation_reasons", "last_updated", "origins", "warnings", "task_ids", "uncorrected_energy_per_atom", "equilibrium_reaction_energy_per_atom", "decomposes_to", "xas", "grain_boundaries", "cbm", "vbm", "is_gap_direct", "is_metal", "es_source_calc_id", "bandstructure", "dos", "dos_energy_up", "dos_energy_down", "is_magnetic", "ordering", "total_magnetization_normalized_vol", "total_magnetization_normalized_formula_units", "num_magnetic_sites", "num_unique_magnetic_sites", "types_of_magnetic_species", "bulk_modulus", "shear_modulus", "universal_anisotropy", "homogeneous_poisson", "e_total", "e_ionic", "e_electronic", "n", "e_ij_max", "weighted_surface_energy_EV_PER_ANG2", "weighted_surface_energy", "weighted_work_function", "surface_anisotropy", "shape_factor", "has_reconstructed", "possible_species", "has_props", "theoretical", "database_IDs"]}