{
  "builder_meta": null,
  "nsites": null,
  "elements": null,
  "nelements": null,
  "composition": null,
  "composition_reduced": null,
  "formula_pretty": "LaO3",
  "formula_anonymous": "AB3",
  "chemsys": null,
  "volume": 115.61631613875753,
  "density": 5.368807035045697,
  "density_atomic": 14.45203951734469,
  "symmetry": null,
  "property_name": null,
  "material_id": "mp-723463",
  "deprecated": null,
  "deprecation_reasons": null,
  "last_updated": null,
  "origins": null,
  "warnings": null,
  "structure": {
    "@module": "pymatgen.core.structure",
    "@class": "Structure",
    "charge": 0.0,
    "lattice": {
      "matrix": [
        [2.7146738900000003, -4.7018854999999995, 0.0],
        [2.71464391, 4.70187019, 0.0],
        [0.0, 0.0, 4.5290021]
      ],
      "pbc": [true, true, true],
      "a": 5.429289233790919,
      "b": 5.429260984858872,
      "c": 4.5290021,
      "alpha": 90.0,
      "beta": 90.0,
      "gamma": 119.99947978436234,
      "volume": 115.61631613875754
    },
    "properties": {},
    "sites": [
      {
        "species": [{ "element": "La", "occu": 1 }],
        "abc": [0.33333265, 0.66666673, 0.25],
        "properties": { "magmom": -0.03 },
        "label": "La",
        "xyz": [2.7146522202336225, 1.567288470740204, 1.132250525]
      },
      {
        "species": [{ "element": "La", "occu": 1 }],
        "abc": [0.66666735, 0.33333327, 0.75],
        "properties": { "magmom": -0.03 },
        "label": "La",
        "xyz": [2.7146655797663772, -1.567303780740203, 3.3967515749999997]
      },
      {
        "species": [{ "element": "O", "occu": 1 }],
        "abc": [0.83845081, 0.59123797, 0.25],
        "properties": { "magmom": 0.874 },
        "label": "O",
        "xyz": [3.881121076577614, -1.1623755196631405, 1.132250525]
      },
      {
        "species": [{ "element": "O", "occu": 1 }],
        "abc": [0.75278804, 0.16154612000000002, 0.25],
        "properties": { "magmom": 0.874 },
        "label": "O",
        "xyz": [2.4821142277344053, -2.7799542839112563, 1.132250525]
      },
      {
        "species": [{ "element": "O", "occu": 1 }],
        "abc": [0.40876094, 0.24721192, 0.25],
        "properties": { "magmom": 0.874 },
        "label": "O",
        "xyz": [1.780744984177264, -0.7595887794917051, 1.132250525]
      },
      {
        "species": [{ "element": "O", "occu": 1 }],
        "abc": [0.16154919, 0.40876203, 0.75],
        "properties": { "magmom": 0.874 },
        "label": "O",
        "xyz": [1.5481967234223863, 1.1623602096631407, 3.3967515749999997]
      },
      {
        "species": [{ "element": "O", "occu": 1 }],
        "abc": [0.24721196, 0.83845388, 0.75],
        "properties": { "magmom": 0.874 },
        "label": "O",
        "xyz": [2.947203572265595, 2.779938973911257, 3.3967515749999997]
      },
      {
        "species": [{ "element": "O", "occu": 1 }],
        "abc": [0.59123906, 0.75278808, 0.75],
        "properties": { "magmom": 0.874 },
        "label": "O",
        "xyz": [3.648572815822736, 0.7595734694917056, 3.3967515749999997]
      }
    ]
  },
  "task_ids": null,
  "uncorrected_energy_per_atom": null,
  "energy_per_atom": -6.97519305,
  "formation_energy_per_atom": -2.03022052,
  "energy_above_hull": 0.39223505468750003,
  "is_stable": false,
  "equilibrium_reaction_energy_per_atom": null,
  "decomposes_to": null,
  "xas": null,
  "grain_boundaries": null,
  "band_gap": 0.6060999999999991,
  "cbm": null,
  "vbm": null,
  "efermi": 3.18458043,
  "is_gap_direct": null,
  "is_metal": null,
  "es_source_calc_id": null,
  "bandstructure": null,
  "dos": null,
  "dos_energy_up": null,
  "dos_energy_down": null,
  "is_magnetic": null,
  "ordering": null,
  "total_magnetization": 6.0000003,
  "total_magnetization_normalized_vol": null,
  "total_magnetization_normalized_formula_units": null,
  "num_magnetic_sites": null,
  "num_unique_magnetic_sites": null,
  "types_of_magnetic_species": null,
  "bulk_modulus": null,
  "shear_modulus": null,
  "universal_anisotropy": null,
  "homogeneous_poisson": null,
  "e_total": null,
  "e_ionic": null,
  "e_electronic": null,
  "n": null,
  "e_ij_max": null,
  "weighted_surface_energy_EV_PER_ANG2": null,
  "weighted_surface_energy": null,
  "weighted_work_function": null,
  "surface_anisotropy": null,
  "shape_factor": null,
  "has_reconstructed": null,
  "possible_species": null,
  "has_props": null,
  "theoretical": null,
  "database_IDs": null,
  "fields_not_requested": [
    "builder_meta",
    "nsites",
    "elements",
    "nelements",
    "composition",
    "composition_reduced",
    "chemsys",
    "symmetry",
    "property_name",
    "deprecated",
    "deprecation_reasons",
    "last_updated",
    "origins",
    "warnings",
    "task_ids",
    "uncorrected_energy_per_atom",
    "equilibrium_reaction_energy_per_atom",
    "decomposes_to",
    "xas",
    "grain_boundaries",
    "cbm",
    "vbm",
    "is_gap_direct",
    "is_metal",
    "es_source_calc_id",
    "bandstructure",
    "dos",
    "dos_energy_up",
    "dos_energy_down",
    "is_magnetic",
    "ordering",
    "total_magnetization_normalized_vol",
    "total_magnetization_normalized_formula_units",
    "num_magnetic_sites",
    "num_unique_magnetic_sites",
    "types_of_magnetic_species",
    "bulk_modulus",
    "shear_modulus",
    "universal_anisotropy",
    "homogeneous_poisson",
    "e_total",
    "e_ionic",
    "e_electronic",
    "n",
    "e_ij_max",
    "weighted_surface_energy_EV_PER_ANG2",
    "weighted_surface_energy",
    "weighted_work_function",
    "surface_anisotropy",
    "shape_factor",
    "has_reconstructed",
    "possible_species",
    "has_props",
    "theoretical",
    "database_IDs"
  ]
}
