{"builder_meta": null, "nsites": null, "elements": null, "nelements": null, "composition": null, "composition_reduced": null, "formula_pretty": "LaOs2", "formula_anonymous": "AB2", "chemsys": null, "volume": 230.8709380885959, "density": 14.942143171733758, "density_atomic": 19.239244840716324, "symmetry": null, "property_name": null, "material_id": "mp-1102043", "deprecated": null, "deprecation_reasons": null, "last_updated": null, "origins": null, "warnings": null, "structure": {"@module": "pymatgen.core.structure", "@class": "Structure", "charge": 0, "lattice": {"matrix": [[-2.67629647, -4.6245879, 0.0], [-2.67629647, 4.6245879, -0.0], [0.0, -0.0, -9.326786]], "pbc": [true, true, true], "a": 5.343161614639864, "b": 5.343161614639864, "c": 9.326786, "alpha": 90.0, "beta": 90.0, "gamma": 119.88318615670117, "volume": 230.8709380885959}, "properties": {}, "sites": [{"species": [{"element": "La", "occu": 1}], "abc": [0.66661009, 0.33338991, 0.56512167], "properties": {"magmom": 0.0}, "label": "La", "xyz": [-2.67629647, -1.541006012463822, -5.2707688800526205]}, {"species": [{"element": "La", "occu": 1}], "abc": [0.33338991, 0.66661009, 0.43487833000000004], "properties": {"magmom": 0.0}, "label": "La", "xyz": [-2.67629647, 1.541006012463822, -4.056017119947381]}, {"species": [{"element": "La", "occu": 1}], "abc": [0.33338991, 0.66661009, 0.06512167], "properties": {"magmom": 0.0}, "label": "La", "xyz": [-2.67629647, 1.541006012463822, -0.6073758800526201]}, {"species": [{"element": "La", "occu": 1}], "abc": [0.66661009, 0.33338991, 0.93487833], "properties": {"magmom": 0.0}, "label": "La", "xyz": [-2.67629647, -1.541006012463822, -8.71941011994738]}, {"species": [{"element": "Os", "occu": 1}], "abc": [0.0, -0.0, 0.5], "properties": {"magmom": -0.0}, "label": "Os", "xyz": [0.0, 0.0, -4.663393]}, {"species": [{"element": "Os", "occu": 1}], "abc": [0.0, -0.0, 0.0], "properties": {"magmom": -0.0}, "label": "Os", "xyz": [0.0, 0.0, 0.0]}, {"species": [{"element": "Os", "occu": 1}], "abc": [0.16904929, 0.33841099, 0.75], "properties": {"magmom": -0.0}, "label": "Os", "xyz": [-1.3581141560292118, 0.7832280685434301, -6.995089500000001]}, {"species": [{"element": "Os", "occu": 1}], "abc": [0.16915357, 0.83084643, 0.75], "properties": {"magmom": -0.0}, "label": "Os", "xyz": [-2.6762964700000005, 3.060056793872394, -6.995089500000001]}, {"species": [{"element": "Os", "occu": 1}], "abc": [0.66158901, 0.83095071, 0.75], "properties": {"magmom": -0.0}, "label": "Os", "xyz": [-3.9944787839707887, 0.7832280685434294, -6.995089500000001]}, {"species": [{"element": "Os", "occu": 1}], "abc": [0.83095071, 0.66158901, 0.25], "properties": {"magmom": -0.0}, "label": "Os", "xyz": [-3.9944787839707887, -0.7832280685434294, -2.3316965]}, {"species": [{"element": "Os", "occu": 1}], "abc": [0.83084643, 0.16915357, 0.25], "properties": {"magmom": -0.0}, "label": "Os", "xyz": [-2.6762964700000005, -3.060056793872394, -2.3316965]}, {"species": [{"element": "Os", "occu": 1}], "abc": [0.33841099, 0.16904929, 0.25], "properties": {"magmom": -0.0}, "label": "Os", "xyz": [-1.3581141560292118, -0.7832280685434301, -2.3316965]}]}, "task_ids": null, "uncorrected_energy_per_atom": null, "energy_per_atom": -9.195026374166668, "formation_energy_per_atom": -0.064779052500001, "energy_above_hull": 0.002787558055555, "is_stable": false, "equilibrium_reaction_energy_per_atom": null, "decomposes_to": null, "xas": null, "grain_boundaries": null, "band_gap": 0.0, "cbm": null, "vbm": null, "efermi": 8.9209634, "is_gap_direct": null, "is_metal": null, "es_source_calc_id": null, "bandstructure": null, "dos": null, "dos_energy_up": null, "dos_energy_down": null, "is_magnetic": null, "ordering": null, "total_magnetization": 5.2e-06, "total_magnetization_normalized_vol": null, "total_magnetization_normalized_formula_units": null, "num_magnetic_sites": null, "num_unique_magnetic_sites": null, "types_of_magnetic_species": null, "bulk_modulus": null, "shear_modulus": null, "universal_anisotropy": null, "homogeneous_poisson": null, "e_total": null, "e_ionic": null, "e_electronic": null, "n": null, "e_ij_max": null, "weighted_surface_energy_EV_PER_ANG2": null, "weighted_surface_energy": null, "weighted_work_function": null, "surface_anisotropy": null, "shape_factor": null, "has_reconstructed": null, "possible_species": null, "has_props": null, "theoretical": null, "database_IDs": null, "fields_not_requested": ["builder_meta", "nsites", "elements", "nelements", "composition", "composition_reduced", "chemsys", "symmetry", "property_name", "deprecated", "deprecation_reasons", "last_updated", "origins", "warnings", "task_ids", "uncorrected_energy_per_atom", "equilibrium_reaction_energy_per_atom", "decomposes_to", "xas", "grain_boundaries", "cbm", "vbm", "is_gap_direct", "is_metal", "es_source_calc_id", "bandstructure", "dos", "dos_energy_up", "dos_energy_down", "is_magnetic", "ordering", "total_magnetization_normalized_vol", "total_magnetization_normalized_formula_units", "num_magnetic_sites", "num_unique_magnetic_sites", "types_of_magnetic_species", "bulk_modulus", "shear_modulus", "universal_anisotropy", "homogeneous_poisson", "e_total", "e_ionic", "e_electronic", "n", "e_ij_max", "weighted_surface_energy_EV_PER_ANG2", "weighted_surface_energy", "weighted_work_function", "surface_anisotropy", "shape_factor", "has_reconstructed", "possible_species", "has_props", "theoretical", "database_IDs"]}