{"builder_meta": null, "nsites": null, "elements": null, "nelements": null, "composition": null, "composition_reduced": null, "formula_pretty": "LaP2", "formula_anonymous": "AB2", "chemsys": null, "volume": 556.8459061815292, "density": 4.7916199361889245, "density_atomic": 23.20191275756372, "symmetry": null, "property_name": null, "material_id": "mp-2804", "deprecated": null, "deprecation_reasons": null, "last_updated": null, "origins": null, "warnings": null, "structure": {"@module": "pymatgen.core.structure", "@class": "Structure", "charge": 0, "lattice": {"matrix": [[7.83208146, 0.00033411, -4.17023056], [-2.28291748, 7.55079587, -4.23477316], [0.00355176, -0.009106940000000001, 9.42053187]], "pbc": [true, true, true], "a": 8.873123634395226, "b": 8.953185701612304, "c": 9.420536941440279, "alpha": 118.2878719439817, "beta": 118.01167657077175, "gamma": 90.15686035336967, "volume": 556.8459061815291}, "properties": {}, "sites": [{"species": [{"element": "La", "occu": 1}], "abc": [0.03422396, 0.59129768, 0.42401478000000004], "properties": {"magmom": -0.0}, "label": "La", "xyz": [-1.0803329682166523, 4.460918037491284, 1.3477113996305525]}, {"species": [{"element": "La", "occu": 1}], "abc": [0.61017615, 0.66729751, 0.57597015], "properties": {"magmom": -0.0}, "label": "La", "xyz": [3.2576098695496682, 5.033585822924921, 0.05551634144770379]}, {"species": [{"element": "La", "occu": 1}], "abc": [0.94194573, 0.44127051, 0.88413654], "properties": {"magmom": -0.0}, "label": "La", "xyz": [6.373151768368961, 3.3242064795270565, 2.5322250713465095]}, {"species": [{"element": "La", "occu": 1}], "abc": [0.057796020000000004, 0.05713625, 0.11585427000000001], "properties": {"magmom": -0.0}, "label": "La", "xyz": [0.32263727939915443, 0.4303883928698959, 0.6084270559971638]}, {"species": [{"element": "La", "occu": 1}], "abc": [0.42276554, 0.06828948, 0.5855933600000001], "properties": {"magmom": 0.0}, "label": "La", "xyz": [3.1573147872410914, 0.5104482101490986, 3.4643806791031246]}, {"species": [{"element": "La", "occu": 1}], "abc": [0.83716699, 0.98269587, 0.4144081], "properties": {"magmom": 0.0}, "label": "La", "xyz": [4.314818360269455, 7.416641632822872, -3.7487287470039172]}, {"species": [{"element": "La", "occu": 1}], "abc": [0.376686099999999, 0.6813021300000001, 0.95590961], "properties": {"magmom": -0.0}, "label": "La", "xyz": [1.3982748398278793, 5.135793752555381, 4.549149086122227]}, {"species": [{"element": "La", "occu": 1}], "abc": [0.4207818, 0.22541009, 0.044099320000000004], "properties": {"magmom": -0.0}, "label": "La", "xyz": [2.7811613300568583, 1.7017645541742454, -2.293878671071664]}, {"species": [{"element": "P", "occu": 1}], "abc": [0.18343754, 0.27931562, 0.72963214], "properties": {"magmom": 0.0}, "label": "P", "xyz": [0.8016347230165373, 2.102471802117927, 4.92570770234232]}, {"species": [{"element": "P", "occu": 1}], "abc": [0.45382091, 0.04967236, 0.27037805], "properties": {"magmom": 0.0}, "label": "P", "xyz": [3.441924754397344, 0.3727551601667263, 0.4442160324025859]}, {"species": [{"element": "P", "occu": 1}], "abc": [0.24878205, 0.35064265, 0.569917], "properties": {"magmom": 0.0}, "label": "P", "xyz": [1.150017254871191, 2.6425239941126013, 2.8465506710940676]}, {"species": [{"element": "P", "occu": 1}], "abc": [0.6788751, 0.28073302, 0.430089499999999], "properties": {"magmom": 0.0}, "label": "P", "xyz": [4.677642340476976, 2.1160677476771586, 0.03176549503755677]}, {"species": [{"element": "P", "occu": 1}], "abc": [0.79543317, 0.20587588, 0.24148244], "properties": {"magmom": 0.0}, "label": "P", "xyz": [5.760757425934741, 1.5525933405209107, -1.9140843428216936]}, {"species": [{"element": "P", "occu": 1}], "abc": [0.55395496, 0.4644096, 0.75852904], "properties": {"magmom": 0.0}, "label": "P", "xyz": [3.2811056912743446, 3.4999392931044997, 2.8689577832585904]}, {"species": [{"element": "P", "occu": 1}], "abc": [0.66184246, 0.41227096, 0.98921532], "properties": {"magmom": 0.0}, "label": "P", "xyz": [4.245936934731375, 3.104186265706925, 4.813024799699237]}, {"species": [{"element": "P", "occu": 1}], "abc": [0.67263068, 0.92303893, 0.01080248], "properties": {"magmom": 0.0}, "label": "P", "xyz": [3.1609149380540615, 6.969804895592503, -6.612120396613662]}, {"species": [{"element": "P", "occu": 1}], "abc": [0.23181635, 0.4332008, 0.23443376], "properties": {"magmom": 0.0}, "label": "P", "xyz": [0.8274755107413049, 3.2689532894950997, -0.592744040324253]}, {"species": [{"element": "P", "occu": 1}], "abc": [0.9973797, 0.69876181, 0.76555206], "properties": {"magmom": 0.0}, "label": "P", "xyz": [6.219062563729549, 5.269569186915995, 0.0935065162894988]}, {"species": [{"element": "P", "occu": 1}], "abc": [0.278932299999999, 0.68052911, 0.24462113], "properties": {"magmom": 0.0}, "label": "P", "xyz": [0.6318975301019963, 5.136401837319887, -1.7406372600173583]}, {"species": [{"element": "P", "occu": 1}], "abc": [0.03430903, 0.93589356, 0.75536635], "properties": {"magmom": 0.0}, "label": "P", "xyz": [-1.8651737697825688, 7.059873614570141, 3.0095792798057683]}, {"species": [{"element": "P", "occu": 1}], "abc": [0.80776746, 0.04557888, 0.741569199999999], "properties": {"magmom": 0.0}, "label": "P", "xyz": [6.225081601408262, 0.3376732758390382, 3.4243835176579562]}, {"species": [{"element": "P", "occu": 1}], "abc": [0.06619046, 0.80400128, 0.25841653000000003], "properties": {"magmom": 0.0}, "label": "P", "xyz": [-1.31614166796491, 6.068518275559586, -1.2463713636222908]}, {"species": [{"element": "P", "occu": 1}], "abc": [0.41294554, 0.86528108, 0.76201334], "properties": {"magmom": 0.0}, "label": "P", "xyz": [1.2615642936788887, 6.52675916472093, 1.7922237508716305]}, {"species": [{"element": "P", "occu": 1}], "abc": [0.650941, 0.60329194, 0.23799653], "properties": {"magmom": 0.0}, "label": "P", "xyz": [3.7218025288401417, 4.553384354734879, -3.027324670298879]}]}, "task_ids": null, "uncorrected_energy_per_atom": null, "energy_per_atom": -17.17703847375, "formation_energy_per_atom": -1.260727530734127, "energy_above_hull": 0.0, "is_stable": true, "equilibrium_reaction_energy_per_atom": null, "decomposes_to": null, "xas": null, "grain_boundaries": null, "band_gap": 0.5563, "cbm": null, "vbm": null, "efermi": 7.34736905, "is_gap_direct": null, "is_metal": null, "es_source_calc_id": null, "bandstructure": null, "dos": null, "dos_energy_up": null, "dos_energy_down": null, "is_magnetic": null, "ordering": null, "total_magnetization": 2.5700000000000005e-05, "total_magnetization_normalized_vol": null, "total_magnetization_normalized_formula_units": null, "num_magnetic_sites": null, "num_unique_magnetic_sites": null, "types_of_magnetic_species": null, "bulk_modulus": null, "shear_modulus": null, "universal_anisotropy": null, "homogeneous_poisson": null, "e_total": null, "e_ionic": null, "e_electronic": null, "n": null, "e_ij_max": null, "weighted_surface_energy_EV_PER_ANG2": null, "weighted_surface_energy": null, "weighted_work_function": null, "surface_anisotropy": null, "shape_factor": null, "has_reconstructed": null, "possible_species": null, "has_props": null, "theoretical": null, "database_IDs": null, "fields_not_requested": ["builder_meta", "nsites", "elements", "nelements", "composition", "composition_reduced", "chemsys", "symmetry", "property_name", "deprecated", "deprecation_reasons", "last_updated", "origins", "warnings", "task_ids", "uncorrected_energy_per_atom", "equilibrium_reaction_energy_per_atom", "decomposes_to", "xas", "grain_boundaries", "cbm", "vbm", "is_gap_direct", "is_metal", "es_source_calc_id", "bandstructure", "dos", "dos_energy_up", "dos_energy_down", "is_magnetic", "ordering", "total_magnetization_normalized_vol", "total_magnetization_normalized_formula_units", "num_magnetic_sites", "num_unique_magnetic_sites", "types_of_magnetic_species", "bulk_modulus", "shear_modulus", "universal_anisotropy", "homogeneous_poisson", "e_total", "e_ionic", "e_electronic", "n", "e_ij_max", "weighted_surface_energy_EV_PER_ANG2", "weighted_surface_energy", "weighted_work_function", "surface_anisotropy", "shape_factor", "has_reconstructed", "possible_species", "has_props", "theoretical", "database_IDs"]}