{
  "builder_meta": null,
  "nsites": null,
  "elements": null,
  "nelements": null,
  "composition": null,
  "composition_reduced": null,
  "formula_pretty": "LaP3",
  "formula_anonymous": "AB3",
  "chemsys": null,
  "volume": 159.55954637369018,
  "density": 4.825250431830279,
  "density_atomic": 19.944943296711273,
  "symmetry": null,
  "property_name": null,
  "material_id": "mp-973065",
  "deprecated": null,
  "deprecation_reasons": null,
  "last_updated": null,
  "origins": null,
  "warnings": null,
  "structure": {
    "@module": "pymatgen.core.structure",
    "@class": "Structure",
    "charge": 0,
    "lattice": {
      "matrix": [
        [2.922739, -5.062332, 0.0],
        [2.922739, 5.062332, 0.0],
        [0.0, 0.0, 5.392028]
      ],
      "pbc": [true, true, true],
      "a": 5.845477614390889,
      "b": 5.845477614390889,
      "c": 5.392028,
      "alpha": 90.0,
      "beta": 90.0,
      "gamma": 119.99999563565284,
      "volume": 159.55954637369018
    },
    "properties": {},
    "sites": [
      {
        "species": [{ "element": "La", "occu": 1 }],
        "abc": [0.666667, 0.333333, 0.25],
        "properties": { "magmom": 0.0 },
        "label": "La",
        "xyz": [2.922739, -1.6874473748880001, 1.348007]
      },
      {
        "species": [{ "element": "La", "occu": 1 }],
        "abc": [0.333333, 0.666667, 0.75],
        "properties": { "magmom": 0.0 },
        "label": "La",
        "xyz": [2.922739, 1.6874473748880001, 4.044021]
      },
      {
        "species": [{ "element": "P", "occu": 1 }],
        "abc": [0.863441, 0.13655899999999901, 0.75],
        "properties": { "magmom": -0.0 },
        "label": "P",
        "xyz": [2.9227389999999973, -3.679718008824005, 4.044021]
      },
      {
        "species": [{ "element": "P", "occu": 1 }],
        "abc": [0.273119, 0.13655899999999901, 0.75],
        "properties": { "magmom": 0.0 },
        "label": "P",
        "xyz": [1.1973818680419972, -0.6913120579200049, 4.044021]
      },
      {
        "species": [{ "element": "P", "occu": 1 }],
        "abc": [0.863441, 0.726881, 0.75],
        "properties": { "magmom": 0.0 },
        "label": "P",
        "xyz": [4.648096131958001, -0.6913120579200003, 4.044021]
      },
      {
        "species": [{ "element": "P", "occu": 1 }],
        "abc": [0.13655899999999901, 0.863441, 0.25],
        "properties": { "magmom": -0.0 },
        "label": "P",
        "xyz": [2.9227389999999973, 3.679718008824005, 1.348007]
      },
      {
        "species": [{ "element": "P", "occu": 1 }],
        "abc": [0.726881, 0.863441, 0.25],
        "properties": { "magmom": 0.0 },
        "label": "P",
        "xyz": [4.648096131958001, 0.6913120579200003, 1.348007]
      },
      {
        "species": [{ "element": "P", "occu": 1 }],
        "abc": [0.13655899999999901, 0.273119, 0.25],
        "properties": { "magmom": 0.0 },
        "label": "P",
        "xyz": [1.1973818680419972, 0.6913120579200049, 1.348007]
      }
    ]
  },
  "task_ids": null,
  "uncorrected_energy_per_atom": null,
  "energy_per_atom": -14.707261219374999,
  "formation_energy_per_atom": -0.51950893410714,
  "energy_above_hull": 0.45014245750000004,
  "is_stable": false,
  "equilibrium_reaction_energy_per_atom": null,
  "decomposes_to": null,
  "xas": null,
  "grain_boundaries": null,
  "band_gap": 0.0,
  "cbm": null,
  "vbm": null,
  "efermi": 8.82132724,
  "is_gap_direct": null,
  "is_metal": null,
  "es_source_calc_id": null,
  "bandstructure": null,
  "dos": null,
  "dos_energy_up": null,
  "dos_energy_down": null,
  "is_magnetic": null,
  "ordering": null,
  "total_magnetization": 0.00044909999999900006,
  "total_magnetization_normalized_vol": null,
  "total_magnetization_normalized_formula_units": null,
  "num_magnetic_sites": null,
  "num_unique_magnetic_sites": null,
  "types_of_magnetic_species": null,
  "bulk_modulus": null,
  "shear_modulus": null,
  "universal_anisotropy": null,
  "homogeneous_poisson": null,
  "e_total": null,
  "e_ionic": null,
  "e_electronic": null,
  "n": null,
  "e_ij_max": null,
  "weighted_surface_energy_EV_PER_ANG2": null,
  "weighted_surface_energy": null,
  "weighted_work_function": null,
  "surface_anisotropy": null,
  "shape_factor": null,
  "has_reconstructed": null,
  "possible_species": null,
  "has_props": null,
  "theoretical": null,
  "database_IDs": null,
  "fields_not_requested": [
    "builder_meta",
    "nsites",
    "elements",
    "nelements",
    "composition",
    "composition_reduced",
    "chemsys",
    "symmetry",
    "property_name",
    "deprecated",
    "deprecation_reasons",
    "last_updated",
    "origins",
    "warnings",
    "task_ids",
    "uncorrected_energy_per_atom",
    "equilibrium_reaction_energy_per_atom",
    "decomposes_to",
    "xas",
    "grain_boundaries",
    "cbm",
    "vbm",
    "is_gap_direct",
    "is_metal",
    "es_source_calc_id",
    "bandstructure",
    "dos",
    "dos_energy_up",
    "dos_energy_down",
    "is_magnetic",
    "ordering",
    "total_magnetization_normalized_vol",
    "total_magnetization_normalized_formula_units",
    "num_magnetic_sites",
    "num_unique_magnetic_sites",
    "types_of_magnetic_species",
    "bulk_modulus",
    "shear_modulus",
    "universal_anisotropy",
    "homogeneous_poisson",
    "e_total",
    "e_ionic",
    "e_electronic",
    "n",
    "e_ij_max",
    "weighted_surface_energy_EV_PER_ANG2",
    "weighted_surface_energy",
    "weighted_work_function",
    "surface_anisotropy",
    "shape_factor",
    "has_reconstructed",
    "possible_species",
    "has_props",
    "theoretical",
    "database_IDs"
  ]
}
