{
  "builder_meta": null,
  "nsites": null,
  "elements": null,
  "nelements": null,
  "composition": null,
  "composition_reduced": null,
  "formula_pretty": "LaP5",
  "formula_anonymous": "AB5",
  "chemsys": null,
  "volume": 526.0347018161955,
  "density": 3.709440970476049,
  "density_atomic": 21.91811257567481,
  "symmetry": null,
  "property_name": null,
  "material_id": "mp-1864",
  "deprecated": null,
  "deprecation_reasons": null,
  "last_updated": null,
  "origins": null,
  "warnings": null,
  "structure": {
    "@module": "pymatgen.core.structure",
    "@class": "Structure",
    "charge": 0,
    "lattice": {
      "matrix": [
        [9.68928753, 0.0, 0.0],
        [0.0, 5.56060373, -0.045344010000000004],
        [0.0, 2.50446186, 9.74296659]
      ],
      "pbc": [true, true, true],
      "a": 9.68928753,
      "b": 5.560788606064143,
      "c": 10.059708106205214,
      "alpha": 76.05124793625443,
      "beta": 90.0,
      "gamma": 90.0,
      "volume": 526.0347018161955
    },
    "properties": {},
    "sites": [
      {
        "species": [{ "element": "La", "occu": 1 }],
        "abc": [0.75, 0.64608961, 0.50521116],
        "properties": { "magmom": 0.0 },
        "label": "La",
        "xyz": [7.266965647499999, 4.857930376746603, 4.8929591590384085]
      },
      {
        "species": [{ "element": "La", "occu": 1 }],
        "abc": [0.75, 0.62348017, 0.02294117],
        "properties": { "magmom": 0.0 },
        "label": "La",
        "xyz": [7.266965647499999, 3.5243814441718104, 0.19524396178222858]
      },
      {
        "species": [{ "element": "La", "occu": 1 }],
        "abc": [0.25, 0.37651983, 0.97705883],
        "properties": { "magmom": 0.0 },
        "label": "La",
        "xyz": [2.4223218825, 4.54068414582819, 9.502378618217772]
      },
      {
        "species": [{ "element": "La", "occu": 1 }],
        "abc": [0.25, 0.35391039, 0.49478884],
        "properties": { "magmom": 0.0 },
        "label": "La",
        "xyz": [2.4223218825, 3.2071352132533972, 4.8046634209615915]
      },
      {
        "species": [{ "element": "P", "occu": 1 }],
        "abc": [0.59249833, 0.03197216, 0.80858274],
        "properties": { "magmom": -0.0 },
        "label": "P",
        "xyz": [5.740886680414825, 2.202849145136453, 7.876544875127895]
      },
      {
        "species": [{ "element": "P", "occu": 1 }],
        "abc": [0.09249833, 0.96802784, 0.19141726],
        "properties": { "magmom": -0.0 },
        "label": "P",
        "xyz": [0.8962429154148249, 5.862216444863547, 1.821077704872105]
      },
      {
        "species": [{ "element": "P", "occu": 1 }],
        "abc": [0.90750167, 0.03197216, 0.80858274],
        "properties": { "magmom": -0.0 },
        "label": "P",
        "xyz": [8.793044614585176, 2.202849145136453, 7.876544875127895]
      },
      {
        "species": [{ "element": "P", "occu": 1 }],
        "abc": [0.03339468, 0.58797815, 0.65667394],
        "properties": { "magmom": -0.0 },
        "label": "P",
        "xyz": [0.3235706564923404, 4.914128331234428, 6.371290970830283]
      },
      {
        "species": [{ "element": "P", "occu": 1 }],
        "abc": [0.46660532, 0.58797815, 0.65667394],
        "properties": { "magmom": -0.0 },
        "label": "P",
        "xyz": [4.521073108507659, 4.914128331234428, 6.371290970830283]
      },
      {
        "species": [{ "element": "P", "occu": 1 }],
        "abc": [0.53339468, 0.41202185, 0.34332606],
        "properties": { "magmom": -0.0 },
        "label": "P",
        "xyz": [5.1682144214923404, 3.1509372587655724, 3.3263316091697166]
      },
      {
        "species": [{ "element": "P", "occu": 1 }],
        "abc": [0.41487148, 0.94536301, 0.69128191],
        "properties": { "magmom": 0.0 },
        "label": "P",
        "xyz": [4.019809057716644, 6.9880782577129805, 6.692270003622317]
      },
      {
        "species": [{ "element": "P", "occu": 1 }],
        "abc": [0.46045297, 0.6244859500000001, 0.14148933],
        "properties": { "magmom": -0.0 },
        "label": "P",
        "xyz": [4.461461220372464, 3.826873533484548, 1.3502091178698252]
      },
      {
        "species": [{ "element": "P", "occu": 1 }],
        "abc": [0.9604529700000001, 0.37551405, 0.85851067],
        "properties": { "magmom": -0.0 },
        "label": "P",
        "xyz": [9.306104985372464, 4.238192056515453, 8.347413462130175]
      },
      {
        "species": [{ "element": "P", "occu": 1 }],
        "abc": [0.40750167, 0.96802784, 0.19141726],
        "properties": { "magmom": -0.0 },
        "label": "P",
        "xyz": [3.9484008495851746, 5.862216444863547, 1.821077704872105]
      },
      {
        "species": [{ "element": "P", "occu": 1 }],
        "abc": [0.9148714800000001, 0.05463699, 0.30871809],
        "properties": { "magmom": 0.0 },
        "label": "P",
        "xyz": [8.864452822716645, 1.0769873322870203, 3.005352576377683]
      },
      {
        "species": [{ "element": "P", "occu": 1 }],
        "abc": [0.53954703, 0.37551405, 0.85851067],
        "properties": { "magmom": -0.0 },
        "label": "P",
        "xyz": [5.227826309627536, 4.238192056515453, 8.347413462130175]
      },
      {
        "species": [{ "element": "P", "occu": 1 }],
        "abc": [0.75, 0.06635702, 0.15597681],
        "properties": { "magmom": -0.0 },
        "label": "P",
        "xyz": [7.266965647499999, 0.7596230646131512, 1.5166679552663276]
      },
      {
        "species": [{ "element": "P", "occu": 1 }],
        "abc": [0.75, 0.08766233, 0.6457583100000001],
        "properties": { "magmom": -0.0 },
        "label": "P",
        "xyz": [7.266965647499999, 2.104732537351548, 6.28762667797672]
      },
      {
        "species": [{ "element": "P", "occu": 1 }],
        "abc": [0.96660532, 0.41202185, 0.34332606],
        "properties": { "magmom": -0.0 },
        "label": "P",
        "xyz": [9.36571687350766, 3.1509372587655724, 3.3263316091697166]
      },
      {
        "species": [{ "element": "P", "occu": 1 }],
        "abc": [0.25, 0.93364298, 0.84402319],
        "properties": { "magmom": -0.0 },
        "label": "P",
        "xyz": [2.4223218825, 7.30544252538685, 8.180954624733673]
      },
      {
        "species": [{ "element": "P", "occu": 1 }],
        "abc": [0.039547030000000004, 0.6244859500000001, 0.14148933],
        "properties": { "magmom": -0.0 },
        "label": "P",
        "xyz": [0.3831825446275359, 3.826873533484548, 1.3502091178698252]
      },
      {
        "species": [{ "element": "P", "occu": 1 }],
        "abc": [0.08512852, 0.94536301, 0.69128191],
        "properties": { "magmom": 0.0 },
        "label": "P",
        "xyz": [0.8248347072833556, 6.9880782577129805, 6.692270003622317]
      },
      {
        "species": [{ "element": "P", "occu": 1 }],
        "abc": [0.58512852, 0.05463699, 0.30871809],
        "properties": { "magmom": 0.0 },
        "label": "P",
        "xyz": [5.669478472283356, 1.0769873322870203, 3.005352576377683]
      },
      {
        "species": [{ "element": "P", "occu": 1 }],
        "abc": [0.25, 0.91233767, 0.35424169],
        "properties": { "magmom": -0.0 },
        "label": "P",
        "xyz": [2.4223218825, 5.960333052648453, 3.4099959020232804]
      }
    ]
  },
  "task_ids": null,
  "uncorrected_energy_per_atom": null,
  "energy_per_atom": -13.137768880000001,
  "formation_energy_per_atom": -0.678575252480158,
  "energy_above_hull": 0.0,
  "is_stable": true,
  "equilibrium_reaction_energy_per_atom": null,
  "decomposes_to": null,
  "xas": null,
  "grain_boundaries": null,
  "band_gap": 0.11390000000000002,
  "cbm": null,
  "vbm": null,
  "efermi": 7.06882829,
  "is_gap_direct": null,
  "is_metal": null,
  "es_source_calc_id": null,
  "bandstructure": null,
  "dos": null,
  "dos_energy_up": null,
  "dos_energy_down": null,
  "is_magnetic": null,
  "ordering": null,
  "total_magnetization": 0.0,
  "total_magnetization_normalized_vol": null,
  "total_magnetization_normalized_formula_units": null,
  "num_magnetic_sites": null,
  "num_unique_magnetic_sites": null,
  "types_of_magnetic_species": null,
  "bulk_modulus": null,
  "shear_modulus": null,
  "universal_anisotropy": null,
  "homogeneous_poisson": null,
  "e_total": null,
  "e_ionic": null,
  "e_electronic": null,
  "n": null,
  "e_ij_max": null,
  "weighted_surface_energy_EV_PER_ANG2": null,
  "weighted_surface_energy": null,
  "weighted_work_function": null,
  "surface_anisotropy": null,
  "shape_factor": null,
  "has_reconstructed": null,
  "possible_species": null,
  "has_props": null,
  "theoretical": null,
  "database_IDs": null,
  "fields_not_requested": [
    "builder_meta",
    "nsites",
    "elements",
    "nelements",
    "composition",
    "composition_reduced",
    "chemsys",
    "symmetry",
    "property_name",
    "deprecated",
    "deprecation_reasons",
    "last_updated",
    "origins",
    "warnings",
    "task_ids",
    "uncorrected_energy_per_atom",
    "equilibrium_reaction_energy_per_atom",
    "decomposes_to",
    "xas",
    "grain_boundaries",
    "cbm",
    "vbm",
    "is_gap_direct",
    "is_metal",
    "es_source_calc_id",
    "bandstructure",
    "dos",
    "dos_energy_up",
    "dos_energy_down",
    "is_magnetic",
    "ordering",
    "total_magnetization_normalized_vol",
    "total_magnetization_normalized_formula_units",
    "num_magnetic_sites",
    "num_unique_magnetic_sites",
    "types_of_magnetic_species",
    "bulk_modulus",
    "shear_modulus",
    "universal_anisotropy",
    "homogeneous_poisson",
    "e_total",
    "e_ionic",
    "e_electronic",
    "n",
    "e_ij_max",
    "weighted_surface_energy_EV_PER_ANG2",
    "weighted_surface_energy",
    "weighted_work_function",
    "surface_anisotropy",
    "shape_factor",
    "has_reconstructed",
    "possible_species",
    "has_props",
    "theoretical",
    "database_IDs"
  ]
}
