{
  "builder_meta": null,
  "nsites": null,
  "elements": null,
  "nelements": null,
  "composition": null,
  "composition_reduced": null,
  "formula_pretty": "LaPd",
  "formula_anonymous": "AB",
  "chemsys": null,
  "volume": 102.44014052110015,
  "density": 7.953376965216043,
  "density_atomic": 25.610035130275037,
  "symmetry": null,
  "property_name": null,
  "material_id": "mp-1002115",
  "deprecated": null,
  "deprecation_reasons": null,
  "last_updated": null,
  "origins": null,
  "warnings": null,
  "structure": {
    "@module": "pymatgen.core.structure",
    "@class": "Structure",
    "charge": 0,
    "lattice": {
      "matrix": [
        [-3.98593374, -1e-8, 0.0],
        [0.0, -0.0, -4.6583442900000005],
        [-1.9929679, -5.51707017, 0.0]
      ],
      "pbc": [true, true, true],
      "a": 3.98593374,
      "b": 4.6583442900000005,
      "c": 5.866002413154485,
      "alpha": 90.0,
      "beta": 70.13842307166792,
      "gamma": 90.0,
      "volume": 102.44014052110016
    },
    "properties": {},
    "sites": [
      {
        "species": [{ "element": "La", "occu": 1 }],
        "abc": [0.13517538, 0.75, 0.72964923],
        "properties": { "magmom": 0.0 },
        "label": "La",
        "xyz": [-1.9929676016090383, -4.025526002748223, -3.4937582175000004]
      },
      {
        "species": [{ "element": "La", "occu": 1 }],
        "abc": [0.86482462, 0.25, 0.27035077],
        "properties": { "magmom": 0.0 },
        "label": "La",
        "xyz": [-3.985934038390962, -1.4915441772517772, -1.1645860725000001]
      },
      {
        "species": [{ "element": "Pd", "occu": 1 }],
        "abc": [0.41279092, 0.75, 0.17441717],
        "properties": { "magmom": -0.0 },
        "label": "Pd",
        "xyz": [-1.9929650766124838, -0.9622717698707283, -3.4937582175000004]
      },
      {
        "species": [{ "element": "Pd", "occu": 1 }],
        "abc": [0.58720908, 0.25, 0.82558283],
        "properties": { "magmom": -0.0 },
        "label": "Pd",
        "xyz": [-3.9859365633875163, -4.554798410129272, -1.1645860725000001]
      }
    ]
  },
  "task_ids": null,
  "uncorrected_energy_per_atom": null,
  "energy_per_atom": -27.209051335,
  "formation_energy_per_atom": -0.8564344275000011,
  "energy_above_hull": 0.0,
  "is_stable": true,
  "equilibrium_reaction_energy_per_atom": null,
  "decomposes_to": null,
  "xas": null,
  "grain_boundaries": null,
  "band_gap": 0.0,
  "cbm": null,
  "vbm": null,
  "efermi": 7.57973019,
  "is_gap_direct": null,
  "is_metal": null,
  "es_source_calc_id": null,
  "bandstructure": null,
  "dos": null,
  "dos_energy_up": null,
  "dos_energy_down": null,
  "is_magnetic": null,
  "ordering": null,
  "total_magnetization": 0.0,
  "total_magnetization_normalized_vol": null,
  "total_magnetization_normalized_formula_units": null,
  "num_magnetic_sites": null,
  "num_unique_magnetic_sites": null,
  "types_of_magnetic_species": null,
  "bulk_modulus": null,
  "shear_modulus": null,
  "universal_anisotropy": null,
  "homogeneous_poisson": null,
  "e_total": null,
  "e_ionic": null,
  "e_electronic": null,
  "n": null,
  "e_ij_max": null,
  "weighted_surface_energy_EV_PER_ANG2": null,
  "weighted_surface_energy": null,
  "weighted_work_function": null,
  "surface_anisotropy": null,
  "shape_factor": null,
  "has_reconstructed": null,
  "possible_species": null,
  "has_props": null,
  "theoretical": null,
  "database_IDs": null,
  "fields_not_requested": [
    "builder_meta",
    "nsites",
    "elements",
    "nelements",
    "composition",
    "composition_reduced",
    "chemsys",
    "symmetry",
    "property_name",
    "deprecated",
    "deprecation_reasons",
    "last_updated",
    "origins",
    "warnings",
    "task_ids",
    "uncorrected_energy_per_atom",
    "equilibrium_reaction_energy_per_atom",
    "decomposes_to",
    "xas",
    "grain_boundaries",
    "cbm",
    "vbm",
    "is_gap_direct",
    "is_metal",
    "es_source_calc_id",
    "bandstructure",
    "dos",
    "dos_energy_up",
    "dos_energy_down",
    "is_magnetic",
    "ordering",
    "total_magnetization_normalized_vol",
    "total_magnetization_normalized_formula_units",
    "num_magnetic_sites",
    "num_unique_magnetic_sites",
    "types_of_magnetic_species",
    "bulk_modulus",
    "shear_modulus",
    "universal_anisotropy",
    "homogeneous_poisson",
    "e_total",
    "e_ionic",
    "e_electronic",
    "n",
    "e_ij_max",
    "weighted_surface_energy_EV_PER_ANG2",
    "weighted_surface_energy",
    "weighted_work_function",
    "surface_anisotropy",
    "shape_factor",
    "has_reconstructed",
    "possible_species",
    "has_props",
    "theoretical",
    "database_IDs"
  ]
}
