{
  "builder_meta": null,
  "nsites": null,
  "elements": null,
  "nelements": null,
  "composition": null,
  "composition_reduced": null,
  "formula_pretty": "LaPt",
  "formula_anonymous": "AB",
  "chemsys": null,
  "volume": 101.14638046802109,
  "density": 10.966335329090185,
  "density_atomic": 25.286595117005273,
  "symmetry": null,
  "property_name": null,
  "material_id": "mp-1002104",
  "deprecated": null,
  "deprecation_reasons": null,
  "last_updated": null,
  "origins": null,
  "warnings": null,
  "structure": {
    "@module": "pymatgen.core.structure",
    "@class": "Structure",
    "charge": 0,
    "lattice": {
      "matrix": [
        [-3.98501394, -2e-8, 0.0],
        [0.0, 0.0, -4.54631466],
        [-1.9925085, -5.58291494, 0.0]
      ],
      "pbc": [true, true, true],
      "a": 3.98501394,
      "b": 4.54631466,
      "c": 5.927818262214814,
      "alpha": 90.0,
      "beta": 70.35882530352843,
      "gamma": 90.0,
      "volume": 101.14638046802109
    },
    "properties": {},
    "sites": [
      {
        "species": [{ "element": "La", "occu": 1 }],
        "abc": [0.13561828, 0.75, 0.72876343],
        "properties": { "magmom": -0.0 },
        "label": "La",
        "xyz": [-1.9925080650829783, -4.06862424378501, -3.409735995]
      },
      {
        "species": [{ "element": "La", "occu": 1 }],
        "abc": [0.86438172, 0.25, 0.27123657],
        "properties": { "magmom": -0.0 },
        "label": "La",
        "xyz": [-3.985014374917022, -1.5142907162149903, -1.136578665]
      },
      {
        "species": [{ "element": "Pt", "occu": 1 }],
        "abc": [0.40880398, 0.75, 0.18239204],
        "properties": { "magmom": 0.0 },
        "label": "Pt",
        "xyz": [-1.9925072490598212, -1.0182792532291574, -3.409735995]
      },
      {
        "species": [{ "element": "Pt", "occu": 1 }],
        "abc": [0.59119602, 0.25, 0.81760796],
        "properties": { "magmom": 0.0 },
        "label": "Pt",
        "xyz": [-3.985015190940179, -4.564635706770844, -1.136578665]
      }
    ]
  },
  "task_ids": null,
  "uncorrected_energy_per_atom": null,
  "energy_per_atom": -41.9138439675,
  "formation_energy_per_atom": -1.297595414999996,
  "energy_above_hull": 0.0,
  "is_stable": true,
  "equilibrium_reaction_energy_per_atom": null,
  "decomposes_to": null,
  "xas": null,
  "grain_boundaries": null,
  "band_gap": 0.0,
  "cbm": null,
  "vbm": null,
  "efermi": 7.99195718,
  "is_gap_direct": null,
  "is_metal": null,
  "es_source_calc_id": null,
  "bandstructure": null,
  "dos": null,
  "dos_energy_up": null,
  "dos_energy_down": null,
  "is_magnetic": null,
  "ordering": null,
  "total_magnetization": 1.3e-6,
  "total_magnetization_normalized_vol": null,
  "total_magnetization_normalized_formula_units": null,
  "num_magnetic_sites": null,
  "num_unique_magnetic_sites": null,
  "types_of_magnetic_species": null,
  "bulk_modulus": null,
  "shear_modulus": null,
  "universal_anisotropy": null,
  "homogeneous_poisson": null,
  "e_total": null,
  "e_ionic": null,
  "e_electronic": null,
  "n": null,
  "e_ij_max": null,
  "weighted_surface_energy_EV_PER_ANG2": null,
  "weighted_surface_energy": null,
  "weighted_work_function": null,
  "surface_anisotropy": null,
  "shape_factor": null,
  "has_reconstructed": null,
  "possible_species": null,
  "has_props": null,
  "theoretical": null,
  "database_IDs": null,
  "fields_not_requested": [
    "builder_meta",
    "nsites",
    "elements",
    "nelements",
    "composition",
    "composition_reduced",
    "chemsys",
    "symmetry",
    "property_name",
    "deprecated",
    "deprecation_reasons",
    "last_updated",
    "origins",
    "warnings",
    "task_ids",
    "uncorrected_energy_per_atom",
    "equilibrium_reaction_energy_per_atom",
    "decomposes_to",
    "xas",
    "grain_boundaries",
    "cbm",
    "vbm",
    "is_gap_direct",
    "is_metal",
    "es_source_calc_id",
    "bandstructure",
    "dos",
    "dos_energy_up",
    "dos_energy_down",
    "is_magnetic",
    "ordering",
    "total_magnetization_normalized_vol",
    "total_magnetization_normalized_formula_units",
    "num_magnetic_sites",
    "num_unique_magnetic_sites",
    "types_of_magnetic_species",
    "bulk_modulus",
    "shear_modulus",
    "universal_anisotropy",
    "homogeneous_poisson",
    "e_total",
    "e_ionic",
    "e_electronic",
    "n",
    "e_ij_max",
    "weighted_surface_energy_EV_PER_ANG2",
    "weighted_surface_energy",
    "weighted_work_function",
    "surface_anisotropy",
    "shape_factor",
    "has_reconstructed",
    "possible_species",
    "has_props",
    "theoretical",
    "database_IDs"
  ]
}
