{
  "builder_meta": null,
  "nsites": null,
  "elements": null,
  "nelements": null,
  "composition": null,
  "composition_reduced": null,
  "formula_pretty": "LaRh3",
  "formula_anonymous": "AB3",
  "chemsys": null,
  "volume": 434.4349435684362,
  "density": 10.265662731658638,
  "density_atomic": 18.101455982018177,
  "symmetry": null,
  "property_name": null,
  "material_id": "mp-974030",
  "deprecated": null,
  "deprecation_reasons": null,
  "last_updated": null,
  "origins": null,
  "warnings": null,
  "structure": {
    "@module": "pymatgen.core.structure",
    "@class": "Structure",
    "charge": 0,
    "lattice": {
      "matrix": [
        [2.66065685, -4.60839157, 0.0],
        [2.66065685, 4.60839157, -0.0],
        [-0.0, -0.0, 17.71562647]
      ],
      "pbc": [true, true, true],
      "a": 5.321312595206091,
      "b": 5.321312595206091,
      "c": 17.71562647,
      "alpha": 90.0,
      "beta": 90.0,
      "gamma": 119.99998626418243,
      "volume": 434.4349435684362
    },
    "properties": {},
    "sites": [
      {
        "species": [{ "element": "La", "occu": 1 }],
        "abc": [0.333333, 0.666667, 0.5428265],
        "properties": { "magmom": -0.0 },
        "label": "La",
        "xyz": [2.66065685, 1.5361335955943802, 9.616511512017455]
      },
      {
        "species": [{ "element": "La", "occu": 1 }],
        "abc": [0.666667, 0.333333, 0.042826499999999004],
        "properties": { "magmom": -0.0 },
        "label": "La",
        "xyz": [2.66065685, -1.5361335955943802, 0.7586982770174374]
      },
      {
        "species": [{ "element": "La", "occu": 1 }],
        "abc": [0.666667, 0.333333, 0.457173499999999],
        "properties": { "magmom": -0.0 },
        "label": "La",
        "xyz": [2.66065685, -1.5361335955943802, 8.099114957982527]
      },
      {
        "species": [{ "element": "La", "occu": 1 }],
        "abc": [0.333333, 0.666667, 0.9571735],
        "properties": { "magmom": -0.0 },
        "label": "La",
        "xyz": [2.66065685, 1.5361335955943802, 16.956928192982545]
      },
      {
        "species": [{ "element": "La", "occu": 1 }],
        "abc": [0.333333, 0.666667, 0.75],
        "properties": { "magmom": 0.0 },
        "label": "La",
        "xyz": [2.66065685, 1.5361335955943802, 13.2867198525]
      },
      {
        "species": [{ "element": "La", "occu": 1 }],
        "abc": [0.666667, 0.333333, 0.25],
        "properties": { "magmom": 0.0 },
        "label": "La",
        "xyz": [2.66065685, -1.5361335955943802, 4.4289066175]
      },
      {
        "species": [{ "element": "Rh", "occu": 1 }],
        "abc": [0.16656087, 0.33312075, 0.12853831],
        "properties": { "magmom": 0.0 },
        "label": "Rh",
        "xyz": [1.3294813250720972, 0.7675731468922118, 2.2771366870450653]
      },
      {
        "species": [{ "element": "Rh", "occu": 1 }],
        "abc": [0.83343913, 0.66687925, 0.62853831],
        "properties": { "magmom": 0.0 },
        "label": "Rh",
        "xyz": [3.9918323749279034, -0.7675731468922118, 11.134949922045067]
      },
      {
        "species": [{ "element": "Rh", "occu": 1 }],
        "abc": [0.66687925, 0.83343913, 0.12853831],
        "properties": { "magmom": 0.0 },
        "label": "Rh",
        "xyz": [3.9918323749279034, 0.7675731468922118, 2.2771366870450653]
      },
      {
        "species": [{ "element": "Rh", "occu": 1 }],
        "abc": [0.16656087, 0.83343913, 0.12853831],
        "properties": { "magmom": 0.0 },
        "label": "Rh",
        "xyz": [2.66065685, 3.073236151600269, 2.2771366870450653]
      },
      {
        "species": [{ "element": "Rh", "occu": 1 }],
        "abc": [0.83343913, 0.16656087, 0.62853831],
        "properties": { "magmom": 0.0 },
        "label": "Rh",
        "xyz": [2.66065685, -3.073236151600269, 11.134949922045067]
      },
      {
        "species": [{ "element": "Rh", "occu": 1 }],
        "abc": [0.33312075, 0.16656087, 0.62853831],
        "properties": { "magmom": 0.0 },
        "label": "Rh",
        "xyz": [1.3294813250720972, -0.7675731468922118, 11.134949922045067]
      },
      {
        "species": [{ "element": "Rh", "occu": 1 }],
        "abc": [0.83343913, 0.66687925, 0.8714616900000001],
        "properties": { "magmom": 0.0 },
        "label": "Rh",
        "xyz": [3.9918323749279034, -0.7675731468922118, 15.438489782954935]
      },
      {
        "species": [{ "element": "Rh", "occu": 1 }],
        "abc": [0.83343913, 0.16656087, 0.8714616900000001],
        "properties": { "magmom": 0.0 },
        "label": "Rh",
        "xyz": [2.66065685, -3.073236151600269, 15.438489782954935]
      },
      {
        "species": [{ "element": "Rh", "occu": 1 }],
        "abc": [0.33312075, 0.16656087, 0.8714616900000001],
        "properties": { "magmom": 0.0 },
        "label": "Rh",
        "xyz": [1.3294813250720972, -0.7675731468922118, 15.438489782954935]
      },
      {
        "species": [{ "element": "Rh", "occu": 1 }],
        "abc": [0.66687925, 0.83343913, 0.37146169],
        "properties": { "magmom": 0.0 },
        "label": "Rh",
        "xyz": [3.9918323749279034, 0.7675731468922118, 6.580676547954934]
      },
      {
        "species": [{ "element": "Rh", "occu": 1 }],
        "abc": [0.16656087, 0.83343913, 0.37146169],
        "properties": { "magmom": 0.0 },
        "label": "Rh",
        "xyz": [2.66065685, 3.073236151600269, 6.580676547954934]
      },
      {
        "species": [{ "element": "Rh", "occu": 1 }],
        "abc": [0.16656087, 0.33312075, 0.37146169],
        "properties": { "magmom": 0.0 },
        "label": "Rh",
        "xyz": [1.3294813250720972, 0.7675731468922118, 6.580676547954934]
      },
      {
        "species": [{ "element": "Rh", "occu": 1 }],
        "abc": [0.0, 0.0, 0.25],
        "properties": { "magmom": 0.0 },
        "label": "Rh",
        "xyz": [0.0, 0.0, 4.4289066175]
      },
      {
        "species": [{ "element": "Rh", "occu": 1 }],
        "abc": [0.0, 0.0, 0.75],
        "properties": { "magmom": 0.0 },
        "label": "Rh",
        "xyz": [0.0, 0.0, 13.2867198525]
      },
      {
        "species": [{ "element": "Rh", "occu": 1 }],
        "abc": [0.333333, 0.666667, 0.25],
        "properties": { "magmom": 0.0 },
        "label": "Rh",
        "xyz": [2.66065685, 1.5361335955943802, 4.4289066175]
      },
      {
        "species": [{ "element": "Rh", "occu": 1 }],
        "abc": [0.666667, 0.333333, 0.75],
        "properties": { "magmom": 0.0 },
        "label": "Rh",
        "xyz": [2.66065685, -1.5361335955943802, 13.2867198525]
      },
      {
        "species": [{ "element": "Rh", "occu": 1 }],
        "abc": [0.0, 0.0, -0.0],
        "properties": { "magmom": 0.0 },
        "label": "Rh",
        "xyz": [0.0, 0.0, 0.0]
      },
      {
        "species": [{ "element": "Rh", "occu": 1 }],
        "abc": [0.0, 0.0, 0.5],
        "properties": { "magmom": 0.0 },
        "label": "Rh",
        "xyz": [0.0, 0.0, 8.857813235]
      }
    ]
  },
  "task_ids": null,
  "uncorrected_energy_per_atom": null,
  "energy_per_atom": -7.283076026250001,
  "formation_energy_per_atom": -0.5258433475000001,
  "energy_above_hull": 0.0,
  "is_stable": true,
  "equilibrium_reaction_energy_per_atom": null,
  "decomposes_to": null,
  "xas": null,
  "grain_boundaries": null,
  "band_gap": 0.0,
  "cbm": null,
  "vbm": null,
  "efermi": 7.51814879,
  "is_gap_direct": null,
  "is_metal": null,
  "es_source_calc_id": null,
  "bandstructure": null,
  "dos": null,
  "dos_energy_up": null,
  "dos_energy_down": null,
  "is_magnetic": null,
  "ordering": null,
  "total_magnetization": 0.0004016,
  "total_magnetization_normalized_vol": null,
  "total_magnetization_normalized_formula_units": null,
  "num_magnetic_sites": null,
  "num_unique_magnetic_sites": null,
  "types_of_magnetic_species": null,
  "bulk_modulus": null,
  "shear_modulus": null,
  "universal_anisotropy": null,
  "homogeneous_poisson": null,
  "e_total": null,
  "e_ionic": null,
  "e_electronic": null,
  "n": null,
  "e_ij_max": null,
  "weighted_surface_energy_EV_PER_ANG2": null,
  "weighted_surface_energy": null,
  "weighted_work_function": null,
  "surface_anisotropy": null,
  "shape_factor": null,
  "has_reconstructed": null,
  "possible_species": null,
  "has_props": null,
  "theoretical": null,
  "database_IDs": null,
  "fields_not_requested": [
    "builder_meta",
    "nsites",
    "elements",
    "nelements",
    "composition",
    "composition_reduced",
    "chemsys",
    "symmetry",
    "property_name",
    "deprecated",
    "deprecation_reasons",
    "last_updated",
    "origins",
    "warnings",
    "task_ids",
    "uncorrected_energy_per_atom",
    "equilibrium_reaction_energy_per_atom",
    "decomposes_to",
    "xas",
    "grain_boundaries",
    "cbm",
    "vbm",
    "is_gap_direct",
    "is_metal",
    "es_source_calc_id",
    "bandstructure",
    "dos",
    "dos_energy_up",
    "dos_energy_down",
    "is_magnetic",
    "ordering",
    "total_magnetization_normalized_vol",
    "total_magnetization_normalized_formula_units",
    "num_magnetic_sites",
    "num_unique_magnetic_sites",
    "types_of_magnetic_species",
    "bulk_modulus",
    "shear_modulus",
    "universal_anisotropy",
    "homogeneous_poisson",
    "e_total",
    "e_ionic",
    "e_electronic",
    "n",
    "e_ij_max",
    "weighted_surface_energy_EV_PER_ANG2",
    "weighted_surface_energy",
    "weighted_work_function",
    "surface_anisotropy",
    "shape_factor",
    "has_reconstructed",
    "possible_species",
    "has_props",
    "theoretical",
    "database_IDs"
  ]
}
