{
  "builder_meta": null,
  "nsites": null,
  "elements": null,
  "nelements": null,
  "composition": null,
  "composition_reduced": null,
  "formula_pretty": "LaRu2",
  "formula_anonymous": "AB2",
  "chemsys": null,
  "volume": 113.2676108843764,
  "density": 9.999669314117646,
  "density_atomic": 18.877935147396066,
  "symmetry": null,
  "property_name": null,
  "material_id": "mp-2019",
  "deprecated": null,
  "deprecation_reasons": null,
  "last_updated": null,
  "origins": null,
  "warnings": null,
  "structure": {
    "@module": "pymatgen.core.structure",
    "@class": "Structure",
    "charge": 0,
    "lattice": {
      "matrix": [
        [4.70331846, -1e-8, 2.71546222],
        [1.56777214, 4.43432575, 2.71546222],
        [0.0, 0.0, 5.43092444]
      ],
      "pbc": [true, true, true],
      "a": 5.430924378448304,
      "b": 5.43091975712407,
      "c": 5.43092444,
      "alpha": 59.99997147659734,
      "beta": 59.99999962508892,
      "gamma": 59.999978874982034,
      "volume": 113.2676108843764
    },
    "properties": {},
    "sites": [
      {
        "species": [{ "element": "La", "occu": 1 }],
        "abc": [0.125, 0.124999, 0.125],
        "properties": { "magmom": -0.0 },
        "label": "La",
        "xyz": [0.78388475722786, 0.55428628317425, 1.35772839453778]
      },
      {
        "species": [{ "element": "La", "occu": 1 }],
        "abc": [0.875, 0.875000999999999, 0.875],
        "properties": { "magmom": -0.0 },
        "label": "La",
        "xyz": [5.487205842772139, 3.880039456825746, 9.504120485462218]
      },
      {
        "species": [{ "element": "Ru", "occu": 1 }],
        "abc": [0.5, 0.0, 0.5],
        "properties": { "magmom": 0.001 },
        "label": "Ru",
        "xyz": [2.35165923, -5e-9, 4.0731933300000005]
      },
      {
        "species": [{ "element": "Ru", "occu": 1 }],
        "abc": [0.0, 0.5, 0.5],
        "properties": { "magmom": 0.001 },
        "label": "Ru",
        "xyz": [0.78388607, 2.217162875, 4.0731933300000005]
      },
      {
        "species": [{ "element": "Ru", "occu": 1 }],
        "abc": [0.5, 0.5, 0.5],
        "properties": { "magmom": 0.001 },
        "label": "Ru",
        "xyz": [3.1355453, 2.21716287, 5.43092444]
      },
      {
        "species": [{ "element": "Ru", "occu": 1 }],
        "abc": [0.5, 0.5, -0.0],
        "properties": { "magmom": 0.001 },
        "label": "Ru",
        "xyz": [3.1355453, 2.21716287, 2.71546222]
      }
    ]
  },
  "task_ids": null,
  "uncorrected_energy_per_atom": null,
  "energy_per_atom": -7.960204626666666,
  "formation_energy_per_atom": -0.13193389833333302,
  "energy_above_hull": 0.0017812852380950002,
  "is_stable": false,
  "equilibrium_reaction_energy_per_atom": null,
  "decomposes_to": null,
  "xas": null,
  "grain_boundaries": null,
  "band_gap": 0.0,
  "cbm": null,
  "vbm": null,
  "efermi": 8.58311035,
  "is_gap_direct": null,
  "is_metal": null,
  "es_source_calc_id": null,
  "bandstructure": null,
  "dos": null,
  "dos_energy_up": null,
  "dos_energy_down": null,
  "is_magnetic": null,
  "ordering": null,
  "total_magnetization": 0.0031665,
  "total_magnetization_normalized_vol": null,
  "total_magnetization_normalized_formula_units": null,
  "num_magnetic_sites": null,
  "num_unique_magnetic_sites": null,
  "types_of_magnetic_species": null,
  "bulk_modulus": null,
  "shear_modulus": null,
  "universal_anisotropy": null,
  "homogeneous_poisson": null,
  "e_total": null,
  "e_ionic": null,
  "e_electronic": null,
  "n": null,
  "e_ij_max": null,
  "weighted_surface_energy_EV_PER_ANG2": null,
  "weighted_surface_energy": null,
  "weighted_work_function": null,
  "surface_anisotropy": null,
  "shape_factor": null,
  "has_reconstructed": null,
  "possible_species": null,
  "has_props": null,
  "theoretical": null,
  "database_IDs": null,
  "fields_not_requested": [
    "builder_meta",
    "nsites",
    "elements",
    "nelements",
    "composition",
    "composition_reduced",
    "chemsys",
    "symmetry",
    "property_name",
    "deprecated",
    "deprecation_reasons",
    "last_updated",
    "origins",
    "warnings",
    "task_ids",
    "uncorrected_energy_per_atom",
    "equilibrium_reaction_energy_per_atom",
    "decomposes_to",
    "xas",
    "grain_boundaries",
    "cbm",
    "vbm",
    "is_gap_direct",
    "is_metal",
    "es_source_calc_id",
    "bandstructure",
    "dos",
    "dos_energy_up",
    "dos_energy_down",
    "is_magnetic",
    "ordering",
    "total_magnetization_normalized_vol",
    "total_magnetization_normalized_formula_units",
    "num_magnetic_sites",
    "num_unique_magnetic_sites",
    "types_of_magnetic_species",
    "bulk_modulus",
    "shear_modulus",
    "universal_anisotropy",
    "homogeneous_poisson",
    "e_total",
    "e_ionic",
    "e_electronic",
    "n",
    "e_ij_max",
    "weighted_surface_energy_EV_PER_ANG2",
    "weighted_surface_energy",
    "weighted_work_function",
    "surface_anisotropy",
    "shape_factor",
    "has_reconstructed",
    "possible_species",
    "has_props",
    "theoretical",
    "database_IDs"
  ]
}
