{
  "builder_meta": null,
  "nsites": null,
  "elements": null,
  "nelements": null,
  "composition": null,
  "composition_reduced": null,
  "formula_pretty": "LaS2",
  "formula_anonymous": "AB2",
  "chemsys": null,
  "volume": 557.9655833265863,
  "density": 4.8339659637129095,
  "density_atomic": 23.248565971941094,
  "symmetry": null,
  "property_name": null,
  "material_id": "mp-1508",
  "deprecated": null,
  "deprecation_reasons": null,
  "last_updated": null,
  "origins": null,
  "warnings": null,
  "structure": {
    "@module": "pymatgen.core.structure",
    "@class": "Structure",
    "charge": 0,
    "lattice": {
      "matrix": [
        [4.15927327, -0.0, 0.0],
        [0.0, 8.17723374, 0.0],
        [0.0, 0.0, 16.40527612]
      ],
      "pbc": [true, true, true],
      "a": 4.15927327,
      "b": 8.17723374,
      "c": 16.40527612,
      "alpha": 90.0,
      "beta": 90.0,
      "gamma": 90.0,
      "volume": 557.9655833265863
    },
    "properties": {},
    "sites": [
      {
        "species": [{ "element": "La", "occu": 1 }],
        "abc": [0.21779018, 0.1298156, 0.38830911],
        "properties": { "magmom": 0.0 },
        "label": "La",
        "xyz": [0.9058488741424886, 1.0615325042983441, 6.370318169461453]
      },
      {
        "species": [{ "element": "La", "occu": 1 }],
        "abc": [0.71779018, 0.370184399999999, 0.61169089],
        "properties": { "magmom": 0.0 },
        "label": "La",
        "xyz": [2.985485509142489, 3.027084365701648, 10.034957950538546]
      },
      {
        "species": [{ "element": "La", "occu": 1 }],
        "abc": [0.28220982, 0.629815599999999, 0.11169089],
        "properties": { "magmom": 0.0 },
        "label": "La",
        "xyz": [1.1737877608575114, 5.150149374298336, 1.8323198905385467]
      },
      {
        "species": [{ "element": "La", "occu": 1 }],
        "abc": [0.7822098200000001, 0.8701844, 0.88830911],
        "properties": { "magmom": 0.0 },
        "label": "La",
        "xyz": [3.2534243958575115, 7.115701235701656, 14.572956229461454]
      },
      {
        "species": [{ "element": "La", "occu": 1 }],
        "abc": [0.7822098200000001, 0.8701844, 0.61169089],
        "properties": { "magmom": 0.0 },
        "label": "La",
        "xyz": [3.2534243958575115, 7.115701235701656, 10.034957950538546]
      },
      {
        "species": [{ "element": "La", "occu": 1 }],
        "abc": [0.28220982, 0.629815599999999, 0.38830911],
        "properties": { "magmom": 0.0 },
        "label": "La",
        "xyz": [1.1737877608575114, 5.150149374298336, 6.370318169461453]
      },
      {
        "species": [{ "element": "La", "occu": 1 }],
        "abc": [0.71779018, 0.370184399999999, 0.88830911],
        "properties": { "magmom": 0.0 },
        "label": "La",
        "xyz": [2.985485509142489, 3.027084365701648, 14.572956229461454]
      },
      {
        "species": [{ "element": "La", "occu": 1 }],
        "abc": [0.21779018, 0.1298156, 0.11169089],
        "properties": { "magmom": 0.0 },
        "label": "La",
        "xyz": [0.9058488741424886, 1.0615325042983441, 1.8323198905385467]
      },
      {
        "species": [{ "element": "S", "occu": 1 }],
        "abc": [0.73852187, 0.3746353, 0.43275082000000004],
        "properties": { "magmom": -0.0 },
        "label": "S",
        "xyz": [3.071714273201415, 3.063480415355022, 7.099396693256419]
      },
      {
        "species": [{ "element": "S", "occu": 1 }],
        "abc": [0.23852187, 0.1253647, 0.56724918],
        "properties": { "magmom": -0.0 },
        "label": "S",
        "xyz": [0.9920776382014148, 1.025136454644978, 9.305879426743582]
      },
      {
        "species": [{ "element": "S", "occu": 1 }],
        "abc": [0.76147813, 0.8746353, 0.06724918],
        "properties": { "magmom": -0.0 },
        "label": "S",
        "xyz": [3.167195631798585, 7.152097285355022, 1.1032413667435816]
      },
      {
        "species": [{ "element": "S", "occu": 1 }],
        "abc": [0.26147813000000003, 0.6253647, 0.93275082],
        "properties": { "magmom": -0.0 },
        "label": "S",
        "xyz": [1.0875589967985853, 5.1137533246449784, 15.302034753256418]
      },
      {
        "species": [{ "element": "S", "occu": 1 }],
        "abc": [0.26147813000000003, 0.6253647, 0.56724918],
        "properties": { "magmom": -0.0 },
        "label": "S",
        "xyz": [1.0875589967985853, 5.1137533246449784, 9.305879426743582]
      },
      {
        "species": [{ "element": "S", "occu": 1 }],
        "abc": [0.76147813, 0.8746353, 0.43275082000000004],
        "properties": { "magmom": -0.0 },
        "label": "S",
        "xyz": [3.167195631798585, 7.152097285355022, 7.099396693256419]
      },
      {
        "species": [{ "element": "S", "occu": 1 }],
        "abc": [0.23852187, 0.1253647, 0.93275082],
        "properties": { "magmom": -0.0 },
        "label": "S",
        "xyz": [0.9920776382014148, 1.025136454644978, 15.302034753256418]
      },
      {
        "species": [{ "element": "S", "occu": 1 }],
        "abc": [0.73852187, 0.3746353, 0.06724918],
        "properties": { "magmom": -0.0 },
        "label": "S",
        "xyz": [3.071714273201415, 3.063480415355022, 1.1032413667435816]
      },
      {
        "species": [{ "element": "S", "occu": 1 }],
        "abc": [0.14076341, 0.39371267, 0.25],
        "properties": { "magmom": -0.0 },
        "label": "S",
        "xyz": [0.5854734886070507, 3.219480528989486, 4.10131903]
      },
      {
        "species": [{ "element": "S", "occu": 1 }],
        "abc": [0.64076341, 0.10628733, 0.75],
        "properties": { "magmom": -0.0 },
        "label": "S",
        "xyz": [2.6651101236070507, 0.8691363410105142, 12.30395709]
      },
      {
        "species": [{ "element": "S", "occu": 1 }],
        "abc": [0.35923659, 0.89371267, 0.25],
        "properties": { "magmom": -0.0 },
        "label": "S",
        "xyz": [1.4941631463929494, 7.308097398989486, 4.10131903]
      },
      {
        "species": [{ "element": "S", "occu": 1 }],
        "abc": [0.85923659, 0.60628733, 0.75],
        "properties": { "magmom": -0.0 },
        "label": "S",
        "xyz": [3.573799781392949, 4.957753211010514, 12.30395709]
      },
      {
        "species": [{ "element": "S", "occu": 1 }],
        "abc": [0.66093483, 0.09859125, 0.25],
        "properties": { "magmom": -0.0 },
        "label": "S",
        "xyz": [2.749008571630994, 0.8062036959687751, 4.10131903]
      },
      {
        "species": [{ "element": "S", "occu": 1 }],
        "abc": [0.16093483, 0.40140875, 0.75],
        "properties": { "magmom": -0.0 },
        "label": "S",
        "xyz": [0.669371936630994, 3.282413174031225, 12.30395709]
      },
      {
        "species": [{ "element": "S", "occu": 1 }],
        "abc": [0.83906517, 0.59859125, 0.25],
        "properties": { "magmom": -0.0 },
        "label": "S",
        "xyz": [3.489901333369006, 4.894820565968775, 4.10131903]
      },
      {
        "species": [{ "element": "S", "occu": 1 }],
        "abc": [0.33906517, 0.90140875, 0.75],
        "properties": { "magmom": -0.0 },
        "label": "S",
        "xyz": [1.410264698369006, 7.371030044031225, 12.30395709]
      }
    ]
  },
  "task_ids": null,
  "uncorrected_energy_per_atom": null,
  "energy_per_atom": -17.413096317916665,
  "formation_energy_per_atom": -2.1415035281249972,
  "energy_above_hull": 0.0,
  "is_stable": true,
  "equilibrium_reaction_energy_per_atom": null,
  "decomposes_to": null,
  "xas": null,
  "grain_boundaries": null,
  "band_gap": 0.6312999999999991,
  "cbm": null,
  "vbm": null,
  "efermi": 6.71840804,
  "is_gap_direct": null,
  "is_metal": null,
  "es_source_calc_id": null,
  "bandstructure": null,
  "dos": null,
  "dos_energy_up": null,
  "dos_energy_down": null,
  "is_magnetic": null,
  "ordering": null,
  "total_magnetization": 0.0,
  "total_magnetization_normalized_vol": null,
  "total_magnetization_normalized_formula_units": null,
  "num_magnetic_sites": null,
  "num_unique_magnetic_sites": null,
  "types_of_magnetic_species": null,
  "bulk_modulus": null,
  "shear_modulus": null,
  "universal_anisotropy": null,
  "homogeneous_poisson": null,
  "e_total": null,
  "e_ionic": null,
  "e_electronic": null,
  "n": null,
  "e_ij_max": null,
  "weighted_surface_energy_EV_PER_ANG2": null,
  "weighted_surface_energy": null,
  "weighted_work_function": null,
  "surface_anisotropy": null,
  "shape_factor": null,
  "has_reconstructed": null,
  "possible_species": null,
  "has_props": null,
  "theoretical": null,
  "database_IDs": null,
  "fields_not_requested": [
    "builder_meta",
    "nsites",
    "elements",
    "nelements",
    "composition",
    "composition_reduced",
    "chemsys",
    "symmetry",
    "property_name",
    "deprecated",
    "deprecation_reasons",
    "last_updated",
    "origins",
    "warnings",
    "task_ids",
    "uncorrected_energy_per_atom",
    "equilibrium_reaction_energy_per_atom",
    "decomposes_to",
    "xas",
    "grain_boundaries",
    "cbm",
    "vbm",
    "is_gap_direct",
    "is_metal",
    "es_source_calc_id",
    "bandstructure",
    "dos",
    "dos_energy_up",
    "dos_energy_down",
    "is_magnetic",
    "ordering",
    "total_magnetization_normalized_vol",
    "total_magnetization_normalized_formula_units",
    "num_magnetic_sites",
    "num_unique_magnetic_sites",
    "types_of_magnetic_species",
    "bulk_modulus",
    "shear_modulus",
    "universal_anisotropy",
    "homogeneous_poisson",
    "e_total",
    "e_ionic",
    "e_electronic",
    "n",
    "e_ij_max",
    "weighted_surface_energy_EV_PER_ANG2",
    "weighted_surface_energy",
    "weighted_work_function",
    "surface_anisotropy",
    "shape_factor",
    "has_reconstructed",
    "possible_species",
    "has_props",
    "theoretical",
    "database_IDs"
  ]
}
