{
  "builder_meta": null,
  "nsites": null,
  "elements": null,
  "nelements": null,
  "composition": null,
  "composition_reduced": null,
  "formula_pretty": "LaSb2",
  "formula_anonymous": "AB2",
  "chemsys": null,
  "volume": 373.84208563140163,
  "density": 6.794659642724029,
  "density_atomic": 31.153507135950136,
  "symmetry": null,
  "property_name": null,
  "material_id": "mp-1101942",
  "deprecated": null,
  "deprecation_reasons": null,
  "last_updated": null,
  "origins": null,
  "warnings": null,
  "structure": {
    "@module": "pymatgen.core.structure",
    "@class": "Structure",
    "charge": 0,
    "lattice": {
      "matrix": [
        [3.18410566, 3.11183442, -0.0],
        [-3.18410566, 3.11183442, -0.0],
        [0.0, 0.0, 18.86488857]
      ],
      "pbc": [true, true, true],
      "a": 4.4521952238801,
      "b": 4.4521952238801,
      "c": 18.86488857,
      "alpha": 90.0,
      "beta": 90.0,
      "gamma": 91.3153413524857,
      "volume": 373.84208563140163
    },
    "properties": {},
    "sites": [
      {
        "species": [{ "element": "La", "occu": 1 }],
        "abc": [0.36476839, 0.36476839, 0.88917017],
        "properties": { "magmom": 0.0 },
        "label": "La",
        "xyz": [0.0, 2.270197662659968, 16.77409617681796]
      },
      {
        "species": [{ "element": "La", "occu": 1 }],
        "abc": [0.6352316100000001, 0.6352316100000001, 0.11082983],
        "properties": { "magmom": 0.0 },
        "label": "La",
        "xyz": [0.0, 3.953471177340033, 2.0907923931820434]
      },
      {
        "species": [{ "element": "La", "occu": 1 }],
        "abc": [0.13523161, 0.13523161, 0.38917017],
        "properties": { "magmom": 0.0 },
        "label": "La",
        "xyz": [0.0, 0.8416367573400324, 7.341651891817957]
      },
      {
        "species": [{ "element": "La", "occu": 1 }],
        "abc": [0.86476839, 0.86476839, 0.61082983],
        "properties": { "magmom": 0.0 },
        "label": "La",
        "xyz": [0.0, 5.382032082659968, 11.523236678182045]
      },
      {
        "species": [{ "element": "Sb", "occu": 1 }],
        "abc": [0.37102203, 0.37102203, 0.56148721],
        "properties": { "magmom": -0.0 },
        "label": "Sb",
        "xyz": [0.0, 2.3091182470645455, 10.592393650130191]
      },
      {
        "species": [{ "element": "Sb", "occu": 1 }],
        "abc": [0.62897797, 0.62897797, 0.43851279],
        "properties": { "magmom": -0.0 },
        "label": "Sb",
        "xyz": [0.0, 3.9145505929354547, 8.27249491986981]
      },
      {
        "species": [{ "element": "Sb", "occu": 1 }],
        "abc": [0.12897797, 0.12897797, 0.06148721],
        "properties": { "magmom": -0.0 },
        "label": "Sb",
        "xyz": [0.0, 0.8027161729354548, 1.1599493651301898]
      },
      {
        "species": [{ "element": "Sb", "occu": 1 }],
        "abc": [0.87102203, 0.87102203, 0.93851279],
        "properties": { "magmom": -0.0 },
        "label": "Sb",
        "xyz": [0.0, 5.420952667064546, 17.704939204869813]
      },
      {
        "species": [{ "element": "Sb", "occu": 1 }],
        "abc": [0.87834435, 0.37834435, 0.75],
        "properties": { "magmom": -0.0 },
        "label": "Sb",
        "xyz": [1.5920528300000003, 3.910607151885054, 14.1486664275]
      },
      {
        "species": [{ "element": "Sb", "occu": 1 }],
        "abc": [0.62165565, 0.12165565, 0.25],
        "properties": { "magmom": -0.0 },
        "label": "Sb",
        "xyz": [1.59205283, 2.313061688114946, 4.7162221425]
      },
      {
        "species": [{ "element": "Sb", "occu": 1 }],
        "abc": [0.12165565, 0.62165565, 0.25],
        "properties": { "magmom": -0.0 },
        "label": "Sb",
        "xyz": [-1.59205283, 2.313061688114946, 4.7162221425]
      },
      {
        "species": [{ "element": "Sb", "occu": 1 }],
        "abc": [0.37834435, 0.87834435, 0.75],
        "properties": { "magmom": -0.0 },
        "label": "Sb",
        "xyz": [-1.5920528300000003, 3.910607151885054, 14.1486664275]
      }
    ]
  },
  "task_ids": null,
  "uncorrected_energy_per_atom": null,
  "energy_per_atom": -28.074887693333334,
  "formation_energy_per_atom": -1.022417138333333,
  "energy_above_hull": 0.0,
  "is_stable": true,
  "equilibrium_reaction_energy_per_atom": null,
  "decomposes_to": null,
  "xas": null,
  "grain_boundaries": null,
  "band_gap": 0.0,
  "cbm": null,
  "vbm": null,
  "efermi": 7.3306708,
  "is_gap_direct": null,
  "is_metal": null,
  "es_source_calc_id": null,
  "bandstructure": null,
  "dos": null,
  "dos_energy_up": null,
  "dos_energy_down": null,
  "is_magnetic": null,
  "ordering": null,
  "total_magnetization": 0.0001214,
  "total_magnetization_normalized_vol": null,
  "total_magnetization_normalized_formula_units": null,
  "num_magnetic_sites": null,
  "num_unique_magnetic_sites": null,
  "types_of_magnetic_species": null,
  "bulk_modulus": null,
  "shear_modulus": null,
  "universal_anisotropy": null,
  "homogeneous_poisson": null,
  "e_total": null,
  "e_ionic": null,
  "e_electronic": null,
  "n": null,
  "e_ij_max": null,
  "weighted_surface_energy_EV_PER_ANG2": null,
  "weighted_surface_energy": null,
  "weighted_work_function": null,
  "surface_anisotropy": null,
  "shape_factor": null,
  "has_reconstructed": null,
  "possible_species": null,
  "has_props": null,
  "theoretical": null,
  "database_IDs": null,
  "fields_not_requested": [
    "builder_meta",
    "nsites",
    "elements",
    "nelements",
    "composition",
    "composition_reduced",
    "chemsys",
    "symmetry",
    "property_name",
    "deprecated",
    "deprecation_reasons",
    "last_updated",
    "origins",
    "warnings",
    "task_ids",
    "uncorrected_energy_per_atom",
    "equilibrium_reaction_energy_per_atom",
    "decomposes_to",
    "xas",
    "grain_boundaries",
    "cbm",
    "vbm",
    "is_gap_direct",
    "is_metal",
    "es_source_calc_id",
    "bandstructure",
    "dos",
    "dos_energy_up",
    "dos_energy_down",
    "is_magnetic",
    "ordering",
    "total_magnetization_normalized_vol",
    "total_magnetization_normalized_formula_units",
    "num_magnetic_sites",
    "num_unique_magnetic_sites",
    "types_of_magnetic_species",
    "bulk_modulus",
    "shear_modulus",
    "universal_anisotropy",
    "homogeneous_poisson",
    "e_total",
    "e_ionic",
    "e_electronic",
    "n",
    "e_ij_max",
    "weighted_surface_energy_EV_PER_ANG2",
    "weighted_surface_energy",
    "weighted_work_function",
    "surface_anisotropy",
    "shape_factor",
    "has_reconstructed",
    "possible_species",
    "has_props",
    "theoretical",
    "database_IDs"
  ]
}
