{"builder_meta": null, "nsites": null, "elements": null, "nelements": null, "composition": null, "composition_reduced": null, "formula_pretty": "LaSe2", "formula_anonymous": "AB2", "chemsys": null, "volume": 315.6735091103255, "density": 6.245570498278901, "density_atomic": 26.30612575919379, "symmetry": null, "property_name": null, "material_id": "mp-570668", "deprecated": null, "deprecation_reasons": null, "last_updated": null, "origins": null, "warnings": null, "structure": {"@module": "pymatgen.core.structure", "@class": "Structure", "charge": 0, "lattice": {"matrix": [[4.28136659, 0.0, 0.0], [0.0, 8.54923182, 0.00719949], [0.0, 0.02257953, 8.62441381]], "pbc": [true, true, true], "a": 4.28136659, "b": 8.54923485142131, "c": 8.624443367620529, "alpha": 89.80174459643275, "beta": 90.0, "gamma": 90.0, "volume": 315.67350911032554}, "properties": {}, "sites": [{"species": [{"element": "La", "occu": 1}], "abc": [0.22060123, 0.87271913, 0.27671434], "properties": {"magmom": -0.0}, "label": "La", "xyz": [0.9444747358349058, 7.467326235860176, 2.3927821079702793]}, {"species": [{"element": "La", "occu": 1}], "abc": [0.27939877, 0.37271913, 0.27671434], "properties": {"magmom": -0.0}, "label": "La", "xyz": [1.1962085591650944, 3.1927103258601766, 2.389182362970279]}, {"species": [{"element": "La", "occu": 1}], "abc": [0.77939877, 0.12728087, 0.72328566], "properties": {"magmom": -0.0}, "label": "La", "xyz": [3.3368918541650947, 1.104485114139823, 6.238831192029721]}, {"species": [{"element": "La", "occu": 1}], "abc": [0.72060123, 0.62728087, 0.72328566], "properties": {"magmom": -0.0}, "label": "La", "xyz": [3.0851580308349056, 5.379101024139823, 6.242430937029721]}, {"species": [{"element": "Se", "occu": 1}], "abc": [0.67408451, 0.8841009, 0.002493699999999], "properties": {"magmom": -0.0}, "label": "Se", "xyz": [2.886002899950521, 7.5584398529445975, 0.02787177630652938]}, {"species": [{"element": "Se", "occu": 1}], "abc": [0.17408451, 0.615899099999999, 0.9975063], "properties": {"magmom": -0.0}, "label": "Se", "xyz": [0.745319604950521, 5.287987407055392, 8.607341268693462]}, {"species": [{"element": "Se", "occu": 1}], "abc": [0.82591549, 0.384100899999999, 0.002493699999999], "properties": {"magmom": -0.0}, "label": "Se", "xyz": [3.536046985049479, 3.2838239429445903, 0.02427203130652937]}, {"species": [{"element": "Se", "occu": 1}], "abc": [0.758823799999999, 0.12574415, 0.36596719], "properties": {"magmom": -0.0}, "label": "Se", "xyz": [3.248802865016838, 1.0832792555044737, 3.1571577811933773]}, {"species": [{"element": "Se", "occu": 1}], "abc": [0.2588238, 0.37425585, 0.63403281], "properties": {"magmom": -0.0}, "label": "Se", "xyz": [1.108119570016842, 3.213916184495526, 5.470855773806623]}, {"species": [{"element": "Se", "occu": 1}], "abc": [0.32591549000000003, 0.115899099999999, 0.9975063], "properties": {"magmom": -0.0}, "label": "Se", "xyz": [1.3953636900494792, 1.0133714970553924, 8.603741523693461]}, {"species": [{"element": "Se", "occu": 1}], "abc": [0.7411762, 0.62574415, 0.36596719], "properties": {"magmom": -0.0}, "label": "Se", "xyz": [3.1732470199831577, 5.357895165504474, 3.1607575261933776]}, {"species": [{"element": "Se", "occu": 1}], "abc": [0.241176199999999, 0.8742558500000001, 0.63403281], "properties": {"magmom": -0.0}, "label": "Se", "xyz": [1.0325637249831539, 7.488532094495525, 5.474455518806622]}]}, "task_ids": null, "uncorrected_energy_per_atom": null, "energy_per_atom": -21.481116876666665, "formation_energy_per_atom": -2.025149987708332, "energy_above_hull": 0.0, "is_stable": true, "equilibrium_reaction_energy_per_atom": null, "decomposes_to": null, "xas": null, "grain_boundaries": null, "band_gap": 0.23869999999999902, "cbm": null, "vbm": null, "efermi": 6.0960542, "is_gap_direct": null, "is_metal": null, "es_source_calc_id": null, "bandstructure": null, "dos": null, "dos_energy_up": null, "dos_energy_down": null, "is_magnetic": null, "ordering": null, "total_magnetization": 0.0, "total_magnetization_normalized_vol": null, "total_magnetization_normalized_formula_units": null, "num_magnetic_sites": null, "num_unique_magnetic_sites": null, "types_of_magnetic_species": null, "bulk_modulus": null, "shear_modulus": null, "universal_anisotropy": null, "homogeneous_poisson": null, "e_total": null, "e_ionic": null, "e_electronic": null, "n": null, "e_ij_max": null, "weighted_surface_energy_EV_PER_ANG2": null, "weighted_surface_energy": null, "weighted_work_function": null, "surface_anisotropy": null, "shape_factor": null, "has_reconstructed": null, "possible_species": null, "has_props": null, "theoretical": null, "database_IDs": null, "fields_not_requested": ["builder_meta", "nsites", "elements", "nelements", "composition", "composition_reduced", "chemsys", "symmetry", "property_name", "deprecated", "deprecation_reasons", "last_updated", "origins", "warnings", "task_ids", "uncorrected_energy_per_atom", "equilibrium_reaction_energy_per_atom", "decomposes_to", "xas", "grain_boundaries", "cbm", "vbm", "is_gap_direct", "is_metal", "es_source_calc_id", "bandstructure", "dos", "dos_energy_up", "dos_energy_down", "is_magnetic", "ordering", "total_magnetization_normalized_vol", "total_magnetization_normalized_formula_units", "num_magnetic_sites", "num_unique_magnetic_sites", "types_of_magnetic_species", "bulk_modulus", "shear_modulus", "universal_anisotropy", "homogeneous_poisson", "e_total", "e_ionic", "e_electronic", "n", "e_ij_max", "weighted_surface_energy_EV_PER_ANG2", "weighted_surface_energy", "weighted_work_function", "surface_anisotropy", "shape_factor", "has_reconstructed", "possible_species", "has_props", "theoretical", "database_IDs"]}