{"builder_meta": null, "nsites": null, "elements": null, "nelements": null, "composition": null, "composition_reduced": null, "formula_pretty": "LaSi", "formula_anonymous": "AB", "chemsys": null, "volume": 205.83916404200258, "density": 5.3885766733457015, "density_atomic": 25.729895505250322, "symmetry": null, "property_name": null, "material_id": "mp-7083", "deprecated": null, "deprecation_reasons": null, "last_updated": null, "origins": null, "warnings": null, "structure": {"@module": "pymatgen.core.structure", "@class": "Structure", "charge": 0, "lattice": {"matrix": [[4.36200012, 0.0, -1.47588217], [-0.0, 6.64603379, -0.0], [-0.02537368, -0.0, 7.10893574]], "pbc": [true, true, true], "a": 4.604918373500656, "b": 6.64603379, "c": 7.10898102255774, "alpha": 90.0, "beta": 108.8977450365026, "gamma": 90.0, "volume": 205.83916404200258}, "properties": {}, "sites": [{"species": [{"element": "La", "occu": 1}], "abc": [0.72501644, 0.75, 0.45003188], "properties": {"magmom": 0.0}, "label": "La", "xyz": [3.1511028333690545, 4.9845253425, 2.1292088791185164]}, {"species": [{"element": "La", "occu": 1}], "abc": [0.27498356, 0.25, 0.5499681200000001], "properties": {"magmom": 0.0}, "label": "La", "xyz": [1.1855236066309458, 1.6615084475, 3.5038446908814835]}, {"species": [{"element": "La", "occu": 1}], "abc": [0.44851633, 0.75, 0.89703467], "properties": {"magmom": 0.0}, "label": "La", "xyz": [1.9336672146164744, 4.9845253425, 5.71500457118127]}, {"species": [{"element": "La", "occu": 1}], "abc": [0.55148367, 0.25, 0.10296533000000001], "properties": {"magmom": 0.0}, "label": "La", "xyz": [2.402959225383526, 1.6615084475, -0.08195100118126963]}, {"species": [{"element": "Si", "occu": 1}], "abc": [0.90868465, 0.06387269, 0.817368299999999], "properties": {"magmom": -0.0}, "label": "Si", "xyz": [3.9429429106558143, 0.42450005599819507, 4.469507247525344]}, {"species": [{"element": "Si", "occu": 1}], "abc": [0.09131535, 0.93612731, 0.182631699999999], "properties": {"magmom": -0.0}, "label": "Si", "xyz": [0.39368352934418605, 6.221533734001805, 1.1635463224746414]}, {"species": [{"element": "Si", "occu": 1}], "abc": [0.09131535, 0.5638726900000001, 0.182631699999999], "properties": {"magmom": -0.0}, "label": "Si", "xyz": [0.39368352934418605, 3.7475169509981954, 1.1635463224746414]}, {"species": [{"element": "Si", "occu": 1}], "abc": [0.90868465, 0.43612731, 0.817368299999999], "properties": {"magmom": -0.0}, "label": "Si", "xyz": [3.9429429106558143, 2.898516839001805, 4.469507247525344]}]}, "task_ids": null, "uncorrected_energy_per_atom": null, "energy_per_atom": -20.0737944475, "formation_energy_per_atom": -0.814522047499998, "energy_above_hull": 0.0, "is_stable": true, "equilibrium_reaction_energy_per_atom": null, "decomposes_to": null, "xas": null, "grain_boundaries": null, "band_gap": 0.0, "cbm": null, "vbm": null, "efermi": 8.29230412, "is_gap_direct": null, "is_metal": null, "es_source_calc_id": null, "bandstructure": null, "dos": null, "dos_energy_up": null, "dos_energy_down": null, "is_magnetic": null, "ordering": null, "total_magnetization": 0.0041677, "total_magnetization_normalized_vol": null, "total_magnetization_normalized_formula_units": null, "num_magnetic_sites": null, "num_unique_magnetic_sites": null, "types_of_magnetic_species": null, "bulk_modulus": null, "shear_modulus": null, "universal_anisotropy": null, "homogeneous_poisson": null, "e_total": null, "e_ionic": null, "e_electronic": null, "n": null, "e_ij_max": null, "weighted_surface_energy_EV_PER_ANG2": null, "weighted_surface_energy": null, "weighted_work_function": null, "surface_anisotropy": null, "shape_factor": null, "has_reconstructed": null, "possible_species": null, "has_props": null, "theoretical": null, "database_IDs": null, "fields_not_requested": ["builder_meta", "nsites", "elements", "nelements", "composition", "composition_reduced", "chemsys", "symmetry", "property_name", "deprecated", "deprecation_reasons", "last_updated", "origins", "warnings", "task_ids", "uncorrected_energy_per_atom", "equilibrium_reaction_energy_per_atom", "decomposes_to", "xas", "grain_boundaries", "cbm", "vbm", "is_gap_direct", "is_metal", "es_source_calc_id", "bandstructure", "dos", "dos_energy_up", "dos_energy_down", "is_magnetic", "ordering", "total_magnetization_normalized_vol", "total_magnetization_normalized_formula_units", "num_magnetic_sites", "num_unique_magnetic_sites", "types_of_magnetic_species", "bulk_modulus", "shear_modulus", "universal_anisotropy", "homogeneous_poisson", "e_total", "e_ionic", "e_electronic", "n", "e_ij_max", "weighted_surface_energy_EV_PER_ANG2", "weighted_surface_energy", "weighted_work_function", "surface_anisotropy", "shape_factor", "has_reconstructed", "possible_species", "has_props", "theoretical", "database_IDs"]}