{
  "builder_meta": null,
  "nsites": null,
  "elements": null,
  "nelements": null,
  "composition": null,
  "composition_reduced": null,
  "formula_pretty": "LaSi5",
  "formula_anonymous": "AB5",
  "chemsys": null,
  "volume": 240.79858024657628,
  "density": 3.8525418945529752,
  "density_atomic": 20.066548353881355,
  "symmetry": null,
  "property_name": null,
  "material_id": "mp-1101787",
  "deprecated": null,
  "deprecation_reasons": null,
  "last_updated": null,
  "origins": null,
  "warnings": null,
  "structure": {
    "@module": "pymatgen.core.structure",
    "@class": "Structure",
    "charge": 0,
    "lattice": {
      "matrix": [
        [1.994675, 7.543595, 0.0],
        [-1.994675, 7.543595, 0.0],
        [0.0, 2.667897, 8.001537]
      ],
      "pbc": [true, true, true],
      "a": 7.802855495243392,
      "b": 7.802855495243392,
      "c": 8.434587646410346,
      "alpha": 72.19401657733438,
      "beta": 72.19401657733438,
      "gamma": 29.622309278471008,
      "volume": 240.79858024657628
    },
    "properties": {},
    "sites": [
      {
        "species": [{ "element": "La", "occu": 1 }],
        "abc": [0.433307, 0.433307, 0.27159],
        "properties": { "magmom": -0.0 },
        "label": "La",
        "xyz": [0.0, 7.26195918356, 2.17313743383]
      },
      {
        "species": [{ "element": "La", "occu": 1 }],
        "abc": [0.566693, 0.566693, 0.7284100000000001],
        "properties": { "magmom": -0.0 },
        "label": "La",
        "xyz": [0.0, 10.493127816440001, 5.828399566170002]
      },
      {
        "species": [{ "element": "Si", "occu": 1 }],
        "abc": [0.230851, 0.230851, 0.584434999999999],
        "properties": { "magmom": 0.0 },
        "label": "Si",
        "xyz": [0.0, 5.042105281884997, 4.676378276594993]
      },
      {
        "species": [{ "element": "Si", "occu": 1 }],
        "abc": [0.769149, 0.769149, 0.415564999999999],
        "properties": { "magmom": 0.0 },
        "label": "Si",
        "xyz": [0.0, 12.712981718114996, 3.3251587234049924]
      },
      {
        "species": [{ "element": "Si", "occu": 1 }],
        "abc": [0.925794, 0.925794, 0.977468999999999],
        "properties": { "magmom": 0.0 },
        "label": "Si",
        "xyz": [0.0, 16.575416591552997, 7.821254369852993]
      },
      {
        "species": [{ "element": "Si", "occu": 1 }],
        "abc": [0.074206, 0.074206, 0.022531],
        "properties": { "magmom": 0.0 },
        "label": "Si",
        "xyz": [0.0, 1.1796704084469998, 0.18028263014700002]
      },
      {
        "species": [{ "element": "Si", "occu": 1 }],
        "abc": [0.938218, 0.938218, 0.625365],
        "properties": { "magmom": -0.0 },
        "label": "Si",
        "xyz": [0.0, 15.823482634824998, 5.003881186005]
      },
      {
        "species": [{ "element": "Si", "occu": 1 }],
        "abc": [0.061782, 0.061782, 0.374635],
        "properties": { "magmom": -0.0 },
        "label": "Si",
        "xyz": [0.0, 1.931604365175, 2.9976558139950003]
      },
      {
        "species": [{ "element": "Si", "occu": 1 }],
        "abc": [0.349913, 0.349913, 0.708475],
        "properties": { "magmom": 0.0 },
        "label": "Si",
        "xyz": [0.0, 7.169342241544999, 5.668888926075001]
      },
      {
        "species": [{ "element": "Si", "occu": 1 }],
        "abc": [0.650087, 0.650087, 0.291525],
        "properties": { "magmom": 0.0 },
        "label": "Si",
        "xyz": [0.0, 10.585744758454998, 2.332648073925]
      },
      {
        "species": [{ "element": "Si", "occu": 1 }],
        "abc": [0.32481000000000004, 0.32481000000000004, 0.002835],
        "properties": { "magmom": 0.0 },
        "label": "Si",
        "xyz": [0.0, 4.908033671895001, 0.022684357395]
      },
      {
        "species": [{ "element": "Si", "occu": 1 }],
        "abc": [0.6751900000000001, 0.6751900000000001, 0.997165],
        "properties": { "magmom": 0.0 },
        "label": "Si",
        "xyz": [0.0, 12.847053328105, 7.978852642605]
      }
    ]
  },
  "task_ids": null,
  "uncorrected_energy_per_atom": null,
  "energy_per_atom": -12.436985753333332,
  "formation_energy_per_atom": -0.168051889999998,
  "energy_above_hull": 0.18606652,
  "is_stable": false,
  "equilibrium_reaction_energy_per_atom": null,
  "decomposes_to": null,
  "xas": null,
  "grain_boundaries": null,
  "band_gap": 0.0,
  "cbm": null,
  "vbm": null,
  "efermi": 7.93893954,
  "is_gap_direct": null,
  "is_metal": null,
  "es_source_calc_id": null,
  "bandstructure": null,
  "dos": null,
  "dos_energy_up": null,
  "dos_energy_down": null,
  "is_magnetic": null,
  "ordering": null,
  "total_magnetization": 0.0003927,
  "total_magnetization_normalized_vol": null,
  "total_magnetization_normalized_formula_units": null,
  "num_magnetic_sites": null,
  "num_unique_magnetic_sites": null,
  "types_of_magnetic_species": null,
  "bulk_modulus": null,
  "shear_modulus": null,
  "universal_anisotropy": null,
  "homogeneous_poisson": null,
  "e_total": null,
  "e_ionic": null,
  "e_electronic": null,
  "n": null,
  "e_ij_max": null,
  "weighted_surface_energy_EV_PER_ANG2": null,
  "weighted_surface_energy": null,
  "weighted_work_function": null,
  "surface_anisotropy": null,
  "shape_factor": null,
  "has_reconstructed": null,
  "possible_species": null,
  "has_props": null,
  "theoretical": null,
  "database_IDs": null,
  "fields_not_requested": [
    "builder_meta",
    "nsites",
    "elements",
    "nelements",
    "composition",
    "composition_reduced",
    "chemsys",
    "symmetry",
    "property_name",
    "deprecated",
    "deprecation_reasons",
    "last_updated",
    "origins",
    "warnings",
    "task_ids",
    "uncorrected_energy_per_atom",
    "equilibrium_reaction_energy_per_atom",
    "decomposes_to",
    "xas",
    "grain_boundaries",
    "cbm",
    "vbm",
    "is_gap_direct",
    "is_metal",
    "es_source_calc_id",
    "bandstructure",
    "dos",
    "dos_energy_up",
    "dos_energy_down",
    "is_magnetic",
    "ordering",
    "total_magnetization_normalized_vol",
    "total_magnetization_normalized_formula_units",
    "num_magnetic_sites",
    "num_unique_magnetic_sites",
    "types_of_magnetic_species",
    "bulk_modulus",
    "shear_modulus",
    "universal_anisotropy",
    "homogeneous_poisson",
    "e_total",
    "e_ionic",
    "e_electronic",
    "n",
    "e_ij_max",
    "weighted_surface_energy_EV_PER_ANG2",
    "weighted_surface_energy",
    "weighted_work_function",
    "surface_anisotropy",
    "shape_factor",
    "has_reconstructed",
    "possible_species",
    "has_props",
    "theoretical",
    "database_IDs"
  ]
}
