{
  "builder_meta": null,
  "nsites": null,
  "elements": null,
  "nelements": null,
  "composition": null,
  "composition_reduced": null,
  "formula_pretty": "LaSi2",
  "formula_anonymous": "AB2",
  "chemsys": null,
  "volume": 131.0493078832389,
  "density": 4.943667458328538,
  "density_atomic": 21.84155131387315,
  "symmetry": null,
  "property_name": null,
  "material_id": "mp-2062",
  "deprecated": null,
  "deprecation_reasons": null,
  "last_updated": null,
  "origins": null,
  "warnings": null,
  "structure": {
    "@module": "pymatgen.core.structure",
    "@class": "Structure",
    "charge": 0,
    "lattice": {
      "matrix": [
        [4.20641684, -2e-8, -1.2504444000000001],
        [-0.37172147, 4.18996133, -1.25044442],
        [-0.06592161, -0.07202994, 7.4785309]
      ],
      "pbc": [true, true, true],
      "a": 4.388342948007477,
      "b": 4.388344112038556,
      "c": 7.479168295551064,
      "alpha": 107.05989508607223,
      "beta": 107.0598914121969,
      "gamma": 90.00001283069423,
      "volume": 131.04930788323887
    },
    "properties": {},
    "sites": [
      {
        "species": [{ "element": "La", "occu": 1 }],
        "abc": [0.875, 0.625, 0.25],
        "properties": { "magmom": -0.0 },
        "label": "La",
        "xyz": [3.4318084137500002, 2.6007183287499998, -0.0060338875000003345]
      },
      {
        "species": [{ "element": "La", "occu": 1 }],
        "abc": [0.125, 0.375, 0.75],
        "properties": { "magmom": -0.0 },
        "label": "La",
        "xyz": [0.33696534624999996, 1.5172130412500002, 4.9836759675]
      },
      {
        "species": [{ "element": "Si", "occu": 1 }],
        "abc": [0.71076682, 0.96076682, 0.9215346400000001],
        "properties": { "magmom": 0.0 },
        "label": "Si",
        "xyz": [2.5718948191640534, 3.9591977239046123, 4.801565381895424]
      },
      {
        "species": [{ "element": "Si", "occu": 1 }],
        "abc": [0.46076682, 0.21076682, 0.42153464],
        "properties": { "magmom": 0.0 },
        "label": "Si",
        "xyz": [1.8320425166640533, 0.8527417014046126, 2.3127443468954234]
      },
      {
        "species": [{ "element": "Si", "occu": 1 }],
        "abc": [0.53923318, 0.78923318, 0.57846536],
        "properties": { "magmom": 0.0 },
        "label": "Si",
        "xyz": [1.9367312433359472, 3.265189668595388, 2.664897733104577]
      },
      {
        "species": [{ "element": "Si", "occu": 1 }],
        "abc": [0.28923318, 0.03923318, 0.07846536],
        "properties": { "magmom": 0.0 },
        "label": "Si",
        "xyz": [1.196878940835947, 0.1587336460953874, 0.17607669810457632]
      }
    ]
  },
  "task_ids": null,
  "uncorrected_energy_per_atom": null,
  "energy_per_atom": -16.472339951666665,
  "formation_energy_per_atom": -0.7082368199999981,
  "energy_above_hull": 0.0,
  "is_stable": true,
  "equilibrium_reaction_energy_per_atom": null,
  "decomposes_to": null,
  "xas": null,
  "grain_boundaries": null,
  "band_gap": 0.0,
  "cbm": null,
  "vbm": null,
  "efermi": 8.95283268,
  "is_gap_direct": null,
  "is_metal": null,
  "es_source_calc_id": null,
  "bandstructure": null,
  "dos": null,
  "dos_energy_up": null,
  "dos_energy_down": null,
  "is_magnetic": null,
  "ordering": null,
  "total_magnetization": 1.23e-5,
  "total_magnetization_normalized_vol": null,
  "total_magnetization_normalized_formula_units": null,
  "num_magnetic_sites": null,
  "num_unique_magnetic_sites": null,
  "types_of_magnetic_species": null,
  "bulk_modulus": null,
  "shear_modulus": null,
  "universal_anisotropy": null,
  "homogeneous_poisson": null,
  "e_total": null,
  "e_ionic": null,
  "e_electronic": null,
  "n": null,
  "e_ij_max": null,
  "weighted_surface_energy_EV_PER_ANG2": null,
  "weighted_surface_energy": null,
  "weighted_work_function": null,
  "surface_anisotropy": null,
  "shape_factor": null,
  "has_reconstructed": null,
  "possible_species": null,
  "has_props": null,
  "theoretical": null,
  "database_IDs": null,
  "fields_not_requested": [
    "builder_meta",
    "nsites",
    "elements",
    "nelements",
    "composition",
    "composition_reduced",
    "chemsys",
    "symmetry",
    "property_name",
    "deprecated",
    "deprecation_reasons",
    "last_updated",
    "origins",
    "warnings",
    "task_ids",
    "uncorrected_energy_per_atom",
    "equilibrium_reaction_energy_per_atom",
    "decomposes_to",
    "xas",
    "grain_boundaries",
    "cbm",
    "vbm",
    "is_gap_direct",
    "is_metal",
    "es_source_calc_id",
    "bandstructure",
    "dos",
    "dos_energy_up",
    "dos_energy_down",
    "is_magnetic",
    "ordering",
    "total_magnetization_normalized_vol",
    "total_magnetization_normalized_formula_units",
    "num_magnetic_sites",
    "num_unique_magnetic_sites",
    "types_of_magnetic_species",
    "bulk_modulus",
    "shear_modulus",
    "universal_anisotropy",
    "homogeneous_poisson",
    "e_total",
    "e_ionic",
    "e_electronic",
    "n",
    "e_ij_max",
    "weighted_surface_energy_EV_PER_ANG2",
    "weighted_surface_energy",
    "weighted_work_function",
    "surface_anisotropy",
    "shape_factor",
    "has_reconstructed",
    "possible_species",
    "has_props",
    "theoretical",
    "database_IDs"
  ]
}
