{"builder_meta": null, "nsites": null, "elements": null, "nelements": null, "composition": null, "composition_reduced": null, "formula_pretty": "LaSm3", "formula_anonymous": "AB3", "chemsys": null, "volume": 283.3518184605322, "density": 6.915035357698423, "density_atomic": 35.41897730756652, "symmetry": null, "property_name": null, "material_id": "mp-1185166", "deprecated": null, "deprecation_reasons": null, "last_updated": null, "origins": null, "warnings": null, "structure": {"@module": "pymatgen.core.structure", "@class": "Structure", "charge": 0, "lattice": {"matrix": [[3.74253364, -6.48225971, -0.0], [3.74253478, 6.4822608200000005, 0.0], [0.0, 0.0, 5.8398778799999995]], "pbc": [true, true, true], "a": 7.485068402788377, "b": 7.4850699340765505, "c": 5.8398778799999995, "alpha": 90.0, "beta": 90.0, "gamma": 120.00000661528885, "volume": 283.3518184605321}, "properties": {}, "sites": [{"species": [{"element": "La", "occu": 1}], "abc": [0.333333, 0.666667, 0.75], "properties": {"magmom": 0.001}, "label": "La", "xyz": [3.7425344000003804, 2.1607582981735107, 4.37990841]}, {"species": [{"element": "La", "occu": 1}], "abc": [0.666667, 0.333333, 0.25], "properties": {"magmom": 0.001}, "label": "La", "xyz": [3.7425340199996198, -2.1607571881735104, 1.4599694699999999]}, {"species": [{"element": "Sm", "occu": 1}], "abc": [0.8342882500000001, 0.16571175, 0.75], "properties": {"magmom": 0.001}, "label": "Sm", "xyz": [3.7425338289113954, -4.333886325062773, 4.37990841]}, {"species": [{"element": "Sm", "occu": 1}], "abc": [0.3314245, 0.16571175, 0.75], "properties": {"magmom": 0.001}, "label": "Sm", "xyz": [1.860549328199845, -1.0741928988182603, 4.37990841]}, {"species": [{"element": "Sm", "occu": 1}], "abc": [0.8342882500000001, 0.6685755, 0.75], "properties": {"magmom": 0.001}, "label": "Sm", "xyz": [5.624518902887621, -1.074192340639498, 4.37990841]}, {"species": [{"element": "Sm", "occu": 1}], "abc": [0.16571175, 0.8342882500000001, 0.25], "properties": {"magmom": 0.001}, "label": "Sm", "xyz": [3.742534591088605, 4.333887435062773, 1.4599694699999999]}, {"species": [{"element": "Sm", "occu": 1}], "abc": [0.16571175, 0.3314245, 0.25], "properties": {"magmom": 0.001}, "label": "Sm", "xyz": [1.8605495171123803, 1.0741934506394977, 1.4599694699999999]}, {"species": [{"element": "Sm", "occu": 1}], "abc": [0.6685755, 0.8342882500000001, 0.25], "properties": {"magmom": 0.001}, "label": "Sm", "xyz": [5.624519091800155, 1.0741940088182602, 1.4599694699999999]}]}, "task_ids": null, "uncorrected_energy_per_atom": null, "energy_per_atom": -29.70685143125, "formation_energy_per_atom": 0.029036859999997004, "energy_above_hull": 0.029036859999997004, "is_stable": false, "equilibrium_reaction_energy_per_atom": null, "decomposes_to": null, "xas": null, "grain_boundaries": null, "band_gap": 0.0, "cbm": null, "vbm": null, "efermi": 4.31840282, "is_gap_direct": null, "is_metal": null, "es_source_calc_id": null, "bandstructure": null, "dos": null, "dos_energy_up": null, "dos_energy_down": null, "is_magnetic": null, "ordering": null, "total_magnetization": 0.0170866, "total_magnetization_normalized_vol": null, "total_magnetization_normalized_formula_units": null, "num_magnetic_sites": null, "num_unique_magnetic_sites": null, "types_of_magnetic_species": null, "bulk_modulus": null, "shear_modulus": null, "universal_anisotropy": null, "homogeneous_poisson": null, "e_total": null, "e_ionic": null, "e_electronic": null, "n": null, "e_ij_max": null, "weighted_surface_energy_EV_PER_ANG2": null, "weighted_surface_energy": null, "weighted_work_function": null, "surface_anisotropy": null, "shape_factor": null, "has_reconstructed": null, "possible_species": null, "has_props": null, "theoretical": null, "database_IDs": null, "fields_not_requested": ["builder_meta", "nsites", "elements", "nelements", "composition", "composition_reduced", "chemsys", "symmetry", "property_name", "deprecated", "deprecation_reasons", "last_updated", "origins", "warnings", "task_ids", "uncorrected_energy_per_atom", "equilibrium_reaction_energy_per_atom", "decomposes_to", "xas", "grain_boundaries", "cbm", "vbm", "is_gap_direct", "is_metal", "es_source_calc_id", "bandstructure", "dos", "dos_energy_up", "dos_energy_down", "is_magnetic", "ordering", "total_magnetization_normalized_vol", "total_magnetization_normalized_formula_units", "num_magnetic_sites", "num_unique_magnetic_sites", "types_of_magnetic_species", "bulk_modulus", "shear_modulus", "universal_anisotropy", "homogeneous_poisson", "e_total", "e_ionic", "e_electronic", "n", "e_ij_max", "weighted_surface_energy_EV_PER_ANG2", "weighted_surface_energy", "weighted_work_function", "surface_anisotropy", "shape_factor", "has_reconstructed", "possible_species", "has_props", "theoretical", "database_IDs"]}