{
  "builder_meta": null,
  "nsites": null,
  "elements": null,
  "nelements": null,
  "composition": null,
  "composition_reduced": null,
  "formula_pretty": "LaSn2",
  "formula_anonymous": "AB2",
  "chemsys": null,
  "volume": 177.5977925811578,
  "density": 7.037285042898729,
  "density_atomic": 29.599632096859633,
  "symmetry": null,
  "property_name": null,
  "material_id": "mp-1077735",
  "deprecated": null,
  "deprecation_reasons": null,
  "last_updated": null,
  "origins": null,
  "warnings": null,
  "structure": {
    "@module": "pymatgen.core.structure",
    "@class": "Structure",
    "charge": 0,
    "lattice": {
      "matrix": [
        [2.26125289, -8.38603723, 0.0],
        [2.26125289, 8.38603723, 0.0],
        [0.0, 0.0, 4.68275727]
      ],
      "pbc": [true, true, true],
      "a": 8.685556116650183,
      "b": 8.685556116650183,
      "c": 4.68275727,
      "alpha": 90.0,
      "beta": 90.0,
      "gamma": 149.81877058793685,
      "volume": 177.5977925811578
    },
    "properties": {},
    "sites": [
      {
        "species": [{ "element": "La", "occu": 1 }],
        "abc": [0.14322118, 0.85677882, 0.0],
        "properties": { "magmom": 0.0 },
        "label": "La",
        "xyz": [2.26125289, 5.9839209347909375, 0.0]
      },
      {
        "species": [{ "element": "La", "occu": 1 }],
        "abc": [0.85677882, 0.14322118, 0.0],
        "properties": { "magmom": 0.0 },
        "label": "La",
        "xyz": [2.26125289, -5.9839209347909375, 0.0]
      },
      {
        "species": [{ "element": "Sn", "occu": 1 }],
        "abc": [0.5, 0.5, 0.0],
        "properties": { "magmom": -0.0 },
        "label": "Sn",
        "xyz": [2.26125289, 0.0, 0.0]
      },
      {
        "species": [{ "element": "Sn", "occu": 1 }],
        "abc": [-0.0, 0.0, 0.5],
        "properties": { "magmom": 0.0 },
        "label": "Sn",
        "xyz": [0.0, 0.0, 2.341378635]
      },
      {
        "species": [{ "element": "Sn", "occu": 1 }],
        "abc": [0.30903984, 0.69096016, 0.5],
        "properties": { "magmom": 0.0 },
        "label": "Sn",
        "xyz": [2.2612528900000006, 3.2027980224135137, 2.341378635]
      },
      {
        "species": [{ "element": "Sn", "occu": 1 }],
        "abc": [0.69096016, 0.30903984, 0.5],
        "properties": { "magmom": 0.0 },
        "label": "Sn",
        "xyz": [2.2612528900000006, -3.2027980224135137, 2.341378635]
      }
    ]
  },
  "task_ids": null,
  "uncorrected_energy_per_atom": null,
  "energy_per_atom": -27.132411200000004,
  "formation_energy_per_atom": -0.7200286116666681,
  "energy_above_hull": 0.008499523333330001,
  "is_stable": false,
  "equilibrium_reaction_energy_per_atom": null,
  "decomposes_to": null,
  "xas": null,
  "grain_boundaries": null,
  "band_gap": 0.0,
  "cbm": null,
  "vbm": null,
  "efermi": 8.44967247,
  "is_gap_direct": null,
  "is_metal": null,
  "es_source_calc_id": null,
  "bandstructure": null,
  "dos": null,
  "dos_energy_up": null,
  "dos_energy_down": null,
  "is_magnetic": null,
  "ordering": null,
  "total_magnetization": 1.8700000000000004e-5,
  "total_magnetization_normalized_vol": null,
  "total_magnetization_normalized_formula_units": null,
  "num_magnetic_sites": null,
  "num_unique_magnetic_sites": null,
  "types_of_magnetic_species": null,
  "bulk_modulus": null,
  "shear_modulus": null,
  "universal_anisotropy": null,
  "homogeneous_poisson": null,
  "e_total": null,
  "e_ionic": null,
  "e_electronic": null,
  "n": null,
  "e_ij_max": null,
  "weighted_surface_energy_EV_PER_ANG2": null,
  "weighted_surface_energy": null,
  "weighted_work_function": null,
  "surface_anisotropy": null,
  "shape_factor": null,
  "has_reconstructed": null,
  "possible_species": null,
  "has_props": null,
  "theoretical": null,
  "database_IDs": null,
  "fields_not_requested": [
    "builder_meta",
    "nsites",
    "elements",
    "nelements",
    "composition",
    "composition_reduced",
    "chemsys",
    "symmetry",
    "property_name",
    "deprecated",
    "deprecation_reasons",
    "last_updated",
    "origins",
    "warnings",
    "task_ids",
    "uncorrected_energy_per_atom",
    "equilibrium_reaction_energy_per_atom",
    "decomposes_to",
    "xas",
    "grain_boundaries",
    "cbm",
    "vbm",
    "is_gap_direct",
    "is_metal",
    "es_source_calc_id",
    "bandstructure",
    "dos",
    "dos_energy_up",
    "dos_energy_down",
    "is_magnetic",
    "ordering",
    "total_magnetization_normalized_vol",
    "total_magnetization_normalized_formula_units",
    "num_magnetic_sites",
    "num_unique_magnetic_sites",
    "types_of_magnetic_species",
    "bulk_modulus",
    "shear_modulus",
    "universal_anisotropy",
    "homogeneous_poisson",
    "e_total",
    "e_ionic",
    "e_electronic",
    "n",
    "e_ij_max",
    "weighted_surface_energy_EV_PER_ANG2",
    "weighted_surface_energy",
    "weighted_work_function",
    "surface_anisotropy",
    "shape_factor",
    "has_reconstructed",
    "possible_species",
    "has_props",
    "theoretical",
    "database_IDs"
  ]
}
