{"builder_meta": null, "nsites": null, "elements": null, "nelements": null, "composition": null, "composition_reduced": null, "formula_pretty": "LaTb3", "formula_anonymous": "AB3", "chemsys": null, "volume": 277.6088846976686, "density": 7.3654934902899765, "density_atomic": 34.701110587208575, "symmetry": null, "property_name": null, "material_id": "mp-972257", "deprecated": null, "deprecation_reasons": null, "last_updated": null, "origins": null, "warnings": null, "structure": {"@module": "pymatgen.core.structure", "@class": "Structure", "charge": 0, "lattice": {"matrix": [[7.3738429100000005, -3.0000000000000004e-08, 0.0], [-3.68692251, 6.38592698, 0.0], [-0.0, 0.0, 5.89543062]], "pbc": [true, true, true], "a": 7.3738429100000005, "b": 7.3738362463941804, "c": 5.89543062, "alpha": 90.0, "beta": 90.0, "gamma": 120.00003959234569, "volume": 277.60888469766866}, "properties": {}, "sites": [{"species": [{"element": "La", "occu": 1}], "abc": [0.666667, 0.333333, 0.25], "properties": {"magmom": 0.293}, "label": "La", "xyz": [3.6869247902551403, 2.12864017802433, 1.473857655]}, {"species": [{"element": "La", "occu": 1}], "abc": [0.333333999999999, 0.666667999999999, 0.750002], "properties": {"magmom": 0.293}, "label": "La", "xyz": [-7.033347437790383e-07, 4.257293157902613, 4.42158475586124]}, {"species": [{"element": "Tb", "occu": 1}], "abc": [0.83768377, 0.16231823, 0.750002], "properties": {"magmom": 0.427}, "label": "Tb", "xyz": [5.5784937922662134, 1.0365523391723324, 4.42158475586124]}, {"species": [{"element": "Tb", "occu": 1}], "abc": [0.32463346, 0.16231823, 0.750002], "properties": {"magmom": 0.427}, "label": "Tb", "xyz": [1.7953414013994111, 1.0365523545638415, 4.42158475586124]}, {"species": [{"element": "Tb", "occu": 1}], "abc": [0.83768377, 0.67536754, 0.750002], "properties": {"magmom": 0.427}, "label": "Tb", "xyz": [3.6869207424872457, 4.312847769971716, 4.42158475586124]}, {"species": [{"element": "Tb", "occu": 1}], "abc": [0.16231623, 0.83768177, 0.25], "properties": {"magmom": 0.427}, "label": "Tb", "xyz": [-1.8915733922662132, 5.349374610827668, 1.473857655]}, {"species": [{"element": "Tb", "occu": 1}], "abc": [0.67536554, 0.83768177, 0.25], "properties": {"magmom": 0.427}, "label": "Tb", "xyz": [1.8915716247576793, 5.349374595436188, 1.473857655]}, {"species": [{"element": "Tb", "occu": 1}], "abc": [0.16231623, 0.32463246, 0.25], "properties": {"magmom": 0.427}, "label": "Tb", "xyz": [-3.4248724523067153e-07, 2.0730791800282837, 1.473857655]}]}, "task_ids": null, "uncorrected_energy_per_atom": null, "energy_per_atom": -30.83946626625, "formation_energy_per_atom": 0.016554397499998, "energy_above_hull": 0.016554397499998, "is_stable": false, "equilibrium_reaction_energy_per_atom": null, "decomposes_to": null, "xas": null, "grain_boundaries": null, "band_gap": 0.0, "cbm": null, "vbm": null, "efermi": 4.44262356, "is_gap_direct": null, "is_metal": null, "es_source_calc_id": null, "bandstructure": null, "dos": null, "dos_energy_up": null, "dos_energy_down": null, "is_magnetic": null, "ordering": null, "total_magnetization": 5.1569745, "total_magnetization_normalized_vol": null, "total_magnetization_normalized_formula_units": null, "num_magnetic_sites": null, "num_unique_magnetic_sites": null, "types_of_magnetic_species": null, "bulk_modulus": null, "shear_modulus": null, "universal_anisotropy": null, "homogeneous_poisson": null, "e_total": null, "e_ionic": null, "e_electronic": null, "n": null, "e_ij_max": null, "weighted_surface_energy_EV_PER_ANG2": null, "weighted_surface_energy": null, "weighted_work_function": null, "surface_anisotropy": null, "shape_factor": null, "has_reconstructed": null, "possible_species": null, "has_props": null, "theoretical": null, "database_IDs": null, "fields_not_requested": ["builder_meta", "nsites", "elements", "nelements", "composition", "composition_reduced", "chemsys", "symmetry", "property_name", "deprecated", "deprecation_reasons", "last_updated", "origins", "warnings", "task_ids", "uncorrected_energy_per_atom", "equilibrium_reaction_energy_per_atom", "decomposes_to", "xas", "grain_boundaries", "cbm", "vbm", "is_gap_direct", "is_metal", "es_source_calc_id", "bandstructure", "dos", "dos_energy_up", "dos_energy_down", "is_magnetic", "ordering", "total_magnetization_normalized_vol", "total_magnetization_normalized_formula_units", "num_magnetic_sites", "num_unique_magnetic_sites", "types_of_magnetic_species", "bulk_modulus", "shear_modulus", "universal_anisotropy", "homogeneous_poisson", "e_total", "e_ionic", "e_electronic", "n", "e_ij_max", "weighted_surface_energy_EV_PER_ANG2", "weighted_surface_energy", "weighted_work_function", "surface_anisotropy", "shape_factor", "has_reconstructed", "possible_species", "has_props", "theoretical", "database_IDs"]}