{
  "builder_meta": null,
  "nsites": null,
  "elements": null,
  "nelements": null,
  "composition": null,
  "composition_reduced": null,
  "formula_pretty": "LaTe2",
  "formula_anonymous": "AB2",
  "chemsys": null,
  "volume": 775.3560232787222,
  "density": 6.752279052695284,
  "density_atomic": 32.30650096994676,
  "symmetry": null,
  "property_name": null,
  "material_id": "mp-571576",
  "deprecated": null,
  "deprecation_reasons": null,
  "last_updated": null,
  "origins": null,
  "warnings": null,
  "structure": {
    "@module": "pymatgen.core.structure",
    "@class": "Structure",
    "charge": 0,
    "lattice": {
      "matrix": [
        [9.148525, 0.0, -0.00222],
        [0.0, 9.147957, 0.0],
        [0.004215, 0.0, 9.264584]
      ],
      "pbc": [true, true, true],
      "a": 9.148525269354892,
      "b": 9.147957,
      "c": 9.264584958824706,
      "alpha": 90.0,
      "beta": 89.98783631966076,
      "gamma": 90.0,
      "volume": 775.3560232787222
    },
    "properties": {},
    "sites": [
      {
        "species": [{ "element": "La", "occu": 1 }],
        "abc": [0.009027, 0.503696, 0.273654],
        "properties": { "magmom": -0.0 },
        "label": "La",
        "xyz": [0.08373718678499999, 4.607789349072, 2.535270429996]
      },
      {
        "species": [{ "element": "La", "occu": 1 }],
        "abc": [0.752174, 0.250351, 0.727186999999999],
        "properties": { "magmom": -0.0 },
        "label": "La",
        "xyz": [6.884347736554999, 2.290200182907, 6.735415218927991]
      },
      {
        "species": [{ "element": "La", "occu": 1 }],
        "abc": [0.752007, 0.750401, 0.726171],
        "properties": { "magmom": -0.0 },
        "label": "La",
        "xyz": [6.882815650439999, 6.864636080757, 6.726002772324]
      },
      {
        "species": [{ "element": "La", "occu": 1 }],
        "abc": [0.252174, 0.749649, 0.727186999999999],
        "properties": { "magmom": -0.0 },
        "label": "La",
        "xyz": [2.310085236555, 6.857756817093, 6.736525218927991]
      },
      {
        "species": [{ "element": "La", "occu": 1 }],
        "abc": [0.995336999999999, 0.003689, 0.27323000000000003],
        "properties": { "magmom": -0.0 },
        "label": "La",
        "xyz": [9.10701709237499, 0.033746813373, 2.5291526381800002]
      },
      {
        "species": [{ "element": "La", "occu": 1 }],
        "abc": [0.49533699999999903, 0.996311, 0.27323000000000003],
        "properties": { "magmom": -0.0 },
        "label": "La",
        "xyz": [4.532754592374991, 9.114210186627, 2.5302626381800004]
      },
      {
        "species": [{ "element": "La", "occu": 1 }],
        "abc": [0.252007, 0.249599, 0.726171],
        "properties": { "magmom": -0.0 },
        "label": "La",
        "xyz": [2.30855315044, 2.2833209192429997, 6.727112772323999]
      },
      {
        "species": [{ "element": "La", "occu": 1 }],
        "abc": [0.509027, 0.496303999999999, 0.273654],
        "properties": { "magmom": -0.0 },
        "label": "La",
        "xyz": [4.657999686784999, 4.540167650927991, 2.5341604299959997]
      },
      {
        "species": [{ "element": "Te", "occu": 1 }],
        "abc": [0.266397999999999, 0.498791999999999, 0.00030000000000000003],
        "properties": { "magmom": -0.0 },
        "label": "Te",
        "xyz": [2.4371500274499907, 4.562927767943991, 0.002187971640000002]
      },
      {
        "species": [{ "element": "Te", "occu": 1 }],
        "abc": [0.002748999999999, 0.25978, 0.999888],
        "properties": { "magmom": -0.0 },
        "label": "Te",
        "xyz": [0.02936382314499085, 2.37645626946, 9.263540263811999]
      },
      {
        "species": [{ "element": "Te", "occu": 1 }],
        "abc": [0.504006, 0.49901000000000006, 0.633787],
        "properties": { "magmom": -0.0 },
        "label": "Te",
        "xyz": [4.613582903355, 4.56492202257, 5.8706540062879995]
      },
      {
        "species": [{ "element": "Te", "occu": 1 }],
        "abc": [0.25215000000000004, 0.249878, 0.366463],
        "properties": { "magmom": -0.0 },
        "label": "Te",
        "xyz": [2.308345220295, 2.2858731992459997, 3.3945674733919997]
      },
      {
        "species": [{ "element": "Te", "occu": 1 }],
        "abc": [0.500352, 0.9989849999999991, 0.633702],
        "properties": { "magmom": -0.0 },
        "label": "Te",
        "xyz": [4.58015383473, 9.138671823644993, 5.869874628527999]
      },
      {
        "species": [{ "element": "Te", "occu": 1 }],
        "abc": [0.502749, 0.7402200000000001, 0.999888],
        "properties": { "magmom": -0.0 },
        "label": "Te",
        "xyz": [4.603626323145, 6.771500730540001, 9.262430263812]
      },
      {
        "species": [{ "element": "Te", "occu": 1 }],
        "abc": [0.252152, 0.749925, 0.366822],
        "properties": { "magmom": -0.0 },
        "label": "Te",
        "xyz": [2.30836503053, 6.860281653224999, 3.3978934546079995]
      },
      {
        "species": [{ "element": "Te", "occu": 1 }],
        "abc": [0.752151999999999, 0.250075, 0.366822],
        "properties": { "magmom": -0.0 },
        "label": "Te",
        "xyz": [6.882627530529991, 2.287675346775, 3.3967834546079994]
      },
      {
        "species": [{ "element": "Te", "occu": 1 }],
        "abc": [0.0008669999999990001, 0.759003, 0.999703],
        "properties": { "magmom": -0.0 },
        "label": "Te",
        "xyz": [0.012145519319990852, 6.943326806871, 9.261830493811999]
      },
      {
        "species": [{ "element": "Te", "occu": 1 }],
        "abc": [0.500867, 0.240997, 0.999703],
        "properties": { "magmom": -0.0 },
        "label": "Te",
        "xyz": [4.586408019319999, 2.2046301931289998, 9.260720493811998]
      },
      {
        "species": [{ "element": "Te", "occu": 1 }],
        "abc": [0.7521500000000001, 0.750122, 0.366463],
        "properties": { "magmom": -0.0 },
        "label": "Te",
        "xyz": [6.882607720295001, 6.862083800753999, 3.3934574733919995]
      },
      {
        "species": [{ "element": "Te", "occu": 1 }],
        "abc": [0.766397999999999, 0.501208, 0.00030000000000000003],
        "properties": { "magmom": -0.0 },
        "label": "Te",
        "xyz": [7.01141252744999, 4.585029232056, 0.0010779716400000023]
      },
      {
        "species": [{ "element": "Te", "occu": 1 }],
        "abc": [0.737081, 0.00054, 0.999991],
        "properties": { "magmom": -0.0 },
        "label": "Te",
        "xyz": [6.747418917589999, 0.00493989678, 9.262864298923999]
      },
      {
        "species": [{ "element": "Te", "occu": 1 }],
        "abc": [0.237081, 0.9994600000000001, 0.999991],
        "properties": { "magmom": -0.0 },
        "label": "Te",
        "xyz": [2.1731564175899996, 9.143017103220002, 9.263974298923998]
      },
      {
        "species": [{ "element": "Te", "occu": 1 }],
        "abc": [0.000352, 0.001015, 0.633702],
        "properties": { "magmom": -0.0 },
        "label": "Te",
        "xyz": [0.0058913347299999995, 0.009285176355, 5.870984628527999]
      },
      {
        "species": [{ "element": "Te", "occu": 1 }],
        "abc": [0.004006, 0.50099, 0.633787],
        "properties": { "magmom": -0.0 },
        "label": "Te",
        "xyz": [0.039320403355, 4.5830349774300005, 5.871764006287999]
      }
    ]
  },
  "task_ids": null,
  "uncorrected_energy_per_atom": null,
  "energy_per_atom": -5.423543818750001,
  "formation_energy_per_atom": -1.6826708548611111,
  "energy_above_hull": 0.0,
  "is_stable": true,
  "equilibrium_reaction_energy_per_atom": null,
  "decomposes_to": null,
  "xas": null,
  "grain_boundaries": null,
  "band_gap": 0.0,
  "cbm": null,
  "vbm": null,
  "efermi": 7.41123382,
  "is_gap_direct": null,
  "is_metal": null,
  "es_source_calc_id": null,
  "bandstructure": null,
  "dos": null,
  "dos_energy_up": null,
  "dos_energy_down": null,
  "is_magnetic": null,
  "ordering": null,
  "total_magnetization": 0.003502,
  "total_magnetization_normalized_vol": null,
  "total_magnetization_normalized_formula_units": null,
  "num_magnetic_sites": null,
  "num_unique_magnetic_sites": null,
  "types_of_magnetic_species": null,
  "bulk_modulus": null,
  "shear_modulus": null,
  "universal_anisotropy": null,
  "homogeneous_poisson": null,
  "e_total": null,
  "e_ionic": null,
  "e_electronic": null,
  "n": null,
  "e_ij_max": null,
  "weighted_surface_energy_EV_PER_ANG2": null,
  "weighted_surface_energy": null,
  "weighted_work_function": null,
  "surface_anisotropy": null,
  "shape_factor": null,
  "has_reconstructed": null,
  "possible_species": null,
  "has_props": null,
  "theoretical": null,
  "database_IDs": null,
  "fields_not_requested": [
    "builder_meta",
    "nsites",
    "elements",
    "nelements",
    "composition",
    "composition_reduced",
    "chemsys",
    "symmetry",
    "property_name",
    "deprecated",
    "deprecation_reasons",
    "last_updated",
    "origins",
    "warnings",
    "task_ids",
    "uncorrected_energy_per_atom",
    "equilibrium_reaction_energy_per_atom",
    "decomposes_to",
    "xas",
    "grain_boundaries",
    "cbm",
    "vbm",
    "is_gap_direct",
    "is_metal",
    "es_source_calc_id",
    "bandstructure",
    "dos",
    "dos_energy_up",
    "dos_energy_down",
    "is_magnetic",
    "ordering",
    "total_magnetization_normalized_vol",
    "total_magnetization_normalized_formula_units",
    "num_magnetic_sites",
    "num_unique_magnetic_sites",
    "types_of_magnetic_species",
    "bulk_modulus",
    "shear_modulus",
    "universal_anisotropy",
    "homogeneous_poisson",
    "e_total",
    "e_ionic",
    "e_electronic",
    "n",
    "e_ij_max",
    "weighted_surface_energy_EV_PER_ANG2",
    "weighted_surface_energy",
    "weighted_work_function",
    "surface_anisotropy",
    "shape_factor",
    "has_reconstructed",
    "possible_species",
    "has_props",
    "theoretical",
    "database_IDs"
  ]
}
