{
  "builder_meta": null,
  "nsites": null,
  "elements": null,
  "nelements": null,
  "composition": null,
  "composition_reduced": null,
  "formula_pretty": "LaTe3",
  "formula_anonymous": "AB3",
  "chemsys": null,
  "volume": 266.5777864938634,
  "density": 6.4995086468981285,
  "density_atomic": 33.32222331173293,
  "symmetry": null,
  "property_name": null,
  "material_id": "mp-1078612",
  "deprecated": null,
  "deprecation_reasons": null,
  "last_updated": null,
  "origins": null,
  "warnings": null,
  "structure": {
    "@module": "pymatgen.core.structure",
    "@class": "Structure",
    "charge": 0,
    "lattice": {
      "matrix": [
        [-4.42773892, 0.0, 0.0],
        [-0.0, 0.0, -4.4314171],
        [2.21386998, -13.58624129, -0.0]
      ],
      "pbc": [true, true, true],
      "a": 4.42773892,
      "b": 4.4314171,
      "c": 13.765433980752153,
      "alpha": 90.0,
      "beta": 99.25497121233366,
      "gamma": 90.0,
      "volume": 266.5777864938634
    },
    "properties": {},
    "sites": [
      {
        "species": [{ "element": "La", "occu": 1 }],
        "abc": [0.17052654, 0.75, 0.34105309],
        "properties": { "magmom": 0.0 },
        "label": "La",
        "xyz": [1.994863013665693e-7, -4.6336295734400865, -3.3235628249999998]
      },
      {
        "species": [{ "element": "La", "occu": 1 }],
        "abc": [0.82947346, 0.25, 0.65894691],
        "properties": { "magmom": 0.0 },
        "label": "La",
        "xyz": [-2.2138691394863015, -8.952611716559915, -1.107854275]
      },
      {
        "species": [{ "element": "Te", "occu": 1 }],
        "abc": [0.92652194, 0.75, 0.8530428800000001],
        "properties": { "magmom": -0.0 },
        "label": "Te",
        "xyz": [-2.213871230287162, -11.589646398396516, -3.3235628249999998]
      },
      {
        "species": [{ "element": "Te", "occu": 1 }],
        "abc": [0.07347806, 0.25, 0.14695712],
        "properties": { "magmom": -0.0 },
        "label": "Te",
        "xyz": [2.2902871623653454e-6, -1.9965948916034848, -1.107854275]
      },
      {
        "species": [{ "element": "Te", "occu": 1 }],
        "abc": [0.57336673, 0.75, 0.14673645],
        "properties": { "magmom": 0.0 },
        "label": "Te",
        "xyz": [-2.2138627642273607, -1.9935968157380204, -3.3235628249999998]
      },
      {
        "species": [{ "element": "Te", "occu": 1 }],
        "abc": [0.42663327, 0.25, 0.85326355],
        "properties": { "magmom": 0.0 },
        "label": "Te",
        "xyz": [-6.175772639727128e-6, -11.592644474261979, -1.107854275]
      },
      {
        "species": [{ "element": "Te", "occu": 1 }],
        "abc": [0.294993399999999, 0.75, 0.58998681],
        "properties": { "magmom": -0.0 },
        "label": "Te",
        "xyz": [3.2893183998794484e-7, -8.015703158577384, -3.3235628249999998]
      },
      {
        "species": [{ "element": "Te", "occu": 1 }],
        "abc": [0.705006599999999, 0.25, 0.41001319],
        "properties": { "magmom": -0.0 },
        "label": "Te",
        "xyz": [-2.213869268931832, -5.570538131422616, -1.107854275]
      }
    ]
  },
  "task_ids": null,
  "uncorrected_energy_per_atom": null,
  "energy_per_atom": -4.990995560000002,
  "formation_energy_per_atom": -1.3995143637500012,
  "energy_above_hull": 0.0,
  "is_stable": true,
  "equilibrium_reaction_energy_per_atom": null,
  "decomposes_to": null,
  "xas": null,
  "grain_boundaries": null,
  "band_gap": 0.0,
  "cbm": null,
  "vbm": null,
  "efermi": 6.13537313,
  "is_gap_direct": null,
  "is_metal": null,
  "es_source_calc_id": null,
  "bandstructure": null,
  "dos": null,
  "dos_energy_up": null,
  "dos_energy_down": null,
  "is_magnetic": null,
  "ordering": null,
  "total_magnetization": 0.0,
  "total_magnetization_normalized_vol": null,
  "total_magnetization_normalized_formula_units": null,
  "num_magnetic_sites": null,
  "num_unique_magnetic_sites": null,
  "types_of_magnetic_species": null,
  "bulk_modulus": null,
  "shear_modulus": null,
  "universal_anisotropy": null,
  "homogeneous_poisson": null,
  "e_total": null,
  "e_ionic": null,
  "e_electronic": null,
  "n": null,
  "e_ij_max": null,
  "weighted_surface_energy_EV_PER_ANG2": null,
  "weighted_surface_energy": null,
  "weighted_work_function": null,
  "surface_anisotropy": null,
  "shape_factor": null,
  "has_reconstructed": null,
  "possible_species": null,
  "has_props": null,
  "theoretical": null,
  "database_IDs": null,
  "fields_not_requested": [
    "builder_meta",
    "nsites",
    "elements",
    "nelements",
    "composition",
    "composition_reduced",
    "chemsys",
    "symmetry",
    "property_name",
    "deprecated",
    "deprecation_reasons",
    "last_updated",
    "origins",
    "warnings",
    "task_ids",
    "uncorrected_energy_per_atom",
    "equilibrium_reaction_energy_per_atom",
    "decomposes_to",
    "xas",
    "grain_boundaries",
    "cbm",
    "vbm",
    "is_gap_direct",
    "is_metal",
    "es_source_calc_id",
    "bandstructure",
    "dos",
    "dos_energy_up",
    "dos_energy_down",
    "is_magnetic",
    "ordering",
    "total_magnetization_normalized_vol",
    "total_magnetization_normalized_formula_units",
    "num_magnetic_sites",
    "num_unique_magnetic_sites",
    "types_of_magnetic_species",
    "bulk_modulus",
    "shear_modulus",
    "universal_anisotropy",
    "homogeneous_poisson",
    "e_total",
    "e_ionic",
    "e_electronic",
    "n",
    "e_ij_max",
    "weighted_surface_energy_EV_PER_ANG2",
    "weighted_surface_energy",
    "weighted_work_function",
    "surface_anisotropy",
    "shape_factor",
    "has_reconstructed",
    "possible_species",
    "has_props",
    "theoretical",
    "database_IDs"
  ]
}
