{"builder_meta": null, "nsites": null, "elements": null, "nelements": null, "composition": null, "composition_reduced": null, "formula_pretty": "LaU3", "formula_anonymous": "AB3", "chemsys": null, "volume": 189.82719092853895, "density": 14.923329631299223, "density_atomic": 23.72839886606737, "symmetry": null, "property_name": null, "material_id": "mp-1185171", "deprecated": null, "deprecation_reasons": null, "last_updated": null, "origins": null, "warnings": null, "structure": {"@module": "pymatgen.core.structure", "@class": "Structure", "charge": 0, "lattice": {"matrix": [[3.152299, -5.459941, 0.0], [3.152299, 5.459941, 0.0], [0.0, 0.0, 5.514588]], "pbc": [true, true, true], "a": 6.3045971091642325, "b": 6.3045971091642325, "c": 5.514588, "alpha": 90.0, "beta": 90.0, "gamma": 119.99999065170695, "volume": 189.82719092853895}, "properties": {}, "sites": [{"species": [{"element": "La", "occu": 1}], "abc": [0.333333, 0.666667, 0.75], "properties": {"magmom": 0.014}, "label": "La", "xyz": [3.152299, 1.819983973294, 4.135941]}, {"species": [{"element": "La", "occu": 1}], "abc": [0.666667, 0.333333, 0.25], "properties": {"magmom": 0.014}, "label": "La", "xyz": [3.152299, -1.819983973294, 1.378647]}, {"species": [{"element": "U", "occu": 1}], "abc": [0.151416, 0.302830999999999, 0.25], "properties": {"magmom": 0.9530000000000001}, "label": "U", "xyz": [1.431922363852997, 0.8267169665149946, 1.378647]}, {"species": [{"element": "U", "occu": 1}], "abc": [0.697168999999999, 0.848584, 0.25], "properties": {"magmom": 1.015}, "label": "U", "xyz": [4.872675636146997, 0.8267169665150056, 1.378647]}, {"species": [{"element": "U", "occu": 1}], "abc": [0.151416, 0.848584, 0.25], "properties": {"magmom": 0.9400000000000001}, "label": "U", "xyz": [3.152299, 3.806496147088, 1.378647]}, {"species": [{"element": "U", "occu": 1}], "abc": [0.848584, 0.697168999999999, 0.75], "properties": {"magmom": 0.9530000000000001}, "label": "U", "xyz": [4.872675636146997, -0.8267169665150056, 4.135941]}, {"species": [{"element": "U", "occu": 1}], "abc": [0.302830999999999, 0.151416, 0.75], "properties": {"magmom": 1.015}, "label": "U", "xyz": [1.431922363852997, -0.8267169665149946, 4.135941]}, {"species": [{"element": "U", "occu": 1}], "abc": [0.848584, 0.151416, 0.75], "properties": {"magmom": 0.9400000000000001}, "label": "U", "xyz": [3.152299, -3.806496147088, 4.135941]}]}, "task_ids": null, "uncorrected_energy_per_atom": null, "energy_per_atom": -66.83291813749999, "formation_energy_per_atom": 0.5598043825000041, "energy_above_hull": 0.5598043825000041, "is_stable": false, "equilibrium_reaction_energy_per_atom": null, "decomposes_to": null, "xas": null, "grain_boundaries": null, "band_gap": 0.0, "cbm": null, "vbm": null, "efermi": 12.78167437, "is_gap_direct": null, "is_metal": null, "es_source_calc_id": null, "bandstructure": null, "dos": null, "dos_energy_up": null, "dos_energy_down": null, "is_magnetic": null, "ordering": null, "total_magnetization": 6.0643674, "total_magnetization_normalized_vol": null, "total_magnetization_normalized_formula_units": null, "num_magnetic_sites": null, "num_unique_magnetic_sites": null, "types_of_magnetic_species": null, "bulk_modulus": null, "shear_modulus": null, "universal_anisotropy": null, "homogeneous_poisson": null, "e_total": null, "e_ionic": null, "e_electronic": null, "n": null, "e_ij_max": null, "weighted_surface_energy_EV_PER_ANG2": null, "weighted_surface_energy": null, "weighted_work_function": null, "surface_anisotropy": null, "shape_factor": null, "has_reconstructed": null, "possible_species": null, "has_props": null, "theoretical": null, "database_IDs": null, "fields_not_requested": ["builder_meta", "nsites", "elements", "nelements", "composition", "composition_reduced", "chemsys", "symmetry", "property_name", "deprecated", "deprecation_reasons", "last_updated", "origins", "warnings", "task_ids", "uncorrected_energy_per_atom", "equilibrium_reaction_energy_per_atom", "decomposes_to", "xas", "grain_boundaries", "cbm", "vbm", "is_gap_direct", "is_metal", "es_source_calc_id", "bandstructure", "dos", "dos_energy_up", "dos_energy_down", "is_magnetic", "ordering", "total_magnetization_normalized_vol", "total_magnetization_normalized_formula_units", "num_magnetic_sites", "num_unique_magnetic_sites", "types_of_magnetic_species", "bulk_modulus", "shear_modulus", "universal_anisotropy", "homogeneous_poisson", "e_total", "e_ionic", "e_electronic", "n", "e_ij_max", "weighted_surface_energy_EV_PER_ANG2", "weighted_surface_energy", "weighted_work_function", "surface_anisotropy", "shape_factor", "has_reconstructed", "possible_species", "has_props", "theoretical", "database_IDs"]}