{
  "builder_meta": null,
  "nsites": null,
  "elements": null,
  "nelements": null,
  "composition": null,
  "composition_reduced": null,
  "formula_pretty": "LaY",
  "formula_anonymous": "AB",
  "chemsys": null,
  "volume": 214.4957036180984,
  "density": 5.290869564649805,
  "density_atomic": 35.749283936349734,
  "symmetry": null,
  "property_name": null,
  "material_id": "mp-1222780",
  "deprecated": null,
  "deprecation_reasons": null,
  "last_updated": null,
  "origins": null,
  "warnings": null,
  "structure": {
    "@module": "pymatgen.core.structure",
    "@class": "Structure",
    "charge": 0,
    "lattice": {
      "matrix": [
        [-1.85794113, -3.2180476, 7e-8],
        [3.71532645, 0.00032028, -0.00049405],
        [1.85520061, -1.07110131, 17.94084144]
      ],
      "pbc": [true, true, true],
      "a": 3.7158815371875678,
      "b": 3.715326496653327,
      "c": 18.06828212351272,
      "alpha": 84.11454329188142,
      "beta": 89.9999976633173,
      "gamma": 120.0049453293317,
      "volume": 214.4957036180984
    },
    "properties": {},
    "sites": [
      {
        "species": [{ "element": "La", "occu": 1 }],
        "abc": [0.00156168, 0.003122299999999, 0.99534363],
        "properties": { "magmom": 0.004 },
        "label": "La",
        "xyz": [1.8552609638065474, -1.0711384265588793, 17.85730070168103]
      },
      {
        "species": [{ "element": "La", "occu": 1 }],
        "abc": [0.49950199, 0.99900314, 0.50150635],
        "properties": { "magmom": -0.001 },
        "label": "La",
        "xyz": [3.713972384376078, -2.1442653278473633, 8.996952383966965]
      },
      {
        "species": [{ "element": "La", "occu": 1 }],
        "abc": [0.61025362, 0.22050754, 0.16888356000000002],
        "properties": { "magmom": -0.085 },
        "label": "La",
        "xyz": [-0.0012449210119860332, -2.1446459754308647, 3.029804272750343]
      },
      {
        "species": [{ "element": "Y", "occu": 1 }],
        "abc": [0.11011507, 0.22023093, 0.66921623],
        "properties": { "magmom": 0.219 },
        "label": "Y",
        "xyz": [1.8551728398691696, -1.0710833818013328, 12.006193474121659]
      },
      {
        "species": [{ "element": "Y", "occu": 1 }],
        "abc": [0.88796891, 0.77593954, 0.33632514],
        "properties": { "magmom": -0.126 },
        "label": "Y",
        "xyz": [1.8570253413989002, -3.2175159998241782, 6.033572718253889]
      },
      {
        "species": [{ "element": "Y", "occu": 1 }],
        "abc": [0.39059873, 0.78119655, 0.82872409],
        "properties": { "magmom": 0.251 },
        "label": "Y",
        "xyz": [3.7141401963606775, -2.144362562436072, 14.867621573384673]
      }
    ]
  },
  "task_ids": null,
  "uncorrected_energy_per_atom": null,
  "energy_per_atom": -25.021315818333335,
  "formation_energy_per_atom": 0.007874764166662001,
  "energy_above_hull": 0.007874764166665,
  "is_stable": false,
  "equilibrium_reaction_energy_per_atom": null,
  "decomposes_to": null,
  "xas": null,
  "grain_boundaries": null,
  "band_gap": 0.0,
  "cbm": null,
  "vbm": null,
  "efermi": 5.66195434,
  "is_gap_direct": null,
  "is_metal": null,
  "es_source_calc_id": null,
  "bandstructure": null,
  "dos": null,
  "dos_energy_up": null,
  "dos_energy_down": null,
  "is_magnetic": null,
  "ordering": null,
  "total_magnetization": 0.487784999999999,
  "total_magnetization_normalized_vol": null,
  "total_magnetization_normalized_formula_units": null,
  "num_magnetic_sites": null,
  "num_unique_magnetic_sites": null,
  "types_of_magnetic_species": null,
  "bulk_modulus": null,
  "shear_modulus": null,
  "universal_anisotropy": null,
  "homogeneous_poisson": null,
  "e_total": null,
  "e_ionic": null,
  "e_electronic": null,
  "n": null,
  "e_ij_max": null,
  "weighted_surface_energy_EV_PER_ANG2": null,
  "weighted_surface_energy": null,
  "weighted_work_function": null,
  "surface_anisotropy": null,
  "shape_factor": null,
  "has_reconstructed": null,
  "possible_species": null,
  "has_props": null,
  "theoretical": null,
  "database_IDs": null,
  "fields_not_requested": [
    "builder_meta",
    "nsites",
    "elements",
    "nelements",
    "composition",
    "composition_reduced",
    "chemsys",
    "symmetry",
    "property_name",
    "deprecated",
    "deprecation_reasons",
    "last_updated",
    "origins",
    "warnings",
    "task_ids",
    "uncorrected_energy_per_atom",
    "equilibrium_reaction_energy_per_atom",
    "decomposes_to",
    "xas",
    "grain_boundaries",
    "cbm",
    "vbm",
    "is_gap_direct",
    "is_metal",
    "es_source_calc_id",
    "bandstructure",
    "dos",
    "dos_energy_up",
    "dos_energy_down",
    "is_magnetic",
    "ordering",
    "total_magnetization_normalized_vol",
    "total_magnetization_normalized_formula_units",
    "num_magnetic_sites",
    "num_unique_magnetic_sites",
    "types_of_magnetic_species",
    "bulk_modulus",
    "shear_modulus",
    "universal_anisotropy",
    "homogeneous_poisson",
    "e_total",
    "e_ionic",
    "e_electronic",
    "n",
    "e_ij_max",
    "weighted_surface_energy_EV_PER_ANG2",
    "weighted_surface_energy",
    "weighted_work_function",
    "surface_anisotropy",
    "shape_factor",
    "has_reconstructed",
    "possible_species",
    "has_props",
    "theoretical",
    "database_IDs"
  ]
}
