{
  "builder_meta": null,
  "nsites": null,
  "elements": null,
  "nelements": null,
  "composition": null,
  "composition_reduced": null,
  "formula_pretty": "LaZn3",
  "formula_anonymous": "AB3",
  "chemsys": null,
  "volume": 169.30687553980783,
  "density": 6.573868393080193,
  "density_atomic": 21.16335944247598,
  "symmetry": null,
  "property_name": null,
  "material_id": "mp-1185121",
  "deprecated": null,
  "deprecation_reasons": null,
  "last_updated": null,
  "origins": null,
  "warnings": null,
  "structure": {
    "@module": "pymatgen.core.structure",
    "@class": "Structure",
    "charge": 0,
    "lattice": {
      "matrix": [
        [3.37087224, -5.83852074, -0.0],
        [3.37087224, 5.83852074, -0.0],
        [-0.0, 0.0, 4.30129748]
      ],
      "pbc": [true, true, true],
      "a": 6.741743401362347,
      "b": 6.741743401362347,
      "c": 4.30129748,
      "alpha": 90.0,
      "beta": 90.0,
      "gamma": 119.99998941489015,
      "volume": 169.30687553980783
    },
    "properties": {},
    "sites": [
      {
        "species": [{ "element": "La", "occu": 1 }],
        "abc": [0.333333, 0.666667, 0.75],
        "properties": { "magmom": 0.0 },
        "label": "La",
        "xyz": [3.3708722400000006, 1.94617747234716, 3.22597311]
      },
      {
        "species": [{ "element": "La", "occu": 1 }],
        "abc": [0.666667, 0.333333, 0.25],
        "properties": { "magmom": 0.0 },
        "label": "La",
        "xyz": [3.3708722400000006, -1.94617747234716, 1.07532437]
      },
      {
        "species": [{ "element": "Zn", "occu": 1 }],
        "abc": [0.86594037, 0.73188074, 0.75],
        "properties": { "magmom": 0.0 },
        "label": "Zn",
        "xyz": [5.386050824184987, -0.782709930151726, 3.22597311]
      },
      {
        "species": [{ "element": "Zn", "occu": 1 }],
        "abc": [0.26811926, 0.13405963, 0.75],
        "properties": { "magmom": 0.0 },
        "label": "Zn",
        "xyz": [1.3556936558150139, -0.7827099301517263, 3.22597311]
      },
      {
        "species": [{ "element": "Zn", "occu": 1 }],
        "abc": [0.86594037, 0.13405963, 0.75],
        "properties": { "magmom": 0.0 },
        "label": "Zn",
        "xyz": [3.37087224, -4.273100879696548, 3.22597311]
      },
      {
        "species": [{ "element": "Zn", "occu": 1 }],
        "abc": [0.13405963, 0.26811926, 0.25],
        "properties": { "magmom": 0.0 },
        "label": "Zn",
        "xyz": [1.3556936558150139, 0.7827099301517263, 1.07532437]
      },
      {
        "species": [{ "element": "Zn", "occu": 1 }],
        "abc": [0.73188074, 0.86594037, 0.25],
        "properties": { "magmom": 0.0 },
        "label": "Zn",
        "xyz": [5.386050824184987, 0.782709930151726, 1.07532437]
      },
      {
        "species": [{ "element": "Zn", "occu": 1 }],
        "abc": [0.13405963, 0.86594037, 0.25],
        "properties": { "magmom": 0.0 },
        "label": "Zn",
        "xyz": [3.37087224, 4.273100879696548, 1.07532437]
      }
    ]
  },
  "task_ids": null,
  "uncorrected_energy_per_atom": null,
  "energy_per_atom": -14.4268858675,
  "formation_energy_per_atom": -0.30773886250000004,
  "energy_above_hull": 0.07232038375000001,
  "is_stable": false,
  "equilibrium_reaction_energy_per_atom": null,
  "decomposes_to": null,
  "xas": null,
  "grain_boundaries": null,
  "band_gap": 0.0,
  "cbm": null,
  "vbm": null,
  "efermi": 4.4959986,
  "is_gap_direct": null,
  "is_metal": null,
  "es_source_calc_id": null,
  "bandstructure": null,
  "dos": null,
  "dos_energy_up": null,
  "dos_energy_down": null,
  "is_magnetic": null,
  "ordering": null,
  "total_magnetization": 1.3e-6,
  "total_magnetization_normalized_vol": null,
  "total_magnetization_normalized_formula_units": null,
  "num_magnetic_sites": null,
  "num_unique_magnetic_sites": null,
  "types_of_magnetic_species": null,
  "bulk_modulus": null,
  "shear_modulus": null,
  "universal_anisotropy": null,
  "homogeneous_poisson": null,
  "e_total": null,
  "e_ionic": null,
  "e_electronic": null,
  "n": null,
  "e_ij_max": null,
  "weighted_surface_energy_EV_PER_ANG2": null,
  "weighted_surface_energy": null,
  "weighted_work_function": null,
  "surface_anisotropy": null,
  "shape_factor": null,
  "has_reconstructed": null,
  "possible_species": null,
  "has_props": null,
  "theoretical": null,
  "database_IDs": null,
  "fields_not_requested": [
    "builder_meta",
    "nsites",
    "elements",
    "nelements",
    "composition",
    "composition_reduced",
    "chemsys",
    "symmetry",
    "property_name",
    "deprecated",
    "deprecation_reasons",
    "last_updated",
    "origins",
    "warnings",
    "task_ids",
    "uncorrected_energy_per_atom",
    "equilibrium_reaction_energy_per_atom",
    "decomposes_to",
    "xas",
    "grain_boundaries",
    "cbm",
    "vbm",
    "is_gap_direct",
    "is_metal",
    "es_source_calc_id",
    "bandstructure",
    "dos",
    "dos_energy_up",
    "dos_energy_down",
    "is_magnetic",
    "ordering",
    "total_magnetization_normalized_vol",
    "total_magnetization_normalized_formula_units",
    "num_magnetic_sites",
    "num_unique_magnetic_sites",
    "types_of_magnetic_species",
    "bulk_modulus",
    "shear_modulus",
    "universal_anisotropy",
    "homogeneous_poisson",
    "e_total",
    "e_ionic",
    "e_electronic",
    "n",
    "e_ij_max",
    "weighted_surface_energy_EV_PER_ANG2",
    "weighted_surface_energy",
    "weighted_work_function",
    "surface_anisotropy",
    "shape_factor",
    "has_reconstructed",
    "possible_species",
    "has_props",
    "theoretical",
    "database_IDs"
  ]
}
