{"builder_meta": null, "nsites": null, "elements": null, "nelements": null, "composition": null, "composition_reduced": null, "formula_pretty": "LaZn5", "formula_anonymous": "AB5", "chemsys": null, "volume": 107.21414248388845, "density": 7.21666881448875, "density_atomic": 17.869023747314742, "symmetry": null, "property_name": null, "material_id": "mp-2424", "deprecated": null, "deprecation_reasons": null, "last_updated": null, "origins": null, "warnings": null, "structure": {"@module": "pymatgen.core.structure", "@class": "Structure", "charge": 0, "lattice": {"matrix": [[5.40449917, 0.0, -0.0], [-2.70224908, 4.6804331999999995, -0.0], [0.0, 0.0, 4.23848422]], "pbc": [true, true, true], "a": 5.40449917, "b": 5.404498591916098, "c": 4.23848422, "alpha": 90.0, "beta": 90.0, "gamma": 119.99999735633767, "volume": 107.21414248388842}, "properties": {}, "sites": [{"species": [{"element": "La", "occu": 1}], "abc": [0.0, 0.0, -0.0], "properties": {"magmom": 0.0}, "label": "La", "xyz": [0.0, 0.0, 0.0]}, {"species": [{"element": "Zn", "occu": 1}], "abc": [0.0, 0.5, 0.5], "properties": {"magmom": -0.0}, "label": "Zn", "xyz": [-1.35112454, 2.3402165999999998, 2.11924211]}, {"species": [{"element": "Zn", "occu": 1}], "abc": [0.333333, 0.666667, 0.0], "properties": {"magmom": -0.0}, "label": "Zn", "xyz": [-2.365582750130102e-06, 3.1202903601444, 0.0]}, {"species": [{"element": "Zn", "occu": 1}], "abc": [0.666667, 0.333333, 0.0], "properties": {"magmom": -0.0}, "label": "Zn", "xyz": [2.70225245558275, 1.5601428398555999, 0.0]}, {"species": [{"element": "Zn", "occu": 1}], "abc": [0.5, 0.0, 0.5], "properties": {"magmom": -0.0}, "label": "Zn", "xyz": [2.702249585, 0.0, 2.11924211]}, {"species": [{"element": "Zn", "occu": 1}], "abc": [0.5, 0.5, 0.5], "properties": {"magmom": -0.0}, "label": "Zn", "xyz": [1.351125045, 2.3402165999999998, 2.11924211]}]}, "task_ids": null, "uncorrected_energy_per_atom": null, "energy_per_atom": -12.723726481666667, "formation_energy_per_atom": -0.340760943333333, "energy_above_hull": 0.0032479781666650003, "is_stable": false, "equilibrium_reaction_energy_per_atom": null, "decomposes_to": null, "xas": null, "grain_boundaries": null, "band_gap": 0.0, "cbm": null, "vbm": null, "efermi": 4.6253294, "is_gap_direct": null, "is_metal": null, "es_source_calc_id": null, "bandstructure": null, "dos": null, "dos_energy_up": null, "dos_energy_down": null, "is_magnetic": null, "ordering": null, "total_magnetization": 0.0002362, "total_magnetization_normalized_vol": null, "total_magnetization_normalized_formula_units": null, "num_magnetic_sites": null, "num_unique_magnetic_sites": null, "types_of_magnetic_species": null, "bulk_modulus": null, "shear_modulus": null, "universal_anisotropy": null, "homogeneous_poisson": null, "e_total": null, "e_ionic": null, "e_electronic": null, "n": null, "e_ij_max": null, "weighted_surface_energy_EV_PER_ANG2": null, "weighted_surface_energy": null, "weighted_work_function": null, "surface_anisotropy": null, "shape_factor": null, "has_reconstructed": null, "possible_species": null, "has_props": null, "theoretical": null, "database_IDs": null, "fields_not_requested": ["builder_meta", "nsites", "elements", "nelements", "composition", "composition_reduced", "chemsys", "symmetry", "property_name", "deprecated", "deprecation_reasons", "last_updated", "origins", "warnings", "task_ids", "uncorrected_energy_per_atom", "equilibrium_reaction_energy_per_atom", "decomposes_to", "xas", "grain_boundaries", "cbm", "vbm", "is_gap_direct", "is_metal", "es_source_calc_id", "bandstructure", "dos", "dos_energy_up", "dos_energy_down", "is_magnetic", "ordering", "total_magnetization_normalized_vol", "total_magnetization_normalized_formula_units", "num_magnetic_sites", "num_unique_magnetic_sites", "types_of_magnetic_species", "bulk_modulus", "shear_modulus", "universal_anisotropy", "homogeneous_poisson", "e_total", "e_ionic", "e_electronic", "n", "e_ij_max", "weighted_surface_energy_EV_PER_ANG2", "weighted_surface_energy", "weighted_work_function", "surface_anisotropy", "shape_factor", "has_reconstructed", "possible_species", "has_props", "theoretical", "database_IDs"]}