{"builder_meta": null, "nsites": null, "elements": null, "nelements": null, "composition": null, "composition_reduced": null, "formula_pretty": "LaZn2", "formula_anonymous": "AB2", "chemsys": null, "volume": 132.72226310319246, "density": 6.74922727569343, "density_atomic": 22.12037718386541, "symmetry": null, "property_name": null, "material_id": "mp-567258", "deprecated": null, "deprecation_reasons": null, "last_updated": null, "origins": null, "warnings": null, "structure": {"@module": "pymatgen.core.structure", "@class": "Structure", "charge": 0, "lattice": {"matrix": [[4.2894258, -1e-08, 1.8465497], [2.14239663, 5.33136444, 0.92865502], [0.03693759, -0.08713335, 5.81951426]], "pbc": [true, true, true], "a": 4.670002086538691, "b": 5.820284379521594, "c": 5.820283741243254, "alpha": 81.47987419725568, "beta": 66.34781417947514, "gamma": 66.3478270328829, "volume": 132.72226310319246}, "properties": {}, "sites": [{"species": [{"element": "La", "occu": 1}], "abc": [0.45794738, 0.29205262, 0.79205262], "properties": {"magmom": 0.0}, "label": "La", "xyz": [2.619280370621061, 1.488024750140482, 5.7262002455823]}, {"species": [{"element": "La", "occu": 1}], "abc": [0.54205262, 0.70794738, 0.20794738000000001], "properties": {"magmom": 0.0}, "label": "La", "xyz": [3.8494796493789396, 3.756206329859518, 2.8685187344177008]}, {"species": [{"element": "Zn", "occu": 1}], "abc": [0.16381961, 0.27346422, 0.39889457], "properties": {"magmom": -0.0}, "label": "Zn", "xyz": [1.303295089113403, 1.423180396301231, 2.8778276107445695]}, {"species": [{"element": "Zn", "occu": 1}], "abc": [0.83618039, 0.10110543, 0.22653578], "properties": {"magmom": -0.0}, "label": "Zn", "xyz": [3.811709356588733, 0.5192910644248422, 2.9562689155293644]}, {"species": [{"element": "Zn", "occu": 1}], "abc": [0.83618039, 0.72653578, 0.60110543], "properties": {"magmom": -0.0}, "label": "Zn", "xyz": [5.165464930886597, 3.8210506836987688, 5.71689136925543]}, {"species": [{"element": "Zn", "occu": 1}], "abc": [0.16381961, 0.8988945700000001, 0.77346422], "properties": {"magmom": -0.0}, "label": "Zn", "xyz": [2.657050663411267, 4.724940015575157, 5.638450064470636]}]}, "task_ids": null, "uncorrected_energy_per_atom": null, "energy_per_atom": -16.25394990166667, "formation_energy_per_atom": -0.39862143000000105, "energy_above_hull": 0.0, "is_stable": true, "equilibrium_reaction_energy_per_atom": null, "decomposes_to": null, "xas": null, "grain_boundaries": null, "band_gap": 0.0, "cbm": null, "vbm": null, "efermi": 5.37268585, "is_gap_direct": null, "is_metal": null, "es_source_calc_id": null, "bandstructure": null, "dos": null, "dos_energy_up": null, "dos_energy_down": null, "is_magnetic": null, "ordering": null, "total_magnetization": 1.2e-06, "total_magnetization_normalized_vol": null, "total_magnetization_normalized_formula_units": null, "num_magnetic_sites": null, "num_unique_magnetic_sites": null, "types_of_magnetic_species": null, "bulk_modulus": null, "shear_modulus": null, "universal_anisotropy": null, "homogeneous_poisson": null, "e_total": null, "e_ionic": null, "e_electronic": null, "n": null, "e_ij_max": null, "weighted_surface_energy_EV_PER_ANG2": null, "weighted_surface_energy": null, "weighted_work_function": null, "surface_anisotropy": null, "shape_factor": null, "has_reconstructed": null, "possible_species": null, "has_props": null, "theoretical": null, "database_IDs": null, "fields_not_requested": ["builder_meta", "nsites", "elements", "nelements", "composition", "composition_reduced", "chemsys", "symmetry", "property_name", "deprecated", "deprecation_reasons", "last_updated", "origins", "warnings", "task_ids", "uncorrected_energy_per_atom", "equilibrium_reaction_energy_per_atom", "decomposes_to", "xas", "grain_boundaries", "cbm", "vbm", "is_gap_direct", "is_metal", "es_source_calc_id", "bandstructure", "dos", "dos_energy_up", "dos_energy_down", "is_magnetic", "ordering", "total_magnetization_normalized_vol", "total_magnetization_normalized_formula_units", "num_magnetic_sites", "num_unique_magnetic_sites", "types_of_magnetic_species", "bulk_modulus", "shear_modulus", "universal_anisotropy", "homogeneous_poisson", "e_total", "e_ionic", "e_electronic", "n", "e_ij_max", "weighted_surface_energy_EV_PER_ANG2", "weighted_surface_energy", "weighted_work_function", "surface_anisotropy", "shape_factor", "has_reconstructed", "possible_species", "has_props", "theoretical", "database_IDs"]}