{
  "builder_meta": null,
  "nsites": null,
  "elements": null,
  "nelements": null,
  "composition": null,
  "composition_reduced": null,
  "formula_pretty": "LaZn4",
  "formula_anonymous": "AB4",
  "chemsys": null,
  "volume": 193.6759010617255,
  "density": 6.868327500553787,
  "density_atomic": 19.36759010617255,
  "symmetry": null,
  "property_name": null,
  "material_id": "mp-861620",
  "deprecated": null,
  "deprecation_reasons": null,
  "last_updated": null,
  "origins": null,
  "warnings": null,
  "structure": {
    "@module": "pymatgen.core.structure",
    "@class": "Structure",
    "charge": 0,
    "lattice": {
      "matrix": [
        [3.13971635, -5.097056, 0.0],
        [3.13971635, 5.097056, -0.0],
        [0.0, -0.0, 6.05112006]
      ],
      "pbc": [true, true, true],
      "a": 5.986467959121916,
      "b": 5.986467959121916,
      "c": 6.05112006,
      "alpha": 90.0,
      "beta": 90.0,
      "gamma": 116.735004615626,
      "volume": 193.6759010617255
    },
    "properties": {},
    "sites": [
      {
        "species": [{ "element": "La", "occu": 1 }],
        "abc": [0.26582812, 0.73417188, 0.25],
        "properties": { "magmom": -0.0 },
        "label": "La",
        "xyz": [3.13971635, 2.38717437197056, 1.512780015]
      },
      {
        "species": [{ "element": "La", "occu": 1 }],
        "abc": [0.73417188, 0.26582812, 0.750000999999999],
        "properties": { "magmom": -0.0 },
        "label": "La",
        "xyz": [3.13971635, -2.38717437197056, 4.538346096120054]
      },
      {
        "species": [{ "element": "Zn", "occu": 1 }],
        "abc": [0.21881172000000002, 0.21881172000000002, -0.0],
        "properties": { "magmom": 0.0 },
        "label": "Zn",
        "xyz": [1.374013469711244, 0.0, 0.0]
      },
      {
        "species": [{ "element": "Zn", "occu": 1 }],
        "abc": [0.7811882800000001, 0.7811882800000001, -0.0],
        "properties": { "magmom": 0.0 },
        "label": "Zn",
        "xyz": [4.905419230288756, 0.0, 0.0]
      },
      {
        "species": [{ "element": "Zn", "occu": 1 }],
        "abc": [0.85312591, 0.14687409, 0.25],
        "properties": { "magmom": 0.0 },
        "label": "Zn",
        "xyz": [3.1397163500000005, -3.5998050766419207, 1.512780015]
      },
      {
        "species": [{ "element": "Zn", "occu": 1 }],
        "abc": [0.61030141, 0.38969859, 0.25],
        "properties": { "magmom": 0.0 },
        "label": "Zn",
        "xyz": [3.1397163500000005, -1.1244249272979203, 1.512780015]
      },
      {
        "species": [{ "element": "Zn", "occu": 1 }],
        "abc": [0.21881172000000002, 0.21881172000000002, 0.499998999999999],
        "properties": { "magmom": 0.0 },
        "label": "Zn",
        "xyz": [1.374013469711244, 0.0, 3.025553978879934]
      },
      {
        "species": [{ "element": "Zn", "occu": 1 }],
        "abc": [0.7811882800000001, 0.7811882800000001, 0.499998999999999],
        "properties": { "magmom": 0.0 },
        "label": "Zn",
        "xyz": [4.905419230288756, 0.0, 3.025553978879934]
      },
      {
        "species": [{ "element": "Zn", "occu": 1 }],
        "abc": [0.38969859, 0.61030141, 0.750000999999999],
        "properties": { "magmom": 0.0 },
        "label": "Zn",
        "xyz": [3.1397163500000005, 1.1244249272979203, 4.538346096120054]
      },
      {
        "species": [{ "element": "Zn", "occu": 1 }],
        "abc": [0.14687409, 0.85312591, 0.750000999999999],
        "properties": { "magmom": 0.0 },
        "label": "Zn",
        "xyz": [3.1397163500000005, 3.5998050766419207, 4.538346096120054]
      }
    ]
  },
  "task_ids": null,
  "uncorrected_energy_per_atom": null,
  "energy_per_atom": -13.446360060999998,
  "formation_energy_per_atom": -0.368921935999998,
  "energy_above_hull": 0.0,
  "is_stable": true,
  "equilibrium_reaction_energy_per_atom": null,
  "decomposes_to": null,
  "xas": null,
  "grain_boundaries": null,
  "band_gap": 0.0,
  "cbm": null,
  "vbm": null,
  "efermi": 4.33041514,
  "is_gap_direct": null,
  "is_metal": null,
  "es_source_calc_id": null,
  "bandstructure": null,
  "dos": null,
  "dos_energy_up": null,
  "dos_energy_down": null,
  "is_magnetic": null,
  "ordering": null,
  "total_magnetization": 3.27e-5,
  "total_magnetization_normalized_vol": null,
  "total_magnetization_normalized_formula_units": null,
  "num_magnetic_sites": null,
  "num_unique_magnetic_sites": null,
  "types_of_magnetic_species": null,
  "bulk_modulus": null,
  "shear_modulus": null,
  "universal_anisotropy": null,
  "homogeneous_poisson": null,
  "e_total": null,
  "e_ionic": null,
  "e_electronic": null,
  "n": null,
  "e_ij_max": null,
  "weighted_surface_energy_EV_PER_ANG2": null,
  "weighted_surface_energy": null,
  "weighted_work_function": null,
  "surface_anisotropy": null,
  "shape_factor": null,
  "has_reconstructed": null,
  "possible_species": null,
  "has_props": null,
  "theoretical": null,
  "database_IDs": null,
  "fields_not_requested": [
    "builder_meta",
    "nsites",
    "elements",
    "nelements",
    "composition",
    "composition_reduced",
    "chemsys",
    "symmetry",
    "property_name",
    "deprecated",
    "deprecation_reasons",
    "last_updated",
    "origins",
    "warnings",
    "task_ids",
    "uncorrected_energy_per_atom",
    "equilibrium_reaction_energy_per_atom",
    "decomposes_to",
    "xas",
    "grain_boundaries",
    "cbm",
    "vbm",
    "is_gap_direct",
    "is_metal",
    "es_source_calc_id",
    "bandstructure",
    "dos",
    "dos_energy_up",
    "dos_energy_down",
    "is_magnetic",
    "ordering",
    "total_magnetization_normalized_vol",
    "total_magnetization_normalized_formula_units",
    "num_magnetic_sites",
    "num_unique_magnetic_sites",
    "types_of_magnetic_species",
    "bulk_modulus",
    "shear_modulus",
    "universal_anisotropy",
    "homogeneous_poisson",
    "e_total",
    "e_ionic",
    "e_electronic",
    "n",
    "e_ij_max",
    "weighted_surface_energy_EV_PER_ANG2",
    "weighted_surface_energy",
    "weighted_work_function",
    "surface_anisotropy",
    "shape_factor",
    "has_reconstructed",
    "possible_species",
    "has_props",
    "theoretical",
    "database_IDs"
  ]
}
