{
  "builder_meta": null,
  "nsites": null,
  "elements": null,
  "nelements": null,
  "composition": null,
  "composition_reduced": null,
  "formula_pretty": "Li2Al",
  "formula_anonymous": "AB2",
  "chemsys": null,
  "volume": 98.18152148206572,
  "density": 1.382245889461223,
  "density_atomic": 16.36358691367762,
  "symmetry": null,
  "property_name": null,
  "material_id": "mp-1210753",
  "deprecated": null,
  "deprecation_reasons": null,
  "last_updated": null,
  "origins": null,
  "warnings": null,
  "structure": {
    "@module": "pymatgen.core.structure",
    "@class": "Structure",
    "charge": 0,
    "lattice": {
      "matrix": [
        [0.0, -0.0, 4.43089706],
        [4.58458227, -0.0, -0.0],
        [-2.29229164, 4.8332396200000005, 0.0]
      ],
      "pbc": [true, true, true],
      "a": 4.43089706,
      "b": 4.58458227,
      "c": 5.349280903743198,
      "alpha": 115.37388309407426,
      "beta": 90.0,
      "gamma": 90.0,
      "volume": 98.18152148206573
    },
    "properties": {},
    "sites": [
      {
        "species": [{ "element": "Li", "occu": 1 }],
        "abc": [0.25, 0.7586075, 0.517215],
        "properties": { "magmom": 0.0 },
        "label": "Li",
        "xyz": [2.292290873806425, 2.4998240300583, 1.107724265]
      },
      {
        "species": [{ "element": "Li", "occu": 1 }],
        "abc": [0.75, 0.241392499999999, 0.482784999999999],
        "properties": { "magmom": 0.0 },
        "label": "Li",
        "xyz": [-2.4380642726917756e-7, 2.3334155899416955, 3.3231727950000005]
      },
      {
        "species": [{ "element": "Li", "occu": 1 }],
        "abc": [0.25, 0.41013819, 0.82027639],
        "properties": { "magmom": -0.0 },
        "label": "Li",
        "xyz": [-4.3716248820935277e-7, 3.9645923474985723, 1.107724265]
      },
      {
        "species": [{ "element": "Li", "occu": 1 }],
        "abc": [0.75, 0.58986181, 0.17972361],
        "properties": { "magmom": -0.0 },
        "label": "Li",
        "xyz": [2.2922910671624885, 0.8686472725014284, 3.3231727950000005]
      },
      {
        "species": [{ "element": "Al", "occu": 1 }],
        "abc": [0.25, 0.07498205000000001, 0.14996409],
        "properties": { "magmom": 0.0 },
        "label": "Al",
        "xyz": [-5.28089540985377e-8, 0.7248123813652458, 1.107724265]
      },
      {
        "species": [{ "element": "Al", "occu": 1 }],
        "abc": [0.75, 0.92501795, 0.85003591],
        "properties": { "magmom": 0.0 },
        "label": "Al",
        "xyz": [2.2922906828089538, 4.1084272386347545, 3.3231727950000005]
      }
    ]
  },
  "task_ids": null,
  "uncorrected_energy_per_atom": null,
  "energy_per_atom": -4.016602996666667,
  "formation_energy_per_atom": -0.181432611111111,
  "energy_above_hull": 0.0,
  "is_stable": true,
  "equilibrium_reaction_energy_per_atom": null,
  "decomposes_to": null,
  "xas": null,
  "grain_boundaries": null,
  "band_gap": 0.0,
  "cbm": null,
  "vbm": null,
  "efermi": 2.42521458,
  "is_gap_direct": null,
  "is_metal": null,
  "es_source_calc_id": null,
  "bandstructure": null,
  "dos": null,
  "dos_energy_up": null,
  "dos_energy_down": null,
  "is_magnetic": null,
  "ordering": null,
  "total_magnetization": 0.0,
  "total_magnetization_normalized_vol": null,
  "total_magnetization_normalized_formula_units": null,
  "num_magnetic_sites": null,
  "num_unique_magnetic_sites": null,
  "types_of_magnetic_species": null,
  "bulk_modulus": null,
  "shear_modulus": null,
  "universal_anisotropy": null,
  "homogeneous_poisson": null,
  "e_total": null,
  "e_ionic": null,
  "e_electronic": null,
  "n": null,
  "e_ij_max": null,
  "weighted_surface_energy_EV_PER_ANG2": null,
  "weighted_surface_energy": null,
  "weighted_work_function": null,
  "surface_anisotropy": null,
  "shape_factor": null,
  "has_reconstructed": null,
  "possible_species": null,
  "has_props": null,
  "theoretical": null,
  "database_IDs": null,
  "fields_not_requested": [
    "builder_meta",
    "nsites",
    "elements",
    "nelements",
    "composition",
    "composition_reduced",
    "chemsys",
    "symmetry",
    "property_name",
    "deprecated",
    "deprecation_reasons",
    "last_updated",
    "origins",
    "warnings",
    "task_ids",
    "uncorrected_energy_per_atom",
    "equilibrium_reaction_energy_per_atom",
    "decomposes_to",
    "xas",
    "grain_boundaries",
    "cbm",
    "vbm",
    "is_gap_direct",
    "is_metal",
    "es_source_calc_id",
    "bandstructure",
    "dos",
    "dos_energy_up",
    "dos_energy_down",
    "is_magnetic",
    "ordering",
    "total_magnetization_normalized_vol",
    "total_magnetization_normalized_formula_units",
    "num_magnetic_sites",
    "num_unique_magnetic_sites",
    "types_of_magnetic_species",
    "bulk_modulus",
    "shear_modulus",
    "universal_anisotropy",
    "homogeneous_poisson",
    "e_total",
    "e_ionic",
    "e_electronic",
    "n",
    "e_ij_max",
    "weighted_surface_energy_EV_PER_ANG2",
    "weighted_surface_energy",
    "weighted_work_function",
    "surface_anisotropy",
    "shape_factor",
    "has_reconstructed",
    "possible_species",
    "has_props",
    "theoretical",
    "database_IDs"
  ]
}
