{"builder_meta": null, "nsites": null, "elements": null, "nelements": null, "composition": null, "composition_reduced": null, "formula_pretty": "Li2B", "formula_anonymous": "AB2", "chemsys": null, "volume": 26.60439510634156, "density": 1.541237491311348, "density_atomic": 8.868131702113853, "symmetry": null, "property_name": null, "material_id": "mp-1222698", "deprecated": null, "deprecation_reasons": null, "last_updated": null, "origins": null, "warnings": null, "structure": {"@module": "pymatgen.core.structure", "@class": "Structure", "charge": 0, "lattice": {"matrix": [[-0.005504999999999, 0.003179, -2.052664], [-3.868202, -0.0006479999999990001, 0.006574], [-1.933541, 3.350285, 0.006574]], "pbc": [true, true, true], "a": 2.052673843542125, "b": 3.8682076405208656, "c": 3.868208060249862, "alpha": 60.019084093279574, "beta": 89.94371215850235, "gamma": 89.94372880103366, "volume": 26.604395106341553}, "properties": {}, "sites": [{"species": [{"element": "Li", "occu": 1}], "abc": [0.006098999999999, 0.333252999999999, 0.333252999999999], "properties": {"magmom": 0.0}, "label": "Li", "xyz": [-1.9334818349739944, 1.116295967881997, -0.00813758729199796]}, {"species": [{"element": "Li", "occu": 1}], "abc": [0.993900999999999, 0.666747, 0.666747], "properties": {"magmom": 0.0}, "label": "Li", "xyz": [-3.873766165025999, 2.2365200321180003, -2.0313784127079977]}, {"species": [{"element": "B", "occu": 1}], "abc": [0.5, 0.0, 0.0], "properties": {"magmom": -0.0}, "label": "B", "xyz": [-0.0027524999999995, 0.0015895, -1.026332]}]}, "task_ids": null, "uncorrected_energy_per_atom": null, "energy_per_atom": -3.712495317222222, "formation_energy_per_atom": 0.327427024166666, "energy_above_hull": 0.47721906555555504, "is_stable": false, "equilibrium_reaction_energy_per_atom": null, "decomposes_to": null, "xas": null, "grain_boundaries": null, "band_gap": 0.0, "cbm": null, "vbm": null, "efermi": 2.517814259999999, "is_gap_direct": null, "is_metal": null, "es_source_calc_id": null, "bandstructure": null, "dos": null, "dos_energy_up": null, "dos_energy_down": null, "is_magnetic": null, "ordering": null, "total_magnetization": 0.00046439999999900005, "total_magnetization_normalized_vol": null, "total_magnetization_normalized_formula_units": null, "num_magnetic_sites": null, "num_unique_magnetic_sites": null, "types_of_magnetic_species": null, "bulk_modulus": null, "shear_modulus": null, "universal_anisotropy": null, "homogeneous_poisson": null, "e_total": null, "e_ionic": null, "e_electronic": null, "n": null, "e_ij_max": null, "weighted_surface_energy_EV_PER_ANG2": null, "weighted_surface_energy": null, "weighted_work_function": null, "surface_anisotropy": null, "shape_factor": null, "has_reconstructed": null, "possible_species": null, "has_props": null, "theoretical": null, "database_IDs": null, "fields_not_requested": ["builder_meta", "nsites", "elements", "nelements", "composition", "composition_reduced", "chemsys", "symmetry", "property_name", "deprecated", "deprecation_reasons", "last_updated", "origins", "warnings", "task_ids", "uncorrected_energy_per_atom", "equilibrium_reaction_energy_per_atom", "decomposes_to", "xas", "grain_boundaries", "cbm", "vbm", "is_gap_direct", "is_metal", "es_source_calc_id", "bandstructure", "dos", "dos_energy_up", "dos_energy_down", "is_magnetic", "ordering", "total_magnetization_normalized_vol", "total_magnetization_normalized_formula_units", "num_magnetic_sites", "num_unique_magnetic_sites", "types_of_magnetic_species", "bulk_modulus", "shear_modulus", "universal_anisotropy", "homogeneous_poisson", "e_total", "e_ionic", "e_electronic", "n", "e_ij_max", "weighted_surface_energy_EV_PER_ANG2", "weighted_surface_energy", "weighted_work_function", "surface_anisotropy", "shape_factor", "has_reconstructed", "possible_species", "has_props", "theoretical", "database_IDs"]}