{"builder_meta": null, "nsites": null, "elements": null, "nelements": null, "composition": null, "composition_reduced": null, "formula_pretty": "Li2Ca", "formula_anonymous": "AB2", "chemsys": null, "volume": 338.2804236330248, "density": 1.059507813918777, "density_atomic": 28.190035302752065, "symmetry": null, "property_name": null, "material_id": "mp-570466", "deprecated": null, "deprecation_reasons": null, "last_updated": null, "origins": null, "warnings": null, "structure": {"@module": "pymatgen.core.structure", "@class": "Structure", "charge": 0, "lattice": {"matrix": [[6.19327088, 1e-08, 0.0], [-3.09663493, 5.36352777, -0.0], [0.0, 0.0, 10.18371546]], "pbc": [true, true, true], "a": 6.19327088, "b": 6.193268767723332, "c": 10.18371546, "alpha": 90.0, "beta": 90.0, "gamma": 120.00000574159886, "volume": 338.2804236330248}, "properties": {}, "sites": [{"species": [{"element": "Li", "occu": 1}], "abc": [0.33548865, 0.16774432, 0.75], "properties": {"magmom": -0.0}, "label": "Li", "xyz": [1.5583291659944143, 0.8997013219346529, 7.637786595]}, {"species": [{"element": "Li", "occu": 1}], "abc": [0.16774432, 0.83225568, 0.25], "properties": {"magmom": -0.0}, "label": "Li", "xyz": [-1.538305997037501, 4.463826453097677, 2.545928865]}, {"species": [{"element": "Li", "occu": 1}], "abc": [0.16774432, 0.33548865, 0.25], "properties": {"magmom": -0.0}, "label": "Li", "xyz": [1.401328570960203e-07, 1.799402692472254, 2.545928865]}, {"species": [{"element": "Li", "occu": 1}], "abc": [0.83225568, 0.6645113500000001, 0.75], "properties": {"magmom": -0.0}, "label": "Li", "xyz": [3.0966358098671427, 3.5641250875277466, 7.637786595]}, {"species": [{"element": "Li", "occu": 1}], "abc": [0.83225568, 0.16774432, 0.75], "properties": {"magmom": -0.0}, "label": "Li", "xyz": [4.634941947037501, 0.8997013269023232, 7.637786595]}, {"species": [{"element": "Li", "occu": 1}], "abc": [0.0, 0.0, 0.0], "properties": {"magmom": -0.0}, "label": "Li", "xyz": [0.0, 0.0, 0.0]}, {"species": [{"element": "Li", "occu": 1}], "abc": [0.6645113500000001, 0.83225568, 0.25], "properties": {"magmom": -0.0}, "label": "Li", "xyz": [1.5383067840055857, 4.4638264580653475, 2.545928865]}, {"species": [{"element": "Li", "occu": 1}], "abc": [0.0, 0.0, 0.5], "properties": {"magmom": -0.0}, "label": "Li", "xyz": [0.0, 0.0, 5.09185773]}, {"species": [{"element": "Ca", "occu": 1}], "abc": [0.666667, 0.333333, 0.06218969], "properties": {"magmom": -0.0}, "label": "Ca", "xyz": [3.09663870663527, 1.78784080882408, 0.6333221075056074]}, {"species": [{"element": "Ca", "occu": 1}], "abc": [0.333333, 0.666667, 0.56218969], "properties": {"magmom": -0.0}, "label": "Ca", "xyz": [-2.7566352702734775e-06, 3.5756869711759203, 5.725179837505607]}, {"species": [{"element": "Ca", "occu": 1}], "abc": [0.333333, 0.666667, 0.93781031], "properties": {"magmom": -0.0}, "label": "Ca", "xyz": [-2.7566352702734775e-06, 3.5756869711759203, 9.550393352494392]}, {"species": [{"element": "Ca", "occu": 1}], "abc": [0.666667, 0.333333, 0.43781031000000004], "properties": {"magmom": -0.0}, "label": "Ca", "xyz": [3.09663870663527, 1.78784080882408, 4.458535622494393]}]}, "task_ids": null, "uncorrected_energy_per_atom": null, "energy_per_atom": -3.9565776875000003, "formation_energy_per_atom": -0.019342178611111, "energy_above_hull": 0.0, "is_stable": true, "equilibrium_reaction_energy_per_atom": null, "decomposes_to": null, "xas": null, "grain_boundaries": null, "band_gap": 0.0, "cbm": null, "vbm": null, "efermi": 1.04029569, "is_gap_direct": null, "is_metal": null, "es_source_calc_id": null, "bandstructure": null, "dos": null, "dos_energy_up": null, "dos_energy_down": null, "is_magnetic": null, "ordering": null, "total_magnetization": 2.7e-06, "total_magnetization_normalized_vol": null, "total_magnetization_normalized_formula_units": null, "num_magnetic_sites": null, "num_unique_magnetic_sites": null, "types_of_magnetic_species": null, "bulk_modulus": null, "shear_modulus": null, "universal_anisotropy": null, "homogeneous_poisson": null, "e_total": null, "e_ionic": null, "e_electronic": null, "n": null, "e_ij_max": null, "weighted_surface_energy_EV_PER_ANG2": null, "weighted_surface_energy": null, "weighted_work_function": null, "surface_anisotropy": null, "shape_factor": null, "has_reconstructed": null, "possible_species": null, "has_props": null, "theoretical": null, "database_IDs": null, "fields_not_requested": ["builder_meta", "nsites", "elements", "nelements", "composition", "composition_reduced", "chemsys", "symmetry", "property_name", "deprecated", "deprecation_reasons", "last_updated", "origins", "warnings", "task_ids", "uncorrected_energy_per_atom", "equilibrium_reaction_energy_per_atom", "decomposes_to", "xas", "grain_boundaries", "cbm", "vbm", "is_gap_direct", "is_metal", "es_source_calc_id", "bandstructure", "dos", "dos_energy_up", "dos_energy_down", "is_magnetic", "ordering", "total_magnetization_normalized_vol", "total_magnetization_normalized_formula_units", "num_magnetic_sites", "num_unique_magnetic_sites", "types_of_magnetic_species", "bulk_modulus", "shear_modulus", "universal_anisotropy", "homogeneous_poisson", "e_total", "e_ionic", "e_electronic", "n", "e_ij_max", "weighted_surface_energy_EV_PER_ANG2", "weighted_surface_energy", "weighted_work_function", "surface_anisotropy", "shape_factor", "has_reconstructed", "possible_species", "has_props", "theoretical", "database_IDs"]}