{"builder_meta": null, "nsites": null, "elements": null, "nelements": null, "composition": null, "composition_reduced": null, "formula_pretty": "Li2Ga7", "formula_anonymous": "A2B7", "chemsys": null, "volume": 338.43579039591435, "density": 4.925578111767376, "density_atomic": 18.801988355328575, "symmetry": null, "property_name": null, "material_id": "mp-1222769", "deprecated": null, "deprecation_reasons": null, "last_updated": null, "origins": null, "warnings": null, "structure": {"@module": "pymatgen.core.structure", "@class": "Structure", "charge": 0, "lattice": {"matrix": [[-4.18984074, 2.41900525, 5.54864146], [0.01371092, -4.84346081, 5.5611834], [4.20141715, 2.40985484, 5.5611834]], "pbc": [true, true, true], "a": 7.361642063950287, "b": 7.374690597968749, "c": 7.374690991941365, "alpha": 69.20061020899867, "beta": 69.42055177548893, "gamma": 69.42053537112656, "volume": 338.43579039591435}, "properties": {}, "sites": [{"species": [{"element": "Li", "occu": 1}], "abc": [0.51971937, 0.11728602, 0.11728602], "properties": {"magmom": -0.0}, "label": "Li", "xyz": [-1.6831657946725525, 0.9717759260871532, 4.188234578899216]}, {"species": [{"element": "Li", "occu": 1}], "abc": [0.88893623, 0.88527895, 0.47788884000000004], "properties": {"magmom": 0.0}, "label": "Li", "xyz": [-1.7045528746852705, -0.9858297589017564, 12.513214506236782]}, {"species": [{"element": "Li", "occu": 1}], "abc": [0.88893623, 0.47788884000000004, 0.88527895], "properties": {"magmom": 0.0}, "label": "Li", "xyz": [0.0014772270021152778, 1.9690993016164646, 12.513214506236782]}, {"species": [{"element": "Li", "occu": 1}], "abc": [0.46002205, 0.8825771, 0.8825771], "properties": {"magmom": 0.0}, "label": "Li", "xyz": [1.79275638176088, -1.0350491454795239, 12.368843654624474]}, {"species": [{"element": "Ga", "occu": 1}], "abc": [0.71029537, 0.69839353, 0.18395808], "properties": {"magmom": -0.0}, "label": "Ga", "xyz": [-2.193564228647954, -1.2211211939867597, 8.848093465323315]}, {"species": [{"element": "Ga", "occu": 1}], "abc": [0.71029537, 0.18395808, 0.69839353], "properties": {"magmom": -0.0}, "label": "Ga", "xyz": [-0.03925968975010008, 2.510241506413033, 8.848093465323315]}, {"species": [{"element": "Ga", "occu": 1}], "abc": [0.18659369, 0.7039713, 0.7039713], "properties": {"magmom": 0.0}, "label": "Ga", "xyz": [2.1855313429154606, -1.2618176426617884, 8.865168499781227]}, {"species": [{"element": "Ga", "occu": 1}], "abc": [0.294696299999999, 0.29930159, 0.8106053400000001], "properties": {"magmom": 0.0}, "label": "Ga", "xyz": [2.1750643138466863, 1.2166575772487302, 7.807560102949555]}, {"species": [{"element": "Ga", "occu": 1}], "abc": [0.294696299999999, 0.8106053400000001, 0.29930159], "properties": {"magmom": 0.0}, "label": "Ga", "xyz": [0.033874414549323495, -2.4919899145299573, 7.807560102949555]}, {"species": [{"element": "Ga", "occu": 1}], "abc": [0.81700488, 0.29770717, 0.29770717], "properties": {"magmom": 0.0}, "label": "Ga", "xyz": [-2.168246482095549, 1.2518371477718153, 7.84447549392028]}, {"species": [{"element": "Ga", "occu": 1}], "abc": [0.48673533, 0.48950153, 0.17468481], "properties": {"magmom": -0.0}, "label": "Ga", "xyz": [-1.2987082423351455, -0.7725011235065764, 6.394381880599538]}, {"species": [{"element": "Ga", "occu": 1}], "abc": [0.48673533, 0.17468481, 0.48950153], "properties": {"magmom": -0.0}, "label": "Ga", "xyz": [0.01965169731702021, 1.510963918551092, 6.394381880599537]}, {"species": [{"element": "Ga", "occu": 1}], "abc": [0.17137381000000002, 0.48747494, 0.48747494], "properties": {"magmom": -0.0}, "label": "Ga", "xyz": [1.3367403321085465, -0.7717677781068892, 6.3727669158121545]}, {"species": [{"element": "Ga", "occu": 1}], "abc": [0.50977088, 0.50595623, 0.8255228800000001], "properties": {"magmom": -0.0}, "label": "Ga", "xyz": [1.3394443100527726, 0.7719495713355133, 10.23313536384746]}, {"species": [{"element": "Ga", "occu": 1}], "abc": [0.50977088, 0.8255228800000001, 0.50595623], "properties": {"magmom": -0.0}, "label": "Ga", "xyz": [0.0011930589475426245, -1.5459682123275593, 10.23313536384746]}, {"species": [{"element": "Ga", "occu": 1}], "abc": [0.8255025300000001, 0.51011109, 0.51011109], "properties": {"magmom": -0.0}, "label": "Ga", "xyz": [-1.3085405568897759, 0.7554855599710757, 10.254060215020706]}, {"species": [{"element": "Ga", "occu": 1}], "abc": [0.07681301, 0.07917062, 0.07917062], "properties": {"magmom": -0.0}, "label": "Ga", "xyz": [0.011880024021276026, -0.006859019022298907, 1.3067725273768107]}, {"species": [{"element": "Ga", "occu": 1}], "abc": [0.92591347, 0.91881197, 0.91881197], "properties": {"magmom": -0.0}, "label": "Ga", "xyz": [-0.006519852521770009, 0.003763249476256725, 15.356925618585064]}]}, "task_ids": null, "uncorrected_energy_per_atom": null, "energy_per_atom": -9.670581120000001, "formation_energy_per_atom": -0.240265067037037, "energy_above_hull": 0.0, "is_stable": true, "equilibrium_reaction_energy_per_atom": null, "decomposes_to": null, "xas": null, "grain_boundaries": null, "band_gap": 0.1587, "cbm": null, "vbm": null, "efermi": 2.51198106, "is_gap_direct": null, "is_metal": null, "es_source_calc_id": null, "bandstructure": null, "dos": null, "dos_energy_up": null, "dos_energy_down": null, "is_magnetic": null, "ordering": null, "total_magnetization": 0.0, "total_magnetization_normalized_vol": null, "total_magnetization_normalized_formula_units": null, "num_magnetic_sites": null, "num_unique_magnetic_sites": null, "types_of_magnetic_species": null, "bulk_modulus": null, "shear_modulus": null, "universal_anisotropy": null, "homogeneous_poisson": null, "e_total": null, "e_ionic": null, "e_electronic": null, "n": null, "e_ij_max": null, "weighted_surface_energy_EV_PER_ANG2": null, "weighted_surface_energy": null, "weighted_work_function": null, "surface_anisotropy": null, "shape_factor": null, "has_reconstructed": null, "possible_species": null, "has_props": null, "theoretical": null, "database_IDs": null, "fields_not_requested": ["builder_meta", "nsites", "elements", "nelements", "composition", "composition_reduced", "chemsys", "symmetry", "property_name", "deprecated", "deprecation_reasons", "last_updated", "origins", "warnings", "task_ids", "uncorrected_energy_per_atom", "equilibrium_reaction_energy_per_atom", "decomposes_to", "xas", "grain_boundaries", "cbm", "vbm", "is_gap_direct", "is_metal", "es_source_calc_id", "bandstructure", "dos", "dos_energy_up", "dos_energy_down", "is_magnetic", "ordering", "total_magnetization_normalized_vol", "total_magnetization_normalized_formula_units", "num_magnetic_sites", "num_unique_magnetic_sites", "types_of_magnetic_species", "bulk_modulus", "shear_modulus", "universal_anisotropy", "homogeneous_poisson", "e_total", "e_ionic", "e_electronic", "n", "e_ij_max", "weighted_surface_energy_EV_PER_ANG2", "weighted_surface_energy", "weighted_work_function", "surface_anisotropy", "shape_factor", "has_reconstructed", "possible_species", "has_props", "theoretical", "database_IDs"]}