{
  "builder_meta": null,
  "nsites": null,
  "elements": null,
  "nelements": null,
  "composition": null,
  "composition_reduced": null,
  "formula_pretty": "Li2Ga",
  "formula_anonymous": "AB2",
  "chemsys": null,
  "volume": 90.33180325666436,
  "density": 3.073765023125466,
  "density_atomic": 15.055300542777394,
  "symmetry": null,
  "property_name": null,
  "material_id": "mp-29210",
  "deprecated": null,
  "deprecation_reasons": null,
  "last_updated": null,
  "origins": null,
  "warnings": null,
  "structure": {
    "@module": "pymatgen.core.structure",
    "@class": "Structure",
    "charge": 0,
    "lattice": {
      "matrix": [
        [4.31001929, 0.0, -0.0],
        [0.0, 4.04858471, -1.935615729999999],
        [-0.0, -0.00977125, 5.18143404]
      ],
      "pbc": [true, true, true],
      "a": 4.31001929,
      "b": 4.4874989034281905,
      "c": 5.1814432533993156,
      "alpha": 115.66036737107626,
      "beta": 90.0,
      "gamma": 90.0,
      "volume": 90.33180325666436
    },
    "properties": {},
    "sites": [
      {
        "species": [{ "element": "Li", "occu": 1 }],
        "abc": [0.25, 0.58190986, 0.16381673],
        "properties": { "magmom": -0.0 },
        "label": "Li",
        "xyz": [1.0775048225, 2.354310667571228, -0.27754829731460817]
      },
      {
        "species": [{ "element": "Li", "occu": 1 }],
        "abc": [0.75, 0.41809114, 0.83618327],
        "properties": { "magmom": -0.0 },
        "label": "Li",
        "xyz": [3.2325144674999997, 1.684506841013482, 3.5233646716988787]
      },
      {
        "species": [{ "element": "Li", "occu": 1 }],
        "abc": [0.75, 0.75944941, 0.51889882],
        "properties": { "magmom": 0.0 },
        "label": "Li",
        "xyz": [3.2325144674999997, 3.069624979249596, 1.2186377851286143]
      },
      {
        "species": [{ "element": "Li", "occu": 1 }],
        "abc": [0.25, 0.24055059, 0.48110118],
        "properties": { "magmom": 0.0 },
        "label": "Li",
        "xyz": [1.0775048225, 0.969188480750404, 2.027180524871387]
      },
      {
        "species": [{ "element": "Ga", "occu": 1 }],
        "abc": [0.25, 0.9225734800000001, 0.84514595],
        "properties": { "magmom": 0.0 },
        "label": "Ga",
        "xyz": [1.0775048225, 3.7268587526155534, 2.5933202541292983]
      },
      {
        "species": [{ "element": "Ga", "occu": 1 }],
        "abc": [0.75, 0.07742652, 0.15485405],
        "properties": { "magmom": 0.0 },
        "label": "Ga",
        "xyz": [3.2325144674999997, 0.3119547073844467, 0.6524980558707025]
      }
    ]
  },
  "task_ids": null,
  "uncorrected_energy_per_atom": null,
  "energy_per_atom": -5.741142336666667,
  "formation_energy_per_atom": -0.33574607777777804,
  "energy_above_hull": 0.0,
  "is_stable": true,
  "equilibrium_reaction_energy_per_atom": null,
  "decomposes_to": null,
  "xas": null,
  "grain_boundaries": null,
  "band_gap": 0.0,
  "cbm": null,
  "vbm": null,
  "efermi": 1.90765537,
  "is_gap_direct": null,
  "is_metal": null,
  "es_source_calc_id": null,
  "bandstructure": null,
  "dos": null,
  "dos_energy_up": null,
  "dos_energy_down": null,
  "is_magnetic": null,
  "ordering": null,
  "total_magnetization": 0.0,
  "total_magnetization_normalized_vol": null,
  "total_magnetization_normalized_formula_units": null,
  "num_magnetic_sites": null,
  "num_unique_magnetic_sites": null,
  "types_of_magnetic_species": null,
  "bulk_modulus": null,
  "shear_modulus": null,
  "universal_anisotropy": null,
  "homogeneous_poisson": null,
  "e_total": null,
  "e_ionic": null,
  "e_electronic": null,
  "n": null,
  "e_ij_max": null,
  "weighted_surface_energy_EV_PER_ANG2": null,
  "weighted_surface_energy": null,
  "weighted_work_function": null,
  "surface_anisotropy": null,
  "shape_factor": null,
  "has_reconstructed": null,
  "possible_species": null,
  "has_props": null,
  "theoretical": null,
  "database_IDs": null,
  "fields_not_requested": [
    "builder_meta",
    "nsites",
    "elements",
    "nelements",
    "composition",
    "composition_reduced",
    "chemsys",
    "symmetry",
    "property_name",
    "deprecated",
    "deprecation_reasons",
    "last_updated",
    "origins",
    "warnings",
    "task_ids",
    "uncorrected_energy_per_atom",
    "equilibrium_reaction_energy_per_atom",
    "decomposes_to",
    "xas",
    "grain_boundaries",
    "cbm",
    "vbm",
    "is_gap_direct",
    "is_metal",
    "es_source_calc_id",
    "bandstructure",
    "dos",
    "dos_energy_up",
    "dos_energy_down",
    "is_magnetic",
    "ordering",
    "total_magnetization_normalized_vol",
    "total_magnetization_normalized_formula_units",
    "num_magnetic_sites",
    "num_unique_magnetic_sites",
    "types_of_magnetic_species",
    "bulk_modulus",
    "shear_modulus",
    "universal_anisotropy",
    "homogeneous_poisson",
    "e_total",
    "e_ionic",
    "e_electronic",
    "n",
    "e_ij_max",
    "weighted_surface_energy_EV_PER_ANG2",
    "weighted_surface_energy",
    "weighted_work_function",
    "surface_anisotropy",
    "shape_factor",
    "has_reconstructed",
    "possible_species",
    "has_props",
    "theoretical",
    "database_IDs"
  ]
}
