{"builder_meta": null, "nsites": null, "elements": null, "nelements": null, "composition": null, "composition_reduced": null, "formula_pretty": "Li2In", "formula_anonymous": "AB2", "chemsys": null, "volume": 110.46656502529444, "density": 3.869249991116945, "density_atomic": 18.411094170882407, "symmetry": null, "property_name": null, "material_id": "mp-31324", "deprecated": null, "deprecation_reasons": null, "last_updated": null, "origins": null, "warnings": null, "structure": {"@module": "pymatgen.core.structure", "@class": "Structure", "charge": 0, "lattice": {"matrix": [[0.0, 0.0, -4.67951371], [-4.69327212, 1e-08, 0.0], [2.3466355500000002, 5.02984254, 0.0]], "pbc": [true, true, true], "a": 4.67951371, "b": 4.69327212, "c": 5.5503166019351955, "alpha": 115.01105331926821, "beta": 90.0, "gamma": 90.0, "volume": 110.46656502529443}, "properties": {}, "sites": [{"species": [{"element": "Li", "occu": 1}], "abc": [0.75, 0.75735506, 0.51470911], "properties": {"magmom": 0.0}, "label": "Li", "xyz": [-2.346638692604066, 2.58890578477709, -3.5096352825]}, {"species": [{"element": "Li", "occu": 1}], "abc": [0.25, 0.24264494, 0.48529089000000003], "properties": {"magmom": 0.0}, "label": "Li", "xyz": [2.122604066956413e-06, 2.4409367652229097, -1.1698784275]}, {"species": [{"element": "Li", "occu": 1}], "abc": [0.75, 0.41054654, 0.82109508], "properties": {"magmom": -0.0}, "label": "Li", "xyz": [4.2745136294986e-06, 4.129978966874168, -3.5096352825]}, {"species": [{"element": "Li", "occu": 1}], "abc": [0.25, 0.58945346, 0.17890492], "properties": {"magmom": -0.0}, "label": "Li", "xyz": [-2.346640844513629, 0.8998635831258314, -1.1698784275]}, {"species": [{"element": "In", "occu": 1}], "abc": [0.75, 0.08731008, 0.17462017], "properties": {"magmom": 0.0}, "label": "In", "xyz": [-6.558992604599467e-08, 0.8783119602811326, -3.5096352825]}, {"species": [{"element": "In", "occu": 1}], "abc": [0.25, 0.91268992, 0.82537983], "properties": {"magmom": 0.0}, "label": "In", "xyz": [-2.3466365044100734, 4.151530589718868, -1.1698784275]}]}, "task_ids": null, "uncorrected_energy_per_atom": null, "energy_per_atom": -9.486753521666666, "formation_energy_per_atom": -0.36941911944444306, "energy_above_hull": 0.0, "is_stable": true, "equilibrium_reaction_energy_per_atom": null, "decomposes_to": null, "xas": null, "grain_boundaries": null, "band_gap": 0.0, "cbm": null, "vbm": null, "efermi": 4.10054438, "is_gap_direct": null, "is_metal": null, "es_source_calc_id": null, "bandstructure": null, "dos": null, "dos_energy_up": null, "dos_energy_down": null, "is_magnetic": null, "ordering": null, "total_magnetization": 0.0, "total_magnetization_normalized_vol": null, "total_magnetization_normalized_formula_units": null, "num_magnetic_sites": null, "num_unique_magnetic_sites": null, "types_of_magnetic_species": null, "bulk_modulus": null, "shear_modulus": null, "universal_anisotropy": null, "homogeneous_poisson": null, "e_total": null, "e_ionic": null, "e_electronic": null, "n": null, "e_ij_max": null, "weighted_surface_energy_EV_PER_ANG2": null, "weighted_surface_energy": null, "weighted_work_function": null, "surface_anisotropy": null, "shape_factor": null, "has_reconstructed": null, "possible_species": null, "has_props": null, "theoretical": null, "database_IDs": null, "fields_not_requested": ["builder_meta", "nsites", "elements", "nelements", "composition", "composition_reduced", "chemsys", "symmetry", "property_name", "deprecated", "deprecation_reasons", "last_updated", "origins", "warnings", "task_ids", "uncorrected_energy_per_atom", "equilibrium_reaction_energy_per_atom", "decomposes_to", "xas", "grain_boundaries", "cbm", "vbm", "is_gap_direct", "is_metal", "es_source_calc_id", "bandstructure", "dos", "dos_energy_up", "dos_energy_down", "is_magnetic", "ordering", "total_magnetization_normalized_vol", "total_magnetization_normalized_formula_units", "num_magnetic_sites", "num_unique_magnetic_sites", "types_of_magnetic_species", "bulk_modulus", "shear_modulus", "universal_anisotropy", "homogeneous_poisson", "e_total", "e_ionic", "e_electronic", "n", "e_ij_max", "weighted_surface_energy_EV_PER_ANG2", "weighted_surface_energy", "weighted_work_function", "surface_anisotropy", "shape_factor", "has_reconstructed", "possible_species", "has_props", "theoretical", "database_IDs"]}