{
  "builder_meta": null,
  "nsites": null,
  "elements": null,
  "nelements": null,
  "composition": null,
  "composition_reduced": null,
  "formula_pretty": "Li2Mg",
  "formula_anonymous": "AB2",
  "chemsys": null,
  "volume": 121.26361061698287,
  "density": 1.045837329329422,
  "density_atomic": 20.210601769497146,
  "symmetry": null,
  "property_name": null,
  "material_id": "mp-976843",
  "deprecated": null,
  "deprecation_reasons": null,
  "last_updated": null,
  "origins": null,
  "warnings": null,
  "structure": {
    "@module": "pymatgen.core.structure",
    "@class": "Structure",
    "charge": 0,
    "lattice": {
      "matrix": [
        [3.30973899, 1e-8, 1e-8],
        [-1.6548705, 2.45178013, 4.92350509],
        [-0.0, -4.9791669, 4.94476126]
      ],
      "pbc": [true, true, true],
      "a": 3.30973899,
      "b": 5.743755265406856,
      "c": 7.017319070446519,
      "alpha": 72.47382772306894,
      "beta": 90.00000000084877,
      "gamma": 106.74522523566036,
      "volume": 121.26361061698287
    },
    "properties": {},
    "sites": [
      {
        "species": [{ "element": "Li", "occu": 1 }],
        "abc": [0.02941295, 0.05882289, 0.95934595],
        "properties": { "magmom": 0.0 },
        "label": "Li",
        "xyz": [4.922040175492359e-6, -4.632522806703751, 5.033351487115537]
      },
      {
        "species": [{ "element": "Li", "occu": 1 }],
        "abc": [0.69859971, 0.39720041, 0.10953837],
        "properties": { "magmom": 0.0 },
        "label": "Li",
        "xyz": [1.6548674574927877, 0.42843825366789745, 2.49725933583063]
      },
      {
        "species": [{ "element": "Li", "occu": 1 }],
        "abc": [0.35695529, 0.71391159, 0.27934963],
        "properties": { "magmom": 0.0 },
        "label": "Li",
        "xyz": [-2.388899337901762e-6, 0.3594258232850125, 4.89626457916388]
      },
      {
        "species": [{ "element": "Li", "occu": 1 }],
        "abc": [0.026144050000000002, 0.05228911, 0.42954305],
        "properties": { "magmom": 0.0 },
        "label": "Li",
        "xyz": [-1.7239687454956298e-6, -2.01056513551022, 2.381433532640253]
      },
      {
        "species": [{ "element": "Mg", "occu": 1 }],
        "abc": [0.6863416800000001, 0.37268336, 0.61130085],
        "properties": { "magmom": 0.0 },
        "label": "Mg",
        "xyz": [1.6548691204532235, -2.1300312945688114, 4.85764518806679]
      },
      {
        "species": [{ "element": "Mg", "occu": 1 }],
        "abc": [0.36921332, 0.73842764, 0.77758815],
        "properties": { "magmom": 0.0 },
        "label": "Mg",
        "xyz": [-2.396989273067973e-6, -2.0612789594253087, 7.48064000818389]
      }
    ]
  },
  "task_ids": null,
  "uncorrected_energy_per_atom": null,
  "energy_per_atom": -3.012659226666666,
  "formation_energy_per_atom": -0.031753756111111,
  "energy_above_hull": 0.0030548261111110002,
  "is_stable": false,
  "equilibrium_reaction_energy_per_atom": null,
  "decomposes_to": null,
  "xas": null,
  "grain_boundaries": null,
  "band_gap": 0.0,
  "cbm": null,
  "vbm": null,
  "efermi": 1.1282422300000001,
  "is_gap_direct": null,
  "is_metal": null,
  "es_source_calc_id": null,
  "bandstructure": null,
  "dos": null,
  "dos_energy_up": null,
  "dos_energy_down": null,
  "is_magnetic": null,
  "ordering": null,
  "total_magnetization": 0.0138693,
  "total_magnetization_normalized_vol": null,
  "total_magnetization_normalized_formula_units": null,
  "num_magnetic_sites": null,
  "num_unique_magnetic_sites": null,
  "types_of_magnetic_species": null,
  "bulk_modulus": null,
  "shear_modulus": null,
  "universal_anisotropy": null,
  "homogeneous_poisson": null,
  "e_total": null,
  "e_ionic": null,
  "e_electronic": null,
  "n": null,
  "e_ij_max": null,
  "weighted_surface_energy_EV_PER_ANG2": null,
  "weighted_surface_energy": null,
  "weighted_work_function": null,
  "surface_anisotropy": null,
  "shape_factor": null,
  "has_reconstructed": null,
  "possible_species": null,
  "has_props": null,
  "theoretical": null,
  "database_IDs": null,
  "fields_not_requested": [
    "builder_meta",
    "nsites",
    "elements",
    "nelements",
    "composition",
    "composition_reduced",
    "chemsys",
    "symmetry",
    "property_name",
    "deprecated",
    "deprecation_reasons",
    "last_updated",
    "origins",
    "warnings",
    "task_ids",
    "uncorrected_energy_per_atom",
    "equilibrium_reaction_energy_per_atom",
    "decomposes_to",
    "xas",
    "grain_boundaries",
    "cbm",
    "vbm",
    "is_gap_direct",
    "is_metal",
    "es_source_calc_id",
    "bandstructure",
    "dos",
    "dos_energy_up",
    "dos_energy_down",
    "is_magnetic",
    "ordering",
    "total_magnetization_normalized_vol",
    "total_magnetization_normalized_formula_units",
    "num_magnetic_sites",
    "num_unique_magnetic_sites",
    "types_of_magnetic_species",
    "bulk_modulus",
    "shear_modulus",
    "universal_anisotropy",
    "homogeneous_poisson",
    "e_total",
    "e_ionic",
    "e_electronic",
    "n",
    "e_ij_max",
    "weighted_surface_energy_EV_PER_ANG2",
    "weighted_surface_energy",
    "weighted_work_function",
    "surface_anisotropy",
    "shape_factor",
    "has_reconstructed",
    "possible_species",
    "has_props",
    "theoretical",
    "database_IDs"
  ]
}
