{"builder_meta": null, "nsites": null, "elements": null, "nelements": null, "composition": null, "composition_reduced": null, "formula_pretty": "Li2O2", "formula_anonymous": "AB", "chemsys": null, "volume": 63.107895451231315, "density": 2.414495373744071, "density_atomic": 7.888486931403914, "symmetry": null, "property_name": null, "material_id": "mp-841", "deprecated": null, "deprecation_reasons": null, "last_updated": null, "origins": null, "warnings": null, "structure": {"@module": "pymatgen.core.structure", "@class": "Structure", "charge": 0, "lattice": {"matrix": [[3.10263483, -0.0, -0.0], [-1.55131642, 2.68696, 0.0], [-0.0, -0.0, 7.56992946]], "pbc": [true, true, true], "a": 3.10263483, "b": 3.102633828952688, "c": 7.56992946, "alpha": 90.0, "beta": 90.0, "gamma": 119.99998945596172, "volume": 63.107895451231315}, "properties": {}, "sites": [{"species": [{"element": "Li", "occu": 1}], "abc": [0.0, -0.0, -0.0], "properties": {"magmom": -0.0}, "label": "Li", "xyz": [0.0, 0.0, 0.0]}, {"species": [{"element": "Li", "occu": 1}], "abc": [0.0, -0.0, 0.5], "properties": {"magmom": -0.0}, "label": "Li", "xyz": [0.0, 0.0, 3.78496473]}, {"species": [{"element": "Li", "occu": 1}], "abc": [0.333333, 0.666667, 0.25], "properties": {"magmom": 0.0}, "label": "Li", "xyz": [-8.87983750086363e-07, 1.79130756232, 1.892482365]}, {"species": [{"element": "Li", "occu": 1}], "abc": [0.666667, 0.333333, 0.75], "properties": {"magmom": 0.0}, "label": "Li", "xyz": [1.5513192979837498, 0.89565243768, 5.677447095]}, {"species": [{"element": "O", "occu": 1}], "abc": [0.333333, 0.666667, 0.64856887], "properties": {"magmom": 0.0}, "label": "O", "xyz": [-8.87983750086363e-07, 1.79130756232, 4.90962059585191]}, {"species": [{"element": "O", "occu": 1}], "abc": [0.666667, 0.333333, 0.14856887], "properties": {"magmom": 0.0}, "label": "O", "xyz": [1.5513192979837498, 0.89565243768, 1.1246558658519101]}, {"species": [{"element": "O", "occu": 1}], "abc": [0.666667, 0.333333, 0.35143113], "properties": {"magmom": 0.0}, "label": "O", "xyz": [1.5513192979837498, 0.89565243768, 2.6603088641480896]}, {"species": [{"element": "O", "occu": 1}], "abc": [0.333333, 0.666667, 0.85143113], "properties": {"magmom": 0.0}, "label": "O", "xyz": [-8.87983750086363e-07, 1.79130756232, 6.44527359414809]}]}, "task_ids": null, "uncorrected_energy_per_atom": null, "energy_per_atom": -5.0786121725, "formation_energy_per_atom": -1.650170236666666, "energy_above_hull": 0.0, "is_stable": true, "equilibrium_reaction_energy_per_atom": null, "decomposes_to": null, "xas": null, "grain_boundaries": null, "band_gap": 1.974299999999999, "cbm": null, "vbm": null, "efermi": 1.4874027300000001, "is_gap_direct": null, "is_metal": null, "es_source_calc_id": null, "bandstructure": null, "dos": null, "dos_energy_up": null, "dos_energy_down": null, "is_magnetic": null, "ordering": null, "total_magnetization": 0.0, "total_magnetization_normalized_vol": null, "total_magnetization_normalized_formula_units": null, "num_magnetic_sites": null, "num_unique_magnetic_sites": null, "types_of_magnetic_species": null, "bulk_modulus": null, "shear_modulus": null, "universal_anisotropy": null, "homogeneous_poisson": null, "e_total": null, "e_ionic": null, "e_electronic": null, "n": null, "e_ij_max": null, "weighted_surface_energy_EV_PER_ANG2": null, "weighted_surface_energy": null, "weighted_work_function": null, "surface_anisotropy": null, "shape_factor": null, "has_reconstructed": null, "possible_species": null, "has_props": null, "theoretical": null, "database_IDs": null, "fields_not_requested": ["builder_meta", "nsites", "elements", "nelements", "composition", "composition_reduced", "chemsys", "symmetry", "property_name", "deprecated", "deprecation_reasons", "last_updated", "origins", "warnings", "task_ids", "uncorrected_energy_per_atom", "equilibrium_reaction_energy_per_atom", "decomposes_to", "xas", "grain_boundaries", "cbm", "vbm", "is_gap_direct", "is_metal", "es_source_calc_id", "bandstructure", "dos", "dos_energy_up", "dos_energy_down", "is_magnetic", "ordering", "total_magnetization_normalized_vol", "total_magnetization_normalized_formula_units", "num_magnetic_sites", "num_unique_magnetic_sites", "types_of_magnetic_species", "bulk_modulus", "shear_modulus", "universal_anisotropy", "homogeneous_poisson", "e_total", "e_ionic", "e_electronic", "n", "e_ij_max", "weighted_surface_energy_EV_PER_ANG2", "weighted_surface_energy", "weighted_work_function", "surface_anisotropy", "shape_factor", "has_reconstructed", "possible_species", "has_props", "theoretical", "database_IDs"]}