{"builder_meta": null, "nsites": null, "elements": null, "nelements": null, "composition": null, "composition_reduced": null, "formula_pretty": "Li2Pd", "formula_anonymous": "AB2", "chemsys": null, "volume": 41.039217170862244, "density": 4.867689604273123, "density_atomic": 13.679739056954082, "symmetry": null, "property_name": null, "material_id": "mp-728", "deprecated": null, "deprecation_reasons": null, "last_updated": null, "origins": null, "warnings": null, "structure": {"@module": "pymatgen.core.structure", "@class": "Structure", "charge": 0, "lattice": {"matrix": [[4.20511615, 0.0, 0.0], [-2.10255808, 3.64173716, -0.0], [0.0, 0.0, 2.67986227]], "pbc": [true, true, true], "a": 4.20511615, "b": 4.205115934465797, "c": 2.67986227, "alpha": 90.0, "beta": 90.0, "gamma": 120.00000177417496, "volume": 41.039217170862244}, "properties": {}, "sites": [{"species": [{"element": "Li", "occu": 1}], "abc": [0.333333, 0.666667, 0.5], "properties": {"magmom": 0.0}, "label": "Li", "xyz": [-2.105891410142391e-06, 2.42782598724572, 1.339931135]}, {"species": [{"element": "Li", "occu": 1}], "abc": [0.666667, 0.333333, 0.5], "properties": {"magmom": 0.0}, "label": "Li", "xyz": [2.1025601758914103, 1.21391117275428, 1.339931135]}, {"species": [{"element": "Pd", "occu": 1}], "abc": [0.0, 0.0, -0.0], "properties": {"magmom": -0.0}, "label": "Pd", "xyz": [0.0, 0.0, 0.0]}]}, "task_ids": null, "uncorrected_energy_per_atom": null, "energy_per_atom": -9.604289373333334, "formation_energy_per_atom": -0.35966722777777704, "energy_above_hull": 0.0, "is_stable": true, "equilibrium_reaction_energy_per_atom": null, "decomposes_to": null, "xas": null, "grain_boundaries": null, "band_gap": 0.0, "cbm": null, "vbm": null, "efermi": 2.1742835400000002, "is_gap_direct": null, "is_metal": null, "es_source_calc_id": null, "bandstructure": null, "dos": null, "dos_energy_up": null, "dos_energy_down": null, "is_magnetic": null, "ordering": null, "total_magnetization": 6e-07, "total_magnetization_normalized_vol": null, "total_magnetization_normalized_formula_units": null, "num_magnetic_sites": null, "num_unique_magnetic_sites": null, "types_of_magnetic_species": null, "bulk_modulus": null, "shear_modulus": null, "universal_anisotropy": null, "homogeneous_poisson": null, "e_total": null, "e_ionic": null, "e_electronic": null, "n": null, "e_ij_max": null, "weighted_surface_energy_EV_PER_ANG2": null, "weighted_surface_energy": null, "weighted_work_function": null, "surface_anisotropy": null, "shape_factor": null, "has_reconstructed": null, "possible_species": null, "has_props": null, "theoretical": null, "database_IDs": null, "fields_not_requested": ["builder_meta", "nsites", "elements", "nelements", "composition", "composition_reduced", "chemsys", "symmetry", "property_name", "deprecated", "deprecation_reasons", "last_updated", "origins", "warnings", "task_ids", "uncorrected_energy_per_atom", "equilibrium_reaction_energy_per_atom", "decomposes_to", "xas", "grain_boundaries", "cbm", "vbm", "is_gap_direct", "is_metal", "es_source_calc_id", "bandstructure", "dos", "dos_energy_up", "dos_energy_down", "is_magnetic", "ordering", "total_magnetization_normalized_vol", "total_magnetization_normalized_formula_units", "num_magnetic_sites", "num_unique_magnetic_sites", "types_of_magnetic_species", "bulk_modulus", "shear_modulus", "universal_anisotropy", "homogeneous_poisson", "e_total", "e_ionic", "e_electronic", "n", "e_ij_max", "weighted_surface_energy_EV_PER_ANG2", "weighted_surface_energy", "weighted_work_function", "surface_anisotropy", "shape_factor", "has_reconstructed", "possible_species", "has_props", "theoretical", "database_IDs"]}