{
  "builder_meta": null,
  "nsites": null,
  "elements": null,
  "nelements": null,
  "composition": null,
  "composition_reduced": null,
  "formula_pretty": "Li2Si",
  "formula_anonymous": "AB2",
  "chemsys": null,
  "volume": 100.12225462144586,
  "density": 1.3920715936935841,
  "density_atomic": 16.687042436907642,
  "symmetry": null,
  "property_name": null,
  "material_id": "mp-27705",
  "deprecated": null,
  "deprecation_reasons": null,
  "last_updated": null,
  "origins": null,
  "warnings": null,
  "structure": {
    "@module": "pymatgen.core.structure",
    "@class": "Structure",
    "charge": 0,
    "lattice": {
      "matrix": [
        [6.25921059, -2.17096929, -0.0017898900000000001],
        [6.25921059, 2.17096929, -0.0017898900000000001],
        [5.50727664, 0.0, 3.68249096]
      ],
      "pbc": [true, true, true],
      "a": 6.625015326155666,
      "b": 6.625015326155666,
      "c": 6.62501589884669,
      "alpha": 38.25759105007559,
      "beta": 38.25759105007559,
      "gamma": 38.257585312725965,
      "volume": 100.12225462144586
    },
    "properties": {},
    "sites": [
      {
        "species": [{ "element": "Li", "occu": 1 }],
        "abc": [0.64099866, 0.64099866, 0.64099866],
        "properties": { "magmom": 0.0 },
        "label": "Li",
        "xyz": [11.554448148184923, 0.0, 2.3581771366390187]
      },
      {
        "species": [{ "element": "Li", "occu": 1 }],
        "abc": [0.35900134, 0.35900134, 0.35900134],
        "properties": { "magmom": 0.0 },
        "label": "Li",
        "xyz": [6.471249671815079, 0.0, 1.320734043360981]
      },
      {
        "species": [{ "element": "Li", "occu": 1 }],
        "abc": [0.20504755, 0.20504755, 0.20504755],
        "properties": { "magmom": 0.0 },
        "label": "Li",
        "xyz": [3.696125175031341, 0.0, 0.7543517241266089]
      },
      {
        "species": [{ "element": "Li", "occu": 1 }],
        "abc": [0.79495245, 0.79495245, 0.79495245],
        "properties": { "magmom": 0.0 },
        "label": "Li",
        "xyz": [14.32957264496866, 0.0, 2.924559455873391]
      },
      {
        "species": [{ "element": "Si", "occu": 1 }],
        "abc": [0.93853336, 0.93853336, 0.93853336],
        "properties": { "magmom": -0.0 },
        "label": "Si",
        "xyz": [16.917718741349276, 0.0, 3.4527808709069645]
      },
      {
        "species": [{ "element": "Si", "occu": 1 }],
        "abc": [0.06146664, 0.06146664, 0.06146664],
        "properties": { "magmom": -0.0 },
        "label": "Si",
        "xyz": [1.1079790786507249, 0.0, 0.2261303090930352]
      }
    ]
  },
  "task_ids": null,
  "uncorrected_energy_per_atom": null,
  "energy_per_atom": -3.270481821666667,
  "formation_energy_per_atom": -0.18942723388888902,
  "energy_above_hull": 0.042997212301586006,
  "is_stable": false,
  "equilibrium_reaction_energy_per_atom": null,
  "decomposes_to": null,
  "xas": null,
  "grain_boundaries": null,
  "band_gap": 0.0,
  "cbm": null,
  "vbm": null,
  "efermi": 3.28420226,
  "is_gap_direct": null,
  "is_metal": null,
  "es_source_calc_id": null,
  "bandstructure": null,
  "dos": null,
  "dos_energy_up": null,
  "dos_energy_down": null,
  "is_magnetic": null,
  "ordering": null,
  "total_magnetization": 4e-7,
  "total_magnetization_normalized_vol": null,
  "total_magnetization_normalized_formula_units": null,
  "num_magnetic_sites": null,
  "num_unique_magnetic_sites": null,
  "types_of_magnetic_species": null,
  "bulk_modulus": null,
  "shear_modulus": null,
  "universal_anisotropy": null,
  "homogeneous_poisson": null,
  "e_total": null,
  "e_ionic": null,
  "e_electronic": null,
  "n": null,
  "e_ij_max": null,
  "weighted_surface_energy_EV_PER_ANG2": null,
  "weighted_surface_energy": null,
  "weighted_work_function": null,
  "surface_anisotropy": null,
  "shape_factor": null,
  "has_reconstructed": null,
  "possible_species": null,
  "has_props": null,
  "theoretical": null,
  "database_IDs": null,
  "fields_not_requested": [
    "builder_meta",
    "nsites",
    "elements",
    "nelements",
    "composition",
    "composition_reduced",
    "chemsys",
    "symmetry",
    "property_name",
    "deprecated",
    "deprecation_reasons",
    "last_updated",
    "origins",
    "warnings",
    "task_ids",
    "uncorrected_energy_per_atom",
    "equilibrium_reaction_energy_per_atom",
    "decomposes_to",
    "xas",
    "grain_boundaries",
    "cbm",
    "vbm",
    "is_gap_direct",
    "is_metal",
    "es_source_calc_id",
    "bandstructure",
    "dos",
    "dos_energy_up",
    "dos_energy_down",
    "is_magnetic",
    "ordering",
    "total_magnetization_normalized_vol",
    "total_magnetization_normalized_formula_units",
    "num_magnetic_sites",
    "num_unique_magnetic_sites",
    "types_of_magnetic_species",
    "bulk_modulus",
    "shear_modulus",
    "universal_anisotropy",
    "homogeneous_poisson",
    "e_total",
    "e_ionic",
    "e_electronic",
    "n",
    "e_ij_max",
    "weighted_surface_energy_EV_PER_ANG2",
    "weighted_surface_energy",
    "weighted_work_function",
    "surface_anisotropy",
    "shape_factor",
    "has_reconstructed",
    "possible_species",
    "has_props",
    "theoretical",
    "database_IDs"
  ]
}
