{"builder_meta": null, "nsites": null, "elements": null, "nelements": null, "composition": null, "composition_reduced": null, "formula_pretty": "Li2Sb", "formula_anonymous": "AB2", "chemsys": null, "volume": 350.79778888169875, "density": 3.852455982515595, "density_atomic": 19.488766048983265, "symmetry": null, "property_name": null, "material_id": "mp-1545896", "deprecated": null, "deprecation_reasons": null, "last_updated": null, "origins": null, "warnings": null, "structure": {"@module": "pymatgen.core.structure", "@class": "Structure", "charge": 0, "lattice": {"matrix": [[7.95384231, 0.0, 0.0], [-3.9769206500000003, 6.88822931, -0.0], [0.0, 0.0, 6.40283447]], "pbc": [true, true, true], "a": 7.95384231, "b": 7.953841894552562, "c": 6.40283447, "alpha": 90.0, "beta": 90.0, "gamma": 119.99999752727796, "volume": 350.79778888169875}, "properties": {}, "sites": [{"species": [{"element": "Li", "occu": 1}], "abc": [0.29604079, 0.0, 0.0], "properties": {"magmom": -0.0}, "label": "Li", "xyz": [2.354661760987825, 0.0, 0.0]}, {"species": [{"element": "Li", "occu": 1}], "abc": [0.7039592100000001, 0.7039592100000001, 0.5], "properties": {"magmom": -0.0}, "label": "Li", "xyz": [2.799590630005489, 4.849032463366445, 3.201417235]}, {"species": [{"element": "Li", "occu": 1}], "abc": [0.0, 0.29604079, 0.5], "properties": {"magmom": -0.0}, "label": "Li", "xyz": [-1.1773307309933136, 2.039196846633555, 3.201417235]}, {"species": [{"element": "Li", "occu": 1}], "abc": [0.0, 0.29604079, 0.0], "properties": {"magmom": -0.0}, "label": "Li", "xyz": [-1.1773307309933136, 2.039196846633555, 0.0]}, {"species": [{"element": "Li", "occu": 1}], "abc": [0.7039592100000001, 0.7039592100000001, 0.0], "properties": {"magmom": -0.0}, "label": "Li", "xyz": [2.799590630005489, 4.849032463366445, 0.0]}, {"species": [{"element": "Li", "occu": 1}], "abc": [0.29604079, 0.0, 0.5], "properties": {"magmom": -0.0}, "label": "Li", "xyz": [2.354661760987825, 0.0, 3.201417235]}, {"species": [{"element": "Li", "occu": 1}], "abc": [0.62985833, 0.00097732, 0.25], "properties": {"magmom": -0.0}, "label": "Li", "xyz": [5.005907110370284, 0.0067320042692492, 1.6007086175]}, {"species": [{"element": "Li", "occu": 1}], "abc": [0.37111898, 0.37014267, 0.25], "properties": {"magmom": -0.0}, "label": "Li", "xyz": [1.4797938173989083, 2.5496275883756576, 1.6007086175]}, {"species": [{"element": "Li", "occu": 1}], "abc": [0.99902268, 0.62888102, 0.25], "properties": {"magmom": -0.0}, "label": "Li", "xyz": [5.445058946002527, 4.331876674466696, 1.6007086175]}, {"species": [{"element": "Li", "occu": 1}], "abc": [0.62888102, 0.99902268, 0.75], "properties": {"magmom": -0.0}, "label": "Li", "xyz": [1.0289865389216133, 6.881497305730751, 4.8021258525]}, {"species": [{"element": "Li", "occu": 1}], "abc": [0.37014267, 0.37111898, 0.75], "properties": {"magmom": -0.0}, "label": "Li", "xyz": [1.4681456942134306, 2.5563526355333037, 4.8021258525]}, {"species": [{"element": "Li", "occu": 1}], "abc": [0.00097732, 0.62985833, 0.75], "properties": {"magmom": -0.0}, "label": "Li", "xyz": [-2.4971231499851054, 4.338608609853653, 4.8021258525]}, {"species": [{"element": "Sb", "occu": 1}], "abc": [0.0, 0.0, 0.25], "properties": {"magmom": 0.0}, "label": "Sb", "xyz": [0.0, 0.0, 1.6007086175]}, {"species": [{"element": "Sb", "occu": 1}], "abc": [0.0, 0.0, 0.75], "properties": {"magmom": 0.0}, "label": "Sb", "xyz": [0.0, 0.0, 4.8021258525]}, {"species": [{"element": "Sb", "occu": 1}], "abc": [0.333333, 0.666667, 0.00251425], "properties": {"magmom": 0.0}, "label": "Sb", "xyz": [-3.6402543202029847e-06, 4.59215516940977, 0.0160983265661975]}, {"species": [{"element": "Sb", "occu": 1}], "abc": [0.333333, 0.666667, 0.49748575], "properties": {"magmom": 0.0}, "label": "Sb", "xyz": [-3.6402543202029847e-06, 4.59215516940977, 3.1853189084338025]}, {"species": [{"element": "Sb", "occu": 1}], "abc": [0.666667, 0.333333, 0.9974857500000001], "properties": {"magmom": 0.0}, "label": "Sb", "xyz": [3.97692530025432, 2.29607414059023, 6.3867361434338035]}, {"species": [{"element": "Sb", "occu": 1}], "abc": [0.666667, 0.333333, 0.50251425], "properties": {"magmom": 0.0}, "label": "Sb", "xyz": [3.97692530025432, 2.29607414059023, 3.217515561566198]}]}, "task_ids": null, "uncorrected_energy_per_atom": null, "energy_per_atom": -10.837114706666666, "formation_energy_per_atom": -0.677205187777777, "energy_above_hull": 0.0, "is_stable": true, "equilibrium_reaction_energy_per_atom": null, "decomposes_to": null, "xas": null, "grain_boundaries": null, "band_gap": 0.0, "cbm": null, "vbm": null, "efermi": 3.45126602, "is_gap_direct": null, "is_metal": null, "es_source_calc_id": null, "bandstructure": null, "dos": null, "dos_energy_up": null, "dos_energy_down": null, "is_magnetic": null, "ordering": null, "total_magnetization": 0.0, "total_magnetization_normalized_vol": null, "total_magnetization_normalized_formula_units": null, "num_magnetic_sites": null, "num_unique_magnetic_sites": null, "types_of_magnetic_species": null, "bulk_modulus": null, "shear_modulus": null, "universal_anisotropy": null, "homogeneous_poisson": null, "e_total": null, "e_ionic": null, "e_electronic": null, "n": null, "e_ij_max": null, "weighted_surface_energy_EV_PER_ANG2": null, "weighted_surface_energy": null, "weighted_work_function": null, "surface_anisotropy": null, "shape_factor": null, "has_reconstructed": null, "possible_species": null, "has_props": null, "theoretical": null, "database_IDs": null, "fields_not_requested": ["builder_meta", "nsites", "elements", "nelements", "composition", "composition_reduced", "chemsys", "symmetry", "property_name", "deprecated", "deprecation_reasons", "last_updated", "origins", "warnings", "task_ids", "uncorrected_energy_per_atom", "equilibrium_reaction_energy_per_atom", "decomposes_to", "xas", "grain_boundaries", "cbm", "vbm", "is_gap_direct", "is_metal", "es_source_calc_id", "bandstructure", "dos", "dos_energy_up", "dos_energy_down", "is_magnetic", "ordering", "total_magnetization_normalized_vol", "total_magnetization_normalized_formula_units", "num_magnetic_sites", "num_unique_magnetic_sites", "types_of_magnetic_species", "bulk_modulus", "shear_modulus", "universal_anisotropy", "homogeneous_poisson", "e_total", "e_ionic", "e_electronic", "n", "e_ij_max", "weighted_surface_energy_EV_PER_ANG2", "weighted_surface_energy", "weighted_work_function", "surface_anisotropy", "shape_factor", "has_reconstructed", "possible_species", "has_props", "theoretical", "database_IDs"]}