{"builder_meta": null, "nsites": null, "elements": null, "nelements": null, "composition": null, "composition_reduced": null, "formula_pretty": "Li2Sn5", "formula_anonymous": "A2B5", "chemsys": null, "volume": 329.15522583536637, "density": 6.128807851937157, "density_atomic": 23.511087559669026, "symmetry": null, "property_name": null, "material_id": "mp-7924", "deprecated": null, "deprecation_reasons": null, "last_updated": null, "origins": null, "warnings": null, "structure": {"@module": "pymatgen.core.structure", "@class": "Structure", "charge": 0, "lattice": {"matrix": [[3.10717593, 0.0, -0.0], [-0.0, 10.29241894, 0.0], [-0.0, 0.0, 10.29241894]], "pbc": [true, true, true], "a": 3.10717593, "b": 10.29241894, "c": 10.29241894, "alpha": 90.0, "beta": 90.0, "gamma": 90.0, "volume": 329.15522583536637}, "properties": {}, "sites": [{"species": [{"element": "Li", "occu": 1}], "abc": [0.5, 0.82383493, 0.32383493], "properties": {"magmom": 0.0}, "label": "Li", "xyz": [1.553587965, 8.479254236965573, 3.3330447669655743]}, {"species": [{"element": "Li", "occu": 1}], "abc": [0.5, 0.67616507, 0.82383493], "properties": {"magmom": 0.0}, "label": "Li", "xyz": [1.553587965, 6.959374173034425, 8.479254236965573]}, {"species": [{"element": "Li", "occu": 1}], "abc": [0.5, 0.32383493, 0.17616507], "properties": {"magmom": 0.0}, "label": "Li", "xyz": [1.553587965, 3.3330447669655743, 1.8131647030344258]}, {"species": [{"element": "Li", "occu": 1}], "abc": [0.5, 0.17616507, 0.67616507], "properties": {"magmom": 0.0}, "label": "Li", "xyz": [1.553587965, 1.8131647030344258, 6.959374173034425]}, {"species": [{"element": "Sn", "occu": 1}], "abc": [0.0, 0.79374034, 0.07198259], "properties": {"magmom": -0.0}, "label": "Sn", "xyz": [0.0, 8.16950810885804, 0.7408749726662546]}, {"species": [{"element": "Sn", "occu": 1}], "abc": [-0.0, 0.20625966, 0.92801741], "properties": {"magmom": -0.0}, "label": "Sn", "xyz": [0.0, 2.12291083114196, 9.551543967333744]}, {"species": [{"element": "Sn", "occu": 1}], "abc": [-0.0, 0.92801741, 0.79374034], "properties": {"magmom": -0.0}, "label": "Sn", "xyz": [0.0, 9.551543967333744, 8.16950810885804]}, {"species": [{"element": "Sn", "occu": 1}], "abc": [0.0, 0.07198259, 0.20625966], "properties": {"magmom": -0.0}, "label": "Sn", "xyz": [0.0, 0.7408749726662546, 2.12291083114196]}, {"species": [{"element": "Sn", "occu": 1}], "abc": [-0.0, 0.0, 0.5], "properties": {"magmom": 0.0}, "label": "Sn", "xyz": [0.0, 0.0, 5.14620947]}, {"species": [{"element": "Sn", "occu": 1}], "abc": [0.0, 0.5, 0.0], "properties": {"magmom": 0.0}, "label": "Sn", "xyz": [0.0, 5.14620947, 0.0]}, {"species": [{"element": "Sn", "occu": 1}], "abc": [0.0, 0.7062596600000001, 0.57198259], "properties": {"magmom": -0.0}, "label": "Sn", "xyz": [0.0, 7.26912030114196, 5.887084442666254]}, {"species": [{"element": "Sn", "occu": 1}], "abc": [0.0, 0.42801741, 0.7062596600000001], "properties": {"magmom": -0.0}, "label": "Sn", "xyz": [0.0, 4.405334497333745, 7.26912030114196]}, {"species": [{"element": "Sn", "occu": 1}], "abc": [-0.0, 0.57198259, 0.29374034], "properties": {"magmom": -0.0}, "label": "Sn", "xyz": [0.0, 5.887084442666254, 3.0232986388580394]}, {"species": [{"element": "Sn", "occu": 1}], "abc": [-0.0, 0.29374034, 0.42801741], "properties": {"magmom": -0.0}, "label": "Sn", "xyz": [0.0, 3.0232986388580394, 4.405334497333745]}]}, "task_ids": null, "uncorrected_energy_per_atom": null, "energy_per_atom": -3.590949215000001, "formation_energy_per_atom": -0.18156278523809502, "energy_above_hull": 0.004646922857142, "is_stable": false, "equilibrium_reaction_energy_per_atom": null, "decomposes_to": null, "xas": null, "grain_boundaries": null, "band_gap": 0.0, "cbm": null, "vbm": null, "efermi": 6.26241816, "is_gap_direct": null, "is_metal": null, "es_source_calc_id": null, "bandstructure": null, "dos": null, "dos_energy_up": null, "dos_energy_down": null, "is_magnetic": null, "ordering": null, "total_magnetization": 0.0, "total_magnetization_normalized_vol": null, "total_magnetization_normalized_formula_units": null, "num_magnetic_sites": null, "num_unique_magnetic_sites": null, "types_of_magnetic_species": null, "bulk_modulus": null, "shear_modulus": null, "universal_anisotropy": null, "homogeneous_poisson": null, "e_total": null, "e_ionic": null, "e_electronic": null, "n": null, "e_ij_max": null, "weighted_surface_energy_EV_PER_ANG2": null, "weighted_surface_energy": null, "weighted_work_function": null, "surface_anisotropy": null, "shape_factor": null, "has_reconstructed": null, "possible_species": null, "has_props": null, "theoretical": null, "database_IDs": null, "fields_not_requested": ["builder_meta", "nsites", "elements", "nelements", "composition", "composition_reduced", "chemsys", "symmetry", "property_name", "deprecated", "deprecation_reasons", "last_updated", "origins", "warnings", "task_ids", "uncorrected_energy_per_atom", "equilibrium_reaction_energy_per_atom", "decomposes_to", "xas", "grain_boundaries", "cbm", "vbm", "is_gap_direct", "is_metal", "es_source_calc_id", "bandstructure", "dos", "dos_energy_up", "dos_energy_down", "is_magnetic", "ordering", "total_magnetization_normalized_vol", "total_magnetization_normalized_formula_units", "num_magnetic_sites", "num_unique_magnetic_sites", "types_of_magnetic_species", "bulk_modulus", "shear_modulus", "universal_anisotropy", "homogeneous_poisson", "e_total", "e_ionic", "e_electronic", "n", "e_ij_max", "weighted_surface_energy_EV_PER_ANG2", "weighted_surface_energy", "weighted_work_function", "surface_anisotropy", "shape_factor", "has_reconstructed", "possible_species", "has_props", "theoretical", "database_IDs"]}