{
  "builder_meta": null,
  "nsites": null,
  "elements": null,
  "nelements": null,
  "composition": null,
  "composition_reduced": null,
  "formula_pretty": "Li3Al2",
  "formula_anonymous": "A2B3",
  "chemsys": null,
  "volume": 80.12847303460268,
  "density": 1.549826149497886,
  "density_atomic": 16.025694606920535,
  "symmetry": null,
  "property_name": null,
  "material_id": "mp-16506",
  "deprecated": null,
  "deprecation_reasons": null,
  "last_updated": null,
  "origins": null,
  "warnings": null,
  "structure": {
    "@module": "pymatgen.core.structure",
    "@class": "Structure",
    "charge": 0,
    "lattice": {
      "matrix": [
        [4.04476864, 0.00831782, 3.51323009],
        [1.60692544, 3.7118751, 3.51323009],
        [0.012636060000000001, 0.00831782, 5.35749773]
      ],
      "pbc": [true, true, true],
      "a": 5.357518847613922,
      "b": 5.357519182700199,
      "c": 5.357519088449152,
      "alpha": 48.88767310877914,
      "beta": 48.88767207400021,
      "gamma": 48.887671249388845,
      "volume": 80.12847303460268
    },
    "properties": {},
    "sites": [
      {
        "species": [{ "element": "Li", "occu": 1 }],
        "abc": [0.59778975, 0.59778975, 0.59778975],
        "properties": { "magmom": 0.0 },
        "label": "Li",
        "xyz": [3.386078498308065, 2.228865503136915, 7.403003103029423]
      },
      {
        "species": [{ "element": "Li", "occu": 1 }],
        "abc": [0.40221025, 0.40221025, 0.40221025],
        "properties": { "magmom": 0.0 },
        "label": "Li",
        "xyz": [2.2782516416919347, 1.499645236863085, 4.980954806970578]
      },
      {
        "species": [{ "element": "Li", "occu": 1 }],
        "abc": [0.0, -0.0, -0.0],
        "properties": { "magmom": -0.0 },
        "label": "Li",
        "xyz": [0.0, 0.0, 0.0]
      },
      {
        "species": [{ "element": "Al", "occu": 1 }],
        "abc": [0.19635183, 0.19635183, 0.19635183],
        "properties": { "magmom": 0.0 },
        "label": "Al",
        "xyz": [1.1122015887131562, 0.7320999069736541, 2.431612798271475]
      },
      {
        "species": [{ "element": "Al", "occu": 1 }],
        "abc": [0.80364817, 0.80364817, 0.80364817],
        "properties": { "magmom": 0.0 },
        "label": "Al",
        "xyz": [4.552128551286844, 2.9964108330263457, 9.952345111728524]
      }
    ]
  },
  "task_ids": null,
  "uncorrected_energy_per_atom": null,
  "energy_per_atom": -4.33071001,
  "formation_energy_per_atom": -0.20584683,
  "energy_above_hull": 0.0,
  "is_stable": true,
  "equilibrium_reaction_energy_per_atom": null,
  "decomposes_to": null,
  "xas": null,
  "grain_boundaries": null,
  "band_gap": 0.0,
  "cbm": null,
  "vbm": null,
  "efermi": 4.3607966,
  "is_gap_direct": null,
  "is_metal": null,
  "es_source_calc_id": null,
  "bandstructure": null,
  "dos": null,
  "dos_energy_up": null,
  "dos_energy_down": null,
  "is_magnetic": null,
  "ordering": null,
  "total_magnetization": 0.0,
  "total_magnetization_normalized_vol": null,
  "total_magnetization_normalized_formula_units": null,
  "num_magnetic_sites": null,
  "num_unique_magnetic_sites": null,
  "types_of_magnetic_species": null,
  "bulk_modulus": null,
  "shear_modulus": null,
  "universal_anisotropy": null,
  "homogeneous_poisson": null,
  "e_total": null,
  "e_ionic": null,
  "e_electronic": null,
  "n": null,
  "e_ij_max": null,
  "weighted_surface_energy_EV_PER_ANG2": null,
  "weighted_surface_energy": null,
  "weighted_work_function": null,
  "surface_anisotropy": null,
  "shape_factor": null,
  "has_reconstructed": null,
  "possible_species": null,
  "has_props": null,
  "theoretical": null,
  "database_IDs": null,
  "fields_not_requested": [
    "builder_meta",
    "nsites",
    "elements",
    "nelements",
    "composition",
    "composition_reduced",
    "chemsys",
    "symmetry",
    "property_name",
    "deprecated",
    "deprecation_reasons",
    "last_updated",
    "origins",
    "warnings",
    "task_ids",
    "uncorrected_energy_per_atom",
    "equilibrium_reaction_energy_per_atom",
    "decomposes_to",
    "xas",
    "grain_boundaries",
    "cbm",
    "vbm",
    "is_gap_direct",
    "is_metal",
    "es_source_calc_id",
    "bandstructure",
    "dos",
    "dos_energy_up",
    "dos_energy_down",
    "is_magnetic",
    "ordering",
    "total_magnetization_normalized_vol",
    "total_magnetization_normalized_formula_units",
    "num_magnetic_sites",
    "num_unique_magnetic_sites",
    "types_of_magnetic_species",
    "bulk_modulus",
    "shear_modulus",
    "universal_anisotropy",
    "homogeneous_poisson",
    "e_total",
    "e_ionic",
    "e_electronic",
    "n",
    "e_ij_max",
    "weighted_surface_energy_EV_PER_ANG2",
    "weighted_surface_energy",
    "weighted_work_function",
    "surface_anisotropy",
    "shape_factor",
    "has_reconstructed",
    "possible_species",
    "has_props",
    "theoretical",
    "database_IDs"
  ]
}
