{"builder_meta": null, "nsites": null, "elements": null, "nelements": null, "composition": null, "composition_reduced": null, "formula_pretty": "Li3Co", "formula_anonymous": "AB3", "chemsys": null, "volume": 107.50887991866428, "density": 2.463764438827073, "density_atomic": 13.438609989833035, "symmetry": null, "property_name": null, "material_id": "mp-977165", "deprecated": null, "deprecation_reasons": null, "last_updated": null, "origins": null, "warnings": null, "structure": {"@module": "pymatgen.core.structure", "@class": "Structure", "charge": 0, "lattice": {"matrix": [[2.647541, -4.585676, 0.0], [2.647541, 4.585676, 0.0], [0.0, 0.0, 4.427599]], "pbc": [true, true, true], "a": 5.295082409524615, "b": 5.295082409524615, "c": 4.427599, "alpha": 90.0, "beta": 90.0, "gamma": 120.0000051168099, "volume": 107.50887991866428}, "properties": {}, "sites": [{"species": [{"element": "Li", "occu": 1}], "abc": [0.173784, 0.347566999999999, 0.25], "properties": {"magmom": -0.056}, "label": "Li", "xyz": [1.3802981478909973, 0.7969125323079955, 1.10689975]}, {"species": [{"element": "Li", "occu": 1}], "abc": [0.652432999999999, 0.826216, 0.25], "properties": {"magmom": -0.056}, "label": "Li", "xyz": [3.914783852108997, 0.7969125323080042, 1.10689975]}, {"species": [{"element": "Li", "occu": 1}], "abc": [0.173784, 0.826216, 0.25], "properties": {"magmom": -0.056}, "label": "Li", "xyz": [2.6475409999999995, 2.991841764032, 1.10689975]}, {"species": [{"element": "Li", "occu": 1}], "abc": [0.826216, 0.652432999999999, 0.75], "properties": {"magmom": -0.056}, "label": "Li", "xyz": [3.914783852108997, -0.7969125323080042, 3.3206992499999997]}, {"species": [{"element": "Li", "occu": 1}], "abc": [0.347566999999999, 0.173784, 0.75], "properties": {"magmom": -0.056}, "label": "Li", "xyz": [1.3802981478909973, -0.7969125323079955, 3.3206992499999997]}, {"species": [{"element": "Li", "occu": 1}], "abc": [0.826216, 0.173784, 0.75], "properties": {"magmom": -0.056}, "label": "Li", "xyz": [2.6475409999999995, -2.991841764032, 3.3206992499999997]}, {"species": [{"element": "Co", "occu": 1}], "abc": [0.333333, 0.666667, 0.75], "properties": {"magmom": 1.354}, "label": "Co", "xyz": [2.647541, 1.5285617237840003, 3.3206992499999997]}, {"species": [{"element": "Co", "occu": 1}], "abc": [0.666667, 0.333333, 0.25], "properties": {"magmom": 1.353}, "label": "Co", "xyz": [2.647541, -1.5285617237840003, 1.10689975]}]}, "task_ids": null, "uncorrected_energy_per_atom": null, "energy_per_atom": -4.77067965875, "formation_energy_per_atom": 0.32790793374999905, "energy_above_hull": 0.32790793374999905, "is_stable": false, "equilibrium_reaction_energy_per_atom": null, "decomposes_to": null, "xas": null, "grain_boundaries": null, "band_gap": 0.0, "cbm": null, "vbm": null, "efermi": 1.04005081, "is_gap_direct": null, "is_metal": null, "es_source_calc_id": null, "bandstructure": null, "dos": null, "dos_energy_up": null, "dos_energy_down": null, "is_magnetic": null, "ordering": null, "total_magnetization": 1.768387999999999, "total_magnetization_normalized_vol": null, "total_magnetization_normalized_formula_units": null, "num_magnetic_sites": null, "num_unique_magnetic_sites": null, "types_of_magnetic_species": null, "bulk_modulus": null, "shear_modulus": null, "universal_anisotropy": null, "homogeneous_poisson": null, "e_total": null, "e_ionic": null, "e_electronic": null, "n": null, "e_ij_max": null, "weighted_surface_energy_EV_PER_ANG2": null, "weighted_surface_energy": null, "weighted_work_function": null, "surface_anisotropy": null, "shape_factor": null, "has_reconstructed": null, "possible_species": null, "has_props": null, "theoretical": null, "database_IDs": null, "fields_not_requested": ["builder_meta", "nsites", "elements", "nelements", "composition", "composition_reduced", "chemsys", "symmetry", "property_name", "deprecated", "deprecation_reasons", "last_updated", "origins", "warnings", "task_ids", "uncorrected_energy_per_atom", "equilibrium_reaction_energy_per_atom", "decomposes_to", "xas", "grain_boundaries", "cbm", "vbm", "is_gap_direct", "is_metal", "es_source_calc_id", "bandstructure", "dos", "dos_energy_up", "dos_energy_down", "is_magnetic", "ordering", "total_magnetization_normalized_vol", "total_magnetization_normalized_formula_units", "num_magnetic_sites", "num_unique_magnetic_sites", "types_of_magnetic_species", "bulk_modulus", "shear_modulus", "universal_anisotropy", "homogeneous_poisson", "e_total", "e_ionic", "e_electronic", "n", "e_ij_max", "weighted_surface_energy_EV_PER_ANG2", "weighted_surface_energy", "weighted_work_function", "surface_anisotropy", "shape_factor", "has_reconstructed", "possible_species", "has_props", "theoretical", "database_IDs"]}