{"builder_meta": null, "nsites": null, "elements": null, "nelements": null, "composition": null, "composition_reduced": null, "formula_pretty": "Li3Eu", "formula_anonymous": "AB3", "chemsys": null, "volume": 223.87028362135294, "density": 2.56326618307145, "density_atomic": 27.983785452669117, "symmetry": null, "property_name": null, "material_id": "mp-1185227", "deprecated": null, "deprecation_reasons": null, "last_updated": null, "origins": null, "warnings": null, "structure": {"@module": "pymatgen.core.structure", "@class": "Structure", "charge": 0, "lattice": {"matrix": [[3.462223, -5.996745, 0.0], [3.462223, 5.996745, 0.0], [0.0, 0.0, 5.391329]], "pbc": [true, true, true], "a": 6.924445010017337, "b": 6.924445010017337, "c": 5.391329, "alpha": 90.0, "beta": 90.0, "gamma": 119.9999905412308, "volume": 223.87028362135294}, "properties": {}, "sites": [{"species": [{"element": "Li", "occu": 1}], "abc": [0.145209, 0.290417, 0.25], "properties": {"magmom": 0.024}, "label": "Li", "xyz": [1.5082343565979999, 0.8707753479599999, 1.34783225]}, {"species": [{"element": "Li", "occu": 1}], "abc": [0.709583, 0.854791, 0.25], "properties": {"magmom": 0.022}, "label": "Li", "xyz": [5.416211643401999, 0.8707753479599996, 1.34783225]}, {"species": [{"element": "Li", "occu": 1}], "abc": [0.145209, 0.854791, 0.25], "properties": {"magmom": 0.022}, "label": "Li", "xyz": [3.462223, 4.2551823105899995, 1.34783225]}, {"species": [{"element": "Li", "occu": 1}], "abc": [0.854791, 0.709583, 0.75], "properties": {"magmom": 0.024}, "label": "Li", "xyz": [5.416211643401999, -0.8707753479599996, 4.04349675]}, {"species": [{"element": "Li", "occu": 1}], "abc": [0.290417, 0.145209, 0.75], "properties": {"magmom": 0.022}, "label": "Li", "xyz": [1.5082343565979999, -0.8707753479599999, 4.04349675]}, {"species": [{"element": "Li", "occu": 1}], "abc": [0.854791, 0.145209, 0.75], "properties": {"magmom": 0.022}, "label": "Li", "xyz": [3.462223, -4.2551823105899995, 4.04349675]}, {"species": [{"element": "Eu", "occu": 1}], "abc": [0.333333, 0.666667, 0.75], "properties": {"magmom": 6.967}, "label": "Eu", "xyz": [3.462223, 1.99891899783, 4.04349675]}, {"species": [{"element": "Eu", "occu": 1}], "abc": [0.666667, 0.333333, 0.25], "properties": {"magmom": 6.967}, "label": "Eu", "xyz": [3.462223, -1.99891899783, 1.34783225]}]}, "task_ids": null, "uncorrected_energy_per_atom": null, "energy_per_atom": -11.330434171250001, "formation_energy_per_atom": 0.08981631749999801, "energy_above_hull": 0.08981631749999801, "is_stable": false, "equilibrium_reaction_energy_per_atom": null, "decomposes_to": null, "xas": null, "grain_boundaries": null, "band_gap": 0.0, "cbm": null, "vbm": null, "efermi": 0.55825345, "is_gap_direct": null, "is_metal": null, "es_source_calc_id": null, "bandstructure": null, "dos": null, "dos_energy_up": null, "dos_energy_down": null, "is_magnetic": null, "ordering": null, "total_magnetization": 15.5187107, "total_magnetization_normalized_vol": null, "total_magnetization_normalized_formula_units": null, "num_magnetic_sites": null, "num_unique_magnetic_sites": null, "types_of_magnetic_species": null, "bulk_modulus": null, "shear_modulus": null, "universal_anisotropy": null, "homogeneous_poisson": null, "e_total": null, "e_ionic": null, "e_electronic": null, "n": null, "e_ij_max": null, "weighted_surface_energy_EV_PER_ANG2": null, "weighted_surface_energy": null, "weighted_work_function": null, "surface_anisotropy": null, "shape_factor": null, "has_reconstructed": null, "possible_species": null, "has_props": null, "theoretical": null, "database_IDs": null, "fields_not_requested": ["builder_meta", "nsites", "elements", "nelements", "composition", "composition_reduced", "chemsys", "symmetry", "property_name", "deprecated", "deprecation_reasons", "last_updated", "origins", "warnings", "task_ids", "uncorrected_energy_per_atom", "equilibrium_reaction_energy_per_atom", "decomposes_to", "xas", "grain_boundaries", "cbm", "vbm", "is_gap_direct", "is_metal", "es_source_calc_id", "bandstructure", "dos", "dos_energy_up", "dos_energy_down", "is_magnetic", "ordering", "total_magnetization_normalized_vol", "total_magnetization_normalized_formula_units", "num_magnetic_sites", "num_unique_magnetic_sites", "types_of_magnetic_species", "bulk_modulus", "shear_modulus", "universal_anisotropy", "homogeneous_poisson", "e_total", "e_ionic", "e_electronic", "n", "e_ij_max", "weighted_surface_energy_EV_PER_ANG2", "weighted_surface_energy", "weighted_work_function", "surface_anisotropy", "shape_factor", "has_reconstructed", "possible_species", "has_props", "theoretical", "database_IDs"]}