{
  "builder_meta": null,
  "nsites": null,
  "elements": null,
  "nelements": null,
  "composition": null,
  "composition_reduced": null,
  "formula_pretty": "Li3Fe",
  "formula_anonymous": "AB3",
  "chemsys": null,
  "volume": 122.70955833309003,
  "density": 2.074984392210271,
  "density_atomic": 15.338694791636254,
  "symmetry": null,
  "property_name": null,
  "material_id": "mp-1185215",
  "deprecated": null,
  "deprecation_reasons": null,
  "last_updated": null,
  "origins": null,
  "warnings": null,
  "structure": {
    "@module": "pymatgen.core.structure",
    "@class": "Structure",
    "charge": 0,
    "lattice": {
      "matrix": [
        [2.787187, -4.8275500000000005, 0.0],
        [2.787187, 4.8275500000000005, 0.0],
        [0.0, 0.0, 4.559902]
      ],
      "pbc": [true, true, true],
      "a": 5.574374438039573,
      "b": 5.574374438039573,
      "c": 4.559902,
      "alpha": 90.0,
      "beta": 90.0,
      "gamma": 120.00000519887297,
      "volume": 122.70955833309004
    },
    "properties": {},
    "sites": [
      {
        "species": [{ "element": "Li", "occu": 1 }],
        "abc": [0.172908999999999, 0.345819, 0.25],
        "properties": { "magmom": -0.058 },
        "label": "Li",
        "xyz": [1.4457919381359972, 0.8347316705000049, 1.1399755]
      },
      {
        "species": [{ "element": "Li", "occu": 1 }],
        "abc": [0.654181, 0.827090999999999, 0.25],
        "properties": { "magmom": -0.058 },
        "label": "Li",
        "xyz": [4.128582061863997, 0.8347316704999952, 1.1399755]
      },
      {
        "species": [{ "element": "Li", "occu": 1 }],
        "abc": [0.172908999999999, 0.827090999999999, 0.25],
        "properties": { "magmom": -0.059000000000000004 },
        "label": "Li",
        "xyz": [2.787186999999994, 3.1580963141000002, 1.1399755]
      },
      {
        "species": [{ "element": "Li", "occu": 1 }],
        "abc": [0.827090999999999, 0.654181, 0.75],
        "properties": { "magmom": -0.057 },
        "label": "Li",
        "xyz": [4.128582061863997, -0.8347316704999952, 3.4199265]
      },
      {
        "species": [{ "element": "Li", "occu": 1 }],
        "abc": [0.345819, 0.172908999999999, 0.75],
        "properties": { "magmom": -0.056 },
        "label": "Li",
        "xyz": [1.4457919381359972, -0.8347316705000049, 3.4199265]
      },
      {
        "species": [{ "element": "Li", "occu": 1 }],
        "abc": [0.827090999999999, 0.172908999999999, 0.75],
        "properties": { "magmom": -0.058 },
        "label": "Li",
        "xyz": [2.787186999999994, -3.1580963141000002, 3.4199265]
      },
      {
        "species": [{ "element": "Fe", "occu": 1 }],
        "abc": [0.333333, 0.666667, 0.75],
        "properties": { "magmom": 2.839 },
        "label": "Fe",
        "xyz": [2.787187, 1.6091865517000004, 3.4199265]
      },
      {
        "species": [{ "element": "Fe", "occu": 1 }],
        "abc": [0.666667, 0.333333, 0.25],
        "properties": { "magmom": 2.8280000000000003 },
        "label": "Fe",
        "xyz": [2.787187, -1.6091865517000004, 1.1399755]
      }
    ]
  },
  "task_ids": null,
  "uncorrected_energy_per_atom": null,
  "energy_per_atom": -3.143534945,
  "formation_energy_per_atom": 0.40566250750000005,
  "energy_above_hull": 0.40566250750000005,
  "is_stable": false,
  "equilibrium_reaction_energy_per_atom": null,
  "decomposes_to": null,
  "xas": null,
  "grain_boundaries": null,
  "band_gap": 0.0,
  "cbm": null,
  "vbm": null,
  "efermi": 0.94455482,
  "is_gap_direct": null,
  "is_metal": null,
  "es_source_calc_id": null,
  "bandstructure": null,
  "dos": null,
  "dos_energy_up": null,
  "dos_energy_down": null,
  "is_magnetic": null,
  "ordering": null,
  "total_magnetization": 4.7932769,
  "total_magnetization_normalized_vol": null,
  "total_magnetization_normalized_formula_units": null,
  "num_magnetic_sites": null,
  "num_unique_magnetic_sites": null,
  "types_of_magnetic_species": null,
  "bulk_modulus": null,
  "shear_modulus": null,
  "universal_anisotropy": null,
  "homogeneous_poisson": null,
  "e_total": null,
  "e_ionic": null,
  "e_electronic": null,
  "n": null,
  "e_ij_max": null,
  "weighted_surface_energy_EV_PER_ANG2": null,
  "weighted_surface_energy": null,
  "weighted_work_function": null,
  "surface_anisotropy": null,
  "shape_factor": null,
  "has_reconstructed": null,
  "possible_species": null,
  "has_props": null,
  "theoretical": null,
  "database_IDs": null,
  "fields_not_requested": [
    "builder_meta",
    "nsites",
    "elements",
    "nelements",
    "composition",
    "composition_reduced",
    "chemsys",
    "symmetry",
    "property_name",
    "deprecated",
    "deprecation_reasons",
    "last_updated",
    "origins",
    "warnings",
    "task_ids",
    "uncorrected_energy_per_atom",
    "equilibrium_reaction_energy_per_atom",
    "decomposes_to",
    "xas",
    "grain_boundaries",
    "cbm",
    "vbm",
    "is_gap_direct",
    "is_metal",
    "es_source_calc_id",
    "bandstructure",
    "dos",
    "dos_energy_up",
    "dos_energy_down",
    "is_magnetic",
    "ordering",
    "total_magnetization_normalized_vol",
    "total_magnetization_normalized_formula_units",
    "num_magnetic_sites",
    "num_unique_magnetic_sites",
    "types_of_magnetic_species",
    "bulk_modulus",
    "shear_modulus",
    "universal_anisotropy",
    "homogeneous_poisson",
    "e_total",
    "e_ionic",
    "e_electronic",
    "n",
    "e_ij_max",
    "weighted_surface_energy_EV_PER_ANG2",
    "weighted_surface_energy",
    "weighted_work_function",
    "surface_anisotropy",
    "shape_factor",
    "has_reconstructed",
    "possible_species",
    "has_props",
    "theoretical",
    "database_IDs"
  ]
}
