{"builder_meta": null, "nsites": null, "elements": null, "nelements": null, "composition": null, "composition_reduced": null, "formula_pretty": "Li3Ga7", "formula_anonymous": "A3B7", "chemsys": null, "volume": 349.24642562917677, "density": 4.839114735936638, "density_atomic": 17.462321281458838, "symmetry": null, "property_name": null, "material_id": "mp-567306", "deprecated": null, "deprecation_reasons": null, "last_updated": null, "origins": null, "warnings": null, "structure": {"@module": "pymatgen.core.structure", "@class": "Structure", "charge": 0, "lattice": {"matrix": [[6.97896728, 0.037038499999999, 2.69112166], [1.859388249999999, 6.72681329, 2.6911216700000002], [0.048397880000000004, 0.037038499999999, 7.47969105]], "pbc": [true, true, true], "a": 7.479939300202509, "b": 7.479938338348938, "c": 7.479939331887715, "alpha": 68.54143867332736, "beta": 68.54144434973827, "gamma": 68.54144247922822, "volume": 349.2464256291768}, "properties": {}, "sites": [{"species": [{"element": "Li", "occu": 1}], "abc": [0.47660688, 0.88094359, 0.88094359], "properties": {"magmom": -0.0}, "label": "Li", "xyz": [5.006875783257292, 5.976224682035404, 10.242519368847486]}, {"species": [{"element": "Li", "occu": 1}], "abc": [0.88094359, 0.47660688, 0.88094359], "properties": {"magmom": -0.0}, "label": "Li", "xyz": [7.076909524832484, 3.271303152805863, 10.242519364804117]}, {"species": [{"element": "Li", "occu": 1}], "abc": [0.11905641, 0.52339312, 0.11905641], "properties": {"magmom": -0.0}, "label": "Li", "xyz": [1.8098438851675152, 3.5295871371941345, 2.619415015195882]}, {"species": [{"element": "Li", "occu": 1}], "abc": [0.88094359, 0.88094359, 0.47660688], "properties": {"magmom": -0.0}, "label": "Li", "xyz": [7.809159412879966, 5.976224682035404, 8.30632497608818]}, {"species": [{"element": "Li", "occu": 1}], "abc": [0.11905641, 0.11905641, 0.52339312], "properties": {"magmom": -0.0}, "label": "Li", "xyz": [1.0775939971200328, 0.8246656079645933, 4.555609403911822]}, {"species": [{"element": "Li", "occu": 1}], "abc": [0.52339312, 0.11905641, 0.11905641], "properties": {"magmom": -0.0}, "label": "Li", "xyz": [3.8798776267427066, 0.8246656079645933, 2.6194150111525145]}, {"species": [{"element": "Ga", "occu": 1}], "abc": [0.17375822, 0.49066859, 0.49066859], "properties": {"magmom": -0.0}, "label": "Ga", "xyz": [2.148743662439698, 3.3252453645997457, 5.45810284592151]}, {"species": [{"element": "Ga", "occu": 1}], "abc": [0.18315861, 0.70427103, 0.70427103], "properties": {"magmom": 0.0}, "label": "Ga", "xyz": [2.6218564490350937, 4.770368787087128, 7.655910852837994]}, {"species": [{"element": "Ga", "occu": 1}], "abc": [0.29572897, 0.29572897, 0.81684139], "properties": {"magmom": 0.0}, "label": "Ga", "xyz": [2.653291168952957, 2.0305215029128703, 7.701406510322829]}, {"species": [{"element": "Ga", "occu": 1}], "abc": [0.82624178, 0.50933141, 0.50933141], "properties": {"magmom": -0.0}, "label": "Ga", "xyz": [6.738009747560302, 3.475644925400253, 7.40383153407849]}, {"species": [{"element": "Ga", "occu": 1}], "abc": [0.70427103, 0.70427103, 0.18315861], "properties": {"magmom": 0.0}, "label": "Ga", "xyz": [6.233462241047042, 4.770368787087128, 5.16052786967717]}, {"species": [{"element": "Ga", "occu": 1}], "abc": [0.50933141, 0.82624178, 0.50933141], "properties": {"magmom": -0.0}, "label": "Ga", "xyz": [5.11556206291876, 5.595703929315825, 7.403831537247594]}, {"species": [{"element": "Ga", "occu": 1}], "abc": [0.81684139, 0.29572897, 0.29572897], "properties": {"magmom": 0.0}, "label": "Ga", "xyz": [6.264896960964904, 2.03052150291287, 5.206023527162006]}, {"species": [{"element": "Ga", "occu": 1}], "abc": [0.07750679, 0.07750679, 0.07750679], "properties": {"magmom": -0.0}, "label": "Ga", "xyz": [0.6887837303306539, 0.5271151755200689, 0.9968872469844402]}, {"species": [{"element": "Ga", "occu": 1}], "abc": [0.50933141, 0.50933141, 0.82624178], "properties": {"magmom": -0.0}, "label": "Ga", "xyz": [4.541640434695623, 3.475644925400253, 8.921378831234065]}, {"species": [{"element": "Ga", "occu": 1}], "abc": [0.29572897, 0.81684139, 0.29572897], "properties": {"magmom": 0.0}, "label": "Ga", "xyz": [3.597020743260352, 5.516646232984764, 5.2060235323731305]}, {"species": [{"element": "Ga", "occu": 1}], "abc": [0.49066859, 0.17375822, 0.49066859], "properties": {"magmom": -0.0}, "label": "Ga", "xyz": [3.771191347081239, 1.2051863606841728, 5.458102842752407]}, {"species": [{"element": "Ga", "occu": 1}], "abc": [0.70427103, 0.18315861, 0.70427103], "properties": {"magmom": 0.0}, "label": "Ga", "xyz": [5.289732666739647, 1.2842440570152354, 7.65591084762687]}, {"species": [{"element": "Ga", "occu": 1}], "abc": [0.49066859, 0.49066859, 0.17375822], "properties": {"magmom": -0.0}, "label": "Ga", "xyz": [4.345112975304375, 3.3252453645997457, 3.9405555487659356]}, {"species": [{"element": "Ga", "occu": 1}], "abc": [0.9224932100000001, 0.9224932100000001, 0.9224932100000001], "properties": {"magmom": -0.0}, "label": "Ga", "xyz": [8.197969679669345, 6.27377511447993, 11.86504713301556]}]}, "task_ids": null, "uncorrected_energy_per_atom": null, "energy_per_atom": -8.980387102, "formation_energy_per_atom": -0.254432013, "energy_above_hull": 0.024923377700000002, "is_stable": false, "equilibrium_reaction_energy_per_atom": null, "decomposes_to": null, "xas": null, "grain_boundaries": null, "band_gap": 0.0, "cbm": null, "vbm": null, "efermi": 2.93662913, "is_gap_direct": null, "is_metal": null, "es_source_calc_id": null, "bandstructure": null, "dos": null, "dos_energy_up": null, "dos_energy_down": null, "is_magnetic": null, "ordering": null, "total_magnetization": 0.0, "total_magnetization_normalized_vol": null, "total_magnetization_normalized_formula_units": null, "num_magnetic_sites": null, "num_unique_magnetic_sites": null, "types_of_magnetic_species": null, "bulk_modulus": null, "shear_modulus": null, "universal_anisotropy": null, "homogeneous_poisson": null, "e_total": null, "e_ionic": null, "e_electronic": null, "n": null, "e_ij_max": null, "weighted_surface_energy_EV_PER_ANG2": null, "weighted_surface_energy": null, "weighted_work_function": null, "surface_anisotropy": null, "shape_factor": null, "has_reconstructed": null, "possible_species": null, "has_props": null, "theoretical": null, "database_IDs": null, "fields_not_requested": ["builder_meta", "nsites", "elements", "nelements", "composition", "composition_reduced", "chemsys", "symmetry", "property_name", "deprecated", "deprecation_reasons", "last_updated", "origins", "warnings", "task_ids", "uncorrected_energy_per_atom", "equilibrium_reaction_energy_per_atom", "decomposes_to", "xas", "grain_boundaries", "cbm", "vbm", "is_gap_direct", "is_metal", "es_source_calc_id", "bandstructure", "dos", "dos_energy_up", "dos_energy_down", "is_magnetic", "ordering", "total_magnetization_normalized_vol", "total_magnetization_normalized_formula_units", "num_magnetic_sites", "num_unique_magnetic_sites", "types_of_magnetic_species", "bulk_modulus", "shear_modulus", "universal_anisotropy", "homogeneous_poisson", "e_total", "e_ionic", "e_electronic", "n", "e_ij_max", "weighted_surface_energy_EV_PER_ANG2", "weighted_surface_energy", "weighted_work_function", "surface_anisotropy", "shape_factor", "has_reconstructed", "possible_species", "has_props", "theoretical", "database_IDs"]}