{"builder_meta": null, "nsites": null, "elements": null, "nelements": null, "composition": null, "composition_reduced": null, "formula_pretty": "Li3Ga2", "formula_anonymous": "A2B3", "chemsys": null, "volume": 73.49958387957126, "density": 3.620876767152491, "density_atomic": 14.699916775914252, "symmetry": null, "property_name": null, "material_id": "mp-9568", "deprecated": null, "deprecation_reasons": null, "last_updated": null, "origins": null, "warnings": null, "structure": {"@module": "pymatgen.core.structure", "@class": "Structure", "charge": 0, "lattice": {"matrix": [[3.921551, -0.002056, 3.41481], [1.553226, 3.600841, 3.41481], [-0.003127, -0.002056, 5.19995]], "pbc": [true, true, true], "a": 5.199951327545, "b": 5.199951370008858, "c": 5.199951346672871, "alpha": 48.98574473673856, "beta": 48.98573926381405, "gamma": 48.98575020414779, "volume": 73.49958387957126}, "properties": {}, "sites": [{"species": [{"element": "Li", "occu": 1}], "abc": [0.595743999999999, 0.595743999999999, 0.595743999999999], "properties": {"magmom": 0.0}, "label": "Li", "xyz": [3.259702657599995, 2.1427297213759964, 7.166544150079989]}, {"species": [{"element": "Li", "occu": 1}], "abc": [0.404256, 0.404256, 0.404256], "properties": {"magmom": 0.0}, "label": "Li", "xyz": [2.2119473424, 1.4539992786240001, 4.86302584992]}, {"species": [{"element": "Li", "occu": 1}], "abc": [0.0, 0.0, 0.0], "properties": {"magmom": 0.0}, "label": "Li", "xyz": [0.0, 0.0, 0.0]}, {"species": [{"element": "Ga", "occu": 1}], "abc": [0.200046, 0.200046, 0.200046], "properties": {"magmom": -0.0}, "label": "Ga", "xyz": [1.0945816958999999, 0.719511249534, 2.4064673602199997]}, {"species": [{"element": "Ga", "occu": 1}], "abc": [0.799953999999999, 0.799953999999999, 0.799953999999999], "properties": {"magmom": -0.0}, "label": "Ga", "xyz": [4.377068304099995, 2.877217750465997, 9.62310263977999]}]}, "task_ids": null, "uncorrected_energy_per_atom": null, "energy_per_atom": -6.378117136, "formation_energy_per_atom": -0.36898290800000005, "energy_above_hull": 0.0, "is_stable": true, "equilibrium_reaction_energy_per_atom": null, "decomposes_to": null, "xas": null, "grain_boundaries": null, "band_gap": 0.0, "cbm": null, "vbm": null, "efermi": 3.25826807, "is_gap_direct": null, "is_metal": null, "es_source_calc_id": null, "bandstructure": null, "dos": null, "dos_energy_up": null, "dos_energy_down": null, "is_magnetic": null, "ordering": null, "total_magnetization": 1.2600000000000001e-05, "total_magnetization_normalized_vol": null, "total_magnetization_normalized_formula_units": null, "num_magnetic_sites": null, "num_unique_magnetic_sites": null, "types_of_magnetic_species": null, "bulk_modulus": null, "shear_modulus": null, "universal_anisotropy": null, "homogeneous_poisson": null, "e_total": null, "e_ionic": null, "e_electronic": null, "n": null, "e_ij_max": null, "weighted_surface_energy_EV_PER_ANG2": null, "weighted_surface_energy": null, "weighted_work_function": null, "surface_anisotropy": null, "shape_factor": null, "has_reconstructed": null, "possible_species": null, "has_props": null, "theoretical": null, "database_IDs": null, "fields_not_requested": ["builder_meta", "nsites", "elements", "nelements", "composition", "composition_reduced", "chemsys", "symmetry", "property_name", "deprecated", "deprecation_reasons", "last_updated", "origins", "warnings", "task_ids", "uncorrected_energy_per_atom", "equilibrium_reaction_energy_per_atom", "decomposes_to", "xas", "grain_boundaries", "cbm", "vbm", "is_gap_direct", "is_metal", "es_source_calc_id", "bandstructure", "dos", "dos_energy_up", "dos_energy_down", "is_magnetic", "ordering", "total_magnetization_normalized_vol", "total_magnetization_normalized_formula_units", "num_magnetic_sites", "num_unique_magnetic_sites", "types_of_magnetic_species", "bulk_modulus", "shear_modulus", "universal_anisotropy", "homogeneous_poisson", "e_total", "e_ionic", "e_electronic", "n", "e_ij_max", "weighted_surface_energy_EV_PER_ANG2", "weighted_surface_energy", "weighted_work_function", "surface_anisotropy", "shape_factor", "has_reconstructed", "possible_species", "has_props", "theoretical", "database_IDs"]}