{"builder_meta": null, "nsites": null, "elements": null, "nelements": null, "composition": null, "composition_reduced": null, "formula_pretty": "Li3Lu", "formula_anonymous": "AB3", "chemsys": null, "volume": 178.38752892130302, "density": 3.645063596267896, "density_atomic": 22.298441115162877, "symmetry": null, "property_name": null, "material_id": "mp-1185208", "deprecated": null, "deprecation_reasons": null, "last_updated": null, "origins": null, "warnings": null, "structure": {"@module": "pymatgen.core.structure", "@class": "Structure", "charge": 0, "lattice": {"matrix": [[3.20809, -5.556574, 0.0], [3.20809, 5.556574, 0.0], [0.0, 0.0, 5.00358]], "pbc": [true, true, true], "a": 6.416179242008129, "b": 6.416179242008129, "c": 5.00358, "alpha": 90.0, "beta": 90.0, "gamma": 119.99999218408065, "volume": 178.38752892130302}, "properties": {}, "sites": [{"species": [{"element": "Li", "occu": 1}], "abc": [0.847001, 0.152999, 0.75], "properties": {"magmom": 0.0}, "label": "Li", "xyz": [3.20809, -3.856273469148, 3.7526850000000005]}, {"species": [{"element": "Li", "occu": 1}], "abc": [0.305998999999999, 0.152999, 0.75], "properties": {"magmom": 0.0}, "label": "Li", "xyz": [1.4725068938199968, -0.8501558219999947, 3.7526850000000005]}, {"species": [{"element": "Li", "occu": 1}], "abc": [0.847001, 0.694001, 0.75], "properties": {"magmom": 0.0}, "label": "Li", "xyz": [4.94367310618, -0.8501558219999996, 3.7526850000000005]}, {"species": [{"element": "Li", "occu": 1}], "abc": [0.152999, 0.847001, 0.25], "properties": {"magmom": -0.0}, "label": "Li", "xyz": [3.20809, 3.856273469148, 1.250895]}, {"species": [{"element": "Li", "occu": 1}], "abc": [0.694001, 0.847001, 0.25], "properties": {"magmom": -0.0}, "label": "Li", "xyz": [4.94367310618, 0.8501558219999996, 1.250895]}, {"species": [{"element": "Li", "occu": 1}], "abc": [0.152999, 0.305998999999999, 0.25], "properties": {"magmom": -0.0}, "label": "Li", "xyz": [1.4725068938199968, 0.8501558219999947, 1.250895]}, {"species": [{"element": "Lu", "occu": 1}], "abc": [0.666667, 0.333333, 0.25], "properties": {"magmom": 0.0}, "label": "Lu", "xyz": [3.20809, -1.8521950377160001, 1.250895]}, {"species": [{"element": "Lu", "occu": 1}], "abc": [0.333333, 0.666667, 0.75], "properties": {"magmom": 0.001}, "label": "Lu", "xyz": [3.20809, 1.8521950377160001, 3.7526850000000005]}]}, "task_ids": null, "uncorrected_energy_per_atom": null, "energy_per_atom": -11.097801685833335, "formation_energy_per_atom": 0.21219816999999802, "energy_above_hull": 0.21219816999999802, "is_stable": false, "equilibrium_reaction_energy_per_atom": null, "decomposes_to": null, "xas": null, "grain_boundaries": null, "band_gap": 0.0, "cbm": null, "vbm": null, "efermi": 0.8015216, "is_gap_direct": null, "is_metal": null, "es_source_calc_id": null, "bandstructure": null, "dos": null, "dos_energy_up": null, "dos_energy_down": null, "is_magnetic": null, "ordering": null, "total_magnetization": 0.002621499999999, "total_magnetization_normalized_vol": null, "total_magnetization_normalized_formula_units": null, "num_magnetic_sites": null, "num_unique_magnetic_sites": null, "types_of_magnetic_species": null, "bulk_modulus": null, "shear_modulus": null, "universal_anisotropy": null, "homogeneous_poisson": null, "e_total": null, "e_ionic": null, "e_electronic": null, "n": null, "e_ij_max": null, "weighted_surface_energy_EV_PER_ANG2": null, "weighted_surface_energy": null, "weighted_work_function": null, "surface_anisotropy": null, "shape_factor": null, "has_reconstructed": null, "possible_species": null, "has_props": null, "theoretical": null, "database_IDs": null, "fields_not_requested": ["builder_meta", "nsites", "elements", "nelements", "composition", "composition_reduced", "chemsys", "symmetry", "property_name", "deprecated", "deprecation_reasons", "last_updated", "origins", "warnings", "task_ids", "uncorrected_energy_per_atom", "equilibrium_reaction_energy_per_atom", "decomposes_to", "xas", "grain_boundaries", "cbm", "vbm", "is_gap_direct", "is_metal", "es_source_calc_id", "bandstructure", "dos", "dos_energy_up", "dos_energy_down", "is_magnetic", "ordering", "total_magnetization_normalized_vol", "total_magnetization_normalized_formula_units", "num_magnetic_sites", "num_unique_magnetic_sites", "types_of_magnetic_species", "bulk_modulus", "shear_modulus", "universal_anisotropy", "homogeneous_poisson", "e_total", "e_ionic", "e_electronic", "n", "e_ij_max", "weighted_surface_energy_EV_PER_ANG2", "weighted_surface_energy", "weighted_work_function", "surface_anisotropy", "shape_factor", "has_reconstructed", "possible_species", "has_props", "theoretical", "database_IDs"]}