{
  "builder_meta": null,
  "nsites": null,
  "elements": null,
  "nelements": null,
  "composition": null,
  "composition_reduced": null,
  "formula_pretty": "Li3Mg",
  "formula_anonymous": "AB3",
  "chemsys": null,
  "volume": 81.39637365353093,
  "density": 0.920640608837173,
  "density_atomic": 20.349093413382732,
  "symmetry": null,
  "property_name": null,
  "material_id": "mp-976139",
  "deprecated": null,
  "deprecation_reasons": null,
  "last_updated": null,
  "origins": null,
  "warnings": null,
  "structure": {
    "@module": "pymatgen.core.structure",
    "@class": "Structure",
    "charge": 0,
    "lattice": {
      "matrix": [
        [3.05125523, 0.0, 0.0],
        [0.0, 5.05526712, 0.0],
        [0.0, 0.0, 5.2769431]
      ],
      "pbc": [true, true, true],
      "a": 3.05125523,
      "b": 5.05526712,
      "c": 5.2769431,
      "alpha": 90.0,
      "beta": 90.0,
      "gamma": 90.0,
      "volume": 81.39637365353093
    },
    "properties": {},
    "sites": [
      {
        "species": [{ "element": "Li", "occu": 1 }],
        "abc": [-0.0, 0.0, 0.9945255],
        "properties": { "magmom": 0.0 },
        "label": "Li",
        "xyz": [0.0, 0.0, 5.2480544749990505]
      },
      {
        "species": [{ "element": "Li", "occu": 1 }],
        "abc": [0.5, -0.0, 0.49340361],
        "properties": { "magmom": 0.0 },
        "label": "Li",
        "xyz": [1.525627615, 0.0, 2.603662775304591]
      },
      {
        "species": [{ "element": "Li", "occu": 1 }],
        "abc": [0.5, 0.5, 0.83600699],
        "properties": { "magmom": -0.001 },
        "label": "Li",
        "xyz": [1.525627615, 2.52763356, 4.41156131743227]
      },
      {
        "species": [{ "element": "Mg", "occu": 1 }],
        "abc": [-0.0, 0.5, 0.3427309],
        "properties": { "magmom": 0.0 },
        "label": "Mg",
        "xyz": [0.0, 2.52763356, 1.8085714579117902]
      }
    ]
  },
  "task_ids": null,
  "uncorrected_energy_per_atom": null,
  "energy_per_atom": -2.8563579125,
  "formation_energy_per_atom": -0.024002206249999002,
  "energy_above_hull": 0.002104230416666,
  "is_stable": false,
  "equilibrium_reaction_energy_per_atom": null,
  "decomposes_to": null,
  "xas": null,
  "grain_boundaries": null,
  "band_gap": 0.0,
  "cbm": null,
  "vbm": null,
  "efermi": 0.79961698,
  "is_gap_direct": null,
  "is_metal": null,
  "es_source_calc_id": null,
  "bandstructure": null,
  "dos": null,
  "dos_energy_up": null,
  "dos_energy_down": null,
  "is_magnetic": null,
  "ordering": null,
  "total_magnetization": 0.0001914,
  "total_magnetization_normalized_vol": null,
  "total_magnetization_normalized_formula_units": null,
  "num_magnetic_sites": null,
  "num_unique_magnetic_sites": null,
  "types_of_magnetic_species": null,
  "bulk_modulus": null,
  "shear_modulus": null,
  "universal_anisotropy": null,
  "homogeneous_poisson": null,
  "e_total": null,
  "e_ionic": null,
  "e_electronic": null,
  "n": null,
  "e_ij_max": null,
  "weighted_surface_energy_EV_PER_ANG2": null,
  "weighted_surface_energy": null,
  "weighted_work_function": null,
  "surface_anisotropy": null,
  "shape_factor": null,
  "has_reconstructed": null,
  "possible_species": null,
  "has_props": null,
  "theoretical": null,
  "database_IDs": null,
  "fields_not_requested": [
    "builder_meta",
    "nsites",
    "elements",
    "nelements",
    "composition",
    "composition_reduced",
    "chemsys",
    "symmetry",
    "property_name",
    "deprecated",
    "deprecation_reasons",
    "last_updated",
    "origins",
    "warnings",
    "task_ids",
    "uncorrected_energy_per_atom",
    "equilibrium_reaction_energy_per_atom",
    "decomposes_to",
    "xas",
    "grain_boundaries",
    "cbm",
    "vbm",
    "is_gap_direct",
    "is_metal",
    "es_source_calc_id",
    "bandstructure",
    "dos",
    "dos_energy_up",
    "dos_energy_down",
    "is_magnetic",
    "ordering",
    "total_magnetization_normalized_vol",
    "total_magnetization_normalized_formula_units",
    "num_magnetic_sites",
    "num_unique_magnetic_sites",
    "types_of_magnetic_species",
    "bulk_modulus",
    "shear_modulus",
    "universal_anisotropy",
    "homogeneous_poisson",
    "e_total",
    "e_ionic",
    "e_electronic",
    "n",
    "e_ij_max",
    "weighted_surface_energy_EV_PER_ANG2",
    "weighted_surface_energy",
    "weighted_work_function",
    "surface_anisotropy",
    "shape_factor",
    "has_reconstructed",
    "possible_species",
    "has_props",
    "theoretical",
    "database_IDs"
  ]
}
