{
  "builder_meta": null,
  "nsites": null,
  "elements": null,
  "nelements": null,
  "composition": null,
  "composition_reduced": null,
  "formula_pretty": "Li3Nb",
  "formula_anonymous": "AB3",
  "chemsys": null,
  "volume": 129.17891785941748,
  "density": 2.923883891266532,
  "density_atomic": 16.147364732427185,
  "symmetry": null,
  "property_name": null,
  "material_id": "mp-1185216",
  "deprecated": null,
  "deprecation_reasons": null,
  "last_updated": null,
  "origins": null,
  "warnings": null,
  "structure": {
    "@module": "pymatgen.core.structure",
    "@class": "Structure",
    "charge": 0,
    "lattice": {
      "matrix": [
        [2.872673, -4.975616, 0.0],
        [2.872673, 4.975616, 0.0],
        [0.0, 0.0, 4.518857]
      ],
      "pbc": [true, true, true],
      "a": 5.7453463554763164,
      "b": 5.7453463554763164,
      "c": 4.518857,
      "alpha": 90.0,
      "beta": 90.0,
      "gamma": 120.00000409342137,
      "volume": 129.17891785941748
    },
    "properties": {},
    "sites": [
      {
        "species": [{ "element": "Li", "occu": 1 }],
        "abc": [0.165879, 0.331756999999999, 0.25],
        "properties": { "magmom": 0.029 },
        "label": "Li",
        "xyz": [1.4295455010279972, 0.8253452308479952, 1.12971425]
      },
      {
        "species": [{ "element": "Li", "occu": 1 }],
        "abc": [0.668242999999999, 0.834121, 0.25],
        "properties": { "magmom": 0.029 },
        "label": "Li",
        "xyz": [4.315800498971997, 0.8253452308480047, 1.12971425]
      },
      {
        "species": [{ "element": "Li", "occu": 1 }],
        "abc": [0.165879, 0.834121, 0.25],
        "properties": { "magmom": 0.028 },
        "label": "Li",
        "xyz": [2.872673, 3.3249155870719997, 1.12971425]
      },
      {
        "species": [{ "element": "Li", "occu": 1 }],
        "abc": [0.834121, 0.668242999999999, 0.75],
        "properties": { "magmom": 0.029 },
        "label": "Li",
        "xyz": [4.315800498971997, -0.8253452308480047, 3.3891427499999995]
      },
      {
        "species": [{ "element": "Li", "occu": 1 }],
        "abc": [0.331756999999999, 0.165879, 0.75],
        "properties": { "magmom": 0.029 },
        "label": "Li",
        "xyz": [1.4295455010279972, -0.8253452308479952, 3.3891427499999995]
      },
      {
        "species": [{ "element": "Li", "occu": 1 }],
        "abc": [0.834121, 0.165879, 0.75],
        "properties": { "magmom": 0.029 },
        "label": "Li",
        "xyz": [2.872673, -3.3249155870719997, 3.3891427499999995]
      },
      {
        "species": [{ "element": "Nb", "occu": 1 }],
        "abc": [0.333333, 0.666667, 0.75],
        "properties": { "magmom": 0.54 },
        "label": "Nb",
        "xyz": [2.872673, 1.6585419837439999, 3.3891427499999995]
      },
      {
        "species": [{ "element": "Nb", "occu": 1 }],
        "abc": [0.666667, 0.333333, 0.25],
        "properties": { "magmom": 0.604 },
        "label": "Nb",
        "xyz": [2.872673, -1.6585419837439999, 1.12971425]
      }
    ]
  },
  "task_ids": null,
  "uncorrected_energy_per_atom": null,
  "energy_per_atom": -7.291406412500001,
  "formation_energy_per_atom": 0.6821420599999991,
  "energy_above_hull": 0.6821420599999991,
  "is_stable": false,
  "equilibrium_reaction_energy_per_atom": null,
  "decomposes_to": null,
  "xas": null,
  "grain_boundaries": null,
  "band_gap": 0.0,
  "cbm": null,
  "vbm": null,
  "efermi": 1.22287689,
  "is_gap_direct": null,
  "is_metal": null,
  "es_source_calc_id": null,
  "bandstructure": null,
  "dos": null,
  "dos_energy_up": null,
  "dos_energy_down": null,
  "is_magnetic": null,
  "ordering": null,
  "total_magnetization": 1.836921799999999,
  "total_magnetization_normalized_vol": null,
  "total_magnetization_normalized_formula_units": null,
  "num_magnetic_sites": null,
  "num_unique_magnetic_sites": null,
  "types_of_magnetic_species": null,
  "bulk_modulus": null,
  "shear_modulus": null,
  "universal_anisotropy": null,
  "homogeneous_poisson": null,
  "e_total": null,
  "e_ionic": null,
  "e_electronic": null,
  "n": null,
  "e_ij_max": null,
  "weighted_surface_energy_EV_PER_ANG2": null,
  "weighted_surface_energy": null,
  "weighted_work_function": null,
  "surface_anisotropy": null,
  "shape_factor": null,
  "has_reconstructed": null,
  "possible_species": null,
  "has_props": null,
  "theoretical": null,
  "database_IDs": null,
  "fields_not_requested": [
    "builder_meta",
    "nsites",
    "elements",
    "nelements",
    "composition",
    "composition_reduced",
    "chemsys",
    "symmetry",
    "property_name",
    "deprecated",
    "deprecation_reasons",
    "last_updated",
    "origins",
    "warnings",
    "task_ids",
    "uncorrected_energy_per_atom",
    "equilibrium_reaction_energy_per_atom",
    "decomposes_to",
    "xas",
    "grain_boundaries",
    "cbm",
    "vbm",
    "is_gap_direct",
    "is_metal",
    "es_source_calc_id",
    "bandstructure",
    "dos",
    "dos_energy_up",
    "dos_energy_down",
    "is_magnetic",
    "ordering",
    "total_magnetization_normalized_vol",
    "total_magnetization_normalized_formula_units",
    "num_magnetic_sites",
    "num_unique_magnetic_sites",
    "types_of_magnetic_species",
    "bulk_modulus",
    "shear_modulus",
    "universal_anisotropy",
    "homogeneous_poisson",
    "e_total",
    "e_ionic",
    "e_electronic",
    "n",
    "e_ij_max",
    "weighted_surface_energy_EV_PER_ANG2",
    "weighted_surface_energy",
    "weighted_work_function",
    "surface_anisotropy",
    "shape_factor",
    "has_reconstructed",
    "possible_species",
    "has_props",
    "theoretical",
    "database_IDs"
  ]
}
