{"builder_meta": null, "nsites": null, "elements": null, "nelements": null, "composition": null, "composition_reduced": null, "formula_pretty": "Li3Np", "formula_anonymous": "AB3", "chemsys": null, "volume": 181.30242982698368, "density": 4.72277359080703, "density_atomic": 22.66280372837296, "symmetry": null, "property_name": null, "material_id": "mp-1185256", "deprecated": null, "deprecation_reasons": null, "last_updated": null, "origins": null, "warnings": null, "structure": {"@module": "pymatgen.core.structure", "@class": "Structure", "charge": 0, "lattice": {"matrix": [[3.246664, -5.623388, 0.0], [3.246664, 5.623388, 0.0], [0.0, 0.0, 4.965217]], "pbc": [true, true, true], "a": 6.493328863336586, "b": 6.493328863336586, "c": 4.965217, "alpha": 90.0, "beta": 90.0, "gamma": 120.0000087963953, "volume": 181.30242982698368}, "properties": {}, "sites": [{"species": [{"element": "Li", "occu": 1}], "abc": [0.14763199999999901, 0.295263999999999, 0.25], "properties": {"magmom": 0.077}, "label": "Li", "xyz": [1.4379344989439935, 0.8301920172160002, 1.24130425]}, {"species": [{"element": "Li", "occu": 1}], "abc": [0.704735999999999, 0.852368, 0.25], "properties": {"magmom": 0.058}, "label": "Li", "xyz": [5.055393501055997, 0.8301920172160058, 1.24130425]}, {"species": [{"element": "Li", "occu": 1}], "abc": [0.14763199999999901, 0.852368, 0.25], "properties": {"magmom": 0.085}, "label": "Li", "xyz": [3.246663999999997, 3.9630039655680065, 1.24130425]}, {"species": [{"element": "Li", "occu": 1}], "abc": [0.852368, 0.704735999999999, 0.75], "properties": {"magmom": 0.077}, "label": "Li", "xyz": [5.055393501055997, -0.8301920172160058, 3.72391275]}, {"species": [{"element": "Li", "occu": 1}], "abc": [0.295263999999999, 0.14763199999999901, 0.75], "properties": {"magmom": 0.058}, "label": "Li", "xyz": [1.4379344989439935, -0.8301920172160002, 3.72391275]}, {"species": [{"element": "Li", "occu": 1}], "abc": [0.852368, 0.14763199999999901, 0.75], "properties": {"magmom": 0.085}, "label": "Li", "xyz": [3.246663999999997, -3.9630039655680065, 3.72391275]}, {"species": [{"element": "Np", "occu": 1}], "abc": [0.333333, 0.666667, 0.75], "properties": {"magmom": 4.649}, "label": "Np", "xyz": [3.246664, 1.8744664155920001, 3.72391275]}, {"species": [{"element": "Np", "occu": 1}], "abc": [0.666667, 0.333333, 0.25], "properties": {"magmom": 4.6530000000000005}, "label": "Np", "xyz": [3.246664, -1.8744664155920001, 1.24130425]}]}, "task_ids": null, "uncorrected_energy_per_atom": null, "energy_per_atom": -21.873229190000004, "formation_energy_per_atom": 0.672853502812497, "energy_above_hull": 0.672853502812497, "is_stable": false, "equilibrium_reaction_energy_per_atom": null, "decomposes_to": null, "xas": null, "grain_boundaries": null, "band_gap": 0.0, "cbm": null, "vbm": null, "efermi": 3.5570830300000003, "is_gap_direct": null, "is_metal": null, "es_source_calc_id": null, "bandstructure": null, "dos": null, "dos_energy_up": null, "dos_energy_down": null, "is_magnetic": null, "ordering": null, "total_magnetization": 12.7176098, "total_magnetization_normalized_vol": null, "total_magnetization_normalized_formula_units": null, "num_magnetic_sites": null, "num_unique_magnetic_sites": null, "types_of_magnetic_species": null, "bulk_modulus": null, "shear_modulus": null, "universal_anisotropy": null, "homogeneous_poisson": null, "e_total": null, "e_ionic": null, "e_electronic": null, "n": null, "e_ij_max": null, "weighted_surface_energy_EV_PER_ANG2": null, "weighted_surface_energy": null, "weighted_work_function": null, "surface_anisotropy": null, "shape_factor": null, "has_reconstructed": null, "possible_species": null, "has_props": null, "theoretical": null, "database_IDs": null, "fields_not_requested": ["builder_meta", "nsites", "elements", "nelements", "composition", "composition_reduced", "chemsys", "symmetry", "property_name", "deprecated", "deprecation_reasons", "last_updated", "origins", "warnings", "task_ids", "uncorrected_energy_per_atom", "equilibrium_reaction_energy_per_atom", "decomposes_to", "xas", "grain_boundaries", "cbm", "vbm", "is_gap_direct", "is_metal", "es_source_calc_id", "bandstructure", "dos", "dos_energy_up", "dos_energy_down", "is_magnetic", "ordering", "total_magnetization_normalized_vol", "total_magnetization_normalized_formula_units", "num_magnetic_sites", "num_unique_magnetic_sites", "types_of_magnetic_species", "bulk_modulus", "shear_modulus", "universal_anisotropy", "homogeneous_poisson", "e_total", "e_ionic", "e_electronic", "n", "e_ij_max", "weighted_surface_energy_EV_PER_ANG2", "weighted_surface_energy", "weighted_work_function", "surface_anisotropy", "shape_factor", "has_reconstructed", "possible_species", "has_props", "theoretical", "database_IDs"]}