{
  "builder_meta": null,
  "nsites": null,
  "elements": null,
  "nelements": null,
  "composition": null,
  "composition_reduced": null,
  "formula_pretty": "Li3P7",
  "formula_anonymous": "A3B7",
  "chemsys": null,
  "volume": 782.9438513326726,
  "density": 2.016029104493912,
  "density_atomic": 19.573596283316814,
  "symmetry": null,
  "property_name": null,
  "material_id": "mp-28336",
  "deprecated": null,
  "deprecation_reasons": null,
  "last_updated": null,
  "origins": null,
  "warnings": null,
  "structure": {
    "@module": "pymatgen.core.structure",
    "@class": "Structure",
    "charge": 0,
    "lattice": {
      "matrix": [
        [7.61936257, 0.0, 0.0],
        [0.0, 9.79844322, 0.0],
        [0.0, 0.0, 10.48708764]
      ],
      "pbc": [true, true, true],
      "a": 7.61936257,
      "b": 9.79844322,
      "c": 10.48708764,
      "alpha": 90.0,
      "beta": 90.0,
      "gamma": 90.0,
      "volume": 782.9438513326726
    },
    "properties": {},
    "sites": [
      {
        "species": [{ "element": "Li", "occu": 1 }],
        "abc": [0.84906872, 0.30786659, 0.81610327],
        "properties": { "magmom": -0.0 },
        "label": "Li",
        "xyz": [6.46936242452581, 3.0166133014500196, 8.558546515780584]
      },
      {
        "species": [{ "element": "Li", "occu": 1 }],
        "abc": [0.34906872, 0.19213341, 0.18389673],
        "properties": { "magmom": -0.0 },
        "label": "Li",
        "xyz": [2.6596811395258104, 1.88260830854998, 1.9285411242194173]
      },
      {
        "species": [{ "element": "Li", "occu": 1 }],
        "abc": [0.15093128, 0.80786659, 0.6838967300000001],
        "properties": { "magmom": -0.0 },
        "label": "Li",
        "xyz": [1.1500001454741895, 7.91583491145002, 7.172084944219418]
      },
      {
        "species": [{ "element": "Li", "occu": 1 }],
        "abc": [0.65093128, 0.6921334100000001, 0.31610327],
        "properties": { "magmom": -0.0 },
        "label": "Li",
        "xyz": [4.959681430474189, 6.78182991854998, 3.3150026957805827]
      },
      {
        "species": [{ "element": "Li", "occu": 1 }],
        "abc": [0.56739219, 0.02463171, 0.01428946],
        "properties": { "magmom": -0.0 },
        "label": "Li",
        "xyz": [4.323166814996328, 0.2413524118465062, 0.1498548193482744]
      },
      {
        "species": [{ "element": "Li", "occu": 1 }],
        "abc": [0.06739219, 0.47536829, 0.98571054],
        "properties": { "magmom": -0.0 },
        "label": "Li",
        "xyz": [0.5134855299963283, 4.657869198153493, 10.337232820651726]
      },
      {
        "species": [{ "element": "Li", "occu": 1 }],
        "abc": [0.43260781, 0.52463171, 0.48571054],
        "properties": { "magmom": -0.0 },
        "label": "Li",
        "xyz": [3.2961957550036716, 5.140574021846506, 5.093689000651726]
      },
      {
        "species": [{ "element": "Li", "occu": 1 }],
        "abc": [0.93260781, 0.97536829, 0.51428946],
        "properties": { "magmom": -0.0 },
        "label": "Li",
        "xyz": [7.105877040003672, 9.557090808153493, 5.393398639348274]
      },
      {
        "species": [{ "element": "Li", "occu": 1 }],
        "abc": [0.40352555, 0.30233545, 0.69253438],
        "properties": { "magmom": 0.0 },
        "label": "Li",
        "xyz": [3.0746074717086636, 2.9624167402181487, 7.262668736773064]
      },
      {
        "species": [{ "element": "Li", "occu": 1 }],
        "abc": [0.90352555, 0.19766455, 0.30746462],
        "properties": { "magmom": 0.0 },
        "label": "Li",
        "xyz": [6.8842887567086635, 1.9368048697818507, 3.224408416139297]
      },
      {
        "species": [{ "element": "Li", "occu": 1 }],
        "abc": [0.59647445, 0.8023354500000001, 0.80746562],
        "properties": { "magmom": 0.0 },
        "label": "Li",
        "xyz": [4.544755098291336, 7.861638350218149, 8.467962723226938]
      },
      {
        "species": [{ "element": "Li", "occu": 1 }],
        "abc": [0.09647445, 0.69766455, 0.19253538],
        "properties": { "magmom": 0.0 },
        "label": "Li",
        "xyz": [0.7350738132913365, 6.836026479781851, 2.0191354038607034]
      },
      {
        "species": [{ "element": "P", "occu": 1 }],
        "abc": [0.28344093, 0.87433132, 0.31972397],
        "properties": { "magmom": 0.0 },
        "label": "P",
        "xyz": [2.1596392128479898, 8.56708579448765, 3.352973293998731]
      },
      {
        "species": [{ "element": "P", "occu": 1 }],
        "abc": [0.78344093, 0.62566868, 0.68027603],
        "properties": { "magmom": 0.0 },
        "label": "P",
        "xyz": [5.96932049784799, 6.130579035512349, 7.13411434600127]
      },
      {
        "species": [{ "element": "P", "occu": 1 }],
        "abc": [0.71655907, 0.37433132, 0.18027603],
        "properties": { "magmom": 0.0 },
        "label": "P",
        "xyz": [5.45972335715201, 3.6678641844876503, 1.8905705260012693]
      },
      {
        "species": [{ "element": "P", "occu": 1 }],
        "abc": [0.21655907, 0.12566868, 0.81972397],
        "properties": { "magmom": 0.0 },
        "label": "P",
        "xyz": [1.6500420721520097, 1.2313574255123496, 8.59651711399873]
      },
      {
        "species": [{ "element": "P", "occu": 1 }],
        "abc": [0.63773727, 0.04771267, 0.38890208],
        "properties": { "magmom": -0.0 },
        "label": "P",
        "xyz": [4.859151484531984, 0.46750988786959735, 4.0784501963382915]
      },
      {
        "species": [{ "element": "P", "occu": 1 }],
        "abc": [0.13773727, 0.45228733, 0.61109792],
        "properties": { "magmom": -0.0 },
        "label": "P",
        "xyz": [1.049470199531984, 4.4317117221304025, 6.408637443661709]
      },
      {
        "species": [{ "element": "P", "occu": 1 }],
        "abc": [0.36226273000000003, 0.54771267, 0.11109792],
        "properties": { "magmom": -0.0 },
        "label": "P",
        "xyz": [2.760211085468016, 5.366731497869597, 1.1650936236617089]
      },
      {
        "species": [{ "element": "P", "occu": 1 }],
        "abc": [0.86226273, 0.95228733, 0.88890208],
        "properties": { "magmom": -0.0 },
        "label": "P",
        "xyz": [6.569892370468016, 9.330933332130401, 9.321994016338293]
      },
      {
        "species": [{ "element": "P", "occu": 1 }],
        "abc": [0.53470942, 0.94273653, 0.56658074],
        "properties": { "magmom": -0.0 },
        "label": "P",
        "xyz": [4.074144940574409, 9.237350360624825, 5.941781875516054]
      },
      {
        "species": [{ "element": "P", "occu": 1 }],
        "abc": [0.03470942, 0.55726347, 0.43341926000000003],
        "properties": { "magmom": -0.0 },
        "label": "P",
        "xyz": [0.2644636555744094, 5.460314469375173, 4.545305764483947]
      },
      {
        "species": [{ "element": "P", "occu": 1 }],
        "abc": [0.46529058, 0.44273653, 0.93341926],
        "properties": { "magmom": -0.0 },
        "label": "P",
        "xyz": [3.5452176294255904, 4.3381287506248265, 9.788849584483946]
      },
      {
        "species": [{ "element": "P", "occu": 1 }],
        "abc": [0.96529058, 0.057263470000000004, 0.06658074],
        "properties": { "magmom": -0.0 },
        "label": "P",
        "xyz": [7.354898914425591, 0.5610928593751734, 0.6982380555160537]
      },
      {
        "species": [{ "element": "P", "occu": 1 }],
        "abc": [0.40726522, 0.13291758, 0.49627593000000003],
        "properties": { "magmom": 0.0 },
        "label": "P",
        "xyz": [3.1031013733308153, 1.3023853605698077, 5.204489171532506]
      },
      {
        "species": [{ "element": "P", "occu": 1 }],
        "abc": [0.90726522, 0.36708242, 0.50372407],
        "properties": { "magmom": 0.0 },
        "label": "P",
        "xyz": [6.912782658330815, 3.596836249430192, 5.282598468467494]
      },
      {
        "species": [{ "element": "P", "occu": 1 }],
        "abc": [0.59273478, 0.63291758, 0.00372407],
        "properties": { "magmom": 0.0 },
        "label": "P",
        "xyz": [4.516261196669185, 6.201606970569807, 0.0390546484674948]
      },
      {
        "species": [{ "element": "P", "occu": 1 }],
        "abc": [0.09273478, 0.86708242, 0.99627593],
        "properties": { "magmom": 0.0 },
        "label": "P",
        "xyz": [0.7065799116691847, 8.496057859430191, 10.448032991532505]
      },
      {
        "species": [{ "element": "P", "occu": 1 }],
        "abc": [0.31365041, 0.92871936, 0.88263992],
        "properties": { "magmom": -0.0 },
        "label": "P",
        "xyz": [2.389816194019154, 9.100003916274739, 9.25632219560259]
      },
      {
        "species": [{ "element": "P", "occu": 1 }],
        "abc": [0.81365041, 0.57128064, 0.11736008],
        "properties": { "magmom": -0.0 },
        "label": "P",
        "xyz": [6.199497479019154, 5.59766091372526, 1.2307654443974112]
      },
      {
        "species": [{ "element": "P", "occu": 1 }],
        "abc": [0.6863495900000001, 0.42871936, 0.61736008],
        "properties": { "magmom": -0.0 },
        "label": "P",
        "xyz": [5.2295463759808465, 4.200782306274739, 6.474309264397411]
      },
      {
        "species": [{ "element": "P", "occu": 1 }],
        "abc": [0.18634959, 0.07128064, 0.38263992],
        "properties": { "magmom": -0.0 },
        "label": "P",
        "xyz": [1.4198650909808463, 0.6984393037252609, 4.012778375602589]
      },
      {
        "species": [{ "element": "P", "occu": 1 }],
        "abc": [0.12533899, 0.21918635, 0.99579649],
        "properties": { "magmom": 0.0 },
        "label": "P",
        "xyz": [0.9550032089676044, 2.147685005074047, 10.443005062234384]
      },
      {
        "species": [{ "element": "P", "occu": 1 }],
        "abc": [0.62533899, 0.28081365, 0.00420351],
        "properties": { "magmom": 0.0 },
        "label": "P",
        "xyz": [4.7646844939676045, 2.751536604925953, 0.0440825777656164]
      },
      {
        "species": [{ "element": "P", "occu": 1 }],
        "abc": [0.8746610100000001, 0.71918635, 0.50420351],
        "properties": { "magmom": 0.0 },
        "label": "P",
        "xyz": [6.664359361032396, 7.046906615074047, 5.287626397765616]
      },
      {
        "species": [{ "element": "P", "occu": 1 }],
        "abc": [0.37466101, 0.78081365, 0.49579749],
        "properties": { "magmom": 0.0 },
        "label": "P",
        "xyz": [2.8546780760323958, 7.650758214925952, 5.199471729322024]
      },
      {
        "species": [{ "element": "P", "occu": 1 }],
        "abc": [0.96578081, 0.07039687, 0.73459587],
        "properties": { "magmom": 0.0 },
        "label": "P",
        "xyz": [7.358634154538282, 0.6897797335607213, 7.703771268672048]
      },
      {
        "species": [{ "element": "P", "occu": 1 }],
        "abc": [0.46578081, 0.42960313, 0.26540413],
        "properties": { "magmom": 0.0 },
        "label": "P",
        "xyz": [3.5489528695382817, 4.2094418764392785, 2.7833163713279534]
      },
      {
        "species": [{ "element": "P", "occu": 1 }],
        "abc": [0.034219190000000003, 0.5703968700000001, 0.7654041300000001],
        "properties": { "magmom": 0.0 },
        "label": "P",
        "xyz": [0.2607284154617183, 5.589001343560722, 8.026860191327954]
      },
      {
        "species": [{ "element": "P", "occu": 1 }],
        "abc": [0.5342191900000001, 0.92960313, 0.23459587],
        "properties": { "magmom": 0.0 },
        "label": "P",
        "xyz": [4.070409700461719, 9.108663486439278, 2.4602274486720472]
      }
    ]
  },
  "task_ids": null,
  "uncorrected_energy_per_atom": null,
  "energy_per_atom": -7.4435614385,
  "formation_energy_per_atom": -0.42609609608333104,
  "energy_above_hull": 0.0,
  "is_stable": true,
  "equilibrium_reaction_energy_per_atom": null,
  "decomposes_to": null,
  "xas": null,
  "grain_boundaries": null,
  "band_gap": 1.831999999999999,
  "cbm": null,
  "vbm": null,
  "efermi": 3.49564494,
  "is_gap_direct": null,
  "is_metal": null,
  "es_source_calc_id": null,
  "bandstructure": null,
  "dos": null,
  "dos_energy_up": null,
  "dos_energy_down": null,
  "is_magnetic": null,
  "ordering": null,
  "total_magnetization": 0.0,
  "total_magnetization_normalized_vol": null,
  "total_magnetization_normalized_formula_units": null,
  "num_magnetic_sites": null,
  "num_unique_magnetic_sites": null,
  "types_of_magnetic_species": null,
  "bulk_modulus": null,
  "shear_modulus": null,
  "universal_anisotropy": null,
  "homogeneous_poisson": null,
  "e_total": null,
  "e_ionic": null,
  "e_electronic": null,
  "n": null,
  "e_ij_max": null,
  "weighted_surface_energy_EV_PER_ANG2": null,
  "weighted_surface_energy": null,
  "weighted_work_function": null,
  "surface_anisotropy": null,
  "shape_factor": null,
  "has_reconstructed": null,
  "possible_species": null,
  "has_props": null,
  "theoretical": null,
  "database_IDs": null,
  "fields_not_requested": [
    "builder_meta",
    "nsites",
    "elements",
    "nelements",
    "composition",
    "composition_reduced",
    "chemsys",
    "symmetry",
    "property_name",
    "deprecated",
    "deprecation_reasons",
    "last_updated",
    "origins",
    "warnings",
    "task_ids",
    "uncorrected_energy_per_atom",
    "equilibrium_reaction_energy_per_atom",
    "decomposes_to",
    "xas",
    "grain_boundaries",
    "cbm",
    "vbm",
    "is_gap_direct",
    "is_metal",
    "es_source_calc_id",
    "bandstructure",
    "dos",
    "dos_energy_up",
    "dos_energy_down",
    "is_magnetic",
    "ordering",
    "total_magnetization_normalized_vol",
    "total_magnetization_normalized_formula_units",
    "num_magnetic_sites",
    "num_unique_magnetic_sites",
    "types_of_magnetic_species",
    "bulk_modulus",
    "shear_modulus",
    "universal_anisotropy",
    "homogeneous_poisson",
    "e_total",
    "e_ionic",
    "e_electronic",
    "n",
    "e_ij_max",
    "weighted_surface_energy_EV_PER_ANG2",
    "weighted_surface_energy",
    "weighted_work_function",
    "surface_anisotropy",
    "shape_factor",
    "has_reconstructed",
    "possible_species",
    "has_props",
    "theoretical",
    "database_IDs"
  ]
}
