{
  "builder_meta": null,
  "nsites": null,
  "elements": null,
  "nelements": null,
  "composition": null,
  "composition_reduced": null,
  "formula_pretty": "Li3Pm",
  "formula_anonymous": "AB3",
  "chemsys": null,
  "volume": 197.71409202296167,
  "density": 2.785391438955531,
  "density_atomic": 24.714261502870208,
  "symmetry": null,
  "property_name": null,
  "material_id": "mp-1185206",
  "deprecated": null,
  "deprecation_reasons": null,
  "last_updated": null,
  "origins": null,
  "warnings": null,
  "structure": {
    "@module": "pymatgen.core.structure",
    "@class": "Structure",
    "charge": 0,
    "lattice": {
      "matrix": [
        [3.352, -5.805834, 0.0],
        [3.352, 5.805834, 0.0],
        [0.0, 0.0, 5.079711]
      ],
      "pbc": [true, true, true],
      "a": 6.703999734155424,
      "b": 6.703999734155424,
      "c": 5.079711,
      "alpha": 90.0,
      "beta": 90.0,
      "gamma": 119.99999737647131,
      "volume": 197.71409202296167
    },
    "properties": {},
    "sites": [
      {
        "species": [{ "element": "Li", "occu": 1 }],
        "abc": [0.851900999999999, 0.148098999999999, 0.75],
        "properties": { "magmom": 0.01 },
        "label": "Li",
        "xyz": [3.351999999999993, -4.086157580868001, 3.8097832499999997]
      },
      {
        "species": [{ "element": "Li", "occu": 1 }],
        "abc": [0.296197, 0.148098999999999, 0.75],
        "properties": { "magmom": 0.009000000000000001 },
        "label": "Li",
        "xyz": [1.4892801919999965, -0.8598324037320058, 3.8097832499999997]
      },
      {
        "species": [{ "element": "Li", "occu": 1 }],
        "abc": [0.851900999999999, 0.703803, 0.75],
        "properties": { "magmom": 0.01 },
        "label": "Li",
        "xyz": [5.214719807999996, -0.8598324037319953, 3.8097832499999997]
      },
      {
        "species": [{ "element": "Li", "occu": 1 }],
        "abc": [0.148098999999999, 0.851900999999999, 0.25],
        "properties": { "magmom": 0.013000000000000001 },
        "label": "Li",
        "xyz": [3.351999999999993, 4.086157580868001, 1.26992775]
      },
      {
        "species": [{ "element": "Li", "occu": 1 }],
        "abc": [0.703803, 0.851900999999999, 0.25],
        "properties": { "magmom": 0.009000000000000001 },
        "label": "Li",
        "xyz": [5.214719807999996, 0.8598324037319953, 1.26992775]
      },
      {
        "species": [{ "element": "Li", "occu": 1 }],
        "abc": [0.148098999999999, 0.296197, 0.25],
        "properties": { "magmom": 0.012 },
        "label": "Li",
        "xyz": [1.4892801919999965, 0.8598324037320058, 1.26992775]
      },
      {
        "species": [{ "element": "Pm", "occu": 1 }],
        "abc": [0.666667, 0.333333, 0.25],
        "properties": { "magmom": 0.177 },
        "label": "Pm",
        "xyz": [3.352, -1.9352818705560002, 1.26992775]
      },
      {
        "species": [{ "element": "Pm", "occu": 1 }],
        "abc": [0.333333, 0.666667, 0.75],
        "properties": { "magmom": 0.17300000000000001 },
        "label": "Pm",
        "xyz": [3.352, 1.9352818705560002, 3.8097832499999997]
      }
    ]
  },
  "task_ids": null,
  "uncorrected_energy_per_atom": null,
  "energy_per_atom": -8.9752168275,
  "formation_energy_per_atom": 0.19996609812499902,
  "energy_above_hull": 0.19996609812499902,
  "is_stable": false,
  "equilibrium_reaction_energy_per_atom": null,
  "decomposes_to": null,
  "xas": null,
  "grain_boundaries": null,
  "band_gap": 0.0,
  "cbm": null,
  "vbm": null,
  "efermi": 0.87253777,
  "is_gap_direct": null,
  "is_metal": null,
  "es_source_calc_id": null,
  "bandstructure": null,
  "dos": null,
  "dos_energy_up": null,
  "dos_energy_down": null,
  "is_magnetic": null,
  "ordering": null,
  "total_magnetization": 1.123333,
  "total_magnetization_normalized_vol": null,
  "total_magnetization_normalized_formula_units": null,
  "num_magnetic_sites": null,
  "num_unique_magnetic_sites": null,
  "types_of_magnetic_species": null,
  "bulk_modulus": null,
  "shear_modulus": null,
  "universal_anisotropy": null,
  "homogeneous_poisson": null,
  "e_total": null,
  "e_ionic": null,
  "e_electronic": null,
  "n": null,
  "e_ij_max": null,
  "weighted_surface_energy_EV_PER_ANG2": null,
  "weighted_surface_energy": null,
  "weighted_work_function": null,
  "surface_anisotropy": null,
  "shape_factor": null,
  "has_reconstructed": null,
  "possible_species": null,
  "has_props": null,
  "theoretical": null,
  "database_IDs": null,
  "fields_not_requested": [
    "builder_meta",
    "nsites",
    "elements",
    "nelements",
    "composition",
    "composition_reduced",
    "chemsys",
    "symmetry",
    "property_name",
    "deprecated",
    "deprecation_reasons",
    "last_updated",
    "origins",
    "warnings",
    "task_ids",
    "uncorrected_energy_per_atom",
    "equilibrium_reaction_energy_per_atom",
    "decomposes_to",
    "xas",
    "grain_boundaries",
    "cbm",
    "vbm",
    "is_gap_direct",
    "is_metal",
    "es_source_calc_id",
    "bandstructure",
    "dos",
    "dos_energy_up",
    "dos_energy_down",
    "is_magnetic",
    "ordering",
    "total_magnetization_normalized_vol",
    "total_magnetization_normalized_formula_units",
    "num_magnetic_sites",
    "num_unique_magnetic_sites",
    "types_of_magnetic_species",
    "bulk_modulus",
    "shear_modulus",
    "universal_anisotropy",
    "homogeneous_poisson",
    "e_total",
    "e_ionic",
    "e_electronic",
    "n",
    "e_ij_max",
    "weighted_surface_energy_EV_PER_ANG2",
    "weighted_surface_energy",
    "weighted_work_function",
    "surface_anisotropy",
    "shape_factor",
    "has_reconstructed",
    "possible_species",
    "has_props",
    "theoretical",
    "database_IDs"
  ]
}
