{
  "builder_meta": null,
  "nsites": null,
  "elements": null,
  "nelements": null,
  "composition": null,
  "composition_reduced": null,
  "formula_pretty": "Li3Rh",
  "formula_anonymous": "AB3",
  "chemsys": null,
  "volume": 107.70987523299239,
  "density": 3.814989246944838,
  "density_atomic": 13.463734404124049,
  "symmetry": null,
  "property_name": null,
  "material_id": "mp-1185255",
  "deprecated": null,
  "deprecation_reasons": null,
  "last_updated": null,
  "origins": null,
  "warnings": null,
  "structure": {
    "@module": "pymatgen.core.structure",
    "@class": "Structure",
    "charge": 0,
    "lattice": {
      "matrix": [
        [2.64722551, -4.58512998, -0.0],
        [2.64722551, 4.58512998, -0.0],
        [-0.0, 0.0, 4.43693367]
      ],
      "pbc": [true, true, true],
      "a": 5.294451797333654,
      "b": 5.294451797333654,
      "c": 4.43693367,
      "alpha": 90.0,
      "beta": 90.0,
      "gamma": 120.00000971356077,
      "volume": 107.70987523299239
    },
    "properties": {},
    "sites": [
      {
        "species": [{ "element": "Li", "occu": 1 }],
        "abc": [0.17548707, 0.35097313, 0.25],
        "properties": { "magmom": -0.0 },
        "label": "Li",
        "xyz": [1.393658871439702, 0.8046263947780787, 1.1092334175]
      },
      {
        "species": [{ "element": "Li", "occu": 1 }],
        "abc": [0.64902687, 0.82451293, 0.25],
        "properties": { "magmom": -0.0 },
        "label": "Li",
        "xyz": [3.9007921485602983, 0.804626394778079, 1.1092334175]
      },
      {
        "species": [{ "element": "Li", "occu": 1 }],
        "abc": [0.17548707, 0.82451293, 0.25],
        "properties": { "magmom": -0.0 },
        "label": "Li",
        "xyz": [2.64722551, 2.975867928481283, 1.1092334175]
      },
      {
        "species": [{ "element": "Li", "occu": 1 }],
        "abc": [0.82451293, 0.64902687, 0.75],
        "properties": { "magmom": -0.0 },
        "label": "Li",
        "xyz": [3.9007921485602983, -0.804626394778079, 3.3277002525]
      },
      {
        "species": [{ "element": "Li", "occu": 1 }],
        "abc": [0.35097313, 0.17548707, 0.75],
        "properties": { "magmom": -0.0 },
        "label": "Li",
        "xyz": [1.393658871439702, -0.8046263947780787, 3.3277002525]
      },
      {
        "species": [{ "element": "Li", "occu": 1 }],
        "abc": [0.82451293, 0.17548707, 0.75],
        "properties": { "magmom": -0.0 },
        "label": "Li",
        "xyz": [2.64722551, -2.975867928481283, 3.3277002525]
      },
      {
        "species": [{ "element": "Rh", "occu": 1 }],
        "abc": [0.333333, 0.666667, 0.75],
        "properties": { "magmom": 0.0 },
        "label": "Rh",
        "xyz": [2.64722551, 1.52837971675332, 3.3277002525]
      },
      {
        "species": [{ "element": "Rh", "occu": 1 }],
        "abc": [0.666667, 0.333333, 0.25],
        "properties": { "magmom": 0.0 },
        "label": "Rh",
        "xyz": [2.64722551, -1.52837971675332, 1.1092334175]
      }
    ]
  },
  "task_ids": null,
  "uncorrected_energy_per_atom": null,
  "energy_per_atom": -7.8474258487499995,
  "formation_energy_per_atom": -0.023338881249999003,
  "energy_above_hull": 0.06966428791666601,
  "is_stable": false,
  "equilibrium_reaction_energy_per_atom": null,
  "decomposes_to": null,
  "xas": null,
  "grain_boundaries": null,
  "band_gap": 0.0,
  "cbm": null,
  "vbm": null,
  "efermi": 1.43028879,
  "is_gap_direct": null,
  "is_metal": null,
  "es_source_calc_id": null,
  "bandstructure": null,
  "dos": null,
  "dos_energy_up": null,
  "dos_energy_down": null,
  "is_magnetic": null,
  "ordering": null,
  "total_magnetization": 0.0,
  "total_magnetization_normalized_vol": null,
  "total_magnetization_normalized_formula_units": null,
  "num_magnetic_sites": null,
  "num_unique_magnetic_sites": null,
  "types_of_magnetic_species": null,
  "bulk_modulus": null,
  "shear_modulus": null,
  "universal_anisotropy": null,
  "homogeneous_poisson": null,
  "e_total": null,
  "e_ionic": null,
  "e_electronic": null,
  "n": null,
  "e_ij_max": null,
  "weighted_surface_energy_EV_PER_ANG2": null,
  "weighted_surface_energy": null,
  "weighted_work_function": null,
  "surface_anisotropy": null,
  "shape_factor": null,
  "has_reconstructed": null,
  "possible_species": null,
  "has_props": null,
  "theoretical": null,
  "database_IDs": null,
  "fields_not_requested": [
    "builder_meta",
    "nsites",
    "elements",
    "nelements",
    "composition",
    "composition_reduced",
    "chemsys",
    "symmetry",
    "property_name",
    "deprecated",
    "deprecation_reasons",
    "last_updated",
    "origins",
    "warnings",
    "task_ids",
    "uncorrected_energy_per_atom",
    "equilibrium_reaction_energy_per_atom",
    "decomposes_to",
    "xas",
    "grain_boundaries",
    "cbm",
    "vbm",
    "is_gap_direct",
    "is_metal",
    "es_source_calc_id",
    "bandstructure",
    "dos",
    "dos_energy_up",
    "dos_energy_down",
    "is_magnetic",
    "ordering",
    "total_magnetization_normalized_vol",
    "total_magnetization_normalized_formula_units",
    "num_magnetic_sites",
    "num_unique_magnetic_sites",
    "types_of_magnetic_species",
    "bulk_modulus",
    "shear_modulus",
    "universal_anisotropy",
    "homogeneous_poisson",
    "e_total",
    "e_ionic",
    "e_electronic",
    "n",
    "e_ij_max",
    "weighted_surface_energy_EV_PER_ANG2",
    "weighted_surface_energy",
    "weighted_work_function",
    "surface_anisotropy",
    "shape_factor",
    "has_reconstructed",
    "possible_species",
    "has_props",
    "theoretical",
    "database_IDs"
  ]
}
