{"builder_meta": null, "nsites": null, "elements": null, "nelements": null, "composition": null, "composition_reduced": null, "formula_pretty": "Li3Sb", "formula_anonymous": "AB3", "chemsys": null, "volume": 156.9780330499643, "density": 3.016532149535449, "density_atomic": 19.622254131245537, "symmetry": null, "property_name": null, "material_id": "mp-7955", "deprecated": null, "deprecation_reasons": null, "last_updated": null, "origins": null, "warnings": null, "structure": {"@module": "pymatgen.core.structure", "@class": "Structure", "charge": 0, "lattice": {"matrix": [[4.67231893, 0.0, 0.0], [-2.33615846, 4.04634623, 0.0], [-0.0, -0.0, 8.30315915]], "pbc": [true, true, true], "a": 4.67231893, "b": 4.672317857687423, "c": 8.30315915, "alpha": 90.0, "beta": 90.0, "gamma": 119.99999336122882, "volume": 156.9780330499643}, "properties": {}, "sites": [{"species": [{"element": "Li", "occu": 1}], "abc": [0.333333, 0.666667, 0.91263067], "properties": {"magmom": -0.0}, "label": "Li", "xyz": [-1.6661591299982348e-06, 2.69756550211541, 7.577717698181131]}, {"species": [{"element": "Li", "occu": 1}], "abc": [0.666667, 0.333333, 0.41263067000000003], "properties": {"magmom": -0.0}, "label": "Li", "xyz": [2.33616213615913, 1.34878072788459, 3.426138123181131]}, {"species": [{"element": "Li", "occu": 1}], "abc": [-0.0, -0.0, 0.25], "properties": {"magmom": -0.0}, "label": "Li", "xyz": [0.0, 0.0, 2.0757897875]}, {"species": [{"element": "Li", "occu": 1}], "abc": [-0.0, -0.0, 0.75], "properties": {"magmom": -0.0}, "label": "Li", "xyz": [0.0, 0.0, 6.227369362500001]}, {"species": [{"element": "Li", "occu": 1}], "abc": [0.333333, 0.666667, 0.58736933], "properties": {"magmom": -0.0}, "label": "Li", "xyz": [-1.6661591299982348e-06, 2.69756550211541, 4.87702102681887]}, {"species": [{"element": "Li", "occu": 1}], "abc": [0.666667, 0.333333, 0.08736933], "properties": {"magmom": -0.0}, "label": "Li", "xyz": [2.33616213615913, 1.34878072788459, 0.7254414518188695]}, {"species": [{"element": "Sb", "occu": 1}], "abc": [0.666667, 0.333333, 0.75], "properties": {"magmom": -0.0}, "label": "Sb", "xyz": [2.33616213615913, 1.34878072788459, 6.227369362500001]}, {"species": [{"element": "Sb", "occu": 1}], "abc": [0.333333, 0.666667, 0.25], "properties": {"magmom": -0.0}, "label": "Sb", "xyz": [-1.6661591299982348e-06, 2.69756550211541, 2.0757897875]}]}, "task_ids": null, "uncorrected_energy_per_atom": null, "energy_per_atom": -8.96872171, "formation_energy_per_atom": -0.7521129675, "energy_above_hull": 0.0, "is_stable": true, "equilibrium_reaction_energy_per_atom": null, "decomposes_to": null, "xas": null, "grain_boundaries": null, "band_gap": 0.48330000000000006, "cbm": null, "vbm": null, "efermi": 2.34408978, "is_gap_direct": null, "is_metal": null, "es_source_calc_id": null, "bandstructure": null, "dos": null, "dos_energy_up": null, "dos_energy_down": null, "is_magnetic": null, "ordering": null, "total_magnetization": 0.0, "total_magnetization_normalized_vol": null, "total_magnetization_normalized_formula_units": null, "num_magnetic_sites": null, "num_unique_magnetic_sites": null, "types_of_magnetic_species": null, "bulk_modulus": null, "shear_modulus": null, "universal_anisotropy": null, "homogeneous_poisson": null, "e_total": null, "e_ionic": null, "e_electronic": null, "n": null, "e_ij_max": null, "weighted_surface_energy_EV_PER_ANG2": null, "weighted_surface_energy": null, "weighted_work_function": null, "surface_anisotropy": null, "shape_factor": null, "has_reconstructed": null, "possible_species": null, "has_props": null, "theoretical": null, "database_IDs": null, "fields_not_requested": ["builder_meta", "nsites", "elements", "nelements", "composition", "composition_reduced", "chemsys", "symmetry", "property_name", "deprecated", "deprecation_reasons", "last_updated", "origins", "warnings", "task_ids", "uncorrected_energy_per_atom", "equilibrium_reaction_energy_per_atom", "decomposes_to", "xas", "grain_boundaries", "cbm", "vbm", "is_gap_direct", "is_metal", "es_source_calc_id", "bandstructure", "dos", "dos_energy_up", "dos_energy_down", "is_magnetic", "ordering", "total_magnetization_normalized_vol", "total_magnetization_normalized_formula_units", "num_magnetic_sites", "num_unique_magnetic_sites", "types_of_magnetic_species", "bulk_modulus", "shear_modulus", "universal_anisotropy", "homogeneous_poisson", "e_total", "e_ionic", "e_electronic", "n", "e_ij_max", "weighted_surface_energy_EV_PER_ANG2", "weighted_surface_energy", "weighted_work_function", "surface_anisotropy", "shape_factor", "has_reconstructed", "possible_species", "has_props", "theoretical", "database_IDs"]}