{
  "builder_meta": null,
  "nsites": null,
  "elements": null,
  "nelements": null,
  "composition": null,
  "composition_reduced": null,
  "formula_pretty": "Li3Sm",
  "formula_anonymous": "AB3",
  "chemsys": null,
  "volume": 195.93023468543518,
  "density": 2.901604844134027,
  "density_atomic": 24.491279335679398,
  "symmetry": null,
  "property_name": null,
  "material_id": "mp-1185272",
  "deprecated": null,
  "deprecation_reasons": null,
  "last_updated": null,
  "origins": null,
  "warnings": null,
  "structure": {
    "@module": "pymatgen.core.structure",
    "@class": "Structure",
    "charge": 0,
    "lattice": {
      "matrix": [
        [3.337385, -5.780521, 0.0],
        [3.337385, 5.780521, 0.0],
        [0.0, 0.0, 5.078064]
      ],
      "pbc": [true, true, true],
      "a": 6.6747705331094345,
      "b": 6.6747705331094345,
      "c": 5.078064,
      "alpha": 90.0,
      "beta": 90.0,
      "gamma": 120.00000528411212,
      "volume": 195.93023468543518
    },
    "properties": {},
    "sites": [
      {
        "species": [{ "element": "Li", "occu": 1 }],
        "abc": [0.70308, 0.8515400000000001, 0.25],
        "properties": { "magmom": 0.009000000000000001 },
        "label": "Li",
        "xyz": [5.1883654687, 0.8581761476600009, 1.269516]
      },
      {
        "species": [{ "element": "Li", "occu": 1 }],
        "abc": [0.14846, 0.29692, 0.25],
        "properties": { "magmom": 0.012 },
        "label": "Li",
        "xyz": [1.4864045313, 0.85817614766, 1.269516]
      },
      {
        "species": [{ "element": "Li", "occu": 1 }],
        "abc": [0.8515400000000001, 0.14846, 0.75],
        "properties": { "magmom": 0.011 },
        "label": "Li",
        "xyz": [3.3373850000000003, -4.064168704680001, 3.808548]
      },
      {
        "species": [{ "element": "Li", "occu": 1 }],
        "abc": [0.14846, 0.8515400000000001, 0.25],
        "properties": { "magmom": 0.013000000000000001 },
        "label": "Li",
        "xyz": [3.3373850000000003, 4.064168704680001, 1.269516]
      },
      {
        "species": [{ "element": "Li", "occu": 1 }],
        "abc": [0.8515400000000001, 0.70308, 0.75],
        "properties": { "magmom": 0.01 },
        "label": "Li",
        "xyz": [5.1883654687, -0.8581761476600009, 3.808548]
      },
      {
        "species": [{ "element": "Li", "occu": 1 }],
        "abc": [0.29692, 0.14846, 0.75],
        "properties": { "magmom": 0.009000000000000001 },
        "label": "Li",
        "xyz": [1.4864045313, -0.85817614766, 3.808548]
      },
      {
        "species": [{ "element": "Sm", "occu": 1 }],
        "abc": [0.333333, 0.666667, 0.75],
        "properties": { "magmom": 0.163 },
        "label": "Sm",
        "xyz": [3.3373849999999994, 1.926844187014, 3.808548]
      },
      {
        "species": [{ "element": "Sm", "occu": 1 }],
        "abc": [0.666667, 0.333333, 0.25],
        "properties": { "magmom": 0.166 },
        "label": "Sm",
        "xyz": [3.3373849999999994, -1.926844187014, 1.269516]
      }
    ]
  },
  "task_ids": null,
  "uncorrected_energy_per_atom": null,
  "energy_per_atom": -9.02067007625,
  "formation_energy_per_atom": 0.20259081374999902,
  "energy_above_hull": 0.20259081374999902,
  "is_stable": false,
  "equilibrium_reaction_energy_per_atom": null,
  "decomposes_to": null,
  "xas": null,
  "grain_boundaries": null,
  "band_gap": 0.0,
  "cbm": null,
  "vbm": null,
  "efermi": 0.8321168800000001,
  "is_gap_direct": null,
  "is_metal": null,
  "es_source_calc_id": null,
  "bandstructure": null,
  "dos": null,
  "dos_energy_up": null,
  "dos_energy_down": null,
  "is_magnetic": null,
  "ordering": null,
  "total_magnetization": 1.0892057,
  "total_magnetization_normalized_vol": null,
  "total_magnetization_normalized_formula_units": null,
  "num_magnetic_sites": null,
  "num_unique_magnetic_sites": null,
  "types_of_magnetic_species": null,
  "bulk_modulus": null,
  "shear_modulus": null,
  "universal_anisotropy": null,
  "homogeneous_poisson": null,
  "e_total": null,
  "e_ionic": null,
  "e_electronic": null,
  "n": null,
  "e_ij_max": null,
  "weighted_surface_energy_EV_PER_ANG2": null,
  "weighted_surface_energy": null,
  "weighted_work_function": null,
  "surface_anisotropy": null,
  "shape_factor": null,
  "has_reconstructed": null,
  "possible_species": null,
  "has_props": null,
  "theoretical": null,
  "database_IDs": null,
  "fields_not_requested": [
    "builder_meta",
    "nsites",
    "elements",
    "nelements",
    "composition",
    "composition_reduced",
    "chemsys",
    "symmetry",
    "property_name",
    "deprecated",
    "deprecation_reasons",
    "last_updated",
    "origins",
    "warnings",
    "task_ids",
    "uncorrected_energy_per_atom",
    "equilibrium_reaction_energy_per_atom",
    "decomposes_to",
    "xas",
    "grain_boundaries",
    "cbm",
    "vbm",
    "is_gap_direct",
    "is_metal",
    "es_source_calc_id",
    "bandstructure",
    "dos",
    "dos_energy_up",
    "dos_energy_down",
    "is_magnetic",
    "ordering",
    "total_magnetization_normalized_vol",
    "total_magnetization_normalized_formula_units",
    "num_magnetic_sites",
    "num_unique_magnetic_sites",
    "types_of_magnetic_species",
    "bulk_modulus",
    "shear_modulus",
    "universal_anisotropy",
    "homogeneous_poisson",
    "e_total",
    "e_ionic",
    "e_electronic",
    "n",
    "e_ij_max",
    "weighted_surface_energy_EV_PER_ANG2",
    "weighted_surface_energy",
    "weighted_work_function",
    "surface_anisotropy",
    "shape_factor",
    "has_reconstructed",
    "possible_species",
    "has_props",
    "theoretical",
    "database_IDs"
  ]
}
