{"builder_meta": null, "nsites": null, "elements": null, "nelements": null, "composition": null, "composition_reduced": null, "formula_pretty": "Li3Sc", "formula_anonymous": "AB3", "chemsys": null, "volume": 165.8789932775855, "density": 1.316965469541501, "density_atomic": 20.734874159698187, "symmetry": null, "property_name": null, "material_id": "mp-1185268", "deprecated": null, "deprecation_reasons": null, "last_updated": null, "origins": null, "warnings": null, "structure": {"@module": "pymatgen.core.structure", "@class": "Structure", "charge": 0, "lattice": {"matrix": [[3.115728, -5.396599, 0.0], [3.115728, 5.396599, 0.0], [0.0, 0.0, 4.932666]], "pbc": [true, true, true], "a": 6.231455828037699, "b": 6.231455828037699, "c": 4.932666, "alpha": 90.0, "beta": 90.0, "gamma": 119.99999817427344, "volume": 165.8789932775855}, "properties": {}, "sites": [{"species": [{"element": "Li", "occu": 1}], "abc": [0.160871, 0.321741, 0.25], "properties": {"magmom": 0.003}, "label": "Li", "xyz": [1.5036877215359998, 0.86815088113, 1.2331665]}, {"species": [{"element": "Li", "occu": 1}], "abc": [0.678259, 0.839129, 0.25], "properties": {"magmom": 0.004}, "label": "Li", "xyz": [4.727768278464, 0.8681508811300005, 1.2331665]}, {"species": [{"element": "Li", "occu": 1}], "abc": [0.160871, 0.839129, 0.25], "properties": {"magmom": 0.004}, "label": "Li", "xyz": [3.115728, 3.6602864445420007, 1.2331665]}, {"species": [{"element": "Li", "occu": 1}], "abc": [0.839129, 0.678259, 0.75], "properties": {"magmom": 0.004}, "label": "Li", "xyz": [4.727768278464, -0.8681508811300005, 3.6994995]}, {"species": [{"element": "Li", "occu": 1}], "abc": [0.321741, 0.160871, 0.75], "properties": {"magmom": 0.003}, "label": "Li", "xyz": [1.5036877215359998, -0.86815088113, 3.6994995]}, {"species": [{"element": "Li", "occu": 1}], "abc": [0.839129, 0.160871, 0.75], "properties": {"magmom": 0.004}, "label": "Li", "xyz": [3.115728, -3.6602864445420007, 3.6994995]}, {"species": [{"element": "Sc", "occu": 1}], "abc": [0.333333, 0.666667, 0.75], "properties": {"magmom": 0.07200000000000001}, "label": "Sc", "xyz": [3.115728, 1.7988699310660001, 3.6994995]}, {"species": [{"element": "Sc", "occu": 1}], "abc": [0.666667, 0.333333, 0.25], "properties": {"magmom": 0.07100000000000001}, "label": "Sc", "xyz": [3.115728, -1.7988699310660001, 1.2331665]}]}, "task_ids": null, "uncorrected_energy_per_atom": null, "energy_per_atom": -4.41754708625, "formation_energy_per_atom": 0.22210456250000002, "energy_above_hull": 0.22210456250000002, "is_stable": false, "equilibrium_reaction_energy_per_atom": null, "decomposes_to": null, "xas": null, "grain_boundaries": null, "band_gap": 0.0, "cbm": null, "vbm": null, "efermi": 0.92657219, "is_gap_direct": null, "is_metal": null, "es_source_calc_id": null, "bandstructure": null, "dos": null, "dos_energy_up": null, "dos_energy_down": null, "is_magnetic": null, "ordering": null, "total_magnetization": 0.3035944, "total_magnetization_normalized_vol": null, "total_magnetization_normalized_formula_units": null, "num_magnetic_sites": null, "num_unique_magnetic_sites": null, "types_of_magnetic_species": null, "bulk_modulus": null, "shear_modulus": null, "universal_anisotropy": null, "homogeneous_poisson": null, "e_total": null, "e_ionic": null, "e_electronic": null, "n": null, "e_ij_max": null, "weighted_surface_energy_EV_PER_ANG2": null, "weighted_surface_energy": null, "weighted_work_function": null, "surface_anisotropy": null, "shape_factor": null, "has_reconstructed": null, "possible_species": null, "has_props": null, "theoretical": null, "database_IDs": null, "fields_not_requested": ["builder_meta", "nsites", "elements", "nelements", "composition", "composition_reduced", "chemsys", "symmetry", "property_name", "deprecated", "deprecation_reasons", "last_updated", "origins", "warnings", "task_ids", "uncorrected_energy_per_atom", "equilibrium_reaction_energy_per_atom", "decomposes_to", "xas", "grain_boundaries", "cbm", "vbm", "is_gap_direct", "is_metal", "es_source_calc_id", "bandstructure", "dos", "dos_energy_up", "dos_energy_down", "is_magnetic", "ordering", "total_magnetization_normalized_vol", "total_magnetization_normalized_formula_units", "num_magnetic_sites", "num_unique_magnetic_sites", "types_of_magnetic_species", "bulk_modulus", "shear_modulus", "universal_anisotropy", "homogeneous_poisson", "e_total", "e_ionic", "e_electronic", "n", "e_ij_max", "weighted_surface_energy_EV_PER_ANG2", "weighted_surface_energy", "weighted_work_function", "surface_anisotropy", "shape_factor", "has_reconstructed", "possible_species", "has_props", "theoretical", "database_IDs"]}