{
  "builder_meta": null,
  "nsites": null,
  "elements": null,
  "nelements": null,
  "composition": null,
  "composition_reduced": null,
  "formula_pretty": "Li3Tb",
  "formula_anonymous": "AB3",
  "chemsys": null,
  "volume": 189.08713586658288,
  "density": 3.157054084763256,
  "density_atomic": 23.63589198332286,
  "symmetry": null,
  "property_name": null,
  "material_id": "mp-1185282",
  "deprecated": null,
  "deprecation_reasons": null,
  "last_updated": null,
  "origins": null,
  "warnings": null,
  "structure": {
    "@module": "pymatgen.core.structure",
    "@class": "Structure",
    "charge": 0,
    "lattice": {
      "matrix": [
        [3.289724, -5.6979679999999995, 0.0],
        [3.289724, 5.6979679999999995, 0.0],
        [0.0, 0.0, 5.043738]
      ],
      "pbc": [true, true, true],
      "a": 6.579447037950834,
      "b": 6.579447037950834,
      "c": 5.043738,
      "alpha": 90.0,
      "beta": 90.0,
      "gamma": 119.9999903261381,
      "volume": 189.08713586658286
    },
    "properties": {},
    "sites": [
      {
        "species": [{ "element": "Li", "occu": 1 }],
        "abc": [0.149669, 0.299338, 0.25],
        "properties": { "magmom": -0.011 },
        "label": "Li",
        "xyz": [1.477109104068, 0.852809172592, 1.2609345]
      },
      {
        "species": [{ "element": "Li", "occu": 1 }],
        "abc": [0.700662, 0.850331, 0.25],
        "properties": { "magmom": -0.007 },
        "label": "Li",
        "xyz": [5.102338895932, 0.852809172592, 1.2609345]
      },
      {
        "species": [{ "element": "Li", "occu": 1 }],
        "abc": [0.149669, 0.850331, 0.25],
        "properties": { "magmom": -0.011 },
        "label": "Li",
        "xyz": [3.289724, 3.9923496548159996, 1.2609345]
      },
      {
        "species": [{ "element": "Li", "occu": 1 }],
        "abc": [0.850331, 0.700662, 0.75],
        "properties": { "magmom": -0.01 },
        "label": "Li",
        "xyz": [5.102338895932, -0.852809172592, 3.7828035]
      },
      {
        "species": [{ "element": "Li", "occu": 1 }],
        "abc": [0.299338, 0.149669, 0.75],
        "properties": { "magmom": -0.007 },
        "label": "Li",
        "xyz": [1.477109104068, -0.852809172592, 3.7828035]
      },
      {
        "species": [{ "element": "Li", "occu": 1 }],
        "abc": [0.850331, 0.149669, 0.75],
        "properties": { "magmom": -0.009000000000000001 },
        "label": "Li",
        "xyz": [3.289724, -3.9923496548159996, 3.7828035]
      },
      {
        "species": [{ "element": "Tb", "occu": 1 }],
        "abc": [0.333333, 0.666667, 0.75],
        "properties": { "magmom": -0.183 },
        "label": "Tb",
        "xyz": [3.289724, 1.899326465312, 3.7828035]
      },
      {
        "species": [{ "element": "Tb", "occu": 1 }],
        "abc": [0.666667, 0.333333, 0.25],
        "properties": { "magmom": -0.187 },
        "label": "Tb",
        "xyz": [3.289724, -1.899326465312, 1.2609345]
      }
    ]
  },
  "task_ids": null,
  "uncorrected_energy_per_atom": null,
  "energy_per_atom": -9.38584701625,
  "formation_energy_per_atom": 0.21079133125000002,
  "energy_above_hull": 0.21079133125000002,
  "is_stable": false,
  "equilibrium_reaction_energy_per_atom": null,
  "decomposes_to": null,
  "xas": null,
  "grain_boundaries": null,
  "band_gap": 0.0,
  "cbm": null,
  "vbm": null,
  "efermi": 0.87151411,
  "is_gap_direct": null,
  "is_metal": null,
  "es_source_calc_id": null,
  "bandstructure": null,
  "dos": null,
  "dos_energy_up": null,
  "dos_energy_down": null,
  "is_magnetic": null,
  "ordering": null,
  "total_magnetization": 0.8600612,
  "total_magnetization_normalized_vol": null,
  "total_magnetization_normalized_formula_units": null,
  "num_magnetic_sites": null,
  "num_unique_magnetic_sites": null,
  "types_of_magnetic_species": null,
  "bulk_modulus": null,
  "shear_modulus": null,
  "universal_anisotropy": null,
  "homogeneous_poisson": null,
  "e_total": null,
  "e_ionic": null,
  "e_electronic": null,
  "n": null,
  "e_ij_max": null,
  "weighted_surface_energy_EV_PER_ANG2": null,
  "weighted_surface_energy": null,
  "weighted_work_function": null,
  "surface_anisotropy": null,
  "shape_factor": null,
  "has_reconstructed": null,
  "possible_species": null,
  "has_props": null,
  "theoretical": null,
  "database_IDs": null,
  "fields_not_requested": [
    "builder_meta",
    "nsites",
    "elements",
    "nelements",
    "composition",
    "composition_reduced",
    "chemsys",
    "symmetry",
    "property_name",
    "deprecated",
    "deprecation_reasons",
    "last_updated",
    "origins",
    "warnings",
    "task_ids",
    "uncorrected_energy_per_atom",
    "equilibrium_reaction_energy_per_atom",
    "decomposes_to",
    "xas",
    "grain_boundaries",
    "cbm",
    "vbm",
    "is_gap_direct",
    "is_metal",
    "es_source_calc_id",
    "bandstructure",
    "dos",
    "dos_energy_up",
    "dos_energy_down",
    "is_magnetic",
    "ordering",
    "total_magnetization_normalized_vol",
    "total_magnetization_normalized_formula_units",
    "num_magnetic_sites",
    "num_unique_magnetic_sites",
    "types_of_magnetic_species",
    "bulk_modulus",
    "shear_modulus",
    "universal_anisotropy",
    "homogeneous_poisson",
    "e_total",
    "e_ionic",
    "e_electronic",
    "n",
    "e_ij_max",
    "weighted_surface_energy_EV_PER_ANG2",
    "weighted_surface_energy",
    "weighted_work_function",
    "surface_anisotropy",
    "shape_factor",
    "has_reconstructed",
    "possible_species",
    "has_props",
    "theoretical",
    "database_IDs"
  ]
}
