{"builder_meta": null, "nsites": null, "elements": null, "nelements": null, "composition": null, "composition_reduced": null, "formula_pretty": "Li3Te", "formula_anonymous": "AB3", "chemsys": null, "volume": 153.36816017253489, "density": 3.213994216331587, "density_atomic": 19.17102002156686, "symmetry": null, "property_name": null, "material_id": "mp-1185280", "deprecated": null, "deprecation_reasons": null, "last_updated": null, "origins": null, "warnings": null, "structure": {"@module": "pymatgen.core.structure", "@class": "Structure", "charge": 0, "lattice": {"matrix": [[3.115032, -5.395394, 0.0], [3.115032, 5.395394, 0.0], [0.0, 0.0, 4.562675]], "pbc": [true, true, true], "a": 6.230064267426139, "b": 6.230064267426139, "c": 4.562675, "alpha": 90.0, "beta": 90.0, "gamma": 120.00000283990182, "volume": 153.36816017253489}, "properties": {}, "sites": [{"species": [{"element": "Li", "occu": 1}], "abc": [0.166789, 0.333578999999999, 0.25], "properties": {"magmom": 0.0}, "label": "Li", "xyz": [1.558662331775997, 0.8998977652599948, 1.14066875]}, {"species": [{"element": "Li", "occu": 1}], "abc": [0.666420999999999, 0.833210999999999, 0.25], "properties": {"magmom": 0.0}, "label": "Li", "xyz": [4.671401668223994, 0.89989776526, 1.14066875]}, {"species": [{"element": "Li", "occu": 1}], "abc": [0.166789, 0.833210999999999, 0.25], "properties": {"magmom": 0.0}, "label": "Li", "xyz": [3.1150319999999967, 3.5956092602679948, 1.14066875]}, {"species": [{"element": "Li", "occu": 1}], "abc": [0.833210999999999, 0.666420999999999, 0.75], "properties": {"magmom": 0.0}, "label": "Li", "xyz": [4.671401668223994, -0.89989776526, 3.42200625]}, {"species": [{"element": "Li", "occu": 1}], "abc": [0.333578999999999, 0.166789, 0.75], "properties": {"magmom": 0.0}, "label": "Li", "xyz": [1.558662331775997, -0.8998977652599948, 3.42200625]}, {"species": [{"element": "Li", "occu": 1}], "abc": [0.833210999999999, 0.166789, 0.75], "properties": {"magmom": 0.0}, "label": "Li", "xyz": [3.1150319999999967, -3.5956092602679948, 3.42200625]}, {"species": [{"element": "Te", "occu": 1}], "abc": [0.333333, 0.666667, 0.75], "properties": {"magmom": 0.0}, "label": "Te", "xyz": [3.115032, 1.7984682635959999, 3.42200625]}, {"species": [{"element": "Te", "occu": 1}], "abc": [0.666667, 0.333333, 0.25], "properties": {"magmom": 0.0}, "label": "Te", "xyz": [3.115032, -1.7984682635959999, 1.14066875]}]}, "task_ids": null, "uncorrected_energy_per_atom": null, "energy_per_atom": -3.03233668625, "formation_energy_per_atom": -0.814818062916666, "energy_above_hull": 0.06874713041666601, "is_stable": false, "equilibrium_reaction_energy_per_atom": null, "decomposes_to": null, "xas": null, "grain_boundaries": null, "band_gap": 0.0, "cbm": null, "vbm": null, "efermi": 3.79869014, "is_gap_direct": null, "is_metal": null, "es_source_calc_id": null, "bandstructure": null, "dos": null, "dos_energy_up": null, "dos_energy_down": null, "is_magnetic": null, "ordering": null, "total_magnetization": 0.0004124, "total_magnetization_normalized_vol": null, "total_magnetization_normalized_formula_units": null, "num_magnetic_sites": null, "num_unique_magnetic_sites": null, "types_of_magnetic_species": null, "bulk_modulus": null, "shear_modulus": null, "universal_anisotropy": null, "homogeneous_poisson": null, "e_total": null, "e_ionic": null, "e_electronic": null, "n": null, "e_ij_max": null, "weighted_surface_energy_EV_PER_ANG2": null, "weighted_surface_energy": null, "weighted_work_function": null, "surface_anisotropy": null, "shape_factor": null, "has_reconstructed": null, "possible_species": null, "has_props": null, "theoretical": null, "database_IDs": null, "fields_not_requested": ["builder_meta", "nsites", "elements", "nelements", "composition", "composition_reduced", "chemsys", "symmetry", "property_name", "deprecated", "deprecation_reasons", "last_updated", "origins", "warnings", "task_ids", "uncorrected_energy_per_atom", "equilibrium_reaction_energy_per_atom", "decomposes_to", "xas", "grain_boundaries", "cbm", "vbm", "is_gap_direct", "is_metal", "es_source_calc_id", "bandstructure", "dos", "dos_energy_up", "dos_energy_down", "is_magnetic", "ordering", "total_magnetization_normalized_vol", "total_magnetization_normalized_formula_units", "num_magnetic_sites", "num_unique_magnetic_sites", "types_of_magnetic_species", "bulk_modulus", "shear_modulus", "universal_anisotropy", "homogeneous_poisson", "e_total", "e_ionic", "e_electronic", "n", "e_ij_max", "weighted_surface_energy_EV_PER_ANG2", "weighted_surface_energy", "weighted_work_function", "surface_anisotropy", "shape_factor", "has_reconstructed", "possible_species", "has_props", "theoretical", "database_IDs"]}