{"builder_meta": null, "nsites": null, "elements": null, "nelements": null, "composition": null, "composition_reduced": null, "formula_pretty": "Li3Tm", "formula_anonymous": "AB3", "chemsys": null, "volume": 182.0763210274348, "density": 3.461177802758238, "density_atomic": 22.75954012842935, "symmetry": null, "property_name": null, "material_id": "mp-1185283", "deprecated": null, "deprecation_reasons": null, "last_updated": null, "origins": null, "warnings": null, "structure": {"@module": "pymatgen.core.structure", "@class": "Structure", "charge": 0, "lattice": {"matrix": [[3.237277, -5.607129, 0.0], [3.237277, 5.607129, 0.0], [0.0, 0.0, 5.015371]], "pbc": [true, true, true], "a": 6.474554656296447, "b": 6.474554656296447, "c": 5.015371, "alpha": 90.0, "beta": 90.0, "gamma": 120.00000670628714, "volume": 182.0763210274348}, "properties": {}, "sites": [{"species": [{"element": "Li", "occu": 1}], "abc": [0.153993, 0.307985, 0.25], "properties": {"magmom": 0.0}, "label": "Li", "xyz": [1.495550753906, 0.8634530089679999, 1.25384275]}, {"species": [{"element": "Li", "occu": 1}], "abc": [0.692014999999999, 0.846007, 0.25], "properties": {"magmom": 0.0}, "label": "Li", "xyz": [4.979003246093997, 0.8634530089680048, 1.25384275]}, {"species": [{"element": "Li", "occu": 1}], "abc": [0.153993, 0.846007, 0.25], "properties": {"magmom": -0.0}, "label": "Li", "xyz": [3.237277, 3.8802117678059993, 1.25384275]}, {"species": [{"element": "Li", "occu": 1}], "abc": [0.846007, 0.692014999999999, 0.75], "properties": {"magmom": 0.001}, "label": "Li", "xyz": [4.979003246093997, -0.8634530089680048, 3.76152825]}, {"species": [{"element": "Li", "occu": 1}], "abc": [0.307985, 0.153993, 0.75], "properties": {"magmom": 0.0}, "label": "Li", "xyz": [1.495550753906, -0.8634530089679999, 3.76152825]}, {"species": [{"element": "Li", "occu": 1}], "abc": [0.846007, 0.153993, 0.75], "properties": {"magmom": -0.0}, "label": "Li", "xyz": [3.237277, -3.8802117678059993, 3.76152825]}, {"species": [{"element": "Tm", "occu": 1}], "abc": [0.333333, 0.666667, 0.75], "properties": {"magmom": 0.008}, "label": "Tm", "xyz": [3.2372770000000006, 1.869046738086, 3.76152825]}, {"species": [{"element": "Tm", "occu": 1}], "abc": [0.666667, 0.333333, 0.25], "properties": {"magmom": 0.007}, "label": "Tm", "xyz": [3.2372770000000006, -1.869046738086, 1.25384275]}]}, "task_ids": null, "uncorrected_energy_per_atom": null, "energy_per_atom": -10.356833682916667, "formation_energy_per_atom": 0.213458199583332, "energy_above_hull": 0.213458199583332, "is_stable": false, "equilibrium_reaction_energy_per_atom": null, "decomposes_to": null, "xas": null, "grain_boundaries": null, "band_gap": 0.0, "cbm": null, "vbm": null, "efermi": 0.7886292500000001, "is_gap_direct": null, "is_metal": null, "es_source_calc_id": null, "bandstructure": null, "dos": null, "dos_energy_up": null, "dos_energy_down": null, "is_magnetic": null, "ordering": null, "total_magnetization": 0.0320364, "total_magnetization_normalized_vol": null, "total_magnetization_normalized_formula_units": null, "num_magnetic_sites": null, "num_unique_magnetic_sites": null, "types_of_magnetic_species": null, "bulk_modulus": null, "shear_modulus": null, "universal_anisotropy": null, "homogeneous_poisson": null, "e_total": null, "e_ionic": null, "e_electronic": null, "n": null, "e_ij_max": null, "weighted_surface_energy_EV_PER_ANG2": null, "weighted_surface_energy": null, "weighted_work_function": null, "surface_anisotropy": null, "shape_factor": null, "has_reconstructed": null, "possible_species": null, "has_props": null, "theoretical": null, "database_IDs": null, "fields_not_requested": ["builder_meta", "nsites", "elements", "nelements", "composition", "composition_reduced", "chemsys", "symmetry", "property_name", "deprecated", "deprecation_reasons", "last_updated", "origins", "warnings", "task_ids", "uncorrected_energy_per_atom", "equilibrium_reaction_energy_per_atom", "decomposes_to", "xas", "grain_boundaries", "cbm", "vbm", "is_gap_direct", "is_metal", "es_source_calc_id", "bandstructure", "dos", "dos_energy_up", "dos_energy_down", "is_magnetic", "ordering", "total_magnetization_normalized_vol", "total_magnetization_normalized_formula_units", "num_magnetic_sites", "num_unique_magnetic_sites", "types_of_magnetic_species", "bulk_modulus", "shear_modulus", "universal_anisotropy", "homogeneous_poisson", "e_total", "e_ionic", "e_electronic", "n", "e_ij_max", "weighted_surface_energy_EV_PER_ANG2", "weighted_surface_energy", "weighted_work_function", "surface_anisotropy", "shape_factor", "has_reconstructed", "possible_species", "has_props", "theoretical", "database_IDs"]}