{
  "builder_meta": null,
  "nsites": null,
  "elements": null,
  "nelements": null,
  "composition": null,
  "composition_reduced": null,
  "formula_pretty": "Li3Yb",
  "formula_anonymous": "AB3",
  "chemsys": null,
  "volume": 180.70012267085573,
  "density": 3.562997969344447,
  "density_atomic": 22.587515333856967,
  "symmetry": null,
  "property_name": null,
  "material_id": "mp-1185296",
  "deprecated": null,
  "deprecation_reasons": null,
  "last_updated": null,
  "origins": null,
  "warnings": null,
  "structure": {
    "@module": "pymatgen.core.structure",
    "@class": "Structure",
    "charge": 0.0,
    "lattice": {
      "matrix": [
        [3.221595403120052, -5.579967094386459, -0.0],
        [3.221595403120052, 5.579967094386459, 0.0],
        [0.0, 0.0, 5.026038568708105]
      ],
      "pbc": [true, true, true],
      "a": 6.443190957579941,
      "b": 6.443190957579941,
      "c": 5.026038568708105,
      "alpha": 90.0,
      "beta": 90.0,
      "gamma": 120.00000155397582,
      "volume": 180.70012267085573
    },
    "properties": {},
    "sites": [
      {
        "species": [{ "element": "Li", "occu": 1 }],
        "abc": [0.15690865403323, 0.313817308070717, 0.25],
        "properties": { "magmom": 0.0 },
        "label": "Li",
        "xyz": [1.5164885956433396, 0.8755451263536466, 1.2565096421770263]
      },
      {
        "species": [{ "element": "Li", "occu": 1 }],
        "abc": [0.686182691929282, 0.843091345966769, 0.25],
        "properties": { "magmom": 0.0 },
        "label": "Li",
        "xyz": [4.926702210596758, 0.875545126353646, 1.2565096421770263]
      },
      {
        "species": [{ "element": "Li", "occu": 1 }],
        "abc": [0.15690865403748602, 0.8430913459625131, 0.25],
        "properties": { "magmom": 0.0 },
        "label": "Li",
        "xyz": [3.2215954031200495, 3.8288768416791727, 1.2565096421770263]
      },
      {
        "species": [{ "element": "Li", "occu": 1 }],
        "abc": [0.843091345966769, 0.686182691929282, 0.75],
        "properties": { "magmom": 0.0 },
        "label": "Li",
        "xyz": [4.926702210596758, -0.875545126353646, 3.7695289265310787]
      },
      {
        "species": [{ "element": "Li", "occu": 1 }],
        "abc": [0.313817308070717, 0.15690865403323, 0.75],
        "properties": { "magmom": 0.0 },
        "label": "Li",
        "xyz": [1.5164885956433396, -0.8755451263536466, 3.7695289265310787]
      },
      {
        "species": [{ "element": "Li", "occu": 1 }],
        "abc": [0.8430913459625131, 0.15690865403748602, 0.75],
        "properties": { "magmom": 0.0 },
        "label": "Li",
        "xyz": [3.2215954031200495, -3.8288768416791727, 3.7695289265310787]
      },
      {
        "species": [{ "element": "Yb", "occu": 1 }],
        "abc": [0.33333300000000304, 0.666666999999996, 0.75],
        "properties": { "magmom": 0.003 },
        "label": "Yb",
        "xyz": [3.221595403120049, 1.8599927514401768, 3.7695289265310787]
      },
      {
        "species": [{ "element": "Yb", "occu": 1 }],
        "abc": [0.666666999999996, 0.33333300000000304, 0.25],
        "properties": { "magmom": 0.003 },
        "label": "Yb",
        "xyz": [3.221595403120049, -1.8599927514401768, 1.2565096421770263]
      }
    ]
  },
  "task_ids": null,
  "uncorrected_energy_per_atom": null,
  "energy_per_atom": -10.70420542375,
  "formation_energy_per_atom": 0.21816908249999903,
  "energy_above_hull": 0.21816908249999903,
  "is_stable": false,
  "equilibrium_reaction_energy_per_atom": null,
  "decomposes_to": null,
  "xas": null,
  "grain_boundaries": null,
  "band_gap": 0.0,
  "cbm": null,
  "vbm": null,
  "efermi": 1.19081387,
  "is_gap_direct": null,
  "is_metal": null,
  "es_source_calc_id": null,
  "bandstructure": null,
  "dos": null,
  "dos_energy_up": null,
  "dos_energy_down": null,
  "is_magnetic": null,
  "ordering": null,
  "total_magnetization": 0.009697599999999001,
  "total_magnetization_normalized_vol": null,
  "total_magnetization_normalized_formula_units": null,
  "num_magnetic_sites": null,
  "num_unique_magnetic_sites": null,
  "types_of_magnetic_species": null,
  "bulk_modulus": null,
  "shear_modulus": null,
  "universal_anisotropy": null,
  "homogeneous_poisson": null,
  "e_total": null,
  "e_ionic": null,
  "e_electronic": null,
  "n": null,
  "e_ij_max": null,
  "weighted_surface_energy_EV_PER_ANG2": null,
  "weighted_surface_energy": null,
  "weighted_work_function": null,
  "surface_anisotropy": null,
  "shape_factor": null,
  "has_reconstructed": null,
  "possible_species": null,
  "has_props": null,
  "theoretical": null,
  "database_IDs": null,
  "fields_not_requested": [
    "builder_meta",
    "nsites",
    "elements",
    "nelements",
    "composition",
    "composition_reduced",
    "chemsys",
    "symmetry",
    "property_name",
    "deprecated",
    "deprecation_reasons",
    "last_updated",
    "origins",
    "warnings",
    "task_ids",
    "uncorrected_energy_per_atom",
    "equilibrium_reaction_energy_per_atom",
    "decomposes_to",
    "xas",
    "grain_boundaries",
    "cbm",
    "vbm",
    "is_gap_direct",
    "is_metal",
    "es_source_calc_id",
    "bandstructure",
    "dos",
    "dos_energy_up",
    "dos_energy_down",
    "is_magnetic",
    "ordering",
    "total_magnetization_normalized_vol",
    "total_magnetization_normalized_formula_units",
    "num_magnetic_sites",
    "num_unique_magnetic_sites",
    "types_of_magnetic_species",
    "bulk_modulus",
    "shear_modulus",
    "universal_anisotropy",
    "homogeneous_poisson",
    "e_total",
    "e_ionic",
    "e_electronic",
    "n",
    "e_ij_max",
    "weighted_surface_energy_EV_PER_ANG2",
    "weighted_surface_energy",
    "weighted_work_function",
    "surface_anisotropy",
    "shape_factor",
    "has_reconstructed",
    "possible_species",
    "has_props",
    "theoretical",
    "database_IDs"
  ]
}
