{
  "builder_meta": null,
  "nsites": null,
  "elements": null,
  "nelements": null,
  "composition": null,
  "composition_reduced": null,
  "formula_pretty": "Li3Y",
  "formula_anonymous": "AB3",
  "chemsys": null,
  "volume": 186.5315430950369,
  "density": 1.953653941148782,
  "density_atomic": 23.316442886879614,
  "symmetry": null,
  "property_name": null,
  "material_id": "mp-1185289",
  "deprecated": null,
  "deprecation_reasons": null,
  "last_updated": null,
  "origins": null,
  "warnings": null,
  "structure": {
    "@module": "pymatgen.core.structure",
    "@class": "Structure",
    "charge": 0,
    "lattice": {
      "matrix": [
        [3.284047, -5.688136, 0.0],
        [3.284047, 5.688136, 0.0],
        [0.0, 0.0, 4.992786]
      ],
      "pbc": [true, true, true],
      "a": 6.568093776180803,
      "b": 6.568093776180803,
      "c": 4.992786,
      "alpha": 90.0,
      "beta": 90.0,
      "gamma": 119.99999774550128,
      "volume": 186.5315430950369
    },
    "properties": {},
    "sites": [
      {
        "species": [{ "element": "Li", "occu": 1 }],
        "abc": [0.14976899999999901, 0.299539, 0.25],
        "properties": { "magmom": 0.014 },
        "label": "Li",
        "xyz": [1.4755485894759968, 0.8519121287200055, 1.2481965]
      },
      {
        "species": [{ "element": "Li", "occu": 1 }],
        "abc": [0.700461, 0.850231, 0.25],
        "properties": { "magmom": 0.01 },
        "label": "Li",
        "xyz": [5.092545410524, 0.85191212872, 1.2481965]
      },
      {
        "species": [{ "element": "Li", "occu": 1 }],
        "abc": [0.14976899999999901, 0.850231, 0.25],
        "properties": { "magmom": 0.014 },
        "label": "Li",
        "xyz": [3.2840469999999966, 3.9843231188320054, 1.2481965]
      },
      {
        "species": [{ "element": "Li", "occu": 1 }],
        "abc": [0.850231, 0.700461, 0.75],
        "properties": { "magmom": 0.014 },
        "label": "Li",
        "xyz": [5.092545410524, -0.85191212872, 3.7445895]
      },
      {
        "species": [{ "element": "Li", "occu": 1 }],
        "abc": [0.299539, 0.14976899999999901, 0.75],
        "properties": { "magmom": 0.01 },
        "label": "Li",
        "xyz": [1.4755485894759968, -0.8519121287200055, 3.7445895]
      },
      {
        "species": [{ "element": "Li", "occu": 1 }],
        "abc": [0.850231, 0.14976899999999901, 0.75],
        "properties": { "magmom": 0.014 },
        "label": "Li",
        "xyz": [3.2840469999999966, -3.9843231188320054, 3.7445895]
      },
      {
        "species": [{ "element": "Y", "occu": 1 }],
        "abc": [0.333333, 0.666667, 0.75],
        "properties": { "magmom": 0.17 },
        "label": "Y",
        "xyz": [3.284047, 1.896049125424, 3.7445895]
      },
      {
        "species": [{ "element": "Y", "occu": 1 }],
        "abc": [0.666667, 0.333333, 0.25],
        "properties": { "magmom": 0.17 },
        "label": "Y",
        "xyz": [3.284047, -1.896049125424, 1.2481965]
      }
    ]
  },
  "task_ids": null,
  "uncorrected_energy_per_atom": null,
  "energy_per_atom": -6.685404935416667,
  "formation_energy_per_atom": 0.183025114583332,
  "energy_above_hull": 0.183025114583332,
  "is_stable": false,
  "equilibrium_reaction_energy_per_atom": null,
  "decomposes_to": null,
  "xas": null,
  "grain_boundaries": null,
  "band_gap": 0.0,
  "cbm": null,
  "vbm": null,
  "efermi": 0.89306588,
  "is_gap_direct": null,
  "is_metal": null,
  "es_source_calc_id": null,
  "bandstructure": null,
  "dos": null,
  "dos_energy_up": null,
  "dos_energy_down": null,
  "is_magnetic": null,
  "ordering": null,
  "total_magnetization": 1.0446216,
  "total_magnetization_normalized_vol": null,
  "total_magnetization_normalized_formula_units": null,
  "num_magnetic_sites": null,
  "num_unique_magnetic_sites": null,
  "types_of_magnetic_species": null,
  "bulk_modulus": null,
  "shear_modulus": null,
  "universal_anisotropy": null,
  "homogeneous_poisson": null,
  "e_total": null,
  "e_ionic": null,
  "e_electronic": null,
  "n": null,
  "e_ij_max": null,
  "weighted_surface_energy_EV_PER_ANG2": null,
  "weighted_surface_energy": null,
  "weighted_work_function": null,
  "surface_anisotropy": null,
  "shape_factor": null,
  "has_reconstructed": null,
  "possible_species": null,
  "has_props": null,
  "theoretical": null,
  "database_IDs": null,
  "fields_not_requested": [
    "builder_meta",
    "nsites",
    "elements",
    "nelements",
    "composition",
    "composition_reduced",
    "chemsys",
    "symmetry",
    "property_name",
    "deprecated",
    "deprecation_reasons",
    "last_updated",
    "origins",
    "warnings",
    "task_ids",
    "uncorrected_energy_per_atom",
    "equilibrium_reaction_energy_per_atom",
    "decomposes_to",
    "xas",
    "grain_boundaries",
    "cbm",
    "vbm",
    "is_gap_direct",
    "is_metal",
    "es_source_calc_id",
    "bandstructure",
    "dos",
    "dos_energy_up",
    "dos_energy_down",
    "is_magnetic",
    "ordering",
    "total_magnetization_normalized_vol",
    "total_magnetization_normalized_formula_units",
    "num_magnetic_sites",
    "num_unique_magnetic_sites",
    "types_of_magnetic_species",
    "bulk_modulus",
    "shear_modulus",
    "universal_anisotropy",
    "homogeneous_poisson",
    "e_total",
    "e_ionic",
    "e_electronic",
    "n",
    "e_ij_max",
    "weighted_surface_energy_EV_PER_ANG2",
    "weighted_surface_energy",
    "weighted_work_function",
    "surface_anisotropy",
    "shape_factor",
    "has_reconstructed",
    "possible_species",
    "has_props",
    "theoretical",
    "database_IDs"
  ]
}
