{
  "builder_meta": null,
  "nsites": null,
  "elements": null,
  "nelements": null,
  "composition": null,
  "composition_reduced": null,
  "formula_pretty": "Li4Mg",
  "formula_anonymous": "AB4",
  "chemsys": null,
  "volume": 103.98870012639792,
  "density": 0.8314615775916071,
  "density_atomic": 20.797740025279584,
  "symmetry": null,
  "property_name": null,
  "material_id": "mp-1222419",
  "deprecated": null,
  "deprecation_reasons": null,
  "last_updated": null,
  "origins": null,
  "warnings": null,
  "structure": {
    "@module": "pymatgen.core.structure",
    "@class": "Structure",
    "charge": 0,
    "lattice": {
      "matrix": [
        [12.79189479, -1.5337365900000002, 0.03989448],
        [12.79189479, 1.5337365900000002, 0.03989448],
        [12.59973737, -0.0, 2.68944544]
      ],
      "pbc": [true, true, true],
      "a": 12.883575273015968,
      "b": 12.883575273015968,
      "c": 12.883574758882386,
      "alpha": 13.67408292455521,
      "beta": 13.67408292455521,
      "gamma": 13.674081934063397,
      "volume": 103.98870012639793
    },
    "properties": {},
    "sites": [
      {
        "species": [{ "element": "Li", "occu": 1 }],
        "abc": [0.59998615, 0.59998615, 0.59998615],
        "properties": { "magmom": -0.0 },
        "label": "Li",
        "xyz": [22.909587328151744, 0.0, 1.66150228610356]
      },
      {
        "species": [{ "element": "Li", "occu": 1 }],
        "abc": [0.19998519, 0.19998519, 0.19998519],
        "properties": { "magmom": -0.0 },
        "label": "Li",
        "xyz": [7.63613989196587, 0.0, 0.5538058676385361]
      },
      {
        "species": [{ "element": "Li", "occu": 1 }],
        "abc": [0.80001481, 0.80001481, 0.80001481],
        "properties": { "magmom": -0.0 },
        "label": "Li",
        "xyz": [30.547387058034126, 0.0, 2.215428532361464]
      },
      {
        "species": [{ "element": "Li", "occu": 1 }],
        "abc": [0.40001385, 0.40001385, 0.40001385],
        "properties": { "magmom": -0.0 },
        "label": "Li",
        "xyz": [15.273939621848257, 0.0, 1.1077321138964402]
      },
      {
        "species": [{ "element": "Mg", "occu": 1 }],
        "abc": [-0.0, -0.0, 0.0],
        "properties": { "magmom": 0.0 },
        "label": "Mg",
        "xyz": [0.0, 0.0, 0.0]
      }
    ]
  },
  "task_ids": null,
  "uncorrected_energy_per_atom": null,
  "energy_per_atom": -2.753216364,
  "formation_energy_per_atom": -0.009990516333333001,
  "energy_above_hull": 0.010894633,
  "is_stable": false,
  "equilibrium_reaction_energy_per_atom": null,
  "decomposes_to": null,
  "xas": null,
  "grain_boundaries": null,
  "band_gap": 0.0,
  "cbm": null,
  "vbm": null,
  "efermi": 0.51646119,
  "is_gap_direct": null,
  "is_metal": null,
  "es_source_calc_id": null,
  "bandstructure": null,
  "dos": null,
  "dos_energy_up": null,
  "dos_energy_down": null,
  "is_magnetic": null,
  "ordering": null,
  "total_magnetization": 6e-7,
  "total_magnetization_normalized_vol": null,
  "total_magnetization_normalized_formula_units": null,
  "num_magnetic_sites": null,
  "num_unique_magnetic_sites": null,
  "types_of_magnetic_species": null,
  "bulk_modulus": null,
  "shear_modulus": null,
  "universal_anisotropy": null,
  "homogeneous_poisson": null,
  "e_total": null,
  "e_ionic": null,
  "e_electronic": null,
  "n": null,
  "e_ij_max": null,
  "weighted_surface_energy_EV_PER_ANG2": null,
  "weighted_surface_energy": null,
  "weighted_work_function": null,
  "surface_anisotropy": null,
  "shape_factor": null,
  "has_reconstructed": null,
  "possible_species": null,
  "has_props": null,
  "theoretical": null,
  "database_IDs": null,
  "fields_not_requested": [
    "builder_meta",
    "nsites",
    "elements",
    "nelements",
    "composition",
    "composition_reduced",
    "chemsys",
    "symmetry",
    "property_name",
    "deprecated",
    "deprecation_reasons",
    "last_updated",
    "origins",
    "warnings",
    "task_ids",
    "uncorrected_energy_per_atom",
    "equilibrium_reaction_energy_per_atom",
    "decomposes_to",
    "xas",
    "grain_boundaries",
    "cbm",
    "vbm",
    "is_gap_direct",
    "is_metal",
    "es_source_calc_id",
    "bandstructure",
    "dos",
    "dos_energy_up",
    "dos_energy_down",
    "is_magnetic",
    "ordering",
    "total_magnetization_normalized_vol",
    "total_magnetization_normalized_formula_units",
    "num_magnetic_sites",
    "num_unique_magnetic_sites",
    "types_of_magnetic_species",
    "bulk_modulus",
    "shear_modulus",
    "universal_anisotropy",
    "homogeneous_poisson",
    "e_total",
    "e_ionic",
    "e_electronic",
    "n",
    "e_ij_max",
    "weighted_surface_energy_EV_PER_ANG2",
    "weighted_surface_energy",
    "weighted_work_function",
    "surface_anisotropy",
    "shape_factor",
    "has_reconstructed",
    "possible_species",
    "has_props",
    "theoretical",
    "database_IDs"
  ]
}
