{"builder_meta": null, "nsites": null, "elements": null, "nelements": null, "composition": null, "composition_reduced": null, "formula_pretty": "Li5B4", "formula_anonymous": "A4B5", "chemsys": null, "volume": 86.62769117735776, "density": 1.4941799549684291, "density_atomic": 9.625299019706418, "symmetry": null, "property_name": null, "material_id": "mp-632822", "deprecated": null, "deprecation_reasons": null, "last_updated": null, "origins": null, "warnings": null, "structure": {"@module": "pymatgen.core.structure", "@class": "Structure", "charge": 0, "lattice": {"matrix": [[3.432864, 3.324987, 0.0], [-3.432864, 3.324987, 0.0], [0.0, 0.423844, 3.794724]], "pbc": [true, true, true], "a": 4.779131070881505, "b": 4.779131070881505, "c": 3.8183208315321018, "alpha": 85.57075286680816, "beta": 85.57075286680816, "gamma": 91.82909385630742, "volume": 86.62769117735776}, "properties": {}, "sites": [{"species": [{"element": "Li", "occu": 1}], "abc": [0.570408, 0.570408, 0.711263], "properties": {"magmom": 0.0}, "label": "Li", "xyz": [0.0, 4.094662924364, 2.699046776412]}, {"species": [{"element": "Li", "occu": 1}], "abc": [0.388360999999999, 0.879128999999999, 0.23858000000000001], "properties": {"magmom": 0.0}, "label": "Li", "xyz": [-1.6847397995520002, 4.315508474149994, 0.90534525192]}, {"species": [{"element": "Li", "occu": 1}], "abc": [0.879128999999999, 0.388360999999999, 0.23858000000000001], "properties": {"magmom": 0.0}, "label": "Li", "xyz": [1.6847397995520002, 4.315508474149994, 0.90534525192]}, {"species": [{"element": "Li", "occu": 1}], "abc": [0.373743999999999, 0.373743999999999, 0.237047999999999], "properties": {"magmom": 0.0}, "label": "Li", "xyz": [0.0, 2.585859255167993, 0.8995317347519962]}, {"species": [{"element": "Li", "occu": 1}], "abc": [0.165348, 0.165348, 0.759037], "properties": {"magmom": 0.0}, "label": "Li", "xyz": [0.0, 1.42127317918, 2.8803359207879997]}, {"species": [{"element": "B", "occu": 1}], "abc": [0.849285, 0.849285, 0.970437], "properties": {"magmom": -0.0}, "label": "B", "xyz": [0.0, 6.059037068418, 3.6825405743879998]}, {"species": [{"element": "B", "occu": 1}], "abc": [0.657357, 0.078057, 0.723009], "properties": {"magmom": 0.0}, "label": "B", "xyz": [1.9886581152, 2.7516850162139996, 2.743619604516]}, {"species": [{"element": "B", "occu": 1}], "abc": [0.078057, 0.657357, 0.723009], "properties": {"magmom": 0.0}, "label": "B", "xyz": [-1.9886581152, 2.7516850162139996, 2.743619604516]}, {"species": [{"element": "B", "occu": 1}], "abc": [0.88831, 0.88831, 0.474035999999999], "properties": {"magmom": -0.0}, "label": "B", "xyz": [0.0, 6.108155718323999, 1.7988357860639963]}]}, "task_ids": null, "uncorrected_energy_per_atom": null, "energy_per_atom": -4.443824292962962, "formation_energy_per_atom": 0.14717002444444402, "energy_above_hull": 0.346892746296296, "is_stable": false, "equilibrium_reaction_energy_per_atom": null, "decomposes_to": null, "xas": null, "grain_boundaries": null, "band_gap": 0.0, "cbm": null, "vbm": null, "efermi": 2.62708303, "is_gap_direct": null, "is_metal": null, "es_source_calc_id": null, "bandstructure": null, "dos": null, "dos_energy_up": null, "dos_energy_down": null, "is_magnetic": null, "ordering": null, "total_magnetization": 0.0008192, "total_magnetization_normalized_vol": null, "total_magnetization_normalized_formula_units": null, "num_magnetic_sites": null, "num_unique_magnetic_sites": null, "types_of_magnetic_species": null, "bulk_modulus": null, "shear_modulus": null, "universal_anisotropy": null, "homogeneous_poisson": null, "e_total": null, "e_ionic": null, "e_electronic": null, "n": null, "e_ij_max": null, "weighted_surface_energy_EV_PER_ANG2": null, "weighted_surface_energy": null, "weighted_work_function": null, "surface_anisotropy": null, "shape_factor": null, "has_reconstructed": null, "possible_species": null, "has_props": null, "theoretical": null, "database_IDs": null, "fields_not_requested": ["builder_meta", "nsites", "elements", "nelements", "composition", "composition_reduced", "chemsys", "symmetry", "property_name", "deprecated", "deprecation_reasons", "last_updated", "origins", "warnings", "task_ids", "uncorrected_energy_per_atom", "equilibrium_reaction_energy_per_atom", "decomposes_to", "xas", "grain_boundaries", "cbm", "vbm", "is_gap_direct", "is_metal", "es_source_calc_id", "bandstructure", "dos", "dos_energy_up", "dos_energy_down", "is_magnetic", "ordering", "total_magnetization_normalized_vol", "total_magnetization_normalized_formula_units", "num_magnetic_sites", "num_unique_magnetic_sites", "types_of_magnetic_species", "bulk_modulus", "shear_modulus", "universal_anisotropy", "homogeneous_poisson", "e_total", "e_ionic", "e_electronic", "n", "e_ij_max", "weighted_surface_energy_EV_PER_ANG2", "weighted_surface_energy", "weighted_work_function", "surface_anisotropy", "shape_factor", "has_reconstructed", "possible_species", "has_props", "theoretical", "database_IDs"]}