{
  "builder_meta": null,
  "nsites": null,
  "elements": null,
  "nelements": null,
  "composition": null,
  "composition_reduced": null,
  "formula_pretty": "Li5In4",
  "formula_anonymous": "A4B5",
  "chemsys": null,
  "volume": 172.53235407219665,
  "density": 4.754285715933746,
  "density_atomic": 19.170261563577405,
  "symmetry": null,
  "property_name": null,
  "material_id": "mp-1079408",
  "deprecated": null,
  "deprecation_reasons": null,
  "last_updated": null,
  "origins": null,
  "warnings": null,
  "structure": {
    "@module": "pymatgen.core.structure",
    "@class": "Structure",
    "charge": 0,
    "lattice": {
      "matrix": [
        [-2.37353149, -4.11063289, 0.00034883],
        [-2.37294994, 4.110297, -0.00010473000000000001],
        [0.00045908, 0.00048816, -8.84316682]
      ],
      "pbc": [true, true, true],
      "a": 4.746678271386606,
      "b": 4.746096591613299,
      "c": 8.843166845389923,
      "alpha": 89.99748369472272,
      "beta": 90.00843698397172,
      "gamma": 119.9986898784938,
      "volume": 172.53235407219665
    },
    "properties": {},
    "sites": [
      {
        "species": [{ "element": "Li", "occu": 1 }],
        "abc": [0.3339909, 0.66698228, 0.62119569],
        "properties": { "magmom": -0.0 },
        "label": "Li",
        "xyz": [-2.375168301313139, 1.3688845289244898, -5.493290461543543]
      },
      {
        "species": [{ "element": "Li", "occu": 1 }],
        "abc": [0.6660091, 0.33301772, 0.37880431000000003],
        "properties": { "magmom": -0.0 },
        "label": "Li",
        "xyz": [-2.370854048686861, -1.368732258924489, -3.3496322584564573]
      },
      {
        "species": [{ "element": "Li", "occu": 1 }],
        "abc": [-0.0, -0.0, 0.5],
        "properties": { "magmom": 0.0 },
        "label": "Li",
        "xyz": [0.00022954, 0.00024408, -4.42158341]
      },
      {
        "species": [{ "element": "Li", "occu": 1 }],
        "abc": [0.33333388, 0.6666652, 0.953463499999999],
        "properties": { "magmom": 0.0 },
        "label": "Li",
        "xyz": [-2.3727038911803895, 1.3704442038272466, -8.431590330270096]
      },
      {
        "species": [{ "element": "Li", "occu": 1 }],
        "abc": [0.66666612, 0.333335799999999, 0.046536499999999],
        "properties": { "magmom": 0.0 },
        "label": "Li",
        "xyz": [-2.3733208317695484, -1.3702878235302507, -0.41133238983461556]
      },
      {
        "species": [{ "element": "In", "occu": 1 }],
        "abc": [0.99981126, 0.99991184, 0.16766428],
        "properties": { "magmom": 0.0 },
        "label": "In",
        "xyz": [-4.745747279082204, 0.00015943406306389554, -1.4824391544003672]
      },
      {
        "species": [{ "element": "In", "occu": 1 }],
        "abc": [0.00018874, 8.816000000000001e-5, 0.83233572],
        "properties": { "magmom": 0.0 },
        "label": "In",
        "xyz": [
          -0.0002750709177954001, -7.164063063399976e-6, -7.360483565599633
        ]
      },
      {
        "species": [{ "element": "In", "occu": 1 }],
        "abc": [0.3330256, 0.66651569, 0.29391232],
        "properties": { "magmom": 0.0 },
        "label": "In",
        "xyz": [-2.371920185902837, 1.3707749327260774, -2.5990693110813883]
      },
      {
        "species": [{ "element": "In", "occu": 1 }],
        "abc": [0.6669744, 0.33348431, 0.70608768],
        "properties": { "magmom": 0.0 },
        "label": "In",
        "xyz": [-2.3741021640971627, -1.370622662726077, -6.243853408918612]
      }
    ]
  },
  "task_ids": null,
  "uncorrected_energy_per_atom": null,
  "energy_per_atom": -11.748447896666667,
  "formation_energy_per_atom": -0.38757083148147903,
  "energy_above_hull": 0.0,
  "is_stable": true,
  "equilibrium_reaction_energy_per_atom": null,
  "decomposes_to": null,
  "xas": null,
  "grain_boundaries": null,
  "band_gap": 0.0,
  "cbm": null,
  "vbm": null,
  "efermi": 4.79787504,
  "is_gap_direct": null,
  "is_metal": null,
  "es_source_calc_id": null,
  "bandstructure": null,
  "dos": null,
  "dos_energy_up": null,
  "dos_energy_down": null,
  "is_magnetic": null,
  "ordering": null,
  "total_magnetization": 0.0,
  "total_magnetization_normalized_vol": null,
  "total_magnetization_normalized_formula_units": null,
  "num_magnetic_sites": null,
  "num_unique_magnetic_sites": null,
  "types_of_magnetic_species": null,
  "bulk_modulus": null,
  "shear_modulus": null,
  "universal_anisotropy": null,
  "homogeneous_poisson": null,
  "e_total": null,
  "e_ionic": null,
  "e_electronic": null,
  "n": null,
  "e_ij_max": null,
  "weighted_surface_energy_EV_PER_ANG2": null,
  "weighted_surface_energy": null,
  "weighted_work_function": null,
  "surface_anisotropy": null,
  "shape_factor": null,
  "has_reconstructed": null,
  "possible_species": null,
  "has_props": null,
  "theoretical": null,
  "database_IDs": null,
  "fields_not_requested": [
    "builder_meta",
    "nsites",
    "elements",
    "nelements",
    "composition",
    "composition_reduced",
    "chemsys",
    "symmetry",
    "property_name",
    "deprecated",
    "deprecation_reasons",
    "last_updated",
    "origins",
    "warnings",
    "task_ids",
    "uncorrected_energy_per_atom",
    "equilibrium_reaction_energy_per_atom",
    "decomposes_to",
    "xas",
    "grain_boundaries",
    "cbm",
    "vbm",
    "is_gap_direct",
    "is_metal",
    "es_source_calc_id",
    "bandstructure",
    "dos",
    "dos_energy_up",
    "dos_energy_down",
    "is_magnetic",
    "ordering",
    "total_magnetization_normalized_vol",
    "total_magnetization_normalized_formula_units",
    "num_magnetic_sites",
    "num_unique_magnetic_sites",
    "types_of_magnetic_species",
    "bulk_modulus",
    "shear_modulus",
    "universal_anisotropy",
    "homogeneous_poisson",
    "e_total",
    "e_ionic",
    "e_electronic",
    "n",
    "e_ij_max",
    "weighted_surface_energy_EV_PER_ANG2",
    "weighted_surface_energy",
    "weighted_work_function",
    "surface_anisotropy",
    "shape_factor",
    "has_reconstructed",
    "possible_species",
    "has_props",
    "theoretical",
    "database_IDs"
  ]
}
