{"builder_meta": null, "nsites": null, "elements": null, "nelements": null, "composition": null, "composition_reduced": null, "formula_pretty": "Li5Mg", "formula_anonymous": "AB5", "chemsys": null, "volume": 122.49833279697732, "density": 0.7999162770849061, "density_atomic": 20.41638879949622, "symmetry": null, "property_name": null, "material_id": "mp-977122", "deprecated": null, "deprecation_reasons": null, "last_updated": null, "origins": null, "warnings": null, "structure": {"@module": "pymatgen.core.structure", "@class": "Structure", "charge": 0, "lattice": {"matrix": [[1.52866204, -7.94179297, 0.0], [1.52866204, 7.94179297, 0.0], [0.0, 0.0, 5.04510419]], "pbc": [true, true, true], "a": 8.087575855030876, "b": 8.087575855030876, "c": 5.04510419, "alpha": 90.0, "beta": 90.0, "gamma": 158.20954768411534, "volume": 122.49833279697732}, "properties": {}, "sites": [{"species": [{"element": "Li", "occu": 1}], "abc": [0.00192063, 0.99807937, 0.5], "properties": {"magmom": 0.0}, "label": "Li", "xyz": [1.52866204, 7.9112864783360575, 2.522552095]}, {"species": [{"element": "Li", "occu": 1}], "abc": [0.66765198, 0.33234802, 0.5], "properties": {"magmom": -0.0}, "label": "Li", "xyz": [1.52866204, -2.662914632341161, 2.522552095]}, {"species": [{"element": "Li", "occu": 1}], "abc": [0.33344277, 0.66655723, 0.5], "properties": {"magmom": 0.001}, "label": "Li", "xyz": [1.52866204, 2.6455260766333457, 2.522552095]}, {"species": [{"element": "Li", "occu": 1}], "abc": [0.5545568, 0.4454432, -0.0], "properties": {"magmom": 0.001}, "label": "Li", "xyz": [1.52866204, -0.8665576214113919, 0.0]}, {"species": [{"element": "Li", "occu": 1}], "abc": [0.88857851, 0.11142149, 0.0], "properties": {"magmom": 0.0}, "label": "Li", "xyz": [1.52866204, -6.17202015802215, 0.0]}, {"species": [{"element": "Mg", "occu": 1}], "abc": [0.22050732, 0.77949268, -0.0], "properties": {"magmom": -0.0}, "label": "Mg", "xyz": [1.52866204, 4.439346002380919, 0.0]}]}, "task_ids": null, "uncorrected_energy_per_atom": null, "energy_per_atom": -2.698715713333333, "formation_energy_per_atom": -0.014909771388888, "energy_above_hull": 0.0024945197222220002, "is_stable": false, "equilibrium_reaction_energy_per_atom": null, "decomposes_to": null, "xas": null, "grain_boundaries": null, "band_gap": 0.0, "cbm": null, "vbm": null, "efermi": 0.42011237, "is_gap_direct": null, "is_metal": null, "es_source_calc_id": null, "bandstructure": null, "dos": null, "dos_energy_up": null, "dos_energy_down": null, "is_magnetic": null, "ordering": null, "total_magnetization": 0.0166318, "total_magnetization_normalized_vol": null, "total_magnetization_normalized_formula_units": null, "num_magnetic_sites": null, "num_unique_magnetic_sites": null, "types_of_magnetic_species": null, "bulk_modulus": null, "shear_modulus": null, "universal_anisotropy": null, "homogeneous_poisson": null, "e_total": null, "e_ionic": null, "e_electronic": null, "n": null, "e_ij_max": null, "weighted_surface_energy_EV_PER_ANG2": null, "weighted_surface_energy": null, "weighted_work_function": null, "surface_anisotropy": null, "shape_factor": null, "has_reconstructed": null, "possible_species": null, "has_props": null, "theoretical": null, "database_IDs": null, "fields_not_requested": ["builder_meta", "nsites", "elements", "nelements", "composition", "composition_reduced", "chemsys", "symmetry", "property_name", "deprecated", "deprecation_reasons", "last_updated", "origins", "warnings", "task_ids", "uncorrected_energy_per_atom", "equilibrium_reaction_energy_per_atom", "decomposes_to", "xas", "grain_boundaries", "cbm", "vbm", "is_gap_direct", "is_metal", "es_source_calc_id", "bandstructure", "dos", "dos_energy_up", "dos_energy_down", "is_magnetic", "ordering", "total_magnetization_normalized_vol", "total_magnetization_normalized_formula_units", "num_magnetic_sites", "num_unique_magnetic_sites", "types_of_magnetic_species", "bulk_modulus", "shear_modulus", "universal_anisotropy", "homogeneous_poisson", "e_total", "e_ionic", "e_electronic", "n", "e_ij_max", "weighted_surface_energy_EV_PER_ANG2", "weighted_surface_energy", "weighted_work_function", "surface_anisotropy", "shape_factor", "has_reconstructed", "possible_species", "has_props", "theoretical", "database_IDs"]}