{"builder_meta": null, "nsites": null, "elements": null, "nelements": null, "composition": null, "composition_reduced": null, "formula_pretty": "Li5Sn2", "formula_anonymous": "A2B5", "chemsys": null, "volume": 125.67038185344367, "density": 3.5957095604714473, "density_atomic": 17.952911693349098, "symmetry": null, "property_name": null, "material_id": "mp-30766", "deprecated": null, "deprecation_reasons": null, "last_updated": null, "origins": null, "warnings": null, "structure": {"@module": "pymatgen.core.structure", "@class": "Structure", "charge": 0, "lattice": {"matrix": [[4.43649678, -0.00300841, 5.531391539999999], [1.94209356, 3.98883338, 5.531391539999999], [-0.00481438, -0.00300843, 7.09075357]], "pbc": [true, true, true], "a": 7.090754903271207, "b": 7.090755354542932, "c": 7.090755842600533, "alpha": 38.77053807218942, "beta": 38.770533219845305, "gamma": 38.77052872936362, "volume": 125.67038185344369}, "properties": {}, "sites": [{"species": [{"element": "Li", "occu": 1}], "abc": [0.5, 0.5, 0.5], "properties": {"magmom": -0.0}, "label": "Li", "xyz": [3.18688798, 1.99140827, 9.076768325]}, {"species": [{"element": "Li", "occu": 1}], "abc": [0.35475515, 0.35475515, 0.35475515], "properties": {"magmom": 0.0}, "label": "Li", "xyz": [2.261129846756194, 1.4129246790701813, 6.440060617301247]}, {"species": [{"element": "Li", "occu": 1}], "abc": [0.64524485, 0.64524485, 0.64524485], "properties": {"magmom": 0.0}, "label": "Li", "xyz": [4.112646113243805, 2.569891860929819, 11.71347603269875]}, {"species": [{"element": "Li", "occu": 1}], "abc": [0.21424249, 0.21424249, 0.21424249], "properties": {"magmom": -0.0}, "label": "Li", "xyz": [1.3655336323725402, 0.8532885327427846, 3.8892588942022583]}, {"species": [{"element": "Li", "occu": 1}], "abc": [0.78575751, 0.78575751, 0.78575751], "properties": {"magmom": -0.0}, "label": "Li", "xyz": [5.0082423276274595, 3.1295280072572154, 14.26427775579774]}, {"species": [{"element": "Sn", "occu": 1}], "abc": [0.07338817, 0.07338817, 0.07338817], "properties": {"magmom": 0.0}, "label": "Sn", "xyz": [0.4677597536943932, 0.29229161731633185, 1.3322548337714304]}, {"species": [{"element": "Sn", "occu": 1}], "abc": [0.92661183, 0.92661183, 0.92661183], "properties": {"magmom": 0.0}, "label": "Sn", "xyz": [5.9060162063056065, 3.690524922683668, 16.82128181622857]}]}, "task_ids": null, "uncorrected_energy_per_atom": null, "energy_per_atom": -2.9086692957142852, "formation_energy_per_atom": -0.39956100380952203, "energy_above_hull": 0.0, "is_stable": true, "equilibrium_reaction_energy_per_atom": null, "decomposes_to": null, "xas": null, "grain_boundaries": null, "band_gap": 0.0, "cbm": null, "vbm": null, "efermi": 3.74070797, "is_gap_direct": null, "is_metal": null, "es_source_calc_id": null, "bandstructure": null, "dos": null, "dos_energy_up": null, "dos_energy_down": null, "is_magnetic": null, "ordering": null, "total_magnetization": 0.0, "total_magnetization_normalized_vol": null, "total_magnetization_normalized_formula_units": null, "num_magnetic_sites": null, "num_unique_magnetic_sites": null, "types_of_magnetic_species": null, "bulk_modulus": null, "shear_modulus": null, "universal_anisotropy": null, "homogeneous_poisson": null, "e_total": null, "e_ionic": null, "e_electronic": null, "n": null, "e_ij_max": null, "weighted_surface_energy_EV_PER_ANG2": null, "weighted_surface_energy": null, "weighted_work_function": null, "surface_anisotropy": null, "shape_factor": null, "has_reconstructed": null, "possible_species": null, "has_props": null, "theoretical": null, "database_IDs": null, "fields_not_requested": ["builder_meta", "nsites", "elements", "nelements", "composition", "composition_reduced", "chemsys", "symmetry", "property_name", "deprecated", "deprecation_reasons", "last_updated", "origins", "warnings", "task_ids", "uncorrected_energy_per_atom", "equilibrium_reaction_energy_per_atom", "decomposes_to", "xas", "grain_boundaries", "cbm", "vbm", "is_gap_direct", "is_metal", "es_source_calc_id", "bandstructure", "dos", "dos_energy_up", "dos_energy_down", "is_magnetic", "ordering", "total_magnetization_normalized_vol", "total_magnetization_normalized_formula_units", "num_magnetic_sites", "num_unique_magnetic_sites", "types_of_magnetic_species", "bulk_modulus", "shear_modulus", "universal_anisotropy", "homogeneous_poisson", "e_total", "e_ionic", "e_electronic", "n", "e_ij_max", "weighted_surface_energy_EV_PER_ANG2", "weighted_surface_energy", "weighted_work_function", "surface_anisotropy", "shape_factor", "has_reconstructed", "possible_species", "has_props", "theoretical", "database_IDs"]}