{
  "builder_meta": null,
  "nsites": null,
  "elements": null,
  "nelements": null,
  "composition": null,
  "composition_reduced": null,
  "formula_pretty": "Li5Tl2",
  "formula_anonymous": "A2B5",
  "chemsys": null,
  "volume": 128.592082598282,
  "density": 5.726650520375403,
  "density_atomic": 18.370297514040285,
  "symmetry": null,
  "property_name": null,
  "material_id": "mp-12283",
  "deprecated": null,
  "deprecation_reasons": null,
  "last_updated": null,
  "origins": null,
  "warnings": null,
  "structure": {
    "@module": "pymatgen.core.structure",
    "@class": "Structure",
    "charge": 0,
    "lattice": {
      "matrix": [
        [4.4377214, -9.477000000000004e-5, 5.77068193],
        [1.96222484, 3.98033255, 5.77068193],
        [-0.00015177, -9.476000000000003e-5, 7.27970734]
      ],
      "pbc": [true, true, true],
      "a": 7.279707492078774,
      "b": 7.279707649935611,
      "c": 7.279707342198824,
      "alpha": 37.56190103427925,
      "beta": 37.5618967953692,
      "gamma": 37.561903870414355,
      "volume": 128.592082598282
    },
    "properties": {},
    "sites": [
      {
        "species": [{ "element": "Li", "occu": 1 }],
        "abc": [0.5, 0.5, 0.5],
        "properties": { "magmom": -0.0 },
        "label": "Li",
        "xyz": [3.199897235, 1.99007151, 9.4105356]
      },
      {
        "species": [{ "element": "Li", "occu": 1 }],
        "abc": [0.64582974, 0.64582974, 0.64582974],
        "properties": { "magmom": -0.0 },
        "label": "Li",
        "xyz": [4.133177598613538, 2.570494731769415, 12.15520751961749]
      },
      {
        "species": [{ "element": "Li", "occu": 1 }],
        "abc": [0.21300207000000002, 0.21300207000000002, 0.21300207000000002],
        "properties": { "magmom": -0.0 },
        "label": "Li",
        "xyz": [1.363169469684553, 0.8477787021560513, 4.008927125217385]
      },
      {
        "species": [{ "element": "Li", "occu": 1 }],
        "abc": [0.7869979300000001, 0.7869979300000001, 0.7869979300000001],
        "properties": { "magmom": -0.0 },
        "label": "Li",
        "xyz": [5.036625000315447, 3.1323643178439484, 14.812144074782617]
      },
      {
        "species": [{ "element": "Li", "occu": 1 }],
        "abc": [0.35417026, 0.35417026, 0.35417026],
        "properties": { "magmom": -0.0 },
        "label": "Li",
        "xyz": [2.2666168713864625, 1.4096482882305852, 6.665863680382513]
      },
      {
        "species": [{ "element": "Tl", "occu": 1 }],
        "abc": [0.92541921, 0.92541921, 0.92541921],
        "properties": { "magmom": -0.0 },
        "label": "Tl",
        "xyz": [5.922492742589768, 3.6833008092554143, 17.417380841257753]
      },
      {
        "species": [{ "element": "Tl", "occu": 1 }],
        "abc": [0.07458079000000001, 0.07458079000000001, 0.07458079000000001],
        "properties": { "magmom": -0.0 },
        "label": "Tl",
        "xyz": [0.47730172741023136, 0.2968422107445858, 1.403690358742248]
      }
    ]
  },
  "task_ids": null,
  "uncorrected_energy_per_atom": null,
  "energy_per_atom": -17.180224234285713,
  "formation_energy_per_atom": -0.281346916190476,
  "energy_above_hull": 0.0,
  "is_stable": true,
  "equilibrium_reaction_energy_per_atom": null,
  "decomposes_to": null,
  "xas": null,
  "grain_boundaries": null,
  "band_gap": 0.0,
  "cbm": null,
  "vbm": null,
  "efermi": 2.94187699,
  "is_gap_direct": null,
  "is_metal": null,
  "es_source_calc_id": null,
  "bandstructure": null,
  "dos": null,
  "dos_energy_up": null,
  "dos_energy_down": null,
  "is_magnetic": null,
  "ordering": null,
  "total_magnetization": 0.0,
  "total_magnetization_normalized_vol": null,
  "total_magnetization_normalized_formula_units": null,
  "num_magnetic_sites": null,
  "num_unique_magnetic_sites": null,
  "types_of_magnetic_species": null,
  "bulk_modulus": null,
  "shear_modulus": null,
  "universal_anisotropy": null,
  "homogeneous_poisson": null,
  "e_total": null,
  "e_ionic": null,
  "e_electronic": null,
  "n": null,
  "e_ij_max": null,
  "weighted_surface_energy_EV_PER_ANG2": null,
  "weighted_surface_energy": null,
  "weighted_work_function": null,
  "surface_anisotropy": null,
  "shape_factor": null,
  "has_reconstructed": null,
  "possible_species": null,
  "has_props": null,
  "theoretical": null,
  "database_IDs": null,
  "fields_not_requested": [
    "builder_meta",
    "nsites",
    "elements",
    "nelements",
    "composition",
    "composition_reduced",
    "chemsys",
    "symmetry",
    "property_name",
    "deprecated",
    "deprecation_reasons",
    "last_updated",
    "origins",
    "warnings",
    "task_ids",
    "uncorrected_energy_per_atom",
    "equilibrium_reaction_energy_per_atom",
    "decomposes_to",
    "xas",
    "grain_boundaries",
    "cbm",
    "vbm",
    "is_gap_direct",
    "is_metal",
    "es_source_calc_id",
    "bandstructure",
    "dos",
    "dos_energy_up",
    "dos_energy_down",
    "is_magnetic",
    "ordering",
    "total_magnetization_normalized_vol",
    "total_magnetization_normalized_formula_units",
    "num_magnetic_sites",
    "num_unique_magnetic_sites",
    "types_of_magnetic_species",
    "bulk_modulus",
    "shear_modulus",
    "universal_anisotropy",
    "homogeneous_poisson",
    "e_total",
    "e_ionic",
    "e_electronic",
    "n",
    "e_ij_max",
    "weighted_surface_energy_EV_PER_ANG2",
    "weighted_surface_energy",
    "weighted_work_function",
    "surface_anisotropy",
    "shape_factor",
    "has_reconstructed",
    "possible_species",
    "has_props",
    "theoretical",
    "database_IDs"
  ]
}
