{"builder_meta": null, "nsites": null, "elements": null, "nelements": null, "composition": null, "composition_reduced": null, "formula_pretty": "Li7Ge2", "formula_anonymous": "A2B7", "chemsys": null, "volume": 265.5260764140931, "density": 2.4247993385214333, "density_atomic": 14.75144868967184, "symmetry": null, "property_name": null, "material_id": "mp-29630", "deprecated": null, "deprecation_reasons": null, "last_updated": null, "origins": null, "warnings": null, "structure": {"@module": "pymatgen.core.structure", "@class": "Structure", "charge": 0, "lattice": {"matrix": [[4.45755823, 0.0, 0.0], [0.0, 7.4803206, -2.74412428], [0.0, -0.012325290000000001, 7.96776398]], "pbc": [true, true, true], "a": 4.45755823, "b": 7.967773487171298, "c": 7.9677735129557385, "alpha": 110.23398116699335, "beta": 90.0, "gamma": 90.0, "volume": 265.5260764140931}, "properties": {}, "sites": [{"species": [{"element": "Li", "occu": 1}], "abc": [0.5, 0.8160386900000001, 0.49937494], "properties": {"magmom": 0.002}, "label": "Li", "xyz": [2.228779115, 6.098076082249782, 1.739590076798268]}, {"species": [{"element": "Li", "occu": 1}], "abc": [0.5, 0.18396131000000002, 0.50062506], "properties": {"magmom": 0.002}, "label": "Li", "xyz": [2.228779115, 1.3699192277502186, 3.4840496232017313]}, {"species": [{"element": "Li", "occu": 1}], "abc": [0.5, 0.49937494, 0.8160386900000001], "properties": {"magmom": 0.002}, "label": "Li", "xyz": [2.228779115, 3.725426737300294, 5.131656782790843]}, {"species": [{"element": "Li", "occu": 1}], "abc": [0.5, 0.50062506, 0.18396131000000002], "properties": {"magmom": 0.002}, "label": "Li", "xyz": [2.228779115, 3.7425685726997053, 0.0919829172091573]}, {"species": [{"element": "Li", "occu": 1}], "abc": [-0.0, -0.0, 0.0], "properties": {"magmom": 0.0}, "label": "Li", "xyz": [0.0, 0.0, 0.0]}, {"species": [{"element": "Li", "occu": 1}], "abc": [0.5, 0.5, 0.5], "properties": {"magmom": 0.01}, "label": "Li", "xyz": [2.228779115, 3.733997655, 2.61181985]}, {"species": [{"element": "Li", "occu": 1}], "abc": [-0.0, 0.33973786, 0.33973786], "properties": {"magmom": 0.002}, "label": "Li", "xyz": [0.0, 2.5371607451094365, 1.774668173089042]}, {"species": [{"element": "Li", "occu": 1}], "abc": [-0.0, 0.66026214, 0.66026214], "properties": {"magmom": 0.002}, "label": "Li", "xyz": [0.0, 4.930834564890564, 3.4489715269109587]}, {"species": [{"element": "Li", "occu": 1}], "abc": [0.5, 0.1730582, 0.8269418], "properties": {"magmom": 0.003}, "label": "Li", "xyz": [2.228779115, 1.284338520960798, 6.113983879123267]}, {"species": [{"element": "Li", "occu": 1}], "abc": [0.5, 0.8269418, 0.1730582], "properties": {"magmom": 0.003}, "label": "Li", "xyz": [2.228779115, 6.183656789039202, -0.890344179123268]}, {"species": [{"element": "Li", "occu": 1}], "abc": [-0.0, 0.34523614, 0.02387575], "properties": {"magmom": 0.001}, "label": "Li", "xyz": [0.0, 2.5821827343637667, -0.7571345332619942]}, {"species": [{"element": "Li", "occu": 1}], "abc": [-0.0, 0.65476386, 0.97612425], "properties": {"magmom": 0.001}, "label": "Li", "xyz": [0.0, 4.8858125756362325, 5.980774233261995]}, {"species": [{"element": "Li", "occu": 1}], "abc": [0.0, 0.02387575, 0.34523614], "properties": {"magmom": 0.001}, "label": "Li", "xyz": [0.0, 0.1743431290214694, 2.685242055608027]}, {"species": [{"element": "Li", "occu": 1}], "abc": [-0.0, 0.97612425, 0.65476386], "properties": {"magmom": 0.001}, "label": "Li", "xyz": [0.0, 7.293652180978531, 2.538397644391972]}, {"species": [{"element": "Ge", "occu": 1}], "abc": [0.5, 0.8458225500000001, 0.8458225500000001], "properties": {"magmom": -0.003}, "label": "Ge", "xyz": [2.228779115, 6.316598836492241, 4.418272251335235]}, {"species": [{"element": "Ge", "occu": 1}], "abc": [0.5, 0.15417745, 0.15417745], "properties": {"magmom": -0.003}, "label": "Ge", "xyz": [2.228779115, 1.1513964735077593, 0.8053674486647651]}, {"species": [{"element": "Ge", "occu": 1}], "abc": [0.0, 0.67990317, 0.32009683], "properties": {"magmom": -0.015}, "label": "Ge", "xyz": [0.0, 5.081948402298472, 0.6847171953402158]}, {"species": [{"element": "Ge", "occu": 1}], "abc": [0.0, 0.32009683, 0.67990317], "properties": {"magmom": -0.015}, "label": "Ge", "xyz": [0.0, 2.3860469077015285, 4.5389225046597845]}]}, "task_ids": null, "uncorrected_energy_per_atom": null, "energy_per_atom": -2.830900470555555, "formation_energy_per_atom": -0.318843162037036, "energy_above_hull": 0.01127023574074, "is_stable": false, "equilibrium_reaction_energy_per_atom": null, "decomposes_to": null, "xas": null, "grain_boundaries": null, "band_gap": 0.0, "cbm": null, "vbm": null, "efermi": 1.3933441, "is_gap_direct": null, "is_metal": null, "es_source_calc_id": null, "bandstructure": null, "dos": null, "dos_energy_up": null, "dos_energy_down": null, "is_magnetic": null, "ordering": null, "total_magnetization": 0.207564399999999, "total_magnetization_normalized_vol": null, "total_magnetization_normalized_formula_units": null, "num_magnetic_sites": null, "num_unique_magnetic_sites": null, "types_of_magnetic_species": null, "bulk_modulus": null, "shear_modulus": null, "universal_anisotropy": null, "homogeneous_poisson": null, "e_total": null, "e_ionic": null, "e_electronic": null, "n": null, "e_ij_max": null, "weighted_surface_energy_EV_PER_ANG2": null, "weighted_surface_energy": null, "weighted_work_function": null, "surface_anisotropy": null, "shape_factor": null, "has_reconstructed": null, "possible_species": null, "has_props": null, "theoretical": null, "database_IDs": null, "fields_not_requested": ["builder_meta", "nsites", "elements", "nelements", "composition", "composition_reduced", "chemsys", "symmetry", "property_name", "deprecated", "deprecation_reasons", "last_updated", "origins", "warnings", "task_ids", "uncorrected_energy_per_atom", "equilibrium_reaction_energy_per_atom", "decomposes_to", "xas", "grain_boundaries", "cbm", "vbm", "is_gap_direct", "is_metal", "es_source_calc_id", "bandstructure", "dos", "dos_energy_up", "dos_energy_down", "is_magnetic", "ordering", "total_magnetization_normalized_vol", "total_magnetization_normalized_formula_units", "num_magnetic_sites", "num_unique_magnetic_sites", "types_of_magnetic_species", "bulk_modulus", "shear_modulus", "universal_anisotropy", "homogeneous_poisson", "e_total", "e_ionic", "e_electronic", "n", "e_ij_max", "weighted_surface_energy_EV_PER_ANG2", "weighted_surface_energy", "weighted_work_function", "surface_anisotropy", "shape_factor", "has_reconstructed", "possible_species", "has_props", "theoretical", "database_IDs"]}