{
  "builder_meta": null,
  "nsites": null,
  "elements": null,
  "nelements": null,
  "composition": null,
  "composition_reduced": null,
  "formula_pretty": "Li7Sn2",
  "formula_anonymous": "A2B7",
  "chemsys": null,
  "volume": 315.86761533609615,
  "density": 3.007119272520075,
  "density_atomic": 17.54820085200534,
  "symmetry": null,
  "property_name": null,
  "material_id": "mp-30767",
  "deprecated": null,
  "deprecation_reasons": null,
  "last_updated": null,
  "origins": null,
  "warnings": null,
  "structure": {
    "@module": "pymatgen.core.structure",
    "@class": "Structure",
    "charge": 0,
    "lattice": {
      "matrix": [
        [4.70062133, 0.0, 0.0],
        [0.0, 7.96519812, -2.80010155],
        [0.0, -0.01904717, 8.44301991]
      ],
      "pbc": [true, true, true],
      "a": 4.70062133,
      "b": 8.44304150061836,
      "c": 8.443041394861298,
      "alpha": 109.49797299044376,
      "beta": 90.0,
      "gamma": 90.0,
      "volume": 315.86761533609615
    },
    "properties": {},
    "sites": [
      {
        "species": [{ "element": "Li", "occu": 1 }],
        "abc": [0.0, 0.0, 0.0],
        "properties": { "magmom": -0.0 },
        "label": "Li",
        "xyz": [0.0, 0.0, 0.0]
      },
      {
        "species": [{ "element": "Li", "occu": 1 }],
        "abc": [0.5, 0.5, 0.5],
        "properties": { "magmom": -0.001 },
        "label": "Li",
        "xyz": [2.350310665, 3.973075475, 2.82145918]
      },
      {
        "species": [{ "element": "Li", "occu": 1 }],
        "abc": [0.0, 0.34438792, 0.34438792],
        "properties": { "magmom": -0.0 },
        "label": "Li",
        "xyz": [0.0, 2.736558397676524, 1.9433529167302117]
      },
      {
        "species": [{ "element": "Li", "occu": 1 }],
        "abc": [0.0, 0.65561208, 0.65561208],
        "properties": { "magmom": -0.0 },
        "label": "Li",
        "xyz": [0.0, 5.2095925523234765, 3.699565443269789]
      },
      {
        "species": [{ "element": "Li", "occu": 1 }],
        "abc": [0.5, 0.17335282, 0.82664718],
        "properties": { "magmom": -0.0 },
        "label": "Li",
        "xyz": [2.350310665, 1.3650442665932179, 6.493993099306484]
      },
      {
        "species": [{ "element": "Li", "occu": 1 }],
        "abc": [0.5, 0.82664718, 0.17335282],
        "properties": { "magmom": -0.0 },
        "label": "Li",
        "xyz": [2.350310665, 6.581106683406783, -0.851074739306483]
      },
      {
        "species": [{ "element": "Li", "occu": 1 }],
        "abc": [-0.0, 0.34488513, 0.030100799999999],
        "properties": { "magmom": -0.0 },
        "label": "Li",
        "xyz": [0.0, 2.7465050540372196, -0.7115717333780318]
      },
      {
        "species": [{ "element": "Li", "occu": 1 }],
        "abc": [0.0, 0.65511487, 0.9698992],
        "properties": { "magmom": -0.0 },
        "label": "Li",
        "xyz": [0.0, 5.199645895962781, 6.354490093378023]
      },
      {
        "species": [{ "element": "Li", "occu": 1 }],
        "abc": [-0.0, 0.030100799999999, 0.34488513],
        "properties": { "magmom": -0.0 },
        "label": "Li",
        "xyz": [0.0, 0.23318974986890595, 2.827586722516701]
      },
      {
        "species": [{ "element": "Li", "occu": 1 }],
        "abc": [0.0, 0.9698992, 0.65511487],
        "properties": { "magmom": -0.0 },
        "label": "Li",
        "xyz": [0.0, 7.712961200131086, 2.8153316374833017]
      },
      {
        "species": [{ "element": "Li", "occu": 1 }],
        "abc": [0.5, 0.50359752, 0.18414308000000001],
        "properties": { "magmom": -0.0 },
        "label": "Li",
        "xyz": [2.350310665, 4.007746614991579, 0.14459949440056685]
      },
      {
        "species": [{ "element": "Li", "occu": 1 }],
        "abc": [0.5, 0.49640248000000003, 0.81585692],
        "properties": { "magmom": -0.0 },
        "label": "Li",
        "xyz": [2.350310665, 3.9384043350084217, 5.498318865599433]
      },
      {
        "species": [{ "element": "Li", "occu": 1 }],
        "abc": [0.5, 0.18414308000000001, 0.50359752],
        "properties": { "magmom": -0.0 },
        "label": "Li",
        "xyz": [2.350310665, 1.4571440070519912, 3.736264564256849]
      },
      {
        "species": [{ "element": "Li", "occu": 1 }],
        "abc": [0.5, 0.81585692, 0.49640248000000003],
        "properties": { "magmom": -0.0 },
        "label": "Li",
        "xyz": [2.350310665, 6.489006942948008, 1.9066537957431513]
      },
      {
        "species": [{ "element": "Sn", "occu": 1 }],
        "abc": [0.5, 0.16233225, 0.16233225],
        "properties": { "magmom": -0.0 },
        "label": "Sn",
        "xyz": [2.350310665, 1.2899165625531377, 0.9160276339451101]
      },
      {
        "species": [{ "element": "Sn", "occu": 1 }],
        "abc": [0.5, 0.83766775, 0.83766775],
        "properties": { "magmom": -0.0 },
        "label": "Sn",
        "xyz": [2.350310665, 6.656234387446863, 4.726890726054891]
      },
      {
        "species": [{ "element": "Sn", "occu": 1 }],
        "abc": [-0.0, 0.31792139, 0.68207761],
        "properties": { "magmom": 0.003 },
        "label": "Sn",
        "xyz": [0.0, 2.5193152097449234, 4.868582664478061]
      },
      {
        "species": [{ "element": "Sn", "occu": 1 }],
        "abc": [0.0, 0.68207761, 0.31792139],
        "properties": { "magmom": 0.003 },
        "label": "Sn",
        "xyz": [0.0, 5.426827794104127, 0.7743300526035797]
      }
    ]
  },
  "task_ids": null,
  "uncorrected_energy_per_atom": null,
  "energy_per_atom": -2.749616409444444,
  "formation_energy_per_atom": -0.37388265648148,
  "energy_above_hull": 0.0,
  "is_stable": true,
  "equilibrium_reaction_energy_per_atom": null,
  "decomposes_to": null,
  "xas": null,
  "grain_boundaries": null,
  "band_gap": 0.0,
  "cbm": null,
  "vbm": null,
  "efermi": 2.88928536,
  "is_gap_direct": null,
  "is_metal": null,
  "es_source_calc_id": null,
  "bandstructure": null,
  "dos": null,
  "dos_energy_up": null,
  "dos_energy_down": null,
  "is_magnetic": null,
  "ordering": null,
  "total_magnetization": 0.0511735,
  "total_magnetization_normalized_vol": null,
  "total_magnetization_normalized_formula_units": null,
  "num_magnetic_sites": null,
  "num_unique_magnetic_sites": null,
  "types_of_magnetic_species": null,
  "bulk_modulus": null,
  "shear_modulus": null,
  "universal_anisotropy": null,
  "homogeneous_poisson": null,
  "e_total": null,
  "e_ionic": null,
  "e_electronic": null,
  "n": null,
  "e_ij_max": null,
  "weighted_surface_energy_EV_PER_ANG2": null,
  "weighted_surface_energy": null,
  "weighted_work_function": null,
  "surface_anisotropy": null,
  "shape_factor": null,
  "has_reconstructed": null,
  "possible_species": null,
  "has_props": null,
  "theoretical": null,
  "database_IDs": null,
  "fields_not_requested": [
    "builder_meta",
    "nsites",
    "elements",
    "nelements",
    "composition",
    "composition_reduced",
    "chemsys",
    "symmetry",
    "property_name",
    "deprecated",
    "deprecation_reasons",
    "last_updated",
    "origins",
    "warnings",
    "task_ids",
    "uncorrected_energy_per_atom",
    "equilibrium_reaction_energy_per_atom",
    "decomposes_to",
    "xas",
    "grain_boundaries",
    "cbm",
    "vbm",
    "is_gap_direct",
    "is_metal",
    "es_source_calc_id",
    "bandstructure",
    "dos",
    "dos_energy_up",
    "dos_energy_down",
    "is_magnetic",
    "ordering",
    "total_magnetization_normalized_vol",
    "total_magnetization_normalized_formula_units",
    "num_magnetic_sites",
    "num_unique_magnetic_sites",
    "types_of_magnetic_species",
    "bulk_modulus",
    "shear_modulus",
    "universal_anisotropy",
    "homogeneous_poisson",
    "e_total",
    "e_ionic",
    "e_electronic",
    "n",
    "e_ij_max",
    "weighted_surface_energy_EV_PER_ANG2",
    "weighted_surface_energy",
    "weighted_work_function",
    "surface_anisotropy",
    "shape_factor",
    "has_reconstructed",
    "possible_species",
    "has_props",
    "theoretical",
    "database_IDs"
  ]
}
