{"builder_meta": null, "nsites": null, "elements": null, "nelements": null, "composition": null, "composition_reduced": null, "formula_pretty": "Li7Si2", "formula_anonymous": "A2B7", "chemsys": null, "volume": 530.1944234102621, "density": 1.312384618608313, "density_atomic": 14.727622872507279, "symmetry": null, "property_name": null, "material_id": "mp-27930", "deprecated": null, "deprecation_reasons": null, "last_updated": null, "origins": null, "warnings": null, "structure": {"@module": "pymatgen.core.structure", "@class": "Structure", "charge": 0, "lattice": {"matrix": [[4.46092654, 0.0, 0.0], [0.0, 8.00545356, -0.0], [0.0, -0.0, 14.84650201]], "pbc": [true, true, true], "a": 4.46092654, "b": 8.00545356, "c": 14.84650201, "alpha": 90.0, "beta": 90.0, "gamma": 90.0, "volume": 530.1944234102621}, "properties": {}, "sites": [{"species": [{"element": "Li", "occu": 1}], "abc": [-0.0, 0.0, 0.0], "properties": {"magmom": 0.0}, "label": "Li", "xyz": [0.0, 0.0, 0.0]}, {"species": [{"element": "Li", "occu": 1}], "abc": [0.0, 0.5, 0.5], "properties": {"magmom": 0.0}, "label": "Li", "xyz": [0.0, 4.00272678, 7.423251005]}, {"species": [{"element": "Li", "occu": 1}], "abc": [0.5, 0.5, 0.0], "properties": {"magmom": 0.006}, "label": "Li", "xyz": [2.23046327, 4.00272678, 0.0]}, {"species": [{"element": "Li", "occu": 1}], "abc": [0.5, 0.0, 0.5], "properties": {"magmom": 0.006}, "label": "Li", "xyz": [2.23046327, 0.0, 7.423251005]}, {"species": [{"element": "Li", "occu": 1}], "abc": [0.5, 0.12004873, 0.35608927], "properties": {"magmom": 0.001}, "label": "Li", "xyz": [2.23046327, 0.9610445329519788, 5.286680062794433]}, {"species": [{"element": "Li", "occu": 1}], "abc": [0.5, 0.8799512700000001, 0.64391073], "properties": {"magmom": 0.001}, "label": "Li", "xyz": [2.23046327, 7.0444090270480215, 9.559821947205567]}, {"species": [{"element": "Li", "occu": 1}], "abc": [0.5, 0.62004873, 0.14391073000000001], "properties": {"magmom": 0.001}, "label": "Li", "xyz": [2.23046327, 4.9637713129519785, 2.1365709422055676]}, {"species": [{"element": "Li", "occu": 1}], "abc": [0.5, 0.37995127, 0.85608927], "properties": {"magmom": 0.001}, "label": "Li", "xyz": [2.23046327, 3.041682247048021, 12.709931067794432]}, {"species": [{"element": "Li", "occu": 1}], "abc": [0.5, 0.23393691, 0.101672699999999], "properties": {"magmom": 0.001}, "label": "Li", "xyz": [2.23046327, 1.8727710689748995, 1.5094839449121122]}, {"species": [{"element": "Li", "occu": 1}], "abc": [0.5, 0.7660630900000001, 0.898327299999999], "properties": {"magmom": 0.001}, "label": "Li", "xyz": [2.23046327, 6.1326824910251005, 13.33701806508786]}, {"species": [{"element": "Li", "occu": 1}], "abc": [0.5, 0.73393691, 0.3983273], "properties": {"magmom": 0.001}, "label": "Li", "xyz": [2.23046327, 5.8754978489748995, 5.913767060087873]}, {"species": [{"element": "Li", "occu": 1}], "abc": [0.5, 0.26606309, 0.6016727], "properties": {"magmom": 0.001}, "label": "Li", "xyz": [2.23046327, 2.1299557110251004, 8.932734949912126]}, {"species": [{"element": "Li", "occu": 1}], "abc": [0.5, 0.4142381, 0.25752642], "properties": {"magmom": 0.001}, "label": "Li", "xyz": [2.23046327, 3.316163872332636, 3.823366512158104]}, {"species": [{"element": "Li", "occu": 1}], "abc": [0.5, 0.5857619, 0.74247358], "properties": {"magmom": 0.001}, "label": "Li", "xyz": [2.23046327, 4.6892896876673635, 11.023135497841896]}, {"species": [{"element": "Li", "occu": 1}], "abc": [0.5, 0.914238099999999, 0.24247358], "properties": {"magmom": 0.001}, "label": "Li", "xyz": [2.23046327, 7.318890652332628, 3.5998844928418956]}, {"species": [{"element": "Li", "occu": 1}], "abc": [0.5, 0.0857619, 0.75752642], "properties": {"magmom": 0.001}, "label": "Li", "xyz": [2.23046327, 0.6865629076673639, 11.246617517158105]}, {"species": [{"element": "Li", "occu": 1}], "abc": [-0.0, 0.325278499999999, 0.98656705], "properties": {"magmom": 0.0}, "label": "Li", "xyz": [0.0, 2.604001925816452, 14.64706969082477]}, {"species": [{"element": "Li", "occu": 1}], "abc": [-0.0, 0.6747215, 0.01343295], "properties": {"magmom": 0.0}, "label": "Li", "xyz": [0.0, 5.401451634183539, 0.19943231917522952]}, {"species": [{"element": "Li", "occu": 1}], "abc": [0.0, 0.825278499999999, 0.51343295], "properties": {"magmom": 0.0}, "label": "Li", "xyz": [0.0, 6.606728705816452, 7.622683324175229]}, {"species": [{"element": "Li", "occu": 1}], "abc": [0.0, 0.1747215, 0.48656705], "properties": {"magmom": 0.0}, "label": "Li", "xyz": [0.0, 1.39872485418354, 7.223818685824771]}, {"species": [{"element": "Li", "occu": 1}], "abc": [-0.0, 0.11501309, 0.188995], "properties": {"magmom": 0.0}, "label": "Li", "xyz": [0.0, 0.9207319507871004, 2.80591464737995]}, {"species": [{"element": "Li", "occu": 1}], "abc": [0.0, 0.8849869100000001, 0.811005], "properties": {"magmom": 0.0}, "label": "Li", "xyz": [0.0, 7.0847216092129, 12.04058736262005]}, {"species": [{"element": "Li", "occu": 1}], "abc": [-0.0, 0.61501309, 0.311005], "properties": {"magmom": 0.0}, "label": "Li", "xyz": [0.0, 4.9234587307871, 4.61733635762005]}, {"species": [{"element": "Li", "occu": 1}], "abc": [-0.0, 0.38498691, 0.688995], "properties": {"magmom": 0.0}, "label": "Li", "xyz": [0.0, 3.0819948292128996, 10.229165652379951]}, {"species": [{"element": "Li", "occu": 1}], "abc": [0.0, 0.29688588, 0.33468831], "properties": {"magmom": -0.001}, "label": "Li", "xyz": [0.0, 2.3767061249597328, 4.968950667138503]}, {"species": [{"element": "Li", "occu": 1}], "abc": [0.0, 0.7031141200000001, 0.66531169], "properties": {"magmom": -0.001}, "label": "Li", "xyz": [0.0, 5.6287474350402675, 9.877551342861498]}, {"species": [{"element": "Li", "occu": 1}], "abc": [-0.0, 0.79688588, 0.16531169], "properties": {"magmom": -0.001}, "label": "Li", "xyz": [0.0, 6.3794329049597325, 2.454300337861497]}, {"species": [{"element": "Li", "occu": 1}], "abc": [-0.0, 0.20311412, 0.83468831], "properties": {"magmom": -0.001}, "label": "Li", "xyz": [0.0, 1.6260206550402672, 12.392201672138503]}, {"species": [{"element": "Si", "occu": 1}], "abc": [0.5, 0.39954269000000003, 0.4357045], "properties": {"magmom": -0.002}, "label": "Si", "xyz": [2.23046327, 3.1985204500324764, 6.4686877350160445]}, {"species": [{"element": "Si", "occu": 1}], "abc": [0.5, 0.60045731, 0.5642955], "properties": {"magmom": -0.002}, "label": "Si", "xyz": [2.23046327, 4.806933109967523, 8.377814274983955]}, {"species": [{"element": "Si", "occu": 1}], "abc": [0.5, 0.89954269, 0.064295499999999], "properties": {"magmom": -0.002}, "label": "Si", "xyz": [2.23046327, 7.201247230032476, 0.9545632699839403]}, {"species": [{"element": "Si", "occu": 1}], "abc": [0.5, 0.10045731000000001, 0.935704499999999], "properties": {"magmom": -0.002}, "label": "Si", "xyz": [2.23046327, 0.8042063299675236, 13.89193874001603]}, {"species": [{"element": "Si", "occu": 1}], "abc": [-0.0, 0.44105487, 0.15347584], "properties": {"magmom": -0.005}, "label": "Si", "xyz": [0.0, 3.530844279196837, 2.2785793670464383]}, {"species": [{"element": "Si", "occu": 1}], "abc": [-0.0, 0.55894513, 0.84652416], "properties": {"magmom": -0.005}, "label": "Si", "xyz": [0.0, 4.474609280803163, 12.567922642953562]}, {"species": [{"element": "Si", "occu": 1}], "abc": [0.0, 0.94105487, 0.34652416], "properties": {"magmom": -0.005}, "label": "Si", "xyz": [0.0, 7.533571059196836, 5.144671637953562]}, {"species": [{"element": "Si", "occu": 1}], "abc": [0.0, 0.05894513, 0.65347584], "properties": {"magmom": -0.005}, "label": "Si", "xyz": [0.0, 0.47188250080316274, 9.70183037204644]}]}, "task_ids": null, "uncorrected_energy_per_atom": null, "energy_per_atom": -2.888473140555556, "formation_energy_per_atom": -0.198129126481481, "energy_above_hull": 0.028336932916666002, "is_stable": false, "equilibrium_reaction_energy_per_atom": null, "decomposes_to": null, "xas": null, "grain_boundaries": null, "band_gap": 0.0, "cbm": null, "vbm": null, "efermi": 2.21276774, "is_gap_direct": null, "is_metal": null, "es_source_calc_id": null, "bandstructure": null, "dos": null, "dos_energy_up": null, "dos_energy_down": null, "is_magnetic": null, "ordering": null, "total_magnetization": 0.1483083, "total_magnetization_normalized_vol": null, "total_magnetization_normalized_formula_units": null, "num_magnetic_sites": null, "num_unique_magnetic_sites": null, "types_of_magnetic_species": null, "bulk_modulus": null, "shear_modulus": null, "universal_anisotropy": null, "homogeneous_poisson": null, "e_total": null, "e_ionic": null, "e_electronic": null, "n": null, "e_ij_max": null, "weighted_surface_energy_EV_PER_ANG2": null, "weighted_surface_energy": null, "weighted_work_function": null, "surface_anisotropy": null, "shape_factor": null, "has_reconstructed": null, "possible_species": null, "has_props": null, "theoretical": null, "database_IDs": null, "fields_not_requested": ["builder_meta", "nsites", "elements", "nelements", "composition", "composition_reduced", "chemsys", "symmetry", "property_name", "deprecated", "deprecation_reasons", "last_updated", "origins", "warnings", "task_ids", "uncorrected_energy_per_atom", "equilibrium_reaction_energy_per_atom", "decomposes_to", "xas", "grain_boundaries", "cbm", "vbm", "is_gap_direct", "is_metal", "es_source_calc_id", "bandstructure", "dos", "dos_energy_up", "dos_energy_down", "is_magnetic", "ordering", "total_magnetization_normalized_vol", "total_magnetization_normalized_formula_units", "num_magnetic_sites", "num_unique_magnetic_sites", "types_of_magnetic_species", "bulk_modulus", "shear_modulus", "universal_anisotropy", "homogeneous_poisson", "e_total", "e_ionic", "e_electronic", "n", "e_ij_max", "weighted_surface_energy_EV_PER_ANG2", "weighted_surface_energy", "weighted_work_function", "surface_anisotropy", "shape_factor", "has_reconstructed", "possible_species", "has_props", "theoretical", "database_IDs"]}