{"builder_meta": null, "nsites": null, "elements": null, "nelements": null, "composition": null, "composition_reduced": null, "formula_pretty": "Li7Sn3", "formula_anonymous": "A3B7", "chemsys": null, "volume": 360.56254085594196, "density": 3.727777088666902, "density_atomic": 18.0281270427971, "symmetry": null, "property_name": null, "material_id": "mp-30768", "deprecated": null, "deprecation_reasons": null, "last_updated": null, "origins": null, "warnings": null, "structure": {"@module": "pymatgen.core.structure", "@class": "Structure", "charge": 0, "lattice": {"matrix": [[4.69720012, 0.0, 0.0], [0.0, 8.50469954, -0.01313359], [0.0, 2.60217788, 9.02171629]], "pbc": [true, true, true], "a": 4.69720012, "b": 8.504709680927533, "c": 9.389499163236167, "alpha": 73.99907276572478, "beta": 90.0, "gamma": 90.0, "volume": 360.56254085594196}, "properties": {}, "sites": [{"species": [{"element": "Li", "occu": 1}], "abc": [0.75, 0.39511965, 0.275810699999999], "properties": {"magmom": 0.0}, "label": "Li", "xyz": [3.52290009, 4.078082408207274, 2.4830965456622507]}, {"species": [{"element": "Li", "occu": 1}], "abc": [0.25, 0.6048803500000001, 0.724189299999999], "properties": {"magmom": 0.0}, "label": "Li", "xyz": [1.17430003, 7.028795011792722, 6.525486154337732]}, {"species": [{"element": "Li", "occu": 1}], "abc": [0.75, 0.00767753, 0.8714637], "properties": {"magmom": 0.0}, "label": "Li", "xyz": [3.52290009, 2.3329986492222923, 7.86199742490244]}, {"species": [{"element": "Li", "occu": 1}], "abc": [0.25, 0.9923224700000001, 0.1285363], "properties": {"magmom": 0.0}, "label": "Li", "xyz": [1.17430003, 8.773878770777708, 1.1465852750975596]}, {"species": [{"element": "Li", "occu": 1}], "abc": [0.75, 0.99565313, 0.37869345], "properties": {"magmom": -0.001}, "label": "Li", "xyz": [3.52290009, 9.453158435601447, 3.4033883667896636]}, {"species": [{"element": "Li", "occu": 1}], "abc": [0.25, 0.00434687, 0.62130655], "properties": {"magmom": -0.001}, "label": "Li", "xyz": [1.17430003, 1.653718984398554, 5.605194333210337]}, {"species": [{"element": "Li", "occu": 1}], "abc": [0.75, 0.7994678, 0.68205713], "properties": {"magmom": 0.0}, "label": "Li", "xyz": [3.52290009, 8.574067407487096, 6.142826038128246]}, {"species": [{"element": "Li", "occu": 1}], "abc": [0.25, 0.2005322, 0.31794287], "properties": {"magmom": 0.0}, "label": "Li", "xyz": [1.17430003, 2.5328100125129036, 2.8657566618717545]}, {"species": [{"element": "Li", "occu": 1}], "abc": [0.75, 0.81402326, 0.16860749], "properties": {"magmom": 0.0}, "label": "Li", "xyz": [3.52290009, 7.361769925751623, 1.5104378914017087]}, {"species": [{"element": "Li", "occu": 1}], "abc": [0.25, 0.18597674, 0.83139251], "properties": {"magmom": 0.0}, "label": "Li", "xyz": [1.17430003, 3.745107494248379, 7.498144808598292]}, {"species": [{"element": "Li", "occu": 1}], "abc": [0.75, 0.59890303, 0.46549437], "properties": {"magmom": 0.0}, "label": "Li", "xyz": [3.52290009, 6.304789476624142, 4.19169239388651]}, {"species": [{"element": "Li", "occu": 1}], "abc": [0.25, 0.40109697, 0.5345056300000001], "properties": {"magmom": 0.0}, "label": "Li", "xyz": [1.17430003, 4.8020879433758585, 4.816890306113492]}, {"species": [{"element": "Li", "occu": 1}], "abc": [0.75, 0.60159222, 0.98589444], "properties": {"magmom": 0.0}, "label": "Li", "xyz": [3.52290009, 7.681833780484567, 8.886558864003758]}, {"species": [{"element": "Li", "occu": 1}], "abc": [0.25, 0.39840778, 0.01410556], "properties": {"magmom": 0.0}, "label": "Li", "xyz": [1.17430003, 3.4250436395154344, 0.1220238359962422]}, {"species": [{"element": "Sn", "occu": 1}], "abc": [0.75, 0.40325472, 0.77620698], "properties": {"magmom": 0.0}, "label": "Sn", "xyz": [3.52290009, 5.449388865344432, 6.99742297371966]}, {"species": [{"element": "Sn", "occu": 1}], "abc": [0.25, 0.59674528, 0.22379302], "properties": {"magmom": 0.0}, "label": "Sn", "xyz": [1.17430003, 5.65748855465557, 2.011159726280341]}, {"species": [{"element": "Sn", "occu": 1}], "abc": [0.75, 0.19513662, 0.08399000000000001], "properties": {"magmom": 0.0}, "label": "Sn", "xyz": [3.52290009, 1.8781352424923552, 0.7551711068360343]}, {"species": [{"element": "Sn", "occu": 1}], "abc": [0.25, 0.80486338, 0.9160100000000001], "properties": {"magmom": 0.0}, "label": "Sn", "xyz": [1.17430003, 9.228742177507646, 8.253411593163966]}, {"species": [{"element": "Sn", "occu": 1}], "abc": [0.75, 0.19789691, 0.56847624], "properties": {"magmom": 0.0}, "label": "Sn", "xyz": [3.52290009, 3.162330056477993, 5.126032258007743]}, {"species": [{"element": "Sn", "occu": 1}], "abc": [0.25, 0.80210309, 0.43152376000000003], "properties": {"magmom": 0.0}, "label": "Sn", "xyz": [1.17430003, 7.944547363522009, 3.882550441992258]}]}, "task_ids": null, "uncorrected_energy_per_atom": null, "energy_per_atom": -2.9328005155, "formation_energy_per_atom": -0.39368295233333306, "energy_above_hull": 0.000965117166666, "is_stable": false, "equilibrium_reaction_energy_per_atom": null, "decomposes_to": null, "xas": null, "grain_boundaries": null, "band_gap": 0.0, "cbm": null, "vbm": null, "efermi": 3.95860187, "is_gap_direct": null, "is_metal": null, "es_source_calc_id": null, "bandstructure": null, "dos": null, "dos_energy_up": null, "dos_energy_down": null, "is_magnetic": null, "ordering": null, "total_magnetization": 4.77e-05, "total_magnetization_normalized_vol": null, "total_magnetization_normalized_formula_units": null, "num_magnetic_sites": null, "num_unique_magnetic_sites": null, "types_of_magnetic_species": null, "bulk_modulus": null, "shear_modulus": null, "universal_anisotropy": null, "homogeneous_poisson": null, "e_total": null, "e_ionic": null, "e_electronic": null, "n": null, "e_ij_max": null, "weighted_surface_energy_EV_PER_ANG2": null, "weighted_surface_energy": null, "weighted_work_function": null, "surface_anisotropy": null, "shape_factor": null, "has_reconstructed": null, "possible_species": null, "has_props": null, "theoretical": null, "database_IDs": null, "fields_not_requested": ["builder_meta", "nsites", "elements", "nelements", "composition", "composition_reduced", "chemsys", "symmetry", "property_name", "deprecated", "deprecation_reasons", "last_updated", "origins", "warnings", "task_ids", "uncorrected_energy_per_atom", "equilibrium_reaction_energy_per_atom", "decomposes_to", "xas", "grain_boundaries", "cbm", "vbm", "is_gap_direct", "is_metal", "es_source_calc_id", "bandstructure", "dos", "dos_energy_up", "dos_energy_down", "is_magnetic", "ordering", "total_magnetization_normalized_vol", "total_magnetization_normalized_formula_units", "num_magnetic_sites", "num_unique_magnetic_sites", "types_of_magnetic_species", "bulk_modulus", "shear_modulus", "universal_anisotropy", "homogeneous_poisson", "e_total", "e_ionic", "e_electronic", "n", "e_ij_max", "weighted_surface_energy_EV_PER_ANG2", "weighted_surface_energy", "weighted_work_function", "surface_anisotropy", "shape_factor", "has_reconstructed", "possible_species", "has_props", "theoretical", "database_IDs"]}