{
  "builder_meta": null,
  "nsites": null,
  "elements": null,
  "nelements": null,
  "composition": null,
  "composition_reduced": null,
  "formula_pretty": "Li7Si3",
  "formula_anonymous": "A3B7",
  "chemsys": null,
  "volume": 875.5649012865586,
  "density": 1.5116537072448102,
  "density_atomic": 14.592748354775976,
  "symmetry": null,
  "property_name": null,
  "material_id": "mp-1201871",
  "deprecated": null,
  "deprecation_reasons": null,
  "last_updated": null,
  "origins": null,
  "warnings": null,
  "structure": {
    "@module": "pymatgen.core.structure",
    "@class": "Structure",
    "charge": 0,
    "lattice": {
      "matrix": [
        [-3.76349882, -6.51905756, -0.0010857500000000001],
        [-3.76389708, 6.51928696, 0.00162349],
        [0.00127275, -0.00370441, -17.84231285]
      ],
      "pbc": [true, true, true],
      "a": 7.527418947925485,
      "b": 7.527816836997188,
      "c": 17.842313279948346,
      "alpha": 90.02470226178781,
      "beta": 89.98347694379127,
      "gamma": 120.00195092934379,
      "volume": 875.5649012865584
    },
    "properties": {},
    "sites": [
      {
        "species": [{ "element": "Li", "occu": 1 }],
        "abc": [0.5557795600000001, 0.44428856, 0.66657742],
        "properties": { "magmom": -0.0 },
        "label": "Li",
        "xyz": [-3.763083745490219, -0.7291836026867192, -11.893165006008841]
      },
      {
        "species": [{ "element": "Li", "occu": 1 }],
        "abc": [0.88912704, 0.44462914000000003, -2.48e-6],
        "properties": { "magmom": 0.0 },
        "label": "Li",
        "xyz": [-5.019766890755425, -2.897605388287471, -0.00019926978531340005]
      },
      {
        "species": [{ "element": "Li", "occu": 1 }],
        "abc": [0.55586147, 0.11160119, 0.33343253],
        "properties": { "magmom": 0.0 },
        "label": "Li",
        "xyz": [-2.5116150033414333, -2.897367906427188, -5.94962985780211]
      },
      {
        "species": [{ "element": "Li", "occu": 1 }],
        "abc": [0.22396388, 0.77605357, 0.666727499999999],
        "properties": { "magmom": 0.0 },
        "label": "Li",
        "xyz": [-3.763024986723572, 3.596812662063239, -11.894943894270709]
      },
      {
        "species": [{ "element": "Li", "occu": 1 }],
        "abc": [0.55320274, 0.77651654, 8.706e-5],
        "properties": { "magmom": -0.0 },
        "label": "Li",
        "xyz": [-5.004706085882855, 1.4559733265306691, -0.0008933247941513997]
      },
      {
        "species": [{ "element": "Li", "occu": 1 }],
        "abc": [0.22399122, 0.44797212000000003, 0.3332786],
        "properties": { "magmom": -0.0 },
        "label": "Li",
        "xyz": [-2.52868746621162, 1.459012543666306, -5.945976967620026]
      },
      {
        "species": [{ "element": "Li", "occu": 1 }],
        "abc": [0.21997346, 0.10896625, 0.13476295],
        "properties": { "magmom": -0.0 },
        "label": "Li",
        "xyz": [-1.2378360877902546, -0.7241366119268673, -2.40454464505589]
      },
      {
        "species": [{ "element": "Li", "occu": 1 }],
        "abc": [0.88915849, 0.78002741, 0.46835441],
        "properties": { "magmom": 0.0 },
        "label": "Li",
        "xyz": [-6.281693720651617, -0.7129878305770602, -8.356224945027826]
      },
      {
        "species": [{ "element": "Li", "occu": 1 }],
        "abc": [0.89085421, 0.11058083, 0.80172225],
        "properties": { "magmom": -0.0 },
        "label": "Li",
        "xyz": [-3.7679232392743214, -5.089591617433473, -14.305366921392721]
      },
      {
        "species": [{ "element": "Li", "occu": 1 }],
        "abc": [0.8890941, 0.10905087000000001, 0.53167861],
        "properties": { "magmom": -0.0 },
        "label": "Li",
        "xyz": [-3.755884153432544, -5.087091254948411, -9.487164386195277]
      },
      {
        "species": [{ "element": "Li", "occu": 1 }],
        "abc": [0.89088475, 0.78020034, 0.19826364],
        "properties": { "magmom": -0.0 },
        "label": "Li",
        "xyz": [-6.289185146874193, -0.7221135116372964, -3.5371825223270994]
      },
      {
        "species": [{ "element": "Li", "occu": 1 }],
        "abc": [0.21992067, 0.11100145, 0.86524859],
        "properties": { "magmom": 0.0 },
        "label": "Li",
        "xyz": [-1.244367970426453, -0.7132304363669553, -15.438094604924771]
      },
      {
        "species": [{ "element": "Li", "occu": 1 }],
        "abc": [0.20004545, 0.09044219, 0.28856211],
        "properties": { "magmom": -0.0 },
        "label": "Li",
        "xyz": [-1.0929186424456718, -0.7155581656311649, -5.148685810632408]
      },
      {
        "species": [{ "element": "Li", "occu": 1 }],
        "abc": [0.89004129, 0.80012962, 0.62223441],
        "properties": { "magmom": 0.0 },
        "label": "Li",
        "xyz": [-6.3604829361604605, -0.5882608136816461, -11.101768369149012]
      },
      {
        "species": [{ "element": "Li", "occu": 1 }],
        "abc": [0.90955928, 0.10988319, 0.95567234],
        "properties": { "magmom": -0.0 },
        "label": "Li",
        "xyz": [-3.8354979630114, -5.216649455034974, -17.052214032099695]
      },
      {
        "species": [{ "element": "Li", "occu": 1 }],
        "abc": [0.89003578, 0.08994011, 0.37777152],
        "properties": { "magmom": -0.0 },
        "label": "Li",
        "xyz": [-3.6876931164895788, -5.217248514571935, -6.741137985138983]
      },
      {
        "species": [{ "element": "Li", "occu": 1 }],
        "abc": [0.91000128, 0.80008656, 0.04431312],
        "properties": { "magmom": -0.0 },
        "label": "Li",
        "xyz": [-6.436175810886255, -0.7165210004792789, -0.7903376517600575]
      },
      {
        "species": [{ "element": "Li", "occu": 1 }],
        "abc": [0.20004331, 0.10947782, 0.71143553],
        "properties": { "magmom": -0.0 },
        "label": "Li",
        "xyz": [-1.1640205285858525, -0.5930119769393839, -12.693694759743401]
      },
      {
        "species": [{ "element": "Li", "occu": 1 }],
        "abc": [0.55321073, 0.44228845, 0.81709041],
        "properties": { "magmom": -0.0 },
        "label": "Li",
        "xyz": [-3.7456961832197373, -0.7260341049217152, -14.578665319629176]
      },
      {
        "species": [{ "element": "Li", "occu": 1 }],
        "abc": [0.8886445900000001, 0.44732883, 0.150286199999999],
        "properties": { "magmom": -0.0 },
        "label": "Li",
        "xyz": [-5.027921266140151, -2.8774169460436863, -2.6816920094190277]
      },
      {
        "species": [{ "element": "Li", "occu": 1 }],
        "abc": [0.55848237, 0.11132148, 0.48389018],
        "properties": { "magmom": -0.0 },
        "label": "Li",
        "xyz": [-2.520234462772487, -2.9168345709650105, -8.634145619526475]
      },
      {
        "species": [{ "element": "Li", "occu": 1 }],
        "abc": [0.8888443300000001, 0.44142838, 0.8498015800000001],
        "properties": { "magmom": 0.0 },
        "label": "Li",
        "xyz": [-5.005573992668877, -2.919777081112678, -15.162674058954956]
      },
      {
        "species": [{ "element": "Li", "occu": 1 }],
        "abc": [0.55848518, 0.44713983, 0.51608485],
        "properties": { "magmom": 0.0 },
        "label": "Li",
        "xyz": [-3.784189769413347, -0.7276759616905326, -9.208027799086901]
      },
      {
        "species": [{ "element": "Li", "occu": 1 }],
        "abc": [0.55317639, 0.11095288, 0.18295101],
        "properties": { "magmom": -0.0 },
        "label": "Li",
        "xyz": [-2.4992610611684727, -2.8835327890355176, -3.2646896370177694]
      },
      {
        "species": [{ "element": "Li", "occu": 1 }],
        "abc": [0.53187325, 0.4206311, 0.95992323],
        "properties": { "magmom": 0.0 },
        "label": "Li",
        "xyz": [-3.58369477552077, -0.7286534353862587, -17.127145172639153]
      },
      {
        "species": [{ "element": "Li", "occu": 1 }],
        "abc": [0.88843567, 0.46848569, 0.29354122],
        "properties": { "magmom": -0.0 },
        "label": "Li",
        "xyz": [-5.10658491171594, -2.7386580183543434, -5.237658318806521]
      },
      {
        "species": [{ "element": "Li", "occu": 1 }],
        "abc": [0.57884769, 0.11023082000000001, 0.6264233300000001],
        "properties": { "magmom": 0.0 },
        "label": "Li",
        "xyz": [-2.592592779505474, -3.057235591014815, -11.177290555644246]
      },
      {
        "species": [{ "element": "Li", "occu": 1 }],
        "abc": [0.88870967, 0.41958479, 0.70663032],
        "properties": { "magmom": -0.0 },
        "label": "Li",
        "xyz": [-4.923032396521223, -3.060773491220978, -12.608202963549097]
      },
      {
        "species": [{ "element": "Li", "occu": 1 }],
        "abc": [0.5789839800000001, 0.46866998, 0.37353949000000003],
        "properties": { "magmom": 0.0 },
        "label": "Li",
        "xyz": [-3.9425556723486648, -0.7204195462025795, -6.6646761932399015]
      },
      {
        "species": [{ "element": "Li", "occu": 1 }],
        "abc": [0.53191024, 0.11127662, 0.04008693],
        "properties": { "magmom": -0.0 },
        "label": "Li",
        "xyz": [-2.420626285036029, -2.7422577520189, -0.7156404113193267]
      },
      {
        "species": [{ "element": "Li", "occu": 1 }],
        "abc": [0.21941408, 0.44081282, 0.4840408],
        "properties": { "magmom": -0.0 },
        "label": "Li",
        "xyz": [-2.4843226542677512, 1.441619166652454, -8.635929959396497]
      },
      {
        "species": [{ "element": "Li", "occu": 1 }],
        "abc": [0.22046872, 0.7805944100000001, 0.81732507],
        "properties": { "magmom": -0.0 },
        "label": "Li",
        "xyz": [-3.7667705375473908, 3.6486429751398117, -14.581941685782198]
      },
      {
        "species": [{ "element": "Li", "occu": 1 }],
        "abc": [0.55912484, 0.77869683, 0.15042839],
        "properties": { "magmom": 0.0 },
        "label": "Li",
        "xyz": [-5.035008942481573, 1.4310238259943469, -2.6833332591803045]
      },
      {
        "species": [{ "element": "Li", "occu": 1 }],
        "abc": [0.22056132, 0.43989945, 0.18264714],
        "properties": { "magmom": -0.0 },
        "label": "Li",
        "xyz": [-2.4855860587588134, 1.4293022076147055, -3.2583727151328588]
      },
      {
        "species": [{ "element": "Li", "occu": 1 }],
        "abc": [0.55911182, 0.7804087, 0.84958342],
        "properties": { "magmom": 0.0 },
        "label": "Li",
        "xyz": [-5.040513394656844, 1.4396789190073094, -15.157873241751147]
      },
      {
        "species": [{ "element": "Li", "occu": 1 }],
        "abc": [0.21954117, 0.7788585, 0.51599421],
        "properties": { "magmom": -0.0 },
        "label": "Li",
        "xyz": [-3.757129436488822, 3.6444890846039484, -9.20550402144776]
      },
      {
        "species": [{ "element": "Li", "occu": 1 }],
        "abc": [0.19816331, 0.41895153, 0.62709956],
        "properties": { "magmom": 0.0 },
        "label": "Li",
        "xyz": [-2.321879682815837, 1.4371041883498656, -11.188441529811739]
      },
      {
        "species": [{ "element": "Li", "occu": 1 }],
        "abc": [0.22084223, 0.80246303, 0.96001729],
        "properties": { "magmom": 0.0 },
        "label": "Li",
        "xyz": [-3.8503058654302738, 3.78824726066308, -17.127865818335824]
      },
      {
        "species": [{ "element": "Li", "occu": 1 }],
        "abc": [0.58101899, 0.77885457, 0.29354307],
        "properties": { "magmom": -0.0 },
        "label": "Li",
        "xyz": [-5.117819118087906, 1.288792798790404, -5.236853668651992]
      },
      {
        "species": [{ "element": "Li", "occu": 1 }],
        "abc": [0.22046776, 0.41814812, 0.039891340000000004],
        "properties": { "magmom": -0.0 },
        "label": "Li",
        "xyz": [-2.403545870780548, 1.2886377946214402, -0.7113142818648002]
      },
      {
        "species": [{ "element": "Li", "occu": 1 }],
        "abc": [0.58106086, 0.8021815800000001, 0.70645619],
        "properties": { "magmom": -0.0 },
        "label": "Li",
        "xyz": [-5.205251625434149, 1.439065718468297, -12.604140909854472]
      },
      {
        "species": [{ "element": "Li", "occu": 1 }],
        "abc": [0.19824072, 0.77942835, 0.37277255],
        "properties": { "magmom": 0.0 },
        "label": "Li",
        "xyz": [-3.679292360167156, 3.787593511631527, -6.650074304722065]
      },
      {
        "species": [{ "element": "Si", "occu": 1 }],
        "abc": [0.24024028, 0.12399043, 0.43426392],
        "properties": { "magmom": 0.0 },
        "label": "Si",
        "xyz": [-1.3702785183172341, -0.7594197116946114, -7.748332263768181]
      },
      {
        "species": [{ "element": "Si", "occu": 1 }],
        "abc": [0.88378689, 0.75989186, 0.76758149],
        "properties": { "magmom": 0.0 },
        "label": "Si",
        "xyz": [-6.185308731274842, -0.8103479493226142, -13.695154977229171]
      },
      {
        "species": [{ "element": "Si", "occu": 1 }],
        "abc": [0.8761024, 0.11609235, 0.10100237000000001],
        "properties": { "magmom": 0.0 },
        "label": "Si",
        "xyz": [-3.7340414550080885, -4.954896784732839, -1.802878637542953]
      },
      {
        "species": [{ "element": "Si", "occu": 1 }],
        "abc": [0.88379028, 0.12386334, 0.23241925],
        "properties": { "magmom": 0.0 },
        "label": "Si",
        "xyz": [-3.79205672805208, -4.954840025198362, -4.147655455265015]
      },
      {
        "species": [{ "element": "Si", "occu": 1 }],
        "abc": [0.87613852, 0.76004617, 0.89899904],
        "properties": { "magmom": 0.0 },
        "label": "Si",
        "xyz": [-6.15693764507657, -0.759968618368035, -16.03993946357122]
      },
      {
        "species": [{ "element": "Si", "occu": 1 }],
        "abc": [0.24022709, 0.11630836, 0.56573423],
        "properties": { "magmom": 0.0 },
        "label": "Si",
        "xyz": [-1.3411470280893902, -0.8099023640332692, -10.094079122717446]
      },
      {
        "species": [{ "element": "Si", "occu": 1 }],
        "abc": [0.5640024100000001, 0.45345426, 0.10150344],
        "properties": { "magmom": 0.0 },
        "label": "Si",
        "xyz": [-3.8292483811364573, -0.7209417409524413, -1.810932318991294]
      },
      {
        "species": [{ "element": "Si", "occu": 1 }],
        "abc": [0.88955069, 0.43611831, 0.43486405],
        "properties": { "magmom": 0.0 },
        "label": "Si",
        "xyz": [-4.988773932469083, -2.957462653982939, -7.759238223264608]
      },
      {
        "species": [{ "element": "Si", "occu": 1 }],
        "abc": [0.54669483, 0.11050964, 0.76813637],
        "properties": { "magmom": -0.0 },
        "label": "Si",
        "xyz": [-2.4724546133480345, -2.846336501568512, -13.705743587619583]
      },
      {
        "species": [{ "element": "Si", "occu": 1 }],
        "abc": [0.88953888, 0.45345235, 0.56519098],
        "properties": { "magmom": 0.0 },
        "label": "Si",
        "xyz": [-5.053807154488465, -2.8448628673597995, -10.08454392664135]
      },
      {
        "species": [{ "element": "Si", "occu": 1 }],
        "abc": [0.54673967, 0.43619913, 0.23185912],
        "properties": { "magmom": 0.0 },
        "label": "Si",
        "xyz": [-3.6991676359027497, -0.7213789801357802, -4.136788413836831]
      },
      {
        "species": [{ "element": "Si", "occu": 1 }],
        "abc": [0.56399849, 0.11060196, 0.8984860100000001],
        "properties": { "magmom": 0.0 },
        "label": "Si",
        "xyz": [-2.537758497813831, -2.959021065044947, -16.031501281952707]
      },
      {
        "species": [{ "element": "Si", "occu": 1 }],
        "abc": [0.23512348, 0.46215337, 0.7680969400000001],
        "properties": { "magmom": -0.0 },
        "label": "Si",
        "xyz": [-2.623407064009068, 1.4772815927480412, -13.704130886551429]
      },
      {
        "species": [{ "element": "Si", "occu": 1 }],
        "abc": [0.22702885, 0.76485695, 0.10134265],
        "properties": { "magmom": -0.0 },
        "label": "Si",
        "xyz": [-3.7331366659458753, 3.5059323847436796, -1.8071920253121845]
      },
      {
        "species": [{ "element": "Si", "occu": 1 }],
        "abc": [0.53790394, 0.77314142, 0.43471433],
        "properties": { "magmom": 0.0 },
        "label": "Si",
        "xyz": [-4.933872293964897, 1.532093670919901, -7.755637918077039]
      },
      {
        "species": [{ "element": "Si", "occu": 1 }],
        "abc": [0.22701302, 0.46215034, 0.89865304],
        "properties": { "magmom": 0.0 },
        "label": "Si",
        "xyz": [-2.5927057874849835, 1.5296507615642285, -16.03354486621454]
      },
      {
        "species": [{ "element": "Si", "occu": 1 }],
        "abc": [0.53789323, 0.76477382, 0.56528181],
        "properties": { "magmom": 0.0 },
        "label": "Si",
        "xyz": [-4.902171021925757, 1.4771290289812862, -10.085277317359697]
      },
      {
        "species": [{ "element": "Si", "occu": 1 }],
        "abc": [0.23507218, 0.77290948, 0.23189504],
        "properties": { "magmom": -0.0 },
        "label": "Si",
        "xyz": [-3.7935504625089864, 3.5055105877445736, -4.136544270851013]
      }
    ]
  },
  "task_ids": null,
  "uncorrected_energy_per_atom": null,
  "energy_per_atom": -3.207887084166666,
  "formation_energy_per_atom": -0.2440456685,
  "energy_above_hull": 0.0,
  "is_stable": true,
  "equilibrium_reaction_energy_per_atom": null,
  "decomposes_to": null,
  "xas": null,
  "grain_boundaries": null,
  "band_gap": 0.0,
  "cbm": null,
  "vbm": null,
  "efermi": 2.89540745,
  "is_gap_direct": null,
  "is_metal": null,
  "es_source_calc_id": null,
  "bandstructure": null,
  "dos": null,
  "dos_energy_up": null,
  "dos_energy_down": null,
  "is_magnetic": null,
  "ordering": null,
  "total_magnetization": 2.2e-6,
  "total_magnetization_normalized_vol": null,
  "total_magnetization_normalized_formula_units": null,
  "num_magnetic_sites": null,
  "num_unique_magnetic_sites": null,
  "types_of_magnetic_species": null,
  "bulk_modulus": null,
  "shear_modulus": null,
  "universal_anisotropy": null,
  "homogeneous_poisson": null,
  "e_total": null,
  "e_ionic": null,
  "e_electronic": null,
  "n": null,
  "e_ij_max": null,
  "weighted_surface_energy_EV_PER_ANG2": null,
  "weighted_surface_energy": null,
  "weighted_work_function": null,
  "surface_anisotropy": null,
  "shape_factor": null,
  "has_reconstructed": null,
  "possible_species": null,
  "has_props": null,
  "theoretical": null,
  "database_IDs": null,
  "fields_not_requested": [
    "builder_meta",
    "nsites",
    "elements",
    "nelements",
    "composition",
    "composition_reduced",
    "chemsys",
    "symmetry",
    "property_name",
    "deprecated",
    "deprecation_reasons",
    "last_updated",
    "origins",
    "warnings",
    "task_ids",
    "uncorrected_energy_per_atom",
    "equilibrium_reaction_energy_per_atom",
    "decomposes_to",
    "xas",
    "grain_boundaries",
    "cbm",
    "vbm",
    "is_gap_direct",
    "is_metal",
    "es_source_calc_id",
    "bandstructure",
    "dos",
    "dos_energy_up",
    "dos_energy_down",
    "is_magnetic",
    "ordering",
    "total_magnetization_normalized_vol",
    "total_magnetization_normalized_formula_units",
    "num_magnetic_sites",
    "num_unique_magnetic_sites",
    "types_of_magnetic_species",
    "bulk_modulus",
    "shear_modulus",
    "universal_anisotropy",
    "homogeneous_poisson",
    "e_total",
    "e_ionic",
    "e_electronic",
    "n",
    "e_ij_max",
    "weighted_surface_energy_EV_PER_ANG2",
    "weighted_surface_energy",
    "weighted_work_function",
    "surface_anisotropy",
    "shape_factor",
    "has_reconstructed",
    "possible_species",
    "has_props",
    "theoretical",
    "database_IDs"
  ]
}
