{
  "builder_meta": null,
  "nsites": null,
  "elements": null,
  "nelements": null,
  "composition": null,
  "composition_reduced": null,
  "formula_pretty": "Li8Ag5",
  "formula_anonymous": "A5B8",
  "chemsys": null,
  "volume": 424.99943040231625,
  "density": 4.648491943032457,
  "density_atomic": 16.346131938550624,
  "symmetry": null,
  "property_name": null,
  "material_id": "mp-1211140",
  "deprecated": null,
  "deprecation_reasons": null,
  "last_updated": null,
  "origins": null,
  "warnings": null,
  "structure": {
    "@module": "pymatgen.core.structure",
    "@class": "Structure",
    "charge": 0,
    "lattice": {
      "matrix": [
        [-4.73633907, -4.73633907, 4.73633907],
        [-4.73633907, 4.73633907, -4.73633907],
        [4.73633907, -4.73633907, -4.73633907]
      ],
      "pbc": [true, true, true],
      "a": 8.203579911113525,
      "b": 8.203579911113525,
      "c": 8.203579911113525,
      "alpha": 109.47122063449069,
      "beta": 109.47122063449069,
      "gamma": 109.47122063449069,
      "volume": 424.99943040231625
    },
    "properties": {},
    "sites": [
      {
        "species": [{ "element": "Li", "occu": 1 }],
        "abc": [0.37129194, 0.65290887, 0.65290887],
        "properties": { "magmom": 0.0 },
        "label": "Li",
        "xyz": [-1.7585645217980952, -1.7585645217980956, -4.426231058463005]
      },
      {
        "species": [{ "element": "Li", "occu": 1 }],
        "abc": [0.62870806, 0.28161692, 0.28161692],
        "properties": { "magmom": 0.0 },
        "label": "Li",
        "xyz": [-2.977774548201904, -2.977774548201904, 0.3101081062637756]
      },
      {
        "species": [{ "element": "Li", "occu": 1 }],
        "abc": [-0.0, 0.34709113, 0.7183830800000001],
        "properties": { "magmom": 0.0 },
        "label": "Li",
        "xyz": [1.7585645691614864, -1.7585645691614864, -5.046447128900384]
      },
      {
        "species": [{ "element": "Li", "occu": 1 }],
        "abc": [0.65290887, 0.65290887, 0.37129194],
        "properties": { "magmom": 0.0 },
        "label": "Li",
        "xyz": [-4.426231058463005, -1.7585645217980956, -1.7585645217980956]
      },
      {
        "species": [{ "element": "Li", "occu": 1 }],
        "abc": [-0.0, 0.7183830800000001, 0.34709113],
        "properties": { "magmom": 0.0 },
        "label": "Li",
        "xyz": [-1.7585645691614864, 1.7585645691614864, -5.046447128900384]
      },
      {
        "species": [{ "element": "Li", "occu": 1 }],
        "abc": [0.28161692, 0.28161692, 0.62870806],
        "properties": { "magmom": 0.0 },
        "label": "Li",
        "xyz": [0.3101081062637756, -2.977774548201904, -2.977774548201904]
      },
      {
        "species": [{ "element": "Li", "occu": 1 }],
        "abc": [0.34709113, 0.7183830800000001, -0.0],
        "properties": { "magmom": 0.0 },
        "label": "Li",
        "xyz": [-5.046447128900384, 1.7585645691614864, -1.7585645691614864]
      },
      {
        "species": [{ "element": "Li", "occu": 1 }],
        "abc": [0.7183830800000001, 0.34709113, -0.0],
        "properties": { "magmom": 0.0 },
        "label": "Li",
        "xyz": [-5.046447128900384, -1.7585645691614864, 1.7585645691614864]
      },
      {
        "species": [{ "element": "Li", "occu": 1 }],
        "abc": [0.65290887, 0.37129194, 0.65290887],
        "properties": { "magmom": 0.0 },
        "label": "Li",
        "xyz": [-1.7585645217980952, -4.426231058463005, -1.7585645217980956]
      },
      {
        "species": [{ "element": "Li", "occu": 1 }],
        "abc": [0.7183830800000001, -0.0, 0.34709113],
        "properties": { "magmom": 0.0 },
        "label": "Li",
        "xyz": [-1.7585645691614864, -5.046447128900384, 1.7585645691614864]
      },
      {
        "species": [{ "element": "Li", "occu": 1 }],
        "abc": [0.34709113, -0.0, 0.7183830800000001],
        "properties": { "magmom": 0.0 },
        "label": "Li",
        "xyz": [1.7585645691614864, -5.046447128900384, -1.7585645691614864]
      },
      {
        "species": [{ "element": "Li", "occu": 1 }],
        "abc": [0.28161692, 0.62870806, 0.28161692],
        "properties": { "magmom": 0.0 },
        "label": "Li",
        "xyz": [-2.977774548201904, 0.3101081062637756, -2.977774548201904]
      },
      {
        "species": [{ "element": "Li", "occu": 1 }],
        "abc": [0.77133412, 0.77133412, 0.77133412],
        "properties": { "magmom": 0.0 },
        "label": "Li",
        "xyz": [-3.653299928580068, -3.653299928580068, -3.653299928580068]
      },
      {
        "species": [{ "element": "Li", "occu": 1 }],
        "abc": [0.22866588000000002, -0.0, -0.0],
        "properties": { "magmom": 0.0 },
        "label": "Li",
        "xyz": [-1.0830391414199316, -1.0830391414199316, 1.0830391414199316]
      },
      {
        "species": [{ "element": "Li", "occu": 1 }],
        "abc": [0.0, 0.22866588000000002, 0.0],
        "properties": { "magmom": 0.0 },
        "label": "Li",
        "xyz": [-1.0830391414199316, 1.0830391414199316, -1.0830391414199316]
      },
      {
        "species": [{ "element": "Li", "occu": 1 }],
        "abc": [-0.0, -0.0, 0.22866588000000002],
        "properties": { "magmom": 0.0 },
        "label": "Li",
        "xyz": [1.0830391414199316, -1.0830391414199316, -1.0830391414199316]
      },
      {
        "species": [{ "element": "Ag", "occu": 1 }],
        "abc": [0.34378024, 0.34378024, 0.34378024],
        "properties": { "magmom": -0.0 },
        "label": "Ag",
        "xyz": [-1.6282597822059768, -1.6282597822059768, -1.6282597822059768]
      },
      {
        "species": [{ "element": "Ag", "occu": 1 }],
        "abc": [0.65621976, 0.0, 0.0],
        "properties": { "magmom": -0.0 },
        "label": "Ag",
        "xyz": [-3.1080792877940233, -3.1080792877940233, 3.1080792877940233]
      },
      {
        "species": [{ "element": "Ag", "occu": 1 }],
        "abc": [0.0, 0.65621976, -0.0],
        "properties": { "magmom": -0.0 },
        "label": "Ag",
        "xyz": [-3.1080792877940233, 3.1080792877940233, -3.1080792877940233]
      },
      {
        "species": [{ "element": "Ag", "occu": 1 }],
        "abc": [0.0, 0.0, 0.65621976],
        "properties": { "magmom": -0.0 },
        "label": "Ag",
        "xyz": [3.1080792877940233, -3.1080792877940233, -3.1080792877940233]
      },
      {
        "species": [{ "element": "Ag", "occu": 1 }],
        "abc": [0.64586098, 0.64586098, 0.0],
        "properties": { "magmom": -0.0 },
        "label": "Ag",
        "xyz": [-6.118033186724977, 0.0, 0.0]
      },
      {
        "species": [{ "element": "Ag", "occu": 1 }],
        "abc": [0.35413902, 0.35413902, 0.0],
        "properties": { "magmom": -0.0 },
        "label": "Ag",
        "xyz": [-3.354644953275023, 0.0, 0.0]
      },
      {
        "species": [{ "element": "Ag", "occu": 1 }],
        "abc": [0.64586098, -0.0, 0.64586098],
        "properties": { "magmom": -0.0 },
        "label": "Ag",
        "xyz": [0.0, -6.118033186724977, 0.0]
      },
      {
        "species": [{ "element": "Ag", "occu": 1 }],
        "abc": [0.35413902, -0.0, 0.35413902],
        "properties": { "magmom": -0.0 },
        "label": "Ag",
        "xyz": [0.0, -3.354644953275023, 0.0]
      },
      {
        "species": [{ "element": "Ag", "occu": 1 }],
        "abc": [-0.0, 0.64586098, 0.64586098],
        "properties": { "magmom": -0.0 },
        "label": "Ag",
        "xyz": [0.0, 0.0, -6.118033186724977]
      },
      {
        "species": [{ "element": "Ag", "occu": 1 }],
        "abc": [0.0, 0.35413902, 0.35413902],
        "properties": { "magmom": -0.0 },
        "label": "Ag",
        "xyz": [0.0, 0.0, -3.354644953275023]
      }
    ]
  },
  "task_ids": null,
  "uncorrected_energy_per_atom": null,
  "energy_per_atom": -9.847615153076923,
  "formation_energy_per_atom": -0.16507384294871802,
  "energy_above_hull": 0.0,
  "is_stable": true,
  "equilibrium_reaction_energy_per_atom": null,
  "decomposes_to": null,
  "xas": null,
  "grain_boundaries": null,
  "band_gap": 0.0,
  "cbm": null,
  "vbm": null,
  "efermi": 1.40417534,
  "is_gap_direct": null,
  "is_metal": null,
  "es_source_calc_id": null,
  "bandstructure": null,
  "dos": null,
  "dos_energy_up": null,
  "dos_energy_down": null,
  "is_magnetic": null,
  "ordering": null,
  "total_magnetization": 2.299999999999998e-6,
  "total_magnetization_normalized_vol": null,
  "total_magnetization_normalized_formula_units": null,
  "num_magnetic_sites": null,
  "num_unique_magnetic_sites": null,
  "types_of_magnetic_species": null,
  "bulk_modulus": null,
  "shear_modulus": null,
  "universal_anisotropy": null,
  "homogeneous_poisson": null,
  "e_total": null,
  "e_ionic": null,
  "e_electronic": null,
  "n": null,
  "e_ij_max": null,
  "weighted_surface_energy_EV_PER_ANG2": null,
  "weighted_surface_energy": null,
  "weighted_work_function": null,
  "surface_anisotropy": null,
  "shape_factor": null,
  "has_reconstructed": null,
  "possible_species": null,
  "has_props": null,
  "theoretical": null,
  "database_IDs": null,
  "fields_not_requested": [
    "builder_meta",
    "nsites",
    "elements",
    "nelements",
    "composition",
    "composition_reduced",
    "chemsys",
    "symmetry",
    "property_name",
    "deprecated",
    "deprecation_reasons",
    "last_updated",
    "origins",
    "warnings",
    "task_ids",
    "uncorrected_energy_per_atom",
    "equilibrium_reaction_energy_per_atom",
    "decomposes_to",
    "xas",
    "grain_boundaries",
    "cbm",
    "vbm",
    "is_gap_direct",
    "is_metal",
    "es_source_calc_id",
    "bandstructure",
    "dos",
    "dos_energy_up",
    "dos_energy_down",
    "is_magnetic",
    "ordering",
    "total_magnetization_normalized_vol",
    "total_magnetization_normalized_formula_units",
    "num_magnetic_sites",
    "num_unique_magnetic_sites",
    "types_of_magnetic_species",
    "bulk_modulus",
    "shear_modulus",
    "universal_anisotropy",
    "homogeneous_poisson",
    "e_total",
    "e_ionic",
    "e_electronic",
    "n",
    "e_ij_max",
    "weighted_surface_energy_EV_PER_ANG2",
    "weighted_surface_energy",
    "weighted_work_function",
    "surface_anisotropy",
    "shape_factor",
    "has_reconstructed",
    "possible_species",
    "has_props",
    "theoretical",
    "database_IDs"
  ]
}
