{"builder_meta": null, "nsites": null, "elements": null, "nelements": null, "composition": null, "composition_reduced": null, "formula_pretty": "Li8Hf3", "formula_anonymous": "A3B8", "chemsys": null, "volume": 595.9608131617656, "density": 3.293422136519186, "density_atomic": 27.089127870989344, "symmetry": null, "property_name": null, "material_id": "mp-1190933", "deprecated": null, "deprecation_reasons": null, "last_updated": null, "origins": null, "warnings": null, "structure": {"@module": "pymatgen.core.structure", "@class": "Structure", "charge": 0, "lattice": {"matrix": [[-5.301343, 5.301343, 5.301343], [5.301343, -5.301343, 5.301343], [5.301343, 5.301343, -5.301343]], "pbc": [true, true, true], "a": 9.182195424349615, "b": 9.182195424349615, "c": 9.182195424349615, "alpha": 109.47122063449069, "beta": 109.47122063449069, "gamma": 109.47122063449069, "volume": 595.9608131617656}, "properties": {}, "sites": [{"species": [{"element": "Li", "occu": 1}], "abc": [0.0, 0.0, 0.5], "properties": {"magmom": 0.018000000000000002}, "label": "Li", "xyz": [2.6506715, 2.6506715, -2.6506715]}, {"species": [{"element": "Li", "occu": 1}], "abc": [0.0, 0.5, 0.0], "properties": {"magmom": 0.018000000000000002}, "label": "Li", "xyz": [2.6506715, -2.6506715, 2.6506715]}, {"species": [{"element": "Li", "occu": 1}], "abc": [0.5, 0.0, 0.0], "properties": {"magmom": 0.018000000000000002}, "label": "Li", "xyz": [-2.6506715, 2.6506715, 2.6506715]}, {"species": [{"element": "Li", "occu": 1}], "abc": [0.5, 0.5, 0.5], "properties": {"magmom": 0.018000000000000002}, "label": "Li", "xyz": [2.6506715, 2.6506715, 2.6506715]}, {"species": [{"element": "Li", "occu": 1}], "abc": [0.192651, 0.192651, 0.385302], "properties": {"magmom": 0.018000000000000002}, "label": "Li", "xyz": [2.042618060586, 2.042618060586, 0.0]}, {"species": [{"element": "Li", "occu": 1}], "abc": [0.807349, 0.0, 0.192651], "properties": {"magmom": 0.018000000000000002}, "label": "Li", "xyz": [-3.2587249394140008, 5.301343, 3.2587249394140008]}, {"species": [{"element": "Li", "occu": 1}], "abc": [0.0, 0.807349, 0.192651], "properties": {"magmom": 0.018000000000000002}, "label": "Li", "xyz": [5.301343, -3.2587249394140008, 3.2587249394140008]}, {"species": [{"element": "Li", "occu": 1}], "abc": [0.807349, 0.192651, 0.0], "properties": {"magmom": 0.018000000000000002}, "label": "Li", "xyz": [-3.2587249394140008, 3.2587249394140008, 5.301343]}, {"species": [{"element": "Li", "occu": 1}], "abc": [0.192651, 0.385302, 0.192651], "properties": {"magmom": 0.018000000000000002}, "label": "Li", "xyz": [2.042618060586, 0.0, 2.0426180605860003]}, {"species": [{"element": "Li", "occu": 1}], "abc": [0.0, 0.192651, 0.807349], "properties": {"magmom": 0.018000000000000002}, "label": "Li", "xyz": [5.301343, 3.2587249394140008, -3.2587249394140008]}, {"species": [{"element": "Li", "occu": 1}], "abc": [0.192651, 0.807349, 0.0], "properties": {"magmom": 0.018000000000000002}, "label": "Li", "xyz": [3.2587249394140008, -3.2587249394140008, 5.301343]}, {"species": [{"element": "Li", "occu": 1}], "abc": [0.192651, 0.0, 0.807349], "properties": {"magmom": 0.018000000000000002}, "label": "Li", "xyz": [3.2587249394140008, 5.301343, -3.2587249394140008]}, {"species": [{"element": "Li", "occu": 1}], "abc": [0.385302, 0.192651, 0.192651], "properties": {"magmom": 0.018000000000000002}, "label": "Li", "xyz": [0.0, 2.042618060586, 2.0426180605860003]}, {"species": [{"element": "Li", "occu": 1}], "abc": [0.807349, 0.807349, 0.614698], "properties": {"magmom": 0.018000000000000002}, "label": "Li", "xyz": [3.258724939414, 3.258724939414, 5.301343000000001]}, {"species": [{"element": "Li", "occu": 1}], "abc": [0.807349, 0.614698, 0.807349], "properties": {"magmom": 0.018000000000000002}, "label": "Li", "xyz": [3.258724939414, 5.301343000000001, 3.258724939414]}, {"species": [{"element": "Li", "occu": 1}], "abc": [0.614698, 0.807349, 0.807349], "properties": {"magmom": 0.018000000000000002}, "label": "Li", "xyz": [5.301343000000001, 3.258724939414, 3.258724939414]}, {"species": [{"element": "Hf", "occu": 1}], "abc": [0.6141300000000001, 0.6141300000000001, 0.0], "properties": {"magmom": 0.083}, "label": "Hf", "xyz": [0.0, 0.0, 6.511427553180001]}, {"species": [{"element": "Hf", "occu": 1}], "abc": [0.38587000000000005, 0.0, 0.38587000000000005], "properties": {"magmom": 0.083}, "label": "Hf", "xyz": [0.0, 4.09125844682, 0.0]}, {"species": [{"element": "Hf", "occu": 1}], "abc": [0.0, 0.38587000000000005, 0.38587000000000005], "properties": {"magmom": 0.083}, "label": "Hf", "xyz": [4.09125844682, 0.0, 0.0]}, {"species": [{"element": "Hf", "occu": 1}], "abc": [0.38587000000000005, 0.38587000000000005, 0.0], "properties": {"magmom": 0.083}, "label": "Hf", "xyz": [0.0, 0.0, 4.09125844682]}, {"species": [{"element": "Hf", "occu": 1}], "abc": [0.6141300000000001, 0.0, 0.6141300000000001], "properties": {"magmom": 0.083}, "label": "Hf", "xyz": [0.0, 6.511427553180001, 0.0]}, {"species": [{"element": "Hf", "occu": 1}], "abc": [0.0, 0.6141300000000001, 0.6141300000000001], "properties": {"magmom": 0.083}, "label": "Hf", "xyz": [6.511427553180001, 0.0, 0.0]}]}, "task_ids": null, "uncorrected_energy_per_atom": null, "energy_per_atom": -13.000226853939393, "formation_energy_per_atom": 1.049582007575754, "energy_above_hull": 1.049582007575756, "is_stable": false, "equilibrium_reaction_energy_per_atom": null, "decomposes_to": null, "xas": null, "grain_boundaries": null, "band_gap": 0.0, "cbm": null, "vbm": null, "efermi": 0.00215114, "is_gap_direct": null, "is_metal": null, "es_source_calc_id": null, "bandstructure": null, "dos": null, "dos_energy_up": null, "dos_energy_down": null, "is_magnetic": null, "ordering": null, "total_magnetization": 2.0591069, "total_magnetization_normalized_vol": null, "total_magnetization_normalized_formula_units": null, "num_magnetic_sites": null, "num_unique_magnetic_sites": null, "types_of_magnetic_species": null, "bulk_modulus": null, "shear_modulus": null, "universal_anisotropy": null, "homogeneous_poisson": null, "e_total": null, "e_ionic": null, "e_electronic": null, "n": null, "e_ij_max": null, "weighted_surface_energy_EV_PER_ANG2": null, "weighted_surface_energy": null, "weighted_work_function": null, "surface_anisotropy": null, "shape_factor": null, "has_reconstructed": null, "possible_species": null, "has_props": null, "theoretical": null, "database_IDs": null, "fields_not_requested": ["builder_meta", "nsites", "elements", "nelements", "composition", "composition_reduced", "chemsys", "symmetry", "property_name", "deprecated", "deprecation_reasons", "last_updated", "origins", "warnings", "task_ids", "uncorrected_energy_per_atom", "equilibrium_reaction_energy_per_atom", "decomposes_to", "xas", "grain_boundaries", "cbm", "vbm", "is_gap_direct", "is_metal", "es_source_calc_id", "bandstructure", "dos", "dos_energy_up", "dos_energy_down", "is_magnetic", "ordering", "total_magnetization_normalized_vol", "total_magnetization_normalized_formula_units", "num_magnetic_sites", "num_unique_magnetic_sites", "types_of_magnetic_species", "bulk_modulus", "shear_modulus", "universal_anisotropy", "homogeneous_poisson", "e_total", "e_ionic", "e_electronic", "n", "e_ij_max", "weighted_surface_energy_EV_PER_ANG2", "weighted_surface_energy", "weighted_work_function", "surface_anisotropy", "shape_factor", "has_reconstructed", "possible_species", "has_props", "theoretical", "database_IDs"]}