{
  "builder_meta": null,
  "nsites": null,
  "elements": null,
  "nelements": null,
  "composition": null,
  "composition_reduced": null,
  "formula_pretty": "Li8Pb3",
  "formula_anonymous": "A3B8",
  "chemsys": null,
  "volume": 206.19469458635928,
  "density": 5.453086459592683,
  "density_atomic": 18.74497223512357,
  "symmetry": null,
  "property_name": null,
  "material_id": "mp-27587",
  "deprecated": null,
  "deprecation_reasons": null,
  "last_updated": null,
  "origins": null,
  "warnings": null,
  "structure": {
    "@module": "pymatgen.core.structure",
    "@class": "Structure",
    "charge": 0,
    "lattice": {
      "matrix": [
        [4.73950017, -0.0, 0.0],
        [-2.369750589999999, 3.9611809300000003, -1.00688056],
        [0.0, 0.03801524, 10.97331882]
      ],
      "pbc": [true, true, true],
      "a": 4.73950017,
      "b": 4.724455596267884,
      "c": 10.973384668544087,
      "alpha": 102.13495598124341,
      "beta": 90.0,
      "gamma": 120.10540233079395,
      "volume": 206.1946945863593
    },
    "properties": {},
    "sites": [
      {
        "species": [{ "element": "Li", "occu": 1 }],
        "abc": [0.91140648, 0.82281196, 0.73560175],
        "properties": { "magmom": -0.001 },
        "label": "Li",
        "xyz": [2.369752039230046, 3.287271121998593, 7.243519160240438]
      },
      {
        "species": [{ "element": "Li", "occu": 1 }],
        "abc": [0.08859352, 0.17718804, 0.26439825],
        "properties": { "magmom": -0.001 },
        "label": "Li",
        "xyz": [-2.459230044993266e-6, 0.7119250480014072, 2.7229190997595625]
      },
      {
        "species": [{ "element": "Li", "occu": 1 }],
        "abc": [0.82086799, 0.64173698, 0.4651632],
        "properties": { "magmom": 0.0 },
        "label": "Li",
        "xyz": [2.3697473911727407, 2.5597195779389597, 4.458231607136314]
      },
      {
        "species": [{ "element": "Li", "occu": 1 }],
        "abc": [0.36318469000000003, 0.72636738, 0.08701499],
        "properties": { "magmom": 0.0 },
        "label": "Li",
        "xyz": [4.372684644149416e-6, 2.8805805095585115, 0.22347803304897895]
      },
      {
        "species": [{ "element": "Li", "occu": 1 }],
        "abc": [0.63681531, 0.27363262, 0.91298501],
        "properties": { "magmom": 0.0 },
        "label": "Li",
        "xyz": [2.3697452073153578, 1.118615660441489, 9.74296022695102]
      },
      {
        "species": [{ "element": "Li", "occu": 1 }],
        "abc": [0.2715149, 0.54302979, 0.8187870500000001],
        "properties": { "magmom": 0.0 },
        "label": "Li",
        "xyz": [-2.505325422674787e-7, 2.1821656347845466, 8.438045206285398]
      },
      {
        "species": [{ "element": "Li", "occu": 1 }],
        "abc": [0.7284851, 0.45697021, 0.18121295],
        "properties": { "magmom": 0.0 },
        "label": "Li",
        "xyz": [2.3697498305325437, 1.8170305352154534, 1.5283930537146013]
      },
      {
        "species": [{ "element": "Li", "occu": 1 }],
        "abc": [0.17913201, 0.35826302, 0.5348368],
        "properties": { "magmom": 0.0 },
        "label": "Li",
        "xyz": [2.1888272604408954e-6, 1.4394765920610406, 5.508206652863684]
      },
      {
        "species": [{ "element": "Pb", "occu": 1 }],
        "abc": [0.54686675, 0.0937335, 0.64189681],
        "properties": { "magmom": 0.0 },
        "label": "Pb",
        "xyz": [2.3697500376645824, 0.39569721398953944, 6.949359906700203]
      },
      {
        "species": [{ "element": "Pb", "occu": 1 }],
        "abc": [0.45313325, 0.9062665, 0.35810319],
        "properties": { "magmom": 0.0 },
        "label": "Pb",
        "xyz": [-4.5766458134366417e-7, 3.603498956010461, 3.017078353299796]
      },
      {
        "species": [{ "element": "Pb", "occu": 1 }],
        "abc": [0.0, 0.0, -0.0],
        "properties": { "magmom": 0.0 },
        "label": "Pb",
        "xyz": [0.0, 0.0, 0.0]
      }
    ]
  },
  "task_ids": null,
  "uncorrected_energy_per_atom": null,
  "energy_per_atom": -2.7287401890909093,
  "formation_energy_per_atom": -0.327892539696969,
  "energy_above_hull": 0.0,
  "is_stable": true,
  "equilibrium_reaction_energy_per_atom": null,
  "decomposes_to": null,
  "xas": null,
  "grain_boundaries": null,
  "band_gap": 0.0,
  "cbm": null,
  "vbm": null,
  "efermi": 3.76994483,
  "is_gap_direct": null,
  "is_metal": null,
  "es_source_calc_id": null,
  "bandstructure": null,
  "dos": null,
  "dos_energy_up": null,
  "dos_energy_down": null,
  "is_magnetic": null,
  "ordering": null,
  "total_magnetization": 0.0005623,
  "total_magnetization_normalized_vol": null,
  "total_magnetization_normalized_formula_units": null,
  "num_magnetic_sites": null,
  "num_unique_magnetic_sites": null,
  "types_of_magnetic_species": null,
  "bulk_modulus": null,
  "shear_modulus": null,
  "universal_anisotropy": null,
  "homogeneous_poisson": null,
  "e_total": null,
  "e_ionic": null,
  "e_electronic": null,
  "n": null,
  "e_ij_max": null,
  "weighted_surface_energy_EV_PER_ANG2": null,
  "weighted_surface_energy": null,
  "weighted_work_function": null,
  "surface_anisotropy": null,
  "shape_factor": null,
  "has_reconstructed": null,
  "possible_species": null,
  "has_props": null,
  "theoretical": null,
  "database_IDs": null,
  "fields_not_requested": [
    "builder_meta",
    "nsites",
    "elements",
    "nelements",
    "composition",
    "composition_reduced",
    "chemsys",
    "symmetry",
    "property_name",
    "deprecated",
    "deprecation_reasons",
    "last_updated",
    "origins",
    "warnings",
    "task_ids",
    "uncorrected_energy_per_atom",
    "equilibrium_reaction_energy_per_atom",
    "decomposes_to",
    "xas",
    "grain_boundaries",
    "cbm",
    "vbm",
    "is_gap_direct",
    "is_metal",
    "es_source_calc_id",
    "bandstructure",
    "dos",
    "dos_energy_up",
    "dos_energy_down",
    "is_magnetic",
    "ordering",
    "total_magnetization_normalized_vol",
    "total_magnetization_normalized_formula_units",
    "num_magnetic_sites",
    "num_unique_magnetic_sites",
    "types_of_magnetic_species",
    "bulk_modulus",
    "shear_modulus",
    "universal_anisotropy",
    "homogeneous_poisson",
    "e_total",
    "e_ionic",
    "e_electronic",
    "n",
    "e_ij_max",
    "weighted_surface_energy_EV_PER_ANG2",
    "weighted_surface_energy",
    "weighted_work_function",
    "surface_anisotropy",
    "shape_factor",
    "has_reconstructed",
    "possible_species",
    "has_props",
    "theoretical",
    "database_IDs"
  ]
}
