{
  "builder_meta": null,
  "nsites": null,
  "elements": null,
  "nelements": null,
  "composition": null,
  "composition_reduced": null,
  "formula_pretty": "LiAl",
  "formula_anonymous": "AB",
  "chemsys": null,
  "volume": 63.31241035359482,
  "density": 1.7794205044145222,
  "density_atomic": 15.828102588398705,
  "symmetry": null,
  "property_name": null,
  "material_id": "mp-1067",
  "deprecated": null,
  "deprecation_reasons": null,
  "last_updated": null,
  "origins": null,
  "warnings": null,
  "structure": {
    "@module": "pymatgen.core.structure",
    "@class": "Structure",
    "charge": 0,
    "lattice": {
      "matrix": [
        [3.87313098, 0.0, -2.233552],
        [-1.28804141, 3.65268333, -2.233552],
        [8.967000000000001e-5, 0.00012563, 4.47506851]
      ],
      "pbc": [true, true, true],
      "a": 4.471006388380558,
      "b": 4.471006678572364,
      "c": 4.475068512661815,
      "alpha": 119.96999422244802,
      "beta": 119.96998342292873,
      "gamma": 89.99999584937392,
      "volume": 63.31241035359482
    },
    "properties": {},
    "sites": [
      {
        "species": [{ "element": "Li", "occu": 1 }],
        "abc": [0.375, 0.625, 0.75],
        "properties": { "magmom": -0.0 },
        "label": "Li",
        "xyz": [0.6474654887500001, 2.28302130375, 1.1227493825]
      },
      {
        "species": [{ "element": "Li", "occu": 1 }],
        "abc": [0.625, 0.375, 0.25],
        "properties": { "magmom": -0.0 },
        "label": "Li",
        "xyz": [1.93771375125, 1.36978765625, -1.1147848725]
      },
      {
        "species": [{ "element": "Al", "occu": 1 }],
        "abc": [0.875, 0.125, 0.75],
        "properties": { "magmom": 0.0 },
        "label": "Al",
        "xyz": [3.2280516837500004, 0.45667963875, 1.1227493825]
      },
      {
        "species": [{ "element": "Al", "occu": 1 }],
        "abc": [0.125, 0.875, 0.25],
        "properties": { "magmom": 0.0 },
        "label": "Al",
        "xyz": [-0.64287244375, 3.19612932125, -1.1147848725]
      }
    ]
  },
  "task_ids": null,
  "uncorrected_energy_per_atom": null,
  "energy_per_atom": -4.76788116,
  "formation_energy_per_atom": -0.20847878833333303,
  "energy_above_hull": 0.0,
  "is_stable": true,
  "equilibrium_reaction_energy_per_atom": null,
  "decomposes_to": null,
  "xas": null,
  "grain_boundaries": null,
  "band_gap": 0.0,
  "cbm": null,
  "vbm": null,
  "efermi": 4.71681619,
  "is_gap_direct": null,
  "is_metal": null,
  "es_source_calc_id": null,
  "bandstructure": null,
  "dos": null,
  "dos_energy_up": null,
  "dos_energy_down": null,
  "is_magnetic": null,
  "ordering": null,
  "total_magnetization": 1e-6,
  "total_magnetization_normalized_vol": null,
  "total_magnetization_normalized_formula_units": null,
  "num_magnetic_sites": null,
  "num_unique_magnetic_sites": null,
  "types_of_magnetic_species": null,
  "bulk_modulus": null,
  "shear_modulus": null,
  "universal_anisotropy": null,
  "homogeneous_poisson": null,
  "e_total": null,
  "e_ionic": null,
  "e_electronic": null,
  "n": null,
  "e_ij_max": null,
  "weighted_surface_energy_EV_PER_ANG2": null,
  "weighted_surface_energy": null,
  "weighted_work_function": null,
  "surface_anisotropy": null,
  "shape_factor": null,
  "has_reconstructed": null,
  "possible_species": null,
  "has_props": null,
  "theoretical": null,
  "database_IDs": null,
  "fields_not_requested": [
    "builder_meta",
    "nsites",
    "elements",
    "nelements",
    "composition",
    "composition_reduced",
    "chemsys",
    "symmetry",
    "property_name",
    "deprecated",
    "deprecation_reasons",
    "last_updated",
    "origins",
    "warnings",
    "task_ids",
    "uncorrected_energy_per_atom",
    "equilibrium_reaction_energy_per_atom",
    "decomposes_to",
    "xas",
    "grain_boundaries",
    "cbm",
    "vbm",
    "is_gap_direct",
    "is_metal",
    "es_source_calc_id",
    "bandstructure",
    "dos",
    "dos_energy_up",
    "dos_energy_down",
    "is_magnetic",
    "ordering",
    "total_magnetization_normalized_vol",
    "total_magnetization_normalized_formula_units",
    "num_magnetic_sites",
    "num_unique_magnetic_sites",
    "types_of_magnetic_species",
    "bulk_modulus",
    "shear_modulus",
    "universal_anisotropy",
    "homogeneous_poisson",
    "e_total",
    "e_ionic",
    "e_electronic",
    "n",
    "e_ij_max",
    "weighted_surface_energy_EV_PER_ANG2",
    "weighted_surface_energy",
    "weighted_work_function",
    "surface_anisotropy",
    "shape_factor",
    "has_reconstructed",
    "possible_species",
    "has_props",
    "theoretical",
    "database_IDs"
  ]
}
