{"builder_meta": null, "nsites": null, "elements": null, "nelements": null, "composition": null, "composition_reduced": null, "formula_pretty": "LiAl2", "formula_anonymous": "AB2", "chemsys": null, "volume": 220.54994699216124, "density": 1.834207641127509, "density_atomic": 18.37916224934677, "symmetry": null, "property_name": null, "material_id": "mp-1211134", "deprecated": null, "deprecation_reasons": null, "last_updated": null, "origins": null, "warnings": null, "structure": {"@module": "pymatgen.core.structure", "@class": "Structure", "charge": 0, "lattice": {"matrix": [[-4.795409, -4.795409, 0.0], [-4.795409, 0.0, -4.795409], [0.0, -4.795409, -4.795409]], "pbc": [true, true, true], "a": 6.781732444926002, "b": 6.781732444926002, "c": 6.781732444926002, "alpha": 59.99999999999999, "beta": 59.99999999999999, "gamma": 59.99999999999999, "volume": 220.54994699216124}, "properties": {}, "sites": [{"species": [{"element": "Li", "occu": 1}], "abc": [0.875, 0.875, 0.875], "properties": {"magmom": -0.0}, "label": "Li", "xyz": [-8.39196575, -8.39196575, -8.39196575]}, {"species": [{"element": "Li", "occu": 1}], "abc": [0.375, 0.875, 0.875], "properties": {"magmom": -0.0}, "label": "Li", "xyz": [-5.994261250000001, -5.994261250000001, -8.39196575]}, {"species": [{"element": "Li", "occu": 1}], "abc": [0.875, 0.375, 0.875], "properties": {"magmom": -0.0}, "label": "Li", "xyz": [-5.994261250000001, -8.39196575, -5.994261250000001]}, {"species": [{"element": "Li", "occu": 1}], "abc": [0.875, 0.875, 0.375], "properties": {"magmom": -0.0}, "label": "Li", "xyz": [-8.39196575, -5.994261250000001, -5.994261250000001]}, {"species": [{"element": "Al", "occu": 1}], "abc": [0.601526999999999, 0.601526999999999, 0.601526999999999], "properties": {"magmom": 0.0}, "label": "Al", "xyz": [-5.769135979085991, -5.769135979085991, -5.769135979085991]}, {"species": [{"element": "Al", "occu": 1}], "abc": [0.195418999999999, 0.601526999999999, 0.601526999999999], "properties": {"magmom": 0.0}, "label": "Al", "xyz": [-3.821682020913991, -3.821682020913991, -5.769135979085991]}, {"species": [{"element": "Al", "occu": 1}], "abc": [0.601526999999999, 0.195418999999999, 0.601526999999999], "properties": {"magmom": 0.0}, "label": "Al", "xyz": [-3.821682020913991, -5.769135979085991, -3.821682020913991]}, {"species": [{"element": "Al", "occu": 1}], "abc": [0.554581, 0.148473, 0.148473], "properties": {"magmom": 0.0}, "label": "Al", "xyz": [-3.371431479086, -3.371431479086, -1.423977520914]}, {"species": [{"element": "Al", "occu": 1}], "abc": [0.148473, 0.148473, 0.148473], "properties": {"magmom": 0.0}, "label": "Al", "xyz": [-1.423977520914, -1.423977520914, -1.423977520914]}, {"species": [{"element": "Al", "occu": 1}], "abc": [0.601526999999999, 0.601526999999999, 0.195418999999999], "properties": {"magmom": 0.0}, "label": "Al", "xyz": [-5.769135979085991, -3.821682020913991, -3.821682020913991]}, {"species": [{"element": "Al", "occu": 1}], "abc": [0.148473, 0.554581, 0.148473], "properties": {"magmom": 0.0}, "label": "Al", "xyz": [-3.371431479086, -1.423977520914, -3.371431479086]}, {"species": [{"element": "Al", "occu": 1}], "abc": [0.148473, 0.148473, 0.554581], "properties": {"magmom": 0.0}, "label": "Al", "xyz": [-1.423977520914, -3.371431479086, -3.371431479086]}]}, "task_ids": null, "uncorrected_energy_per_atom": null, "energy_per_atom": -5.056624669166667, "formation_energy_per_atom": 0.227009688611111, "energy_above_hull": 0.365995547499999, "is_stable": false, "equilibrium_reaction_energy_per_atom": null, "decomposes_to": null, "xas": null, "grain_boundaries": null, "band_gap": 0.0, "cbm": null, "vbm": null, "efermi": 4.441121, "is_gap_direct": null, "is_metal": null, "es_source_calc_id": null, "bandstructure": null, "dos": null, "dos_energy_up": null, "dos_energy_down": null, "is_magnetic": null, "ordering": null, "total_magnetization": 0.0036160999999990005, "total_magnetization_normalized_vol": null, "total_magnetization_normalized_formula_units": null, "num_magnetic_sites": null, "num_unique_magnetic_sites": null, "types_of_magnetic_species": null, "bulk_modulus": null, "shear_modulus": null, "universal_anisotropy": null, "homogeneous_poisson": null, "e_total": null, "e_ionic": null, "e_electronic": null, "n": null, "e_ij_max": null, "weighted_surface_energy_EV_PER_ANG2": null, "weighted_surface_energy": null, "weighted_work_function": null, "surface_anisotropy": null, "shape_factor": null, "has_reconstructed": null, "possible_species": null, "has_props": null, "theoretical": null, "database_IDs": null, "fields_not_requested": ["builder_meta", "nsites", "elements", "nelements", "composition", "composition_reduced", "chemsys", "symmetry", "property_name", "deprecated", "deprecation_reasons", "last_updated", "origins", "warnings", "task_ids", "uncorrected_energy_per_atom", "equilibrium_reaction_energy_per_atom", "decomposes_to", "xas", "grain_boundaries", "cbm", "vbm", "is_gap_direct", "is_metal", "es_source_calc_id", "bandstructure", "dos", "dos_energy_up", "dos_energy_down", "is_magnetic", "ordering", "total_magnetization_normalized_vol", "total_magnetization_normalized_formula_units", "num_magnetic_sites", "num_unique_magnetic_sites", "types_of_magnetic_species", "bulk_modulus", "shear_modulus", "universal_anisotropy", "homogeneous_poisson", "e_total", "e_ionic", "e_electronic", "n", "e_ij_max", "weighted_surface_energy_EV_PER_ANG2", "weighted_surface_energy", "weighted_work_function", "surface_anisotropy", "shape_factor", "has_reconstructed", "possible_species", "has_props", "theoretical", "database_IDs"]}