{"builder_meta": null, "nsites": null, "elements": null, "nelements": null, "composition": null, "composition_reduced": null, "formula_pretty": "LiAs", "formula_anonymous": "AB", "chemsys": null, "volume": 287.3892010245731, "density": 3.784026537081356, "density_atomic": 17.961825064035818, "symmetry": null, "property_name": null, "material_id": "mp-7943", "deprecated": null, "deprecation_reasons": null, "last_updated": null, "origins": null, "warnings": null, "structure": {"@module": "pymatgen.core.structure", "@class": "Structure", "charge": 0, "lattice": {"matrix": [[5.20832454, 0.0, 0.0], [0.0, 5.79354089, -0.49299193], [0.0, 0.05434813, 9.51957147]], "pbc": [true, true, true], "a": 5.20832454, "b": 5.814478230000273, "c": 9.519726608032002, "alpha": 94.53667087492926, "beta": 90.0, "gamma": 90.0, "volume": 287.3892010245731}, "properties": {}, "sites": [{"species": [{"element": "Li", "occu": 1}], "abc": [0.83282548, 0.32052509, 0.55066773], "properties": {"magmom": -0.0}, "label": "Li", "xyz": [4.337625385021279, 1.8869029765627752, 5.08410452922514]}, {"species": [{"element": "Li", "occu": 1}], "abc": [0.33282548, 0.17947491000000002, 0.94933227], "properties": {"magmom": -0.0}, "label": "Li", "xyz": [1.7334631150212791, 1.091389663437225, 8.94875671077486]}, {"species": [{"element": "Li", "occu": 1}], "abc": [0.16717452, 0.67947491, 0.44933227000000003], "properties": {"magmom": -0.0}, "label": "Li", "xyz": [0.8706991549787206, 3.9609860434372255, 3.9424750107748614]}, {"species": [{"element": "Li", "occu": 1}], "abc": [0.66717452, 0.8205250900000001, 0.05066773], "properties": {"magmom": -0.0}, "label": "Li", "xyz": [3.4748614249787204, 4.756499356562776, 0.07782282922513939]}, {"species": [{"element": "Li", "occu": 1}], "abc": [0.08314989, 0.59688811, 0.82855258], "properties": {"magmom": -0.0}, "label": "Li", "xyz": [0.4330716125853006, 3.503125955369493, 7.593204480619941]}, {"species": [{"element": "Li", "occu": 1}], "abc": [0.5831498900000001, 0.90311189, 0.67144742], "properties": {"magmom": -0.0}, "label": "Li", "xyz": [3.0372338825853005, 5.268707574630507, 5.94666482938006]}, {"species": [{"element": "Li", "occu": 1}], "abc": [0.91685011, 0.40311189000000003, 0.17144742000000002], "properties": {"magmom": -0.0}, "label": "Li", "xyz": [4.775252927414699, 2.344763064630507, 1.43337505938006]}, {"species": [{"element": "Li", "occu": 1}], "abc": [0.41685011, 0.09688811, 0.32855258], "properties": {"magmom": -0.0}, "label": "Li", "xyz": [2.171090657414699, 0.5791814453694933, 3.0799147106199407]}, {"species": [{"element": "As", "occu": 1}], "abc": [0.3334451, 0.31181777, 0.60073843], "properties": {"magmom": 0.0}, "label": "As", "xyz": [1.7366902970727538, 1.8391780110132512, 5.565048774919997]}, {"species": [{"element": "As", "occu": 1}], "abc": [0.833445099999999, 0.18818223, 0.8992615700000001], "properties": {"magmom": 0.0}, "label": "As", "xyz": [4.340852567072749, 1.1391146289867489, 8.467812465080007]}, {"species": [{"element": "As", "occu": 1}], "abc": [0.6665549, 0.68818223, 0.39926157], "properties": {"magmom": 0.0}, "label": "As", "xyz": [3.4716342429272453, 4.008711008986749, 3.4615307650800045]}, {"species": [{"element": "As", "occu": 1}], "abc": [0.1665549, 0.81181777, 0.10073843], "properties": {"magmom": 0.0}, "label": "As", "xyz": [0.867471972927246, 4.708774391013252, 0.558767074919996]}, {"species": [{"element": "As", "occu": 1}], "abc": [0.57735055, 0.49661267000000003, 0.8004606400000001], "properties": {"magmom": 0.0}, "label": "As", "xyz": [3.007029037747497, 2.92064934905968, 7.3752162327561885]}, {"species": [{"element": "As", "occu": 1}], "abc": [0.07735055, 0.00338733, 0.69953936], "properties": {"magmom": 0.0}, "label": "As", "xyz": [0.40286676774749697, 0.0576432909403205, 6.657645007243813]}, {"species": [{"element": "As", "occu": 1}], "abc": [0.42264945, 0.50338733, 0.19953936], "properties": {"magmom": 0.0}, "label": "As", "xyz": [2.2012955022525027, 2.927239670940321, 1.6513633072438125]}, {"species": [{"element": "As", "occu": 1}], "abc": [0.92264945, -0.00338733, 0.30046064], "properties": {"magmom": 0.0}, "label": "As", "xyz": [4.8054577722525025, -0.0032951609403205004, 2.861926462756188]}]}, "task_ids": null, "uncorrected_energy_per_atom": null, "energy_per_atom": -9.1353277975, "formation_energy_per_atom": -0.588209097083334, "energy_above_hull": 0.0, "is_stable": true, "equilibrium_reaction_energy_per_atom": null, "decomposes_to": null, "xas": null, "grain_boundaries": null, "band_gap": 0.3285, "cbm": null, "vbm": null, "efermi": 3.14337844, "is_gap_direct": null, "is_metal": null, "es_source_calc_id": null, "bandstructure": null, "dos": null, "dos_energy_up": null, "dos_energy_down": null, "is_magnetic": null, "ordering": null, "total_magnetization": 0.0, "total_magnetization_normalized_vol": null, "total_magnetization_normalized_formula_units": null, "num_magnetic_sites": null, "num_unique_magnetic_sites": null, "types_of_magnetic_species": null, "bulk_modulus": null, "shear_modulus": null, "universal_anisotropy": null, "homogeneous_poisson": null, "e_total": null, "e_ionic": null, "e_electronic": null, "n": null, "e_ij_max": null, "weighted_surface_energy_EV_PER_ANG2": null, "weighted_surface_energy": null, "weighted_work_function": null, "surface_anisotropy": null, "shape_factor": null, "has_reconstructed": null, "possible_species": null, "has_props": null, "theoretical": null, "database_IDs": null, "fields_not_requested": ["builder_meta", "nsites", "elements", "nelements", "composition", "composition_reduced", "chemsys", "symmetry", "property_name", "deprecated", "deprecation_reasons", "last_updated", "origins", "warnings", "task_ids", "uncorrected_energy_per_atom", "equilibrium_reaction_energy_per_atom", "decomposes_to", "xas", "grain_boundaries", "cbm", "vbm", "is_gap_direct", "is_metal", "es_source_calc_id", "bandstructure", "dos", "dos_energy_up", "dos_energy_down", "is_magnetic", "ordering", "total_magnetization_normalized_vol", "total_magnetization_normalized_formula_units", "num_magnetic_sites", "num_unique_magnetic_sites", "types_of_magnetic_species", "bulk_modulus", "shear_modulus", "universal_anisotropy", "homogeneous_poisson", "e_total", "e_ionic", "e_electronic", "n", "e_ij_max", "weighted_surface_energy_EV_PER_ANG2", "weighted_surface_energy", "weighted_work_function", "surface_anisotropy", "shape_factor", "has_reconstructed", "possible_species", "has_props", "theoretical", "database_IDs"]}