{"builder_meta": null, "nsites": null, "elements": null, "nelements": null, "composition": null, "composition_reduced": null, "formula_pretty": "LiB3", "formula_anonymous": "AB3", "chemsys": null, "volume": 146.89719224397047, "density": 1.78034894226488, "density_atomic": 9.181074515248154, "symmetry": null, "property_name": null, "material_id": "mp-1222413", "deprecated": null, "deprecation_reasons": null, "last_updated": null, "origins": null, "warnings": null, "structure": {"@module": "pymatgen.core.structure", "@class": "Structure", "charge": 0, "lattice": {"matrix": [[-0.0, 0.0, 4.14105703], [5.95595135, 0.0, 0.0], [0.0, 5.95595135, 0.0]], "pbc": [true, true, true], "a": 4.14105703, "b": 5.95595135, "c": 5.95595135, "alpha": 90.0, "beta": 90.0, "gamma": 90.0, "volume": 146.89719224397047}, "properties": {}, "sites": [{"species": [{"element": "Li", "occu": 1}], "abc": [0.5, 0.17944306000000002, 0.67944306], "properties": {"magmom": -0.0}, "label": "Li", "xyz": [1.068754135455131, 4.0467298104551315, 2.070528515]}, {"species": [{"element": "Li", "occu": 1}], "abc": [0.5, 0.82055694, 0.32055694], "properties": {"magmom": -0.0}, "label": "Li", "xyz": [4.887197214544869, 1.9092215395448693, 2.070528515]}, {"species": [{"element": "Li", "occu": 1}], "abc": [0.5, 0.32055694, 0.17944306000000002], "properties": {"magmom": -0.0}, "label": "Li", "xyz": [1.9092215395448693, 1.068754135455131, 2.070528515]}, {"species": [{"element": "Li", "occu": 1}], "abc": [0.5, 0.67944306, 0.82055694], "properties": {"magmom": -0.0}, "label": "Li", "xyz": [4.0467298104551315, 4.887197214544869, 2.070528515]}, {"species": [{"element": "B", "occu": 1}], "abc": [0.7060691, 0.5, 0.5], "properties": {"magmom": -0.0}, "label": "B", "xyz": [2.977975675, 2.977975675, 2.9238724102207727]}, {"species": [{"element": "B", "occu": 1}], "abc": [0.7060691, 0.0, -0.0], "properties": {"magmom": -0.0}, "label": "B", "xyz": [0.0, 0.0, 2.9238724102207727]}, {"species": [{"element": "B", "occu": 1}], "abc": [0.2939309, 0.5, 0.5], "properties": {"magmom": -0.0}, "label": "B", "xyz": [2.977975675, 2.977975675, 1.2171846197792269]}, {"species": [{"element": "B", "occu": 1}], "abc": [0.2939309, 0.0, -0.0], "properties": {"magmom": -0.0}, "label": "B", "xyz": [0.0, 0.0, 1.2171846197792269]}, {"species": [{"element": "B", "occu": 1}], "abc": [0.0, 0.6646888, 0.63200926], "properties": {"magmom": 0.0}, "label": "B", "xyz": [3.95885415568988, 3.7642164053095013, 0.0]}, {"species": [{"element": "B", "occu": 1}], "abc": [0.0, 0.3353112, 0.36799074], "properties": {"magmom": 0.0}, "label": "B", "xyz": [1.99709719431012, 2.191734944690499, 0.0]}, {"species": [{"element": "B", "occu": 1}], "abc": [0.0, 0.835311199999999, 0.13200926], "properties": {"magmom": 0.0}, "label": "B", "xyz": [4.9750728693101145, 0.7862407303095009, 0.0]}, {"species": [{"element": "B", "occu": 1}], "abc": [0.0, 0.1646888, 0.86799074], "properties": {"magmom": 0.0}, "label": "B", "xyz": [0.98087848068988, 5.169710619690499, 0.0]}, {"species": [{"element": "B", "occu": 1}], "abc": [0.0, 0.63200926, 0.3353112], "properties": {"magmom": 0.0}, "label": "B", "xyz": [3.7642164053095013, 1.99709719431012, 0.0]}, {"species": [{"element": "B", "occu": 1}], "abc": [0.0, 0.36799074, 0.6646888], "properties": {"magmom": 0.0}, "label": "B", "xyz": [2.191734944690499, 3.95885415568988, 0.0]}, {"species": [{"element": "B", "occu": 1}], "abc": [0.0, 0.13200926, 0.1646888], "properties": {"magmom": 0.0}, "label": "B", "xyz": [0.7862407303095009, 0.98087848068988, 0.0]}, {"species": [{"element": "B", "occu": 1}], "abc": [0.0, 0.86799074, 0.835311199999999], "properties": {"magmom": 0.0}, "label": "B", "xyz": [5.169710619690499, 4.9750728693101145, 0.0]}]}, "task_ids": null, "uncorrected_energy_per_atom": null, "energy_per_atom": -6.39197159, "formation_energy_per_atom": -0.285529338541667, "energy_above_hull": 0.0, "is_stable": true, "equilibrium_reaction_energy_per_atom": null, "decomposes_to": null, "xas": null, "grain_boundaries": null, "band_gap": 0.09189999999999901, "cbm": null, "vbm": null, "efermi": 3.63390307, "is_gap_direct": null, "is_metal": null, "es_source_calc_id": null, "bandstructure": null, "dos": null, "dos_energy_up": null, "dos_energy_down": null, "is_magnetic": null, "ordering": null, "total_magnetization": 0.0, "total_magnetization_normalized_vol": null, "total_magnetization_normalized_formula_units": null, "num_magnetic_sites": null, "num_unique_magnetic_sites": null, "types_of_magnetic_species": null, "bulk_modulus": null, "shear_modulus": null, "universal_anisotropy": null, "homogeneous_poisson": null, "e_total": null, "e_ionic": null, "e_electronic": null, "n": null, "e_ij_max": null, "weighted_surface_energy_EV_PER_ANG2": null, "weighted_surface_energy": null, "weighted_work_function": null, "surface_anisotropy": null, "shape_factor": null, "has_reconstructed": null, "possible_species": null, "has_props": null, "theoretical": null, "database_IDs": null, "fields_not_requested": ["builder_meta", "nsites", "elements", "nelements", "composition", "composition_reduced", "chemsys", "symmetry", "property_name", "deprecated", "deprecation_reasons", "last_updated", "origins", "warnings", "task_ids", "uncorrected_energy_per_atom", "equilibrium_reaction_energy_per_atom", "decomposes_to", "xas", "grain_boundaries", "cbm", "vbm", "is_gap_direct", "is_metal", "es_source_calc_id", "bandstructure", "dos", "dos_energy_up", "dos_energy_down", "is_magnetic", "ordering", "total_magnetization_normalized_vol", "total_magnetization_normalized_formula_units", "num_magnetic_sites", "num_unique_magnetic_sites", "types_of_magnetic_species", "bulk_modulus", "shear_modulus", "universal_anisotropy", "homogeneous_poisson", "e_total", "e_ionic", "e_electronic", "n", "e_ij_max", "weighted_surface_energy_EV_PER_ANG2", "weighted_surface_energy", "weighted_work_function", "surface_anisotropy", "shape_factor", "has_reconstructed", "possible_species", "has_props", "theoretical", "database_IDs"]}