{"builder_meta": null, "nsites": null, "elements": null, "nelements": null, "composition": null, "composition_reduced": null, "formula_pretty": "LiBr", "formula_anonymous": "AB", "chemsys": null, "volume": 99.3445024061208, "density": 2.903220847578415, "density_atomic": 24.8361256015302, "symmetry": null, "property_name": null, "material_id": "mp-976280", "deprecated": null, "deprecation_reasons": null, "last_updated": null, "origins": null, "warnings": null, "structure": {"@module": "pymatgen.core.structure", "@class": "Structure", "charge": 0, "lattice": {"matrix": [[2.06993652, -3.58523046, -0.0], [2.06993652, 3.58523046, 0.0], [-0.0, 0.0, 6.69329149]], "pbc": [true, true, true], "a": 4.139868916782453, "b": 4.139868916782453, "c": 6.69329149, "alpha": 90.0, "beta": 90.0, "gamma": 119.99993410662806, "volume": 99.3445024061208}, "properties": {}, "sites": [{"species": [{"element": "Li", "occu": 1}], "abc": [0.0, -0.0, 0.37687524], "properties": {"magmom": 0.0}, "label": "Li", "xyz": [0.0, 0.0, 2.5225358366837076]}, {"species": [{"element": "Li", "occu": 1}], "abc": [0.333331999999999, 0.666665, 0.8768752400000001], "properties": {"magmom": 0.0}, "label": "Li", "xyz": [2.069930310190438, 1.1950756249231833, 5.869181581683708]}, {"species": [{"element": "Br", "occu": 1}], "abc": [-0.0, 0.0, 0.99812276], "properties": {"magmom": 0.0}, "label": "Br", "xyz": [0.0, 0.0, 6.6807265754833125]}, {"species": [{"element": "Br", "occu": 1}], "abc": [0.333331999999999, 0.666665, 0.49812276], "properties": {"magmom": 0.0}, "label": "Br", "xyz": [2.069930310190438, 1.1950756249231833, 3.3340808304833125]}]}, "task_ids": null, "uncorrected_energy_per_atom": null, "energy_per_atom": -3.608829235, "formation_energy_per_atom": -1.8358945341666661, "energy_above_hull": 0.0, "is_stable": true, "equilibrium_reaction_energy_per_atom": null, "decomposes_to": null, "xas": null, "grain_boundaries": null, "band_gap": 4.9348, "cbm": null, "vbm": null, "efermi": -1.71245015, "is_gap_direct": null, "is_metal": null, "es_source_calc_id": null, "bandstructure": null, "dos": null, "dos_energy_up": null, "dos_energy_down": null, "is_magnetic": null, "ordering": null, "total_magnetization": 0.0, "total_magnetization_normalized_vol": null, "total_magnetization_normalized_formula_units": null, "num_magnetic_sites": null, "num_unique_magnetic_sites": null, "types_of_magnetic_species": null, "bulk_modulus": null, "shear_modulus": null, "universal_anisotropy": null, "homogeneous_poisson": null, "e_total": null, "e_ionic": null, "e_electronic": null, "n": null, "e_ij_max": null, "weighted_surface_energy_EV_PER_ANG2": null, "weighted_surface_energy": null, "weighted_work_function": null, "surface_anisotropy": null, "shape_factor": null, "has_reconstructed": null, "possible_species": null, "has_props": null, "theoretical": null, "database_IDs": null, "fields_not_requested": ["builder_meta", "nsites", "elements", "nelements", "composition", "composition_reduced", "chemsys", "symmetry", "property_name", "deprecated", "deprecation_reasons", "last_updated", "origins", "warnings", "task_ids", "uncorrected_energy_per_atom", "equilibrium_reaction_energy_per_atom", "decomposes_to", "xas", "grain_boundaries", "cbm", "vbm", "is_gap_direct", "is_metal", "es_source_calc_id", "bandstructure", "dos", "dos_energy_up", "dos_energy_down", "is_magnetic", "ordering", "total_magnetization_normalized_vol", "total_magnetization_normalized_formula_units", "num_magnetic_sites", "num_unique_magnetic_sites", "types_of_magnetic_species", "bulk_modulus", "shear_modulus", "universal_anisotropy", "homogeneous_poisson", "e_total", "e_ionic", "e_electronic", "n", "e_ij_max", "weighted_surface_energy_EV_PER_ANG2", "weighted_surface_energy", "weighted_work_function", "surface_anisotropy", "shape_factor", "has_reconstructed", "possible_species", "has_props", "theoretical", "database_IDs"]}