{
  "builder_meta": null,
  "nsites": null,
  "elements": null,
  "nelements": null,
  "composition": null,
  "composition_reduced": null,
  "formula_pretty": "LiC",
  "formula_anonymous": "AB",
  "chemsys": null,
  "volume": 45.96833740475323,
  "density": 1.369204979131098,
  "density_atomic": 11.492084351188307,
  "symmetry": null,
  "property_name": null,
  "material_id": "mp-1378",
  "deprecated": null,
  "deprecation_reasons": null,
  "last_updated": null,
  "origins": null,
  "warnings": null,
  "structure": {
    "@module": "pymatgen.core.structure",
    "@class": "Structure",
    "charge": 0,
    "lattice": {
      "matrix": [
        [3.20947838, 0.0, 1.61193507],
        [1.4266634900000001, 3.56532885, 1.16053063],
        [-0.0052797, -0.023513299999999, 4.01163211]
      ],
      "pbc": [true, true, true],
      "a": 3.591529777348829,
      "b": 4.011704109915074,
      "c": 4.011704492667927,
      "alpha": 73.52458272493287,
      "beta": 63.408171496645096,
      "gamma": 63.40816766642372,
      "volume": 45.96833740475323
    },
    "properties": {},
    "sites": [
      {
        "species": [{ "element": "Li", "occu": 1 }],
        "abc": [0.76069444, 0.73930556, 0.73930556],
        "properties": { "magmom": 0.0 },
        "label": "Li",
        "xyz": [3.4922692978070797, 2.618483928609459, 5.049998716296845]
      },
      {
        "species": [{ "element": "Li", "occu": 1 }],
        "abc": [0.23930556, 0.26069444, 0.26069444],
        "properties": { "magmom": 0.0 },
        "label": "Li",
        "xyz": [1.1385928721929204, 0.9233316213905424, 1.7340990937031548]
      },
      {
        "species": [{ "element": "C", "occu": 1 }],
        "abc": [0.0, 0.86974406, 0.13025594000000001],
        "properties": { "magmom": -0.0 },
        "label": "C",
        "xyz": [1.2401443837599517, 3.0978608422401295, 1.5319035333127913]
      },
      {
        "species": [{ "element": "C", "occu": 1 }],
        "abc": [-0.0, 0.13025594000000001, 0.86974406],
        "properties": { "magmom": -0.0 },
        "label": "C",
        "xyz": [0.18123940624004864, 0.44395470775987195, 3.640259206687209]
      }
    ]
  },
  "task_ids": null,
  "uncorrected_energy_per_atom": null,
  "energy_per_atom": -5.555446985,
  "formation_energy_per_atom": 0.013347194583333001,
  "energy_above_hull": 0.015816328472221003,
  "is_stable": false,
  "equilibrium_reaction_energy_per_atom": null,
  "decomposes_to": null,
  "xas": null,
  "grain_boundaries": null,
  "band_gap": 3.2727,
  "cbm": null,
  "vbm": null,
  "efermi": -0.75687253,
  "is_gap_direct": null,
  "is_metal": null,
  "es_source_calc_id": null,
  "bandstructure": null,
  "dos": null,
  "dos_energy_up": null,
  "dos_energy_down": null,
  "is_magnetic": null,
  "ordering": null,
  "total_magnetization": 0.0,
  "total_magnetization_normalized_vol": null,
  "total_magnetization_normalized_formula_units": null,
  "num_magnetic_sites": null,
  "num_unique_magnetic_sites": null,
  "types_of_magnetic_species": null,
  "bulk_modulus": null,
  "shear_modulus": null,
  "universal_anisotropy": null,
  "homogeneous_poisson": null,
  "e_total": null,
  "e_ionic": null,
  "e_electronic": null,
  "n": null,
  "e_ij_max": null,
  "weighted_surface_energy_EV_PER_ANG2": null,
  "weighted_surface_energy": null,
  "weighted_work_function": null,
  "surface_anisotropy": null,
  "shape_factor": null,
  "has_reconstructed": null,
  "possible_species": null,
  "has_props": null,
  "theoretical": null,
  "database_IDs": null,
  "fields_not_requested": [
    "builder_meta",
    "nsites",
    "elements",
    "nelements",
    "composition",
    "composition_reduced",
    "chemsys",
    "symmetry",
    "property_name",
    "deprecated",
    "deprecation_reasons",
    "last_updated",
    "origins",
    "warnings",
    "task_ids",
    "uncorrected_energy_per_atom",
    "equilibrium_reaction_energy_per_atom",
    "decomposes_to",
    "xas",
    "grain_boundaries",
    "cbm",
    "vbm",
    "is_gap_direct",
    "is_metal",
    "es_source_calc_id",
    "bandstructure",
    "dos",
    "dos_energy_up",
    "dos_energy_down",
    "is_magnetic",
    "ordering",
    "total_magnetization_normalized_vol",
    "total_magnetization_normalized_formula_units",
    "num_magnetic_sites",
    "num_unique_magnetic_sites",
    "types_of_magnetic_species",
    "bulk_modulus",
    "shear_modulus",
    "universal_anisotropy",
    "homogeneous_poisson",
    "e_total",
    "e_ionic",
    "e_electronic",
    "n",
    "e_ij_max",
    "weighted_surface_energy_EV_PER_ANG2",
    "weighted_surface_energy",
    "weighted_work_function",
    "surface_anisotropy",
    "shape_factor",
    "has_reconstructed",
    "possible_species",
    "has_props",
    "theoretical",
    "database_IDs"
  ]
}
