{
  "builder_meta": null,
  "nsites": null,
  "elements": null,
  "nelements": null,
  "composition": null,
  "composition_reduced": null,
  "formula_pretty": "LiCa3",
  "formula_anonymous": "AB3",
  "chemsys": null,
  "volume": 309.5465783374403,
  "density": 1.364441221925873,
  "density_atomic": 38.693322292180035,
  "symmetry": null,
  "property_name": null,
  "material_id": "mp-1185350",
  "deprecated": null,
  "deprecation_reasons": null,
  "last_updated": null,
  "origins": null,
  "warnings": null,
  "structure": {
    "@module": "pymatgen.core.structure",
    "@class": "Structure",
    "charge": 0,
    "lattice": {
      "matrix": [
        [3.7924682, -6.56874814, -0.0],
        [3.79247139, 6.56875026, 0.0],
        [0.0, -0.0, 6.21285476]
      ],
      "pbc": [true, true, true],
      "a": 7.584936860301785,
      "b": 7.584940291275772,
      "c": 6.21285476,
      "alpha": 90.0,
      "beta": 90.0,
      "gamma": 119.99999115356623,
      "volume": 309.5465783374403
    },
    "properties": {},
    "sites": [
      {
        "species": [{ "element": "Li", "occu": 1 }],
        "abc": [0.333333, 0.666667, 0.75],
        "properties": { "magmom": 0.0 },
        "label": "Li",
        "xyz": [3.79247032666773, 2.1895885058328, 4.65964107]
      },
      {
        "species": [{ "element": "Li", "occu": 1 }],
        "abc": [0.666667, 0.333333, 0.25],
        "properties": { "magmom": 0.0 },
        "label": "Li",
        "xyz": [3.79246926333227, -2.1895863858328, 1.55321369]
      },
      {
        "species": [{ "element": "Ca", "occu": 1 }],
        "abc": [0.16907034, 0.33813968, 0.25],
        "properties": { "magmom": -0.0 },
        "label": "Ca",
        "xyz": [1.9235789502369434, 1.1105746295121488, 1.55321369]
      },
      {
        "species": [{ "element": "Ca", "occu": 1 }],
        "abc": [0.6618603200000001, 0.83092966, 0.25],
        "properties": { "magmom": -0.0 },
        "label": "Ca",
        "xyz": [5.661361179094252, 1.1105756742269062, 1.55321369]
      },
      {
        "species": [{ "element": "Ca", "occu": 1 }],
        "abc": [0.16907034, 0.83092966, 0.25],
        "properties": { "magmom": -0.0 },
        "label": "Ca",
        "xyz": [3.792470850665616, 4.347588938762544, 1.55321369]
      },
      {
        "species": [{ "element": "Ca", "occu": 1 }],
        "abc": [0.83092966, 0.6618603200000001, 0.75],
        "properties": { "magmom": -0.0 },
        "label": "Ca",
        "xyz": [5.661360639763057, -1.1105725095121493, 4.65964107]
      },
      {
        "species": [{ "element": "Ca", "occu": 1 }],
        "abc": [0.33813968, 0.16907034, 0.75],
        "properties": { "magmom": -0.0 },
        "label": "Ca",
        "xyz": [1.9235784109057488, -1.110573554226907, 4.65964107]
      },
      {
        "species": [{ "element": "Ca", "occu": 1 }],
        "abc": [0.83092966, 0.16907034, 0.75],
        "properties": { "magmom": -0.0 },
        "label": "Ca",
        "xyz": [3.792468739334385, -4.347586818762544, 4.65964107]
      }
    ]
  },
  "task_ids": null,
  "uncorrected_energy_per_atom": null,
  "energy_per_atom": -5.807534,
  "formation_energy_per_atom": 0.067862878333332,
  "energy_above_hull": 0.07511619531249901,
  "is_stable": false,
  "equilibrium_reaction_energy_per_atom": null,
  "decomposes_to": null,
  "xas": null,
  "grain_boundaries": null,
  "band_gap": 0.0,
  "cbm": null,
  "vbm": null,
  "efermi": 1.53552523,
  "is_gap_direct": null,
  "is_metal": null,
  "es_source_calc_id": null,
  "bandstructure": null,
  "dos": null,
  "dos_energy_up": null,
  "dos_energy_down": null,
  "is_magnetic": null,
  "ordering": null,
  "total_magnetization": 0.010277699999999002,
  "total_magnetization_normalized_vol": null,
  "total_magnetization_normalized_formula_units": null,
  "num_magnetic_sites": null,
  "num_unique_magnetic_sites": null,
  "types_of_magnetic_species": null,
  "bulk_modulus": null,
  "shear_modulus": null,
  "universal_anisotropy": null,
  "homogeneous_poisson": null,
  "e_total": null,
  "e_ionic": null,
  "e_electronic": null,
  "n": null,
  "e_ij_max": null,
  "weighted_surface_energy_EV_PER_ANG2": null,
  "weighted_surface_energy": null,
  "weighted_work_function": null,
  "surface_anisotropy": null,
  "shape_factor": null,
  "has_reconstructed": null,
  "possible_species": null,
  "has_props": null,
  "theoretical": null,
  "database_IDs": null,
  "fields_not_requested": [
    "builder_meta",
    "nsites",
    "elements",
    "nelements",
    "composition",
    "composition_reduced",
    "chemsys",
    "symmetry",
    "property_name",
    "deprecated",
    "deprecation_reasons",
    "last_updated",
    "origins",
    "warnings",
    "task_ids",
    "uncorrected_energy_per_atom",
    "equilibrium_reaction_energy_per_atom",
    "decomposes_to",
    "xas",
    "grain_boundaries",
    "cbm",
    "vbm",
    "is_gap_direct",
    "is_metal",
    "es_source_calc_id",
    "bandstructure",
    "dos",
    "dos_energy_up",
    "dos_energy_down",
    "is_magnetic",
    "ordering",
    "total_magnetization_normalized_vol",
    "total_magnetization_normalized_formula_units",
    "num_magnetic_sites",
    "num_unique_magnetic_sites",
    "types_of_magnetic_species",
    "bulk_modulus",
    "shear_modulus",
    "universal_anisotropy",
    "homogeneous_poisson",
    "e_total",
    "e_ionic",
    "e_electronic",
    "n",
    "e_ij_max",
    "weighted_surface_energy_EV_PER_ANG2",
    "weighted_surface_energy",
    "weighted_work_function",
    "surface_anisotropy",
    "shape_factor",
    "has_reconstructed",
    "possible_species",
    "has_props",
    "theoretical",
    "database_IDs"
  ]
}
