{
  "builder_meta": null,
  "nsites": null,
  "elements": null,
  "nelements": null,
  "composition": null,
  "composition_reduced": null,
  "formula_pretty": "LiCd3",
  "formula_anonymous": "AB3",
  "chemsys": null,
  "volume": 156.78337930530986,
  "density": 7.29049692946161,
  "density_atomic": 19.597922413163733,
  "symmetry": null,
  "property_name": null,
  "material_id": "mp-865612",
  "deprecated": null,
  "deprecation_reasons": null,
  "last_updated": null,
  "origins": null,
  "warnings": null,
  "structure": {
    "@module": "pymatgen.core.structure",
    "@class": "Structure",
    "charge": 0,
    "lattice": {
      "matrix": [
        [6.11013186, -5.9800000000000024e-5, -5.16e-6],
        [-3.05511806, 5.29149825, -5.16e-6],
        [-4.119999999999999e-6, -7.21e-6, 4.84923505]
      ],
      "pbc": [true, true, true],
      "a": 6.1101318602948105,
      "b": 6.110130938884849,
      "c": 4.84923505000711,
      "alpha": 90.00009782164491,
      "beta": 90.00009706494895,
      "gamma": 120.00113019836591,
      "volume": 156.78337930530986
    },
    "properties": {},
    "sites": [
      {
        "species": [{ "element": "Li", "occu": 1 }],
        "abc": [0.66666519, 0.33333149, 0.249999],
        "properties": { "magmom": 0.0 },
        "label": "Li",
        "xyz": [3.055044132310364, 1.7637813269337406, 1.2122987532820813]
      },
      {
        "species": [{ "element": "Li", "occu": 1 }],
        "abc": [0.33333249, 0.66666619, 0.75],
        "properties": { "magmom": 0.0 },
        "label": "Li",
        "xyz": [-4.1539938260409765e-5, 3.5276376369362654, 3.636921127506811]
      },
      {
        "species": [{ "element": "Cd", "occu": 1 }],
        "abc": [0.83011216, 0.16988194, 0.75],
        "properties": { "magmom": 0.0 },
        "label": "Cd",
        "xyz": [4.553082283227582, 0.8988749400094371, 3.6369211275304436]
      },
      {
        "species": [{ "element": "Cd", "occu": 1 }],
        "abc": [0.33977162, 0.16988249, 0.75],
        "properties": { "magmom": 0.0 },
        "label": "Cd",
        "xyz": [1.5570352472090436, 0.8989071726977665, 3.636923657684792]
      },
      {
        "species": [{ "element": "Cd", "occu": 1 }],
        "abc": [0.83012154, 0.66023457, 0.75],
        "properties": { "magmom": 0.0 },
        "label": "Cd",
        "xyz": [3.055054420582931, 3.49357502297641, 3.636918597262472]
      },
      {
        "species": [{ "element": "Cd", "occu": 1 }],
        "abc": [0.16988394, 0.83011416, 0.250002],
        "properties": { "magmom": 0.0 },
        "label": "Cd",
        "xyz": [-1.4980845177896411, 4.392535663366187, 1.2123133009799039]
      },
      {
        "species": [{ "element": "Cd", "occu": 1 }],
        "abc": [0.66023657, 0.83012154, 0.249999],
        "properties": { "magmom": 0.0 },
        "label": "Cd",
        "xyz": [1.4980121626492282, 4.392545391557629, 1.2122962230171024]
      },
      {
        "species": [{ "element": "Cd", "occu": 1 }],
        "abc": [0.16988149, 0.33976862, 0.249999],
        "properties": { "magmom": 0.0 },
        "label": "Cd",
        "xyz": [-3.597270588570315e-5, 1.797873096729023, 1.2123012834703824]
      }
    ]
  },
  "task_ids": null,
  "uncorrected_energy_per_atom": null,
  "energy_per_atom": -15.868116155,
  "formation_energy_per_atom": -0.19269878416666403,
  "energy_above_hull": 0.0,
  "is_stable": true,
  "equilibrium_reaction_energy_per_atom": null,
  "decomposes_to": null,
  "xas": null,
  "grain_boundaries": null,
  "band_gap": 0.0,
  "cbm": null,
  "vbm": null,
  "efermi": 2.21851013,
  "is_gap_direct": null,
  "is_metal": null,
  "es_source_calc_id": null,
  "bandstructure": null,
  "dos": null,
  "dos_energy_up": null,
  "dos_energy_down": null,
  "is_magnetic": null,
  "ordering": null,
  "total_magnetization": 5e-7,
  "total_magnetization_normalized_vol": null,
  "total_magnetization_normalized_formula_units": null,
  "num_magnetic_sites": null,
  "num_unique_magnetic_sites": null,
  "types_of_magnetic_species": null,
  "bulk_modulus": null,
  "shear_modulus": null,
  "universal_anisotropy": null,
  "homogeneous_poisson": null,
  "e_total": null,
  "e_ionic": null,
  "e_electronic": null,
  "n": null,
  "e_ij_max": null,
  "weighted_surface_energy_EV_PER_ANG2": null,
  "weighted_surface_energy": null,
  "weighted_work_function": null,
  "surface_anisotropy": null,
  "shape_factor": null,
  "has_reconstructed": null,
  "possible_species": null,
  "has_props": null,
  "theoretical": null,
  "database_IDs": null,
  "fields_not_requested": [
    "builder_meta",
    "nsites",
    "elements",
    "nelements",
    "composition",
    "composition_reduced",
    "chemsys",
    "symmetry",
    "property_name",
    "deprecated",
    "deprecation_reasons",
    "last_updated",
    "origins",
    "warnings",
    "task_ids",
    "uncorrected_energy_per_atom",
    "equilibrium_reaction_energy_per_atom",
    "decomposes_to",
    "xas",
    "grain_boundaries",
    "cbm",
    "vbm",
    "is_gap_direct",
    "is_metal",
    "es_source_calc_id",
    "bandstructure",
    "dos",
    "dos_energy_up",
    "dos_energy_down",
    "is_magnetic",
    "ordering",
    "total_magnetization_normalized_vol",
    "total_magnetization_normalized_formula_units",
    "num_magnetic_sites",
    "num_unique_magnetic_sites",
    "types_of_magnetic_species",
    "bulk_modulus",
    "shear_modulus",
    "universal_anisotropy",
    "homogeneous_poisson",
    "e_total",
    "e_ionic",
    "e_electronic",
    "n",
    "e_ij_max",
    "weighted_surface_energy_EV_PER_ANG2",
    "weighted_surface_energy",
    "weighted_work_function",
    "surface_anisotropy",
    "shape_factor",
    "has_reconstructed",
    "possible_species",
    "has_props",
    "theoretical",
    "database_IDs"
  ]
}
