{"builder_meta": null, "nsites": null, "elements": null, "nelements": null, "composition": null, "composition_reduced": null, "formula_pretty": "LiCd", "formula_anonymous": "AB", "chemsys": null, "volume": 74.01322798192189, "density": 5.355492905275035, "density_atomic": 18.50330699548047, "symmetry": null, "property_name": null, "material_id": "mp-1437", "deprecated": null, "deprecation_reasons": null, "last_updated": null, "origins": null, "warnings": null, "structure": {"@module": "pymatgen.core.structure", "@class": "Structure", "charge": 0, "lattice": {"matrix": [[4.0813647, 1e-08, 2.35637678], [1.36045592, 3.84794731, 2.35637678], [-1e-08, -0.0, 4.71275459]], "pbc": [true, true, true], "a": 4.712753902309059, "b": 4.712754008021472, "c": 4.71275459, "alpha": 60.00000318527485, "beta": 60.00000252430963, "gamma": 59.9999898284622, "volume": 74.01322798192189}, "properties": {}, "sites": [{"species": [{"element": "Li", "occu": 1}], "abc": [0.625, 0.625, 0.625], "properties": {"magmom": 0.0}, "label": "Li", "xyz": [3.40113788125, 2.404967075, 5.89094259375]}, {"species": [{"element": "Li", "occu": 1}], "abc": [0.375, 0.375, 0.375], "properties": {"magmom": 0.0}, "label": "Li", "xyz": [2.0406827287500002, 1.442980245, 3.5345655562500005]}, {"species": [{"element": "Cd", "occu": 1}], "abc": [0.125, 0.125, 0.125], "properties": {"magmom": 0.0}, "label": "Cd", "xyz": [0.68022757625, 0.480993415, 1.17818851875]}, {"species": [{"element": "Cd", "occu": 1}], "abc": [0.875, 0.875, 0.875], "properties": {"magmom": 0.0}, "label": "Cd", "xyz": [4.76159303375, 3.366953905, 8.24731963125]}]}, "task_ids": null, "uncorrected_energy_per_atom": null, "energy_per_atom": -11.521597055, "formation_energy_per_atom": -0.27575000333333405, "energy_above_hull": 0.0, "is_stable": true, "equilibrium_reaction_energy_per_atom": null, "decomposes_to": null, "xas": null, "grain_boundaries": null, "band_gap": 0.0, "cbm": null, "vbm": null, "efermi": 1.955061049999999, "is_gap_direct": null, "is_metal": null, "es_source_calc_id": null, "bandstructure": null, "dos": null, "dos_energy_up": null, "dos_energy_down": null, "is_magnetic": null, "ordering": null, "total_magnetization": 5e-07, "total_magnetization_normalized_vol": null, "total_magnetization_normalized_formula_units": null, "num_magnetic_sites": null, "num_unique_magnetic_sites": null, "types_of_magnetic_species": null, "bulk_modulus": null, "shear_modulus": null, "universal_anisotropy": null, "homogeneous_poisson": null, "e_total": null, "e_ionic": null, "e_electronic": null, "n": null, "e_ij_max": null, "weighted_surface_energy_EV_PER_ANG2": null, "weighted_surface_energy": null, "weighted_work_function": null, "surface_anisotropy": null, "shape_factor": null, "has_reconstructed": null, "possible_species": null, "has_props": null, "theoretical": null, "database_IDs": null, "fields_not_requested": ["builder_meta", "nsites", "elements", "nelements", "composition", "composition_reduced", "chemsys", "symmetry", "property_name", "deprecated", "deprecation_reasons", "last_updated", "origins", "warnings", "task_ids", "uncorrected_energy_per_atom", "equilibrium_reaction_energy_per_atom", "decomposes_to", "xas", "grain_boundaries", "cbm", "vbm", "is_gap_direct", "is_metal", "es_source_calc_id", "bandstructure", "dos", "dos_energy_up", "dos_energy_down", "is_magnetic", "ordering", "total_magnetization_normalized_vol", "total_magnetization_normalized_formula_units", "num_magnetic_sites", "num_unique_magnetic_sites", "types_of_magnetic_species", "bulk_modulus", "shear_modulus", "universal_anisotropy", "homogeneous_poisson", "e_total", "e_ionic", "e_electronic", "n", "e_ij_max", "weighted_surface_energy_EV_PER_ANG2", "weighted_surface_energy", "weighted_work_function", "surface_anisotropy", "shape_factor", "has_reconstructed", "possible_species", "has_props", "theoretical", "database_IDs"]}