{
  "builder_meta": null,
  "nsites": null,
  "elements": null,
  "nelements": null,
  "composition": null,
  "composition_reduced": null,
  "formula_pretty": "LiDy3",
  "formula_anonymous": "AB3",
  "chemsys": null,
  "volume": 234.07050791181157,
  "density": 7.015310078603367,
  "density_atomic": 29.258813488976447,
  "symmetry": null,
  "property_name": null,
  "material_id": "mp-1185340",
  "deprecated": null,
  "deprecation_reasons": null,
  "last_updated": null,
  "origins": null,
  "warnings": null,
  "structure": {
    "@module": "pymatgen.core.structure",
    "@class": "Structure",
    "charge": 0,
    "lattice": {
      "matrix": [
        [3.500185, -6.062499, 0.0],
        [3.500185, 6.062499, 0.0],
        [0.0, 0.0, 5.515362]
      ],
      "pbc": [true, true, true],
      "a": 7.000370644417766,
      "b": 7.000370644417766,
      "c": 5.515362,
      "alpha": 90.0,
      "beta": 90.0,
      "gamma": 120.00000609029688,
      "volume": 234.07050791181157
    },
    "properties": {},
    "sites": [
      {
        "species": [{ "element": "Li", "occu": 1 }],
        "abc": [0.666667, 0.333333, 0.25],
        "properties": { "magmom": 0.018000000000000002 },
        "label": "Li",
        "xyz": [3.500185, -2.0208370416659998, 1.3788405]
      },
      {
        "species": [{ "element": "Li", "occu": 1 }],
        "abc": [0.333333, 0.666667, 0.75],
        "properties": { "magmom": 0.018000000000000002 },
        "label": "Li",
        "xyz": [3.500185, 2.0208370416659998, 4.1365215]
      },
      {
        "species": [{ "element": "Dy", "occu": 1 }],
        "abc": [0.831013, 0.168987, 0.75],
        "properties": { "magmom": 0.139 },
        "label": "Dy",
        "xyz": [3.500185, -4.0135319629740005, 4.1365215]
      },
      {
        "species": [{ "element": "Dy", "occu": 1 }],
        "abc": [0.337974999999999, 0.168987, 0.75],
        "properties": { "magmom": 0.145 },
        "label": "Dy",
        "xyz": [1.7744607879699967, -1.0244895810119943, 4.1365215]
      },
      {
        "species": [{ "element": "Dy", "occu": 1 }],
        "abc": [0.831013, 0.662025, 0.75],
        "properties": { "magmom": 0.14300000000000002 },
        "label": "Dy",
        "xyz": [5.22590921203, -1.0244895810120003, 4.1365215]
      },
      {
        "species": [{ "element": "Dy", "occu": 1 }],
        "abc": [0.168987, 0.831013, 0.25],
        "properties": { "magmom": 0.139 },
        "label": "Dy",
        "xyz": [3.500185, 4.0135319629740005, 1.3788405]
      },
      {
        "species": [{ "element": "Dy", "occu": 1 }],
        "abc": [0.662025, 0.831013, 0.25],
        "properties": { "magmom": 0.145 },
        "label": "Dy",
        "xyz": [5.22590921203, 1.0244895810120003, 1.3788405]
      },
      {
        "species": [{ "element": "Dy", "occu": 1 }],
        "abc": [0.168987, 0.337974999999999, 0.25],
        "properties": { "magmom": 0.14300000000000002 },
        "label": "Dy",
        "xyz": [1.7744607879699967, 1.0244895810119943, 1.3788405]
      }
    ]
  },
  "task_ids": null,
  "uncorrected_energy_per_atom": null,
  "energy_per_atom": -24.393267395416668,
  "formation_energy_per_atom": 0.18976162666666502,
  "energy_above_hull": 0.18976162666666502,
  "is_stable": false,
  "equilibrium_reaction_energy_per_atom": null,
  "decomposes_to": null,
  "xas": null,
  "grain_boundaries": null,
  "band_gap": 0.0,
  "cbm": null,
  "vbm": null,
  "efermi": 2.43081372,
  "is_gap_direct": null,
  "is_metal": null,
  "es_source_calc_id": null,
  "bandstructure": null,
  "dos": null,
  "dos_energy_up": null,
  "dos_energy_down": null,
  "is_magnetic": null,
  "ordering": null,
  "total_magnetization": 1.335847,
  "total_magnetization_normalized_vol": null,
  "total_magnetization_normalized_formula_units": null,
  "num_magnetic_sites": null,
  "num_unique_magnetic_sites": null,
  "types_of_magnetic_species": null,
  "bulk_modulus": null,
  "shear_modulus": null,
  "universal_anisotropy": null,
  "homogeneous_poisson": null,
  "e_total": null,
  "e_ionic": null,
  "e_electronic": null,
  "n": null,
  "e_ij_max": null,
  "weighted_surface_energy_EV_PER_ANG2": null,
  "weighted_surface_energy": null,
  "weighted_work_function": null,
  "surface_anisotropy": null,
  "shape_factor": null,
  "has_reconstructed": null,
  "possible_species": null,
  "has_props": null,
  "theoretical": null,
  "database_IDs": null,
  "fields_not_requested": [
    "builder_meta",
    "nsites",
    "elements",
    "nelements",
    "composition",
    "composition_reduced",
    "chemsys",
    "symmetry",
    "property_name",
    "deprecated",
    "deprecation_reasons",
    "last_updated",
    "origins",
    "warnings",
    "task_ids",
    "uncorrected_energy_per_atom",
    "equilibrium_reaction_energy_per_atom",
    "decomposes_to",
    "xas",
    "grain_boundaries",
    "cbm",
    "vbm",
    "is_gap_direct",
    "is_metal",
    "es_source_calc_id",
    "bandstructure",
    "dos",
    "dos_energy_up",
    "dos_energy_down",
    "is_magnetic",
    "ordering",
    "total_magnetization_normalized_vol",
    "total_magnetization_normalized_formula_units",
    "num_magnetic_sites",
    "num_unique_magnetic_sites",
    "types_of_magnetic_species",
    "bulk_modulus",
    "shear_modulus",
    "universal_anisotropy",
    "homogeneous_poisson",
    "e_total",
    "e_ionic",
    "e_electronic",
    "n",
    "e_ij_max",
    "weighted_surface_energy_EV_PER_ANG2",
    "weighted_surface_energy",
    "weighted_work_function",
    "surface_anisotropy",
    "shape_factor",
    "has_reconstructed",
    "possible_species",
    "has_props",
    "theoretical",
    "database_IDs"
  ]
}
