{"builder_meta": null, "nsites": null, "elements": null, "nelements": null, "composition": null, "composition_reduced": null, "formula_pretty": "LiEr3", "formula_anonymous": "AB3", "chemsys": null, "volume": 227.5925979459827, "density": 7.423317985790665, "density_atomic": 28.449074743247838, "symmetry": null, "property_name": null, "material_id": "mp-1185345", "deprecated": null, "deprecation_reasons": null, "last_updated": null, "origins": null, "warnings": null, "structure": {"@module": "pymatgen.core.structure", "@class": "Structure", "charge": 0, "lattice": {"matrix": [[3.457469, -5.988511, 0.0], [3.457469, 5.988511, 0.0], [0.0, 0.0, 5.496054]], "pbc": [true, true, true], "a": 6.914937156842569, "b": 6.914937156842569, "c": 5.496054, "alpha": 90.0, "beta": 90.0, "gamma": 119.99999193299283, "volume": 227.5925979459827}, "properties": {}, "sites": [{"species": [{"element": "Li", "occu": 1}], "abc": [0.666667, 0.333333, 0.25], "properties": {"magmom": 0.02}, "label": "Li", "xyz": [3.457469, -1.9961743256739999, 1.3740135]}, {"species": [{"element": "Li", "occu": 1}], "abc": [0.333333, 0.666667, 0.75], "properties": {"magmom": 0.02}, "label": "Li", "xyz": [3.457469, 1.9961743256739999, 4.1220405]}, {"species": [{"element": "Er", "occu": 1}], "abc": [0.831423999999999, 0.168576, 0.75], "properties": {"magmom": 0.16}, "label": "Er", "xyz": [3.457468999999997, -3.9694725393279944, 4.1220405]}, {"species": [{"element": "Er", "occu": 1}], "abc": [0.337151, 0.168576, 0.75], "properties": {"magmom": 0.125}, "label": "Er", "xyz": [1.748535424963, -1.0095132418249997, 4.1220405]}, {"species": [{"element": "Er", "occu": 1}], "abc": [0.831423999999999, 0.662849, 0.75], "properties": {"magmom": 0.163}, "label": "Er", "xyz": [5.166402575036997, -1.0095132418249944, 4.1220405]}, {"species": [{"element": "Er", "occu": 1}], "abc": [0.168576, 0.831423999999999, 0.25], "properties": {"magmom": 0.16}, "label": "Er", "xyz": [3.457468999999997, 3.9694725393279944, 1.3740135]}, {"species": [{"element": "Er", "occu": 1}], "abc": [0.662849, 0.831423999999999, 0.25], "properties": {"magmom": 0.125}, "label": "Er", "xyz": [5.166402575036997, 1.0095132418249944, 1.3740135]}, {"species": [{"element": "Er", "occu": 1}], "abc": [0.168576, 0.337151, 0.25], "properties": {"magmom": 0.163}, "label": "Er", "xyz": [1.748535424963, 1.0095132418249997, 1.3740135]}]}, "task_ids": null, "uncorrected_energy_per_atom": null, "energy_per_atom": -25.856061834166667, "formation_energy_per_atom": 0.18469114416666702, "energy_above_hull": 0.18469114416666702, "is_stable": false, "equilibrium_reaction_energy_per_atom": null, "decomposes_to": null, "xas": null, "grain_boundaries": null, "band_gap": 0.0, "cbm": null, "vbm": null, "efermi": 2.32983841, "is_gap_direct": null, "is_metal": null, "es_source_calc_id": null, "bandstructure": null, "dos": null, "dos_energy_up": null, "dos_energy_down": null, "is_magnetic": null, "ordering": null, "total_magnetization": 1.3220508, "total_magnetization_normalized_vol": null, "total_magnetization_normalized_formula_units": null, "num_magnetic_sites": null, "num_unique_magnetic_sites": null, "types_of_magnetic_species": null, "bulk_modulus": null, "shear_modulus": null, "universal_anisotropy": null, "homogeneous_poisson": null, "e_total": null, "e_ionic": null, "e_electronic": null, "n": null, "e_ij_max": null, "weighted_surface_energy_EV_PER_ANG2": null, "weighted_surface_energy": null, "weighted_work_function": null, "surface_anisotropy": null, "shape_factor": null, "has_reconstructed": null, "possible_species": null, "has_props": null, "theoretical": null, "database_IDs": null, "fields_not_requested": ["builder_meta", "nsites", "elements", "nelements", "composition", "composition_reduced", "chemsys", "symmetry", "property_name", "deprecated", "deprecation_reasons", "last_updated", "origins", "warnings", "task_ids", "uncorrected_energy_per_atom", "equilibrium_reaction_energy_per_atom", "decomposes_to", "xas", "grain_boundaries", "cbm", "vbm", "is_gap_direct", "is_metal", "es_source_calc_id", "bandstructure", "dos", "dos_energy_up", "dos_energy_down", "is_magnetic", "ordering", "total_magnetization_normalized_vol", "total_magnetization_normalized_formula_units", "num_magnetic_sites", "num_unique_magnetic_sites", "types_of_magnetic_species", "bulk_modulus", "shear_modulus", "universal_anisotropy", "homogeneous_poisson", "e_total", "e_ionic", "e_electronic", "n", "e_ij_max", "weighted_surface_energy_EV_PER_ANG2", "weighted_surface_energy", "weighted_work_function", "surface_anisotropy", "shape_factor", "has_reconstructed", "possible_species", "has_props", "theoretical", "database_IDs"]}