{"builder_meta": null, "nsites": null, "elements": null, "nelements": null, "composition": null, "composition_reduced": null, "formula_pretty": "LiEu3", "formula_anonymous": "AB3", "chemsys": null, "volume": 311.06304028381686, "density": 4.941456735653604, "density_atomic": 38.88288003547711, "symmetry": null, "property_name": null, "material_id": "mp-1185355", "deprecated": null, "deprecation_reasons": null, "last_updated": null, "origins": null, "warnings": null, "structure": {"@module": "pymatgen.core.structure", "@class": "Structure", "charge": 0, "lattice": {"matrix": [[3.798618, -6.579399, 0.0], [3.798618, 6.579399, 0.0], [0.0, 0.0, 6.223097]], "pbc": [true, true, true], "a": 7.597235675633934, "b": 7.597235675633934, "c": 6.223097, "alpha": 90.0, "beta": 90.0, "gamma": 119.99999717530335, "volume": 311.06304028381686}, "properties": {}, "sites": [{"species": [{"element": "Li", "occu": 1}], "abc": [0.666667, 0.333333, 0.25], "properties": {"magmom": 0.009000000000000001}, "label": "Li", "xyz": [3.798618, -2.1931373862660006, 1.55577425]}, {"species": [{"element": "Li", "occu": 1}], "abc": [0.333333, 0.666667, 0.75], "properties": {"magmom": 0.009000000000000001}, "label": "Li", "xyz": [3.798618, 2.1931373862660006, 4.66732275]}, {"species": [{"element": "Eu", "occu": 1}], "abc": [0.830801, 0.169199, 0.75], "properties": {"magmom": 7.037}, "label": "Eu", "xyz": [3.798618, -4.352943537198, 4.66732275]}, {"species": [{"element": "Eu", "occu": 1}], "abc": [0.338398, 0.169199, 0.75], "properties": {"magmom": 6.963}, "label": "Eu", "xyz": [1.9281671009459997, -1.113227731401, 4.66732275]}, {"species": [{"element": "Eu", "occu": 1}], "abc": [0.830801, 0.661602, 0.75], "properties": {"magmom": 7.008}, "label": "Eu", "xyz": [5.669068899054, -1.1132277314009995, 4.66732275]}, {"species": [{"element": "Eu", "occu": 1}], "abc": [0.169199, 0.830801, 0.25], "properties": {"magmom": 7.039}, "label": "Eu", "xyz": [3.798618, 4.352943537198, 1.55577425]}, {"species": [{"element": "Eu", "occu": 1}], "abc": [0.661602, 0.830801, 0.25], "properties": {"magmom": 6.965}, "label": "Eu", "xyz": [5.669068899054, 1.1132277314009995, 1.55577425]}, {"species": [{"element": "Eu", "occu": 1}], "abc": [0.169199, 0.338398, 0.25], "properties": {"magmom": 7.01}, "label": "Eu", "xyz": [1.9281671009459997, 1.113227731401, 1.55577425]}]}, "task_ids": null, "uncorrected_energy_per_atom": null, "energy_per_atom": -29.405254400416666, "formation_energy_per_atom": 0.082084239166665, "energy_above_hull": 0.082084239166665, "is_stable": false, "equilibrium_reaction_energy_per_atom": null, "decomposes_to": null, "xas": null, "grain_boundaries": null, "band_gap": 0.0, "cbm": null, "vbm": null, "efermi": 1.57411171, "is_gap_direct": null, "is_metal": null, "es_source_calc_id": null, "bandstructure": null, "dos": null, "dos_energy_up": null, "dos_energy_down": null, "is_magnetic": null, "ordering": null, "total_magnetization": 44.986034, "total_magnetization_normalized_vol": null, "total_magnetization_normalized_formula_units": null, "num_magnetic_sites": null, "num_unique_magnetic_sites": null, "types_of_magnetic_species": null, "bulk_modulus": null, "shear_modulus": null, "universal_anisotropy": null, "homogeneous_poisson": null, "e_total": null, "e_ionic": null, "e_electronic": null, "n": null, "e_ij_max": null, "weighted_surface_energy_EV_PER_ANG2": null, "weighted_surface_energy": null, "weighted_work_function": null, "surface_anisotropy": null, "shape_factor": null, "has_reconstructed": null, "possible_species": null, "has_props": null, "theoretical": null, "database_IDs": null, "fields_not_requested": ["builder_meta", "nsites", "elements", "nelements", "composition", "composition_reduced", "chemsys", "symmetry", "property_name", "deprecated", "deprecation_reasons", "last_updated", "origins", "warnings", "task_ids", "uncorrected_energy_per_atom", "equilibrium_reaction_energy_per_atom", "decomposes_to", "xas", "grain_boundaries", "cbm", "vbm", "is_gap_direct", "is_metal", "es_source_calc_id", "bandstructure", "dos", "dos_energy_up", "dos_energy_down", "is_magnetic", "ordering", "total_magnetization_normalized_vol", "total_magnetization_normalized_formula_units", "num_magnetic_sites", "num_unique_magnetic_sites", "types_of_magnetic_species", "bulk_modulus", "shear_modulus", "universal_anisotropy", "homogeneous_poisson", "e_total", "e_ionic", "e_electronic", "n", "e_ij_max", "weighted_surface_energy_EV_PER_ANG2", "weighted_surface_energy", "weighted_work_function", "surface_anisotropy", "shape_factor", "has_reconstructed", "possible_species", "has_props", "theoretical", "database_IDs"]}