{"builder_meta": null, "nsites": null, "elements": null, "nelements": null, "composition": null, "composition_reduced": null, "formula_pretty": "LiGa2", "formula_anonymous": "AB2", "chemsys": null, "volume": 233.72607334941662, "density": 4.160106381952032, "density_atomic": 19.477172779118053, "symmetry": null, "property_name": null, "material_id": "mp-1210887", "deprecated": null, "deprecation_reasons": null, "last_updated": null, "origins": null, "warnings": null, "structure": {"@module": "pymatgen.core.structure", "@class": "Structure", "charge": 0, "lattice": {"matrix": [[-4.889064, -4.889064, 0.0], [-4.889064, 0.0, -4.889064], [0.0, -4.889064, -4.889064]], "pbc": [true, true, true], "a": 6.914180616110054, "b": 6.914180616110054, "c": 6.914180616110054, "alpha": 59.99999999999999, "beta": 59.99999999999999, "gamma": 59.99999999999999, "volume": 233.72607334941662}, "properties": {}, "sites": [{"species": [{"element": "Li", "occu": 1}], "abc": [0.875, 0.875, 0.875], "properties": {"magmom": -0.0}, "label": "Li", "xyz": [-8.555862000000001, -8.555862000000001, -8.555862000000001]}, {"species": [{"element": "Li", "occu": 1}], "abc": [0.375, 0.875, 0.875], "properties": {"magmom": -0.0}, "label": "Li", "xyz": [-6.111330000000001, -6.111330000000001, -8.555862000000001]}, {"species": [{"element": "Li", "occu": 1}], "abc": [0.875, 0.375, 0.875], "properties": {"magmom": -0.0}, "label": "Li", "xyz": [-6.111330000000001, -8.555862000000001, -6.111330000000001]}, {"species": [{"element": "Li", "occu": 1}], "abc": [0.875, 0.875, 0.375], "properties": {"magmom": -0.0}, "label": "Li", "xyz": [-8.555862000000001, -6.111330000000001, -6.111330000000001]}, {"species": [{"element": "Ga", "occu": 1}], "abc": [0.600055999999999, 0.600055999999999, 0.600055999999999], "properties": {"magmom": 0.0}, "label": "Ga", "xyz": [-5.867424375167991, -5.867424375167991, -5.867424375167991]}, {"species": [{"element": "Ga", "occu": 1}], "abc": [0.199831999999999, 0.600055999999999, 0.600055999999999], "properties": {"magmom": 0.0}, "label": "Ga", "xyz": [-3.9107036248319904, -3.9107036248319904, -5.867424375167991]}, {"species": [{"element": "Ga", "occu": 1}], "abc": [0.600055999999999, 0.199831999999999, 0.600055999999999], "properties": {"magmom": 0.0}, "label": "Ga", "xyz": [-3.9107036248319904, -5.867424375167991, -3.9107036248319904]}, {"species": [{"element": "Ga", "occu": 1}], "abc": [0.550168, 0.149944, 0.149944], "properties": {"magmom": 0.0}, "label": "Ga", "xyz": [-3.422892375168, -3.422892375168, -1.466171624832]}, {"species": [{"element": "Ga", "occu": 1}], "abc": [0.149944, 0.149944, 0.149944], "properties": {"magmom": 0.0}, "label": "Ga", "xyz": [-1.466171624832, -1.466171624832, -1.466171624832]}, {"species": [{"element": "Ga", "occu": 1}], "abc": [0.600055999999999, 0.600055999999999, 0.199831999999999], "properties": {"magmom": 0.0}, "label": "Ga", "xyz": [-5.867424375167991, -3.9107036248319904, -3.9107036248319904]}, {"species": [{"element": "Ga", "occu": 1}], "abc": [0.149944, 0.550168, 0.149944], "properties": {"magmom": 0.0}, "label": "Ga", "xyz": [-3.422892375168, -1.466171624832, -3.422892375168]}, {"species": [{"element": "Ga", "occu": 1}], "abc": [0.149944, 0.149944, 0.550168], "properties": {"magmom": 0.0}, "label": "Ga", "xyz": [-1.466171624832, -3.422892375168, -3.422892375168]}]}, "task_ids": null, "uncorrected_energy_per_atom": null, "energy_per_atom": -8.511981228833333, "formation_energy_per_atom": -0.08789512438888901, "energy_above_hull": 0.20821326216666702, "is_stable": false, "equilibrium_reaction_energy_per_atom": null, "decomposes_to": null, "xas": null, "grain_boundaries": null, "band_gap": 0.0, "cbm": null, "vbm": null, "efermi": 1.921244559999999, "is_gap_direct": null, "is_metal": null, "es_source_calc_id": null, "bandstructure": null, "dos": null, "dos_energy_up": null, "dos_energy_down": null, "is_magnetic": null, "ordering": null, "total_magnetization": 0.0034251, "total_magnetization_normalized_vol": null, "total_magnetization_normalized_formula_units": null, "num_magnetic_sites": null, "num_unique_magnetic_sites": null, "types_of_magnetic_species": null, "bulk_modulus": null, "shear_modulus": null, "universal_anisotropy": null, "homogeneous_poisson": null, "e_total": null, "e_ionic": null, "e_electronic": null, "n": null, "e_ij_max": null, "weighted_surface_energy_EV_PER_ANG2": null, "weighted_surface_energy": null, "weighted_work_function": null, "surface_anisotropy": null, "shape_factor": null, "has_reconstructed": null, "possible_species": null, "has_props": null, "theoretical": null, "database_IDs": null, "fields_not_requested": ["builder_meta", "nsites", "elements", "nelements", "composition", "composition_reduced", "chemsys", "symmetry", "property_name", "deprecated", "deprecation_reasons", "last_updated", "origins", "warnings", "task_ids", "uncorrected_energy_per_atom", "equilibrium_reaction_energy_per_atom", "decomposes_to", "xas", "grain_boundaries", "cbm", "vbm", "is_gap_direct", "is_metal", "es_source_calc_id", "bandstructure", "dos", "dos_energy_up", "dos_energy_down", "is_magnetic", "ordering", "total_magnetization_normalized_vol", "total_magnetization_normalized_formula_units", "num_magnetic_sites", "num_unique_magnetic_sites", "types_of_magnetic_species", "bulk_modulus", "shear_modulus", "universal_anisotropy", "homogeneous_poisson", "e_total", "e_ionic", "e_electronic", "n", "e_ij_max", "weighted_surface_energy_EV_PER_ANG2", "weighted_surface_energy", "weighted_work_function", "surface_anisotropy", "shape_factor", "has_reconstructed", "possible_species", "has_props", "theoretical", "database_IDs"]}