{
  "builder_meta": null,
  "nsites": null,
  "elements": null,
  "nelements": null,
  "composition": null,
  "composition_reduced": null,
  "formula_pretty": "LiGd3",
  "formula_anonymous": "AB3",
  "chemsys": null,
  "volume": 239.88387274549396,
  "density": 6.627249237160332,
  "density_atomic": 29.985484093186745,
  "symmetry": null,
  "property_name": null,
  "material_id": "mp-1185526",
  "deprecated": null,
  "deprecation_reasons": null,
  "last_updated": null,
  "origins": null,
  "warnings": null,
  "structure": {
    "@module": "pymatgen.core.structure",
    "@class": "Structure",
    "charge": 0,
    "lattice": {
      "matrix": [
        [3.523197, -6.102356, 0.0],
        [3.523197, 6.102356, 0.0],
        [0.0, 0.0, 5.578746]
      ],
      "pbc": [true, true, true],
      "a": 7.046393818936393,
      "b": 7.046393818936393,
      "c": 5.578746,
      "alpha": 90.0,
      "beta": 90.0,
      "gamma": 119.99999829997128,
      "volume": 239.88387274549396
    },
    "properties": {},
    "sites": [
      {
        "species": [{ "element": "Li", "occu": 1 }],
        "abc": [0.666667, 0.333333, 0.25],
        "properties": { "magmom": 0.023 },
        "label": "Li",
        "xyz": [3.523197, -2.0341227349040003, 1.3946865]
      },
      {
        "species": [{ "element": "Li", "occu": 1 }],
        "abc": [0.333333, 0.666667, 0.75],
        "properties": { "magmom": 0.023 },
        "label": "Li",
        "xyz": [3.523197, 2.0341227349040003, 4.1840595]
      },
      {
        "species": [{ "element": "Gd", "occu": 1 }],
        "abc": [0.830167, 0.169832999999999, 0.75],
        "properties": { "magmom": 7.412 },
        "label": "Gd",
        "xyz": [3.5231969999999966, -4.0295931469040065, 4.1840595]
      },
      {
        "species": [{ "element": "Gd", "occu": 1 }],
        "abc": [0.339667, 0.169832999999999, 0.75],
        "properties": { "magmom": 7.408 },
        "label": "Gd",
        "xyz": [1.7950688714999965, -1.036387528904006, 4.1840595]
      },
      {
        "species": [{ "element": "Gd", "occu": 1 }],
        "abc": [0.830167, 0.660333, 0.75],
        "properties": { "magmom": 7.412 },
        "label": "Gd",
        "xyz": [5.2513251284999996, -1.036387528904, 4.1840595]
      },
      {
        "species": [{ "element": "Gd", "occu": 1 }],
        "abc": [0.169832999999999, 0.830167, 0.25],
        "properties": { "magmom": 7.407 },
        "label": "Gd",
        "xyz": [3.5231969999999966, 4.0295931469040065, 1.3946865]
      },
      {
        "species": [{ "element": "Gd", "occu": 1 }],
        "abc": [0.660333, 0.830167, 0.25],
        "properties": { "magmom": 7.413 },
        "label": "Gd",
        "xyz": [5.2513251284999996, 1.036387528904, 1.3946865]
      },
      {
        "species": [{ "element": "Gd", "occu": 1 }],
        "abc": [0.169832999999999, 0.339667, 0.25],
        "properties": { "magmom": 7.405 },
        "label": "Gd",
        "xyz": [1.7950688714999965, 1.036387528904006, 1.3946865]
      }
    ]
  },
  "task_ids": null,
  "uncorrected_energy_per_atom": null,
  "energy_per_atom": -32.99999770916668,
  "formation_energy_per_atom": 0.144432869166664,
  "energy_above_hull": 0.144432869166664,
  "is_stable": false,
  "equilibrium_reaction_energy_per_atom": null,
  "decomposes_to": null,
  "xas": null,
  "grain_boundaries": null,
  "band_gap": 0.0,
  "cbm": null,
  "vbm": null,
  "efermi": 2.23375116,
  "is_gap_direct": null,
  "is_metal": null,
  "es_source_calc_id": null,
  "bandstructure": null,
  "dos": null,
  "dos_energy_up": null,
  "dos_energy_down": null,
  "is_magnetic": null,
  "ordering": null,
  "total_magnetization": 47.3644765,
  "total_magnetization_normalized_vol": null,
  "total_magnetization_normalized_formula_units": null,
  "num_magnetic_sites": null,
  "num_unique_magnetic_sites": null,
  "types_of_magnetic_species": null,
  "bulk_modulus": null,
  "shear_modulus": null,
  "universal_anisotropy": null,
  "homogeneous_poisson": null,
  "e_total": null,
  "e_ionic": null,
  "e_electronic": null,
  "n": null,
  "e_ij_max": null,
  "weighted_surface_energy_EV_PER_ANG2": null,
  "weighted_surface_energy": null,
  "weighted_work_function": null,
  "surface_anisotropy": null,
  "shape_factor": null,
  "has_reconstructed": null,
  "possible_species": null,
  "has_props": null,
  "theoretical": null,
  "database_IDs": null,
  "fields_not_requested": [
    "builder_meta",
    "nsites",
    "elements",
    "nelements",
    "composition",
    "composition_reduced",
    "chemsys",
    "symmetry",
    "property_name",
    "deprecated",
    "deprecation_reasons",
    "last_updated",
    "origins",
    "warnings",
    "task_ids",
    "uncorrected_energy_per_atom",
    "equilibrium_reaction_energy_per_atom",
    "decomposes_to",
    "xas",
    "grain_boundaries",
    "cbm",
    "vbm",
    "is_gap_direct",
    "is_metal",
    "es_source_calc_id",
    "bandstructure",
    "dos",
    "dos_energy_up",
    "dos_energy_down",
    "is_magnetic",
    "ordering",
    "total_magnetization_normalized_vol",
    "total_magnetization_normalized_formula_units",
    "num_magnetic_sites",
    "num_unique_magnetic_sites",
    "types_of_magnetic_species",
    "bulk_modulus",
    "shear_modulus",
    "universal_anisotropy",
    "homogeneous_poisson",
    "e_total",
    "e_ionic",
    "e_electronic",
    "n",
    "e_ij_max",
    "weighted_surface_energy_EV_PER_ANG2",
    "weighted_surface_energy",
    "weighted_work_function",
    "surface_anisotropy",
    "shape_factor",
    "has_reconstructed",
    "possible_species",
    "has_props",
    "theoretical",
    "database_IDs"
  ]
}
