{
  "builder_meta": null,
  "nsites": null,
  "elements": null,
  "nelements": null,
  "composition": null,
  "composition_reduced": null,
  "formula_pretty": "LiGe",
  "formula_anonymous": "AB",
  "chemsys": null,
  "volume": 271.99843956197896,
  "density": 3.88670934059481,
  "density_atomic": 16.999902472623685,
  "symmetry": null,
  "property_name": null,
  "material_id": "mp-9918",
  "deprecated": null,
  "deprecation_reasons": null,
  "last_updated": null,
  "origins": null,
  "warnings": null,
  "structure": {
    "@module": "pymatgen.core.structure",
    "@class": "Structure",
    "charge": 0,
    "lattice": {
      "matrix": [
        [5.29728012, -0.0, 2.2205525],
        [2.64869347, 6.8814661, 1.11014746],
        [-0.011703499999999001, 0.00013977, 7.4567032300000005]
      ],
      "pbc": [true, true, true],
      "a": 5.743868911718256,
      "b": 7.456713764548986,
      "c": 7.456712415786218,
      "alpha": 81.46934634539664,
      "beta": 67.34711545796962,
      "gamma": 67.3471086229239,
      "volume": 271.99843956197896
    },
    "properties": {},
    "sites": [
      {
        "species": [{ "element": "Li", "occu": 1 }],
        "abc": [0.459812, 0.19363439000000002, 0.53445183],
        "properties": { "magmom": -0.0 },
        "label": "Li",
        "xyz": [2.9423761539054683, 1.3325631909114584, 5.22124809939756]
      },
      {
        "species": [{ "element": "Li", "occu": 1 }],
        "abc": [0.9942638300000001, 0.96554817, 0.19363439000000002],
        "properties": { "magmom": -0.0 },
        "label": "Li",
        "xyz": [7.822068953460145, 6.644414064050728, 4.7235900631513035]
      },
      {
        "species": [{ "element": "Li", "occu": 1 }],
        "abc": [0.15344538, 0.53445183, 0.30636561],
        "properties": { "magmom": -0.0 },
        "label": "Li",
        "xyz": [2.224856683213761, 3.6778549709492725, 3.2185312973872224]
      },
      {
        "species": [{ "element": "Li", "occu": 1 }],
        "abc": [0.18789722, 0.30636561, 0.96554817],
        "properties": { "magmom": -0.0 },
        "label": "Li",
        "xyz": [1.795512505741239, 2.108379514088542, 7.95715280334649]
      },
      {
        "species": [{ "element": "Li", "occu": 1 }],
        "abc": [0.540188, 0.8063656100000001, 0.46554817],
        "properties": { "magmom": -0.0 },
        "label": "Li",
        "xyz": [4.991893936094532, 5.549042679088542, 5.56615509060244]
      },
      {
        "species": [{ "element": "Li", "occu": 1 }],
        "abc": [0.0057361700000000005, 0.03445183, 0.8063656100000001],
        "properties": { "magmom": -0.0 },
        "label": "Li",
        "xyz": [0.1122011365398563, 0.23719180594927272, 6.063813126848698]
      },
      {
        "species": [{ "element": "Li", "occu": 1 }],
        "abc": [0.84655462, 0.46554817, 0.69363439],
        "properties": { "magmom": -0.0 },
        "label": "Li",
        "xyz": [5.70941340678624, 3.203750899050727, 7.568871892612779]
      },
      {
        "species": [{ "element": "Li", "occu": 1 }],
        "abc": [0.81210278, 0.69363439, 0.03445183],
        "properties": { "magmom": -0.0 },
        "label": "Li",
        "xyz": [6.138757584258762, 4.773226355911458, 2.830250386653511]
      },
      {
        "species": [{ "element": "Ge", "occu": 1 }],
        "abc": [0.05765561, 0.15914667, 0.44463755],
        "properties": { "magmom": 0.0 },
        "label": "Ge",
        "xyz": [0.7217448466942935, 1.0952245615232503, 3.62023383565677]
      },
      {
        "species": [{ "element": "Ge", "occu": 1 }],
        "abc": [0.50229417, 0.05536245, 0.15914667],
        "properties": { "magmom": 0.0 },
        "label": "Ge",
        "xyz": [2.8055685078787573, 0.3809970668180109, 2.3635405464085464]
      },
      {
        "species": [{ "element": "Ge", "occu": 1 }],
        "abc": [0.71680429, 0.44463755, 0.34085333],
        "properties": { "magmom": 0.0 },
        "label": "Ge",
        "xyz": [4.9708325136018585, 3.059805868181989, 4.6269569316906045]
      },
      {
        "species": [{ "element": "Ge", "occu": 1 }],
        "abc": [0.6614418400000001, 0.34085333, 0.05536245],
        "properties": { "magmom": 0.0 },
        "label": "Ge",
        "xyz": [4.406010764533401, 2.3455783734767497, 2.2599851496843555]
      },
      {
        "species": [{ "element": "Ge", "occu": 1 }],
        "abc": [0.94234439, 0.8408533300000001, 0.5553624500000001],
        "properties": { "magmom": 0.0 },
        "label": "Ge",
        "xyz": [7.212525243305707, 5.78638130847675, 7.1671693543432315]
      },
      {
        "species": [{ "element": "Ge", "occu": 1 }],
        "abc": [0.49770583, 0.94463755, 0.8408533300000001],
        "properties": { "magmom": 0.0 },
        "label": "Ge",
        "xyz": [5.128701582121244, 6.500608803181989, 8.423862643591455]
      },
      {
        "species": [{ "element": "Ge", "occu": 1 }],
        "abc": [0.28319571, 0.5553624500000001, 0.65914667],
        "properties": { "magmom": 0.0 },
        "label": "Ge",
        "xyz": [2.963437576398142, 3.821800001818011, 6.160446258309397]
      },
      {
        "species": [{ "element": "Ge", "occu": 1 }],
        "abc": [0.33855816, 0.65914667, 0.94463755],
        "properties": { "magmom": 0.0 },
        "label": "Ge",
        "xyz": [3.5282593254666, 4.536027496523251, 8.527418040315645]
      }
    ]
  },
  "task_ids": null,
  "uncorrected_energy_per_atom": null,
  "energy_per_atom": -3.54677611125,
  "formation_energy_per_atom": -0.280800750416666,
  "energy_above_hull": 0.0,
  "is_stable": true,
  "equilibrium_reaction_energy_per_atom": null,
  "decomposes_to": null,
  "xas": null,
  "grain_boundaries": null,
  "band_gap": 0.0,
  "cbm": null,
  "vbm": null,
  "efermi": 2.48529575,
  "is_gap_direct": null,
  "is_metal": null,
  "es_source_calc_id": null,
  "bandstructure": null,
  "dos": null,
  "dos_energy_up": null,
  "dos_energy_down": null,
  "is_magnetic": null,
  "ordering": null,
  "total_magnetization": 0.0,
  "total_magnetization_normalized_vol": null,
  "total_magnetization_normalized_formula_units": null,
  "num_magnetic_sites": null,
  "num_unique_magnetic_sites": null,
  "types_of_magnetic_species": null,
  "bulk_modulus": null,
  "shear_modulus": null,
  "universal_anisotropy": null,
  "homogeneous_poisson": null,
  "e_total": null,
  "e_ionic": null,
  "e_electronic": null,
  "n": null,
  "e_ij_max": null,
  "weighted_surface_energy_EV_PER_ANG2": null,
  "weighted_surface_energy": null,
  "weighted_work_function": null,
  "surface_anisotropy": null,
  "shape_factor": null,
  "has_reconstructed": null,
  "possible_species": null,
  "has_props": null,
  "theoretical": null,
  "database_IDs": null,
  "fields_not_requested": [
    "builder_meta",
    "nsites",
    "elements",
    "nelements",
    "composition",
    "composition_reduced",
    "chemsys",
    "symmetry",
    "property_name",
    "deprecated",
    "deprecation_reasons",
    "last_updated",
    "origins",
    "warnings",
    "task_ids",
    "uncorrected_energy_per_atom",
    "equilibrium_reaction_energy_per_atom",
    "decomposes_to",
    "xas",
    "grain_boundaries",
    "cbm",
    "vbm",
    "is_gap_direct",
    "is_metal",
    "es_source_calc_id",
    "bandstructure",
    "dos",
    "dos_energy_up",
    "dos_energy_down",
    "is_magnetic",
    "ordering",
    "total_magnetization_normalized_vol",
    "total_magnetization_normalized_formula_units",
    "num_magnetic_sites",
    "num_unique_magnetic_sites",
    "types_of_magnetic_species",
    "bulk_modulus",
    "shear_modulus",
    "universal_anisotropy",
    "homogeneous_poisson",
    "e_total",
    "e_ionic",
    "e_electronic",
    "n",
    "e_ij_max",
    "weighted_surface_energy_EV_PER_ANG2",
    "weighted_surface_energy",
    "weighted_work_function",
    "surface_anisotropy",
    "shape_factor",
    "has_reconstructed",
    "possible_species",
    "has_props",
    "theoretical",
    "database_IDs"
  ]
}
