{
  "builder_meta": null,
  "nsites": null,
  "elements": null,
  "nelements": null,
  "composition": null,
  "composition_reduced": null,
  "formula_pretty": "LiHg3",
  "formula_anonymous": "AB3",
  "chemsys": null,
  "volume": 173.7584027516792,
  "density": 11.634411686135095,
  "density_atomic": 21.7198003439599,
  "symmetry": null,
  "property_name": null,
  "material_id": "mp-1079267",
  "deprecated": null,
  "deprecation_reasons": null,
  "last_updated": null,
  "origins": null,
  "warnings": null,
  "structure": {
    "@module": "pymatgen.core.structure",
    "@class": "Structure",
    "charge": 0,
    "lattice": {
      "matrix": [
        [3.26321089, -5.65206474, 0.0],
        [3.26321089, 5.65206474, 0.0],
        [-0.0, 0.0, 4.7104625]
      ],
      "pbc": [true, true, true],
      "a": 6.526437093680277,
      "b": 6.526437093680277,
      "c": 4.7104625,
      "alpha": 90.0,
      "beta": 90.0,
      "gamma": 120.00015523700316,
      "volume": 173.7584027516792
    },
    "properties": {},
    "sites": [
      {
        "species": [{ "element": "Li", "occu": 1 }],
        "abc": [0.333333, 0.666667, 0.25],
        "properties": { "magmom": -0.0 },
        "label": "Li",
        "xyz": [3.26321089, 1.8840253480431601, 1.177615625]
      },
      {
        "species": [{ "element": "Li", "occu": 1 }],
        "abc": [0.666667, 0.333333, 0.75],
        "properties": { "magmom": -0.0 },
        "label": "Li",
        "xyz": [3.26321089, -1.8840253480431601, 3.532846875]
      },
      {
        "species": [{ "element": "Hg", "occu": 1 }],
        "abc": [0.828101099999999, 0.1718989, 0.25],
        "properties": { "magmom": -0.0 },
        "label": "Hg",
        "xyz": [3.2632108899999968, -3.7088973169304222, 1.177615625]
      },
      {
        "species": [{ "element": "Hg", "occu": 1 }],
        "abc": [0.828101099999999, 0.6562022, 0.25],
        "properties": { "magmom": -0.0 },
        "label": "Hg",
        "xyz": [4.843594692622934, -0.9715837115347803, 1.177615625]
      },
      {
        "species": [{ "element": "Hg", "occu": 1 }],
        "abc": [0.3437978, 0.1718989, 0.25],
        "properties": { "magmom": -0.0 },
        "label": "Hg",
        "xyz": [1.682827087377063, -0.971583711534786, 1.177615625]
      },
      {
        "species": [{ "element": "Hg", "occu": 1 }],
        "abc": [0.1718989, 0.828101099999999, 0.75],
        "properties": { "magmom": -0.0 },
        "label": "Hg",
        "xyz": [3.2632108899999968, 3.7088973169304222, 3.532846875]
      },
      {
        "species": [{ "element": "Hg", "occu": 1 }],
        "abc": [0.1718989, 0.3437978, 0.75],
        "properties": { "magmom": -0.0 },
        "label": "Hg",
        "xyz": [1.682827087377063, 0.971583711534786, 3.532846875]
      },
      {
        "species": [{ "element": "Hg", "occu": 1 }],
        "abc": [0.6562022, 0.828101099999999, 0.75],
        "properties": { "magmom": -0.0 },
        "label": "Hg",
        "xyz": [4.843594692622934, 0.9715837115347803, 3.532846875]
      }
    ]
  },
  "task_ids": null,
  "uncorrected_energy_per_atom": null,
  "energy_per_atom": -37.82334396125,
  "formation_energy_per_atom": -0.20081246604166803,
  "energy_above_hull": 0.0,
  "is_stable": true,
  "equilibrium_reaction_energy_per_atom": null,
  "decomposes_to": null,
  "xas": null,
  "grain_boundaries": null,
  "band_gap": 0.0,
  "cbm": null,
  "vbm": null,
  "efermi": 2.1407967,
  "is_gap_direct": null,
  "is_metal": null,
  "es_source_calc_id": null,
  "bandstructure": null,
  "dos": null,
  "dos_energy_up": null,
  "dos_energy_down": null,
  "is_magnetic": null,
  "ordering": null,
  "total_magnetization": 0.0,
  "total_magnetization_normalized_vol": null,
  "total_magnetization_normalized_formula_units": null,
  "num_magnetic_sites": null,
  "num_unique_magnetic_sites": null,
  "types_of_magnetic_species": null,
  "bulk_modulus": null,
  "shear_modulus": null,
  "universal_anisotropy": null,
  "homogeneous_poisson": null,
  "e_total": null,
  "e_ionic": null,
  "e_electronic": null,
  "n": null,
  "e_ij_max": null,
  "weighted_surface_energy_EV_PER_ANG2": null,
  "weighted_surface_energy": null,
  "weighted_work_function": null,
  "surface_anisotropy": null,
  "shape_factor": null,
  "has_reconstructed": null,
  "possible_species": null,
  "has_props": null,
  "theoretical": null,
  "database_IDs": null,
  "fields_not_requested": [
    "builder_meta",
    "nsites",
    "elements",
    "nelements",
    "composition",
    "composition_reduced",
    "chemsys",
    "symmetry",
    "property_name",
    "deprecated",
    "deprecation_reasons",
    "last_updated",
    "origins",
    "warnings",
    "task_ids",
    "uncorrected_energy_per_atom",
    "equilibrium_reaction_energy_per_atom",
    "decomposes_to",
    "xas",
    "grain_boundaries",
    "cbm",
    "vbm",
    "is_gap_direct",
    "is_metal",
    "es_source_calc_id",
    "bandstructure",
    "dos",
    "dos_energy_up",
    "dos_energy_down",
    "is_magnetic",
    "ordering",
    "total_magnetization_normalized_vol",
    "total_magnetization_normalized_formula_units",
    "num_magnetic_sites",
    "num_unique_magnetic_sites",
    "types_of_magnetic_species",
    "bulk_modulus",
    "shear_modulus",
    "universal_anisotropy",
    "homogeneous_poisson",
    "e_total",
    "e_ionic",
    "e_electronic",
    "n",
    "e_ij_max",
    "weighted_surface_energy_EV_PER_ANG2",
    "weighted_surface_energy",
    "weighted_work_function",
    "surface_anisotropy",
    "shape_factor",
    "has_reconstructed",
    "possible_species",
    "has_props",
    "theoretical",
    "database_IDs"
  ]
}
