{"builder_meta": null, "nsites": null, "elements": null, "nelements": null, "composition": null, "composition_reduced": null, "formula_pretty": "LiIn2", "formula_anonymous": "AB2", "chemsys": null, "volume": 288.9295869712251, "density": 5.43863098102379, "density_atomic": 24.077465580935424, "symmetry": null, "property_name": null, "material_id": "mp-1210993", "deprecated": null, "deprecation_reasons": null, "last_updated": null, "origins": null, "warnings": null, "structure": {"@module": "pymatgen.core.structure", "@class": "Structure", "charge": 0.0, "lattice": {"matrix": [[0.0, 5.2471161, 5.2471161], [5.2471161, -0.0, 5.2471161], [5.2471161, 5.2471161, -0.0]], "pbc": [true, true, true], "a": 7.420542751966222, "b": 7.420542751966222, "c": 7.420542751966222, "alpha": 59.99999999999999, "beta": 59.99999999999999, "gamma": 59.99999999999999, "volume": 288.9295869712251}, "properties": {}, "sites": [{"species": [{"element": "Li", "occu": 1}], "abc": [0.125, 0.125, 0.625], "properties": {"magmom": -0.0}, "label": "Li", "xyz": [3.935337075, 3.935337075, 1.311779025]}, {"species": [{"element": "Li", "occu": 1}], "abc": [0.125, 0.125, 0.125], "properties": {"magmom": -0.0}, "label": "Li", "xyz": [1.311779025, 1.311779025, 1.311779025]}, {"species": [{"element": "Li", "occu": 1}], "abc": [0.125, 0.625, 0.125], "properties": {"magmom": -0.0}, "label": "Li", "xyz": [3.935337075, 1.311779025, 3.935337075]}, {"species": [{"element": "Li", "occu": 1}], "abc": [0.625, 0.125, 0.125], "properties": {"magmom": -0.0}, "label": "Li", "xyz": [1.311779025, 3.935337075, 3.935337075]}, {"species": [{"element": "In", "occu": 1}], "abc": [0.39526404, 0.39526404, 0.81420687], "properties": {"magmom": -0.0}, "label": "In", "xyz": [6.346234284342652, 6.346234284342652, 4.147992616070088]}, {"species": [{"element": "In", "occu": 1}], "abc": [0.39526404, 0.39526404, 0.39526404], "properties": {"magmom": -0.0}, "label": "In", "xyz": [4.147992616070088, 4.147992616070088, 4.147992616070088]}, {"species": [{"element": "In", "occu": 1}], "abc": [0.8547359600000001, 0.43579313000000003, 0.8547359600000001], "properties": {"magmom": -0.0}, "label": "In", "xyz": [6.77155596565735, 8.969797633929913, 6.77155596565735]}, {"species": [{"element": "In", "occu": 1}], "abc": [0.8547359600000001, 0.8547359600000001, 0.8547359600000001], "properties": {"magmom": -0.0}, "label": "In", "xyz": [8.969797633929913, 8.969797633929913, 8.969797633929913]}, {"species": [{"element": "In", "occu": 1}], "abc": [0.8547359600000001, 0.8547359600000001, 0.43579313000000003], "properties": {"magmom": -0.0}, "label": "In", "xyz": [6.77155596565735, 6.77155596565735, 8.969797633929913]}, {"species": [{"element": "In", "occu": 1}], "abc": [0.43579313000000003, 0.8547359600000001, 0.8547359600000001], "properties": {"magmom": -0.0}, "label": "In", "xyz": [8.969797633929913, 6.77155596565735, 6.77155596565735]}, {"species": [{"element": "In", "occu": 1}], "abc": [0.39526404, 0.81420687, 0.39526404], "properties": {"magmom": -0.0}, "label": "In", "xyz": [6.346234284342652, 4.147992616070088, 6.346234284342652]}, {"species": [{"element": "In", "occu": 1}], "abc": [0.81420687, 0.39526404, 0.39526404], "properties": {"magmom": -0.0}, "label": "In", "xyz": [4.147992616070088, 6.346234284342652, 6.346234284342652]}]}, "task_ids": null, "uncorrected_energy_per_atom": null, "energy_per_atom": -15.916335725833333, "formation_energy_per_atom": -0.068373334722219, "energy_above_hull": 0.194474350833333, "is_stable": false, "equilibrium_reaction_energy_per_atom": null, "decomposes_to": null, "xas": null, "grain_boundaries": null, "band_gap": 0.0, "cbm": null, "vbm": null, "efermi": 5.01164414, "is_gap_direct": null, "is_metal": null, "es_source_calc_id": null, "bandstructure": null, "dos": null, "dos_energy_up": null, "dos_energy_down": null, "is_magnetic": null, "ordering": null, "total_magnetization": 4.8e-06, "total_magnetization_normalized_vol": null, "total_magnetization_normalized_formula_units": null, "num_magnetic_sites": null, "num_unique_magnetic_sites": null, "types_of_magnetic_species": null, "bulk_modulus": null, "shear_modulus": null, "universal_anisotropy": null, "homogeneous_poisson": null, "e_total": null, "e_ionic": null, "e_electronic": null, "n": null, "e_ij_max": null, "weighted_surface_energy_EV_PER_ANG2": null, "weighted_surface_energy": null, "weighted_work_function": null, "surface_anisotropy": null, "shape_factor": null, "has_reconstructed": null, "possible_species": null, "has_props": null, "theoretical": null, "database_IDs": null, "fields_not_requested": ["builder_meta", "nsites", "elements", "nelements", "composition", "composition_reduced", "chemsys", "symmetry", "property_name", "deprecated", "deprecation_reasons", "last_updated", "origins", "warnings", "task_ids", "uncorrected_energy_per_atom", "equilibrium_reaction_energy_per_atom", "decomposes_to", "xas", "grain_boundaries", "cbm", "vbm", "is_gap_direct", "is_metal", "es_source_calc_id", "bandstructure", "dos", "dos_energy_up", "dos_energy_down", "is_magnetic", "ordering", "total_magnetization_normalized_vol", "total_magnetization_normalized_formula_units", "num_magnetic_sites", "num_unique_magnetic_sites", "types_of_magnetic_species", "bulk_modulus", "shear_modulus", "universal_anisotropy", "homogeneous_poisson", "e_total", "e_ionic", "e_electronic", "n", "e_ij_max", "weighted_surface_energy_EV_PER_ANG2", "weighted_surface_energy", "weighted_work_function", "surface_anisotropy", "shape_factor", "has_reconstructed", "possible_species", "has_props", "theoretical", "database_IDs"]}