{
  "builder_meta": null,
  "nsites": null,
  "elements": null,
  "nelements": null,
  "composition": null,
  "composition_reduced": null,
  "formula_pretty": "LiIr3",
  "formula_anonymous": "AB3",
  "chemsys": null,
  "volume": 54.66763794987486,
  "density": 17.726709096957528,
  "density_atomic": 13.666909487468715,
  "symmetry": null,
  "property_name": null,
  "material_id": "mp-30738",
  "deprecated": null,
  "deprecation_reasons": null,
  "last_updated": null,
  "origins": null,
  "warnings": null,
  "structure": {
    "@module": "pymatgen.core.structure",
    "@class": "Structure",
    "charge": 0,
    "lattice": {
      "matrix": [
        [2.59004211, -0.00011349, -0.70199904],
        [-0.57667765, 4.11107653, -2.13052015],
        [-0.00355462, 0.01143041, 5.12877933]
      ],
      "pbc": [true, true, true],
      "a": 2.6834904129909156,
      "b": 4.666114385340589,
      "c": 5.128793299152479,
      "alpha": 117.03557231513257,
      "beta": 105.20465338116769,
      "gamma": 89.99296636790636,
      "volume": 54.66763794987486
    },
    "properties": {},
    "sites": [
      {
        "species": [{ "element": "Li", "occu": 1 }],
        "abc": [0.99871371, 0.0166478, 0.00016399],
        "properties": { "magmom": -0.0 },
        "label": "Li",
        "xyz": [2.5771095676305245, 0.068328910310122, -0.7357234704856818]
      },
      {
        "species": [{ "element": "Ir", "occu": 1 }],
        "abc": [0.24104345, 0.93354462, 0.48053986],
        "properties": { "magmom": 0.0 },
        "label": "Ir",
        "xyz": [0.08425023161078325, 3.843338788589771, 0.306435006876713]
      },
      {
        "species": [{ "element": "Ir", "occu": 1 }],
        "abc": [0.75967895, 0.4528927, 0.51935039],
        "properties": { "magmom": 0.0 },
        "label": "Ir",
        "xyz": [1.7045812793591277, 1.8677267215056552, 1.1654426285133264]
      },
      {
        "species": [{ "element": "Ir", "occu": 1 }],
        "abc": [0.50056588, 0.5009148800000001, -5.6240000000000004e-5],
        "properties": { "magmom": 0.0 },
        "label": "Ir",
        "xyz": [1.0076204920926037, 2.059241954627787, -1.4188944550411067]
      }
    ]
  },
  "task_ids": null,
  "uncorrected_energy_per_atom": null,
  "energy_per_atom": -40.0863331975,
  "formation_energy_per_atom": -0.22014150666666402,
  "energy_above_hull": 0.0,
  "is_stable": true,
  "equilibrium_reaction_energy_per_atom": null,
  "decomposes_to": null,
  "xas": null,
  "grain_boundaries": null,
  "band_gap": 0.0,
  "cbm": null,
  "vbm": null,
  "efermi": 7.86920398,
  "is_gap_direct": null,
  "is_metal": null,
  "es_source_calc_id": null,
  "bandstructure": null,
  "dos": null,
  "dos_energy_up": null,
  "dos_energy_down": null,
  "is_magnetic": null,
  "ordering": null,
  "total_magnetization": 0.0,
  "total_magnetization_normalized_vol": null,
  "total_magnetization_normalized_formula_units": null,
  "num_magnetic_sites": null,
  "num_unique_magnetic_sites": null,
  "types_of_magnetic_species": null,
  "bulk_modulus": null,
  "shear_modulus": null,
  "universal_anisotropy": null,
  "homogeneous_poisson": null,
  "e_total": null,
  "e_ionic": null,
  "e_electronic": null,
  "n": null,
  "e_ij_max": null,
  "weighted_surface_energy_EV_PER_ANG2": null,
  "weighted_surface_energy": null,
  "weighted_work_function": null,
  "surface_anisotropy": null,
  "shape_factor": null,
  "has_reconstructed": null,
  "possible_species": null,
  "has_props": null,
  "theoretical": null,
  "database_IDs": null,
  "fields_not_requested": [
    "builder_meta",
    "nsites",
    "elements",
    "nelements",
    "composition",
    "composition_reduced",
    "chemsys",
    "symmetry",
    "property_name",
    "deprecated",
    "deprecation_reasons",
    "last_updated",
    "origins",
    "warnings",
    "task_ids",
    "uncorrected_energy_per_atom",
    "equilibrium_reaction_energy_per_atom",
    "decomposes_to",
    "xas",
    "grain_boundaries",
    "cbm",
    "vbm",
    "is_gap_direct",
    "is_metal",
    "es_source_calc_id",
    "bandstructure",
    "dos",
    "dos_energy_up",
    "dos_energy_down",
    "is_magnetic",
    "ordering",
    "total_magnetization_normalized_vol",
    "total_magnetization_normalized_formula_units",
    "num_magnetic_sites",
    "num_unique_magnetic_sites",
    "types_of_magnetic_species",
    "bulk_modulus",
    "shear_modulus",
    "universal_anisotropy",
    "homogeneous_poisson",
    "e_total",
    "e_ionic",
    "e_electronic",
    "n",
    "e_ij_max",
    "weighted_surface_energy_EV_PER_ANG2",
    "weighted_surface_energy",
    "weighted_work_function",
    "surface_anisotropy",
    "shape_factor",
    "has_reconstructed",
    "possible_species",
    "has_props",
    "theoretical",
    "database_IDs"
  ]
}
