{"builder_meta": null, "nsites": null, "elements": null, "nelements": null, "composition": null, "composition_reduced": null, "formula_pretty": "LiLa3", "formula_anonymous": "AB3", "chemsys": null, "volume": 256.89689242615617, "density": 5.476902998052349, "density_atomic": 32.11211155326952, "symmetry": null, "property_name": null, "material_id": "mp-973415", "deprecated": null, "deprecation_reasons": null, "last_updated": null, "origins": null, "warnings": null, "structure": {"@module": "pymatgen.core.structure", "@class": "Structure", "charge": 0, "lattice": {"matrix": [[3.687645, -6.387189, 0.0], [3.687645, 6.387189, 0.0], [0.0, 0.0, 5.453433]], "pbc": [true, true, true], "a": 7.3752904327725295, "b": 7.3752904327725295, "c": 5.453433, "alpha": 90.0, "beta": 90.0, "gamma": 120.00000388215219, "volume": 256.89689242615617}, "properties": {}, "sites": [{"species": [{"element": "Li", "occu": 1}], "abc": [0.666667, 0.333333, 0.25], "properties": {"magmom": 0.0}, "label": "Li", "xyz": [3.687645, -2.1290672581260006, 1.36335825]}, {"species": [{"element": "Li", "occu": 1}], "abc": [0.333333, 0.666667, 0.75], "properties": {"magmom": 0.0}, "label": "Li", "xyz": [3.687645, 2.1290672581260006, 4.09007475]}, {"species": [{"element": "La", "occu": 1}], "abc": [0.824951999999999, 0.175047999999999, 0.75], "properties": {"magmom": 0.001}, "label": "La", "xyz": [3.6876449999999927, -4.151059679856, 4.09007475]}, {"species": [{"element": "La", "occu": 1}], "abc": [0.350095, 0.175047999999999, 0.75], "properties": {"magmom": -0.002}, "label": "La", "xyz": [1.9365409582349962, -1.1180582728830062, 4.09007475]}, {"species": [{"element": "La", "occu": 1}], "abc": [0.824951999999999, 0.649905, 0.75], "properties": {"magmom": 0.002}, "label": "La", "xyz": [5.438749041764996, -1.118058272882994, 4.09007475]}, {"species": [{"element": "La", "occu": 1}], "abc": [0.175047999999999, 0.350095, 0.25], "properties": {"magmom": 0.002}, "label": "La", "xyz": [1.9365409582349962, 1.1180582728830062, 1.36335825]}, {"species": [{"element": "La", "occu": 1}], "abc": [0.649905, 0.824951999999999, 0.25], "properties": {"magmom": -0.002}, "label": "La", "xyz": [5.438749041764996, 1.118058272882994, 1.36335825]}, {"species": [{"element": "La", "occu": 1}], "abc": [0.175047999999999, 0.824951999999999, 0.25], "properties": {"magmom": 0.001}, "label": "La", "xyz": [3.6876449999999927, 4.151059679856, 1.36335825]}]}, "task_ids": null, "uncorrected_energy_per_atom": null, "energy_per_atom": -22.76031952666667, "formation_energy_per_atom": 0.14494223041666301, "energy_above_hull": 0.14494223041666301, "is_stable": false, "equilibrium_reaction_energy_per_atom": null, "decomposes_to": null, "xas": null, "grain_boundaries": null, "band_gap": 0.0, "cbm": null, "vbm": null, "efermi": 6.72083766, "is_gap_direct": null, "is_metal": null, "es_source_calc_id": null, "bandstructure": null, "dos": null, "dos_energy_up": null, "dos_energy_down": null, "is_magnetic": null, "ordering": null, "total_magnetization": 0.004101899999999, "total_magnetization_normalized_vol": null, "total_magnetization_normalized_formula_units": null, "num_magnetic_sites": null, "num_unique_magnetic_sites": null, "types_of_magnetic_species": null, "bulk_modulus": null, "shear_modulus": null, "universal_anisotropy": null, "homogeneous_poisson": null, "e_total": null, "e_ionic": null, "e_electronic": null, "n": null, "e_ij_max": null, "weighted_surface_energy_EV_PER_ANG2": null, "weighted_surface_energy": null, "weighted_work_function": null, "surface_anisotropy": null, "shape_factor": null, "has_reconstructed": null, "possible_species": null, "has_props": null, "theoretical": null, "database_IDs": null, "fields_not_requested": ["builder_meta", "nsites", "elements", "nelements", "composition", "composition_reduced", "chemsys", "symmetry", "property_name", "deprecated", "deprecation_reasons", "last_updated", "origins", "warnings", "task_ids", "uncorrected_energy_per_atom", "equilibrium_reaction_energy_per_atom", "decomposes_to", "xas", "grain_boundaries", "cbm", "vbm", "is_gap_direct", "is_metal", "es_source_calc_id", "bandstructure", "dos", "dos_energy_up", "dos_energy_down", "is_magnetic", "ordering", "total_magnetization_normalized_vol", "total_magnetization_normalized_formula_units", "num_magnetic_sites", "num_unique_magnetic_sites", "types_of_magnetic_species", "bulk_modulus", "shear_modulus", "universal_anisotropy", "homogeneous_poisson", "e_total", "e_ionic", "e_electronic", "n", "e_ij_max", "weighted_surface_energy_EV_PER_ANG2", "weighted_surface_energy", "weighted_work_function", "surface_anisotropy", "shape_factor", "has_reconstructed", "possible_species", "has_props", "theoretical", "database_IDs"]}