{
  "builder_meta": null,
  "nsites": null,
  "elements": null,
  "nelements": null,
  "composition": null,
  "composition_reduced": null,
  "formula_pretty": "LiLu3",
  "formula_anonymous": "AB3",
  "chemsys": null,
  "volume": 219.30891016552096,
  "density": 8.053885431213295,
  "density_atomic": 27.41361377069012,
  "symmetry": null,
  "property_name": null,
  "material_id": "mp-973493",
  "deprecated": null,
  "deprecation_reasons": null,
  "last_updated": null,
  "origins": null,
  "warnings": null,
  "structure": {
    "@module": "pymatgen.core.structure",
    "@class": "Structure",
    "charge": 0,
    "lattice": {
      "matrix": [
        [3.419661999999999, -5.923029, 0.0],
        [3.419661999999999, 5.923029, 0.0],
        [0.0, 0.0, 5.413763]
      ],
      "pbc": [true, true, true],
      "a": 6.8393245813519465,
      "b": 6.8393245813519465,
      "c": 5.413763,
      "alpha": 90.0,
      "beta": 90.0,
      "gamma": 120.00000562364521,
      "volume": 219.30891016552087
    },
    "properties": {},
    "sites": [
      {
        "species": [{ "element": "Li", "occu": 1 }],
        "abc": [0.666667, 0.333333, 0.25],
        "properties": { "magmom": 0.0 },
        "label": "Li",
        "xyz": [3.419661999999999, -1.974346948686, 1.35344075]
      },
      {
        "species": [{ "element": "Li", "occu": 1 }],
        "abc": [0.333333, 0.666667, 0.75],
        "properties": { "magmom": 0.0 },
        "label": "Li",
        "xyz": [3.419661999999999, 1.974346948686, 4.0603222500000005]
      },
      {
        "species": [{ "element": "Lu", "occu": 1 }],
        "abc": [0.832133999999999, 0.167866, 0.75],
        "properties": { "magmom": 0.001 },
        "label": "Lu",
        "xyz": [3.4196619999999958, -3.934478627771994, 4.0603222500000005]
      },
      {
        "species": [{ "element": "Lu", "occu": 1 }],
        "abc": [0.335731, 0.167866, 0.75],
        "properties": { "magmom": 0.001 },
        "label": "Lu",
        "xyz": [1.7221315242139994, -0.994269263085, 4.0603222500000005]
      },
      {
        "species": [{ "element": "Lu", "occu": 1 }],
        "abc": [0.832133999999999, 0.664269, 0.75],
        "properties": { "magmom": 0.001 },
        "label": "Lu",
        "xyz": [5.117192475785995, -0.9942692630849939, 4.0603222500000005]
      },
      {
        "species": [{ "element": "Lu", "occu": 1 }],
        "abc": [0.167866, 0.832133999999999, 0.25],
        "properties": { "magmom": 0.001 },
        "label": "Lu",
        "xyz": [3.4196619999999958, 3.934478627771994, 1.35344075]
      },
      {
        "species": [{ "element": "Lu", "occu": 1 }],
        "abc": [0.664269, 0.832133999999999, 0.25],
        "properties": { "magmom": 0.0 },
        "label": "Lu",
        "xyz": [5.117192475785995, 0.9942692630849939, 1.35344075]
      },
      {
        "species": [{ "element": "Lu", "occu": 1 }],
        "abc": [0.167866, 0.335731, 0.25],
        "properties": { "magmom": 0.001 },
        "label": "Lu",
        "xyz": [1.7221315242139994, 0.994269263085, 1.35344075]
      }
    ]
  },
  "task_ids": null,
  "uncorrected_energy_per_atom": null,
  "energy_per_atom": -28.98042247791667,
  "formation_energy_per_atom": 0.176164262916667,
  "energy_above_hull": 0.176164262916667,
  "is_stable": false,
  "equilibrium_reaction_energy_per_atom": null,
  "decomposes_to": null,
  "xas": null,
  "grain_boundaries": null,
  "band_gap": 0.0,
  "cbm": null,
  "vbm": null,
  "efermi": 2.22368766,
  "is_gap_direct": null,
  "is_metal": null,
  "es_source_calc_id": null,
  "bandstructure": null,
  "dos": null,
  "dos_energy_up": null,
  "dos_energy_down": null,
  "is_magnetic": null,
  "ordering": null,
  "total_magnetization": 0.0087469,
  "total_magnetization_normalized_vol": null,
  "total_magnetization_normalized_formula_units": null,
  "num_magnetic_sites": null,
  "num_unique_magnetic_sites": null,
  "types_of_magnetic_species": null,
  "bulk_modulus": null,
  "shear_modulus": null,
  "universal_anisotropy": null,
  "homogeneous_poisson": null,
  "e_total": null,
  "e_ionic": null,
  "e_electronic": null,
  "n": null,
  "e_ij_max": null,
  "weighted_surface_energy_EV_PER_ANG2": null,
  "weighted_surface_energy": null,
  "weighted_work_function": null,
  "surface_anisotropy": null,
  "shape_factor": null,
  "has_reconstructed": null,
  "possible_species": null,
  "has_props": null,
  "theoretical": null,
  "database_IDs": null,
  "fields_not_requested": [
    "builder_meta",
    "nsites",
    "elements",
    "nelements",
    "composition",
    "composition_reduced",
    "chemsys",
    "symmetry",
    "property_name",
    "deprecated",
    "deprecation_reasons",
    "last_updated",
    "origins",
    "warnings",
    "task_ids",
    "uncorrected_energy_per_atom",
    "equilibrium_reaction_energy_per_atom",
    "decomposes_to",
    "xas",
    "grain_boundaries",
    "cbm",
    "vbm",
    "is_gap_direct",
    "is_metal",
    "es_source_calc_id",
    "bandstructure",
    "dos",
    "dos_energy_up",
    "dos_energy_down",
    "is_magnetic",
    "ordering",
    "total_magnetization_normalized_vol",
    "total_magnetization_normalized_formula_units",
    "num_magnetic_sites",
    "num_unique_magnetic_sites",
    "types_of_magnetic_species",
    "bulk_modulus",
    "shear_modulus",
    "universal_anisotropy",
    "homogeneous_poisson",
    "e_total",
    "e_ionic",
    "e_electronic",
    "n",
    "e_ij_max",
    "weighted_surface_energy_EV_PER_ANG2",
    "weighted_surface_energy",
    "weighted_work_function",
    "surface_anisotropy",
    "shape_factor",
    "has_reconstructed",
    "possible_species",
    "has_props",
    "theoretical",
    "database_IDs"
  ]
}
