{"builder_meta": null, "nsites": null, "elements": null, "nelements": null, "composition": null, "composition_reduced": null, "formula_pretty": "LiMg", "formula_anonymous": "AB", "chemsys": null, "volume": 80.44073330110997, "density": 1.2900231399125661, "density_atomic": 20.110183325277493, "symmetry": null, "property_name": null, "material_id": "mp-1185380", "deprecated": null, "deprecation_reasons": null, "last_updated": null, "origins": null, "warnings": null, "structure": {"@module": "pymatgen.core.structure", "@class": "Structure", "charge": 0, "lattice": {"matrix": [[1.68769688, 5.43885837, -0.07639196], [-1.68769688, 5.43885837, -0.07639196], [0.0, 2.25426961, 4.35004945]], "pbc": [true, true, true], "a": 5.695202969098945, "b": 5.695202969098945, "c": 4.899455244413899, "alpha": 64.69179991579799, "beta": 64.69179991579799, "gamma": 34.47540184628994, "volume": 80.44073330110997}, "properties": {}, "sites": [{"species": [{"element": "Li", "occu": 1}], "abc": [0.63329948, 0.63329948, 0.61645881], "properties": {"magmom": 0.001}, "label": "Li", "xyz": [0.0, 8.27851671622906, 2.584868330299793]}, {"species": [{"element": "Li", "occu": 1}], "abc": [0.36670052000000003, 0.36670052000000003, 0.38354119000000003], "properties": {"magmom": 0.001}, "label": "Li", "xyz": [0.0, 4.853469633770941, 1.6123971997002073]}, {"species": [{"element": "Mg", "occu": 1}], "abc": [0.88460438, 0.88460438, 0.86454547], "properties": {"magmom": -0.0}, "label": "Mg", "xyz": [0.0, 11.571394452087487, 3.6256622214479224]}, {"species": [{"element": "Mg", "occu": 1}], "abc": [0.11539562, 0.11539562, 0.13545453], "properties": {"magmom": -0.0}, "label": "Mg", "xyz": [0.0, 1.5605918979125122, 0.5716033085520781]}]}, "task_ids": null, "uncorrected_energy_per_atom": null, "energy_per_atom": -3.3302178725, "formation_energy_per_atom": -0.05221287333333301, "energy_above_hull": 0.0, "is_stable": true, "equilibrium_reaction_energy_per_atom": null, "decomposes_to": null, "xas": null, "grain_boundaries": null, "band_gap": 0.0, "cbm": null, "vbm": null, "efermi": 1.78815973, "is_gap_direct": null, "is_metal": null, "es_source_calc_id": null, "bandstructure": null, "dos": null, "dos_energy_up": null, "dos_energy_down": null, "is_magnetic": null, "ordering": null, "total_magnetization": 0.0040103, "total_magnetization_normalized_vol": null, "total_magnetization_normalized_formula_units": null, "num_magnetic_sites": null, "num_unique_magnetic_sites": null, "types_of_magnetic_species": null, "bulk_modulus": null, "shear_modulus": null, "universal_anisotropy": null, "homogeneous_poisson": null, "e_total": null, "e_ionic": null, "e_electronic": null, "n": null, "e_ij_max": null, "weighted_surface_energy_EV_PER_ANG2": null, "weighted_surface_energy": null, "weighted_work_function": null, "surface_anisotropy": null, "shape_factor": null, "has_reconstructed": null, "possible_species": null, "has_props": null, "theoretical": null, "database_IDs": null, "fields_not_requested": ["builder_meta", "nsites", "elements", "nelements", "composition", "composition_reduced", "chemsys", "symmetry", "property_name", "deprecated", "deprecation_reasons", "last_updated", "origins", "warnings", "task_ids", "uncorrected_energy_per_atom", "equilibrium_reaction_energy_per_atom", "decomposes_to", "xas", "grain_boundaries", "cbm", "vbm", "is_gap_direct", "is_metal", "es_source_calc_id", "bandstructure", "dos", "dos_energy_up", "dos_energy_down", "is_magnetic", "ordering", "total_magnetization_normalized_vol", "total_magnetization_normalized_formula_units", "num_magnetic_sites", "num_unique_magnetic_sites", "types_of_magnetic_species", "bulk_modulus", "shear_modulus", "universal_anisotropy", "homogeneous_poisson", "e_total", "e_ionic", "e_electronic", "n", "e_ij_max", "weighted_surface_energy_EV_PER_ANG2", "weighted_surface_energy", "weighted_work_function", "surface_anisotropy", "shape_factor", "has_reconstructed", "possible_species", "has_props", "theoretical", "database_IDs"]}