{"builder_meta": null, "nsites": null, "elements": null, "nelements": null, "composition": null, "composition_reduced": null, "formula_pretty": "LiMg5", "formula_anonymous": "AB5", "chemsys": null, "volume": 131.45616150640546, "density": 1.622767691413543, "density_atomic": 21.90936025106758, "symmetry": null, "property_name": null, "material_id": "mp-1094609", "deprecated": null, "deprecation_reasons": null, "last_updated": null, "origins": null, "warnings": null, "structure": {"@module": "pymatgen.core.structure", "@class": "Structure", "charge": 0, "lattice": {"matrix": [[1.57616288, 5.76056477, -0.00332041], [-1.57616288, 5.76056477, -0.00332041], [0.0, 1.883659489999999, 7.23801785]], "pbc": [true, true, true], "a": 5.9723033177139975, "b": 5.9723033177139975, "c": 7.479109269905453, "alpha": 75.9724206167162, "beta": 75.9724206167162, "gamma": 30.604634672843154, "volume": 131.45616150640546}, "properties": {}, "sites": [{"species": [{"element": "Li", "occu": 1}], "abc": [0.61076482, 0.61076482, 0.27905222], "properties": {"magmom": 0.0}, "label": "Li", "xyz": [0.0, 7.56233997210335, 2.0157289702101746]}, {"species": [{"element": "Mg", "occu": 1}], "abc": [0.00171316, 0.00171316, 0.0047650800000000005], "properties": {"magmom": 0.0}, "label": "Mg", "xyz": [0.0, 0.028713326445355597, 0.034478357309486805]}, {"species": [{"element": "Mg", "occu": 1}], "abc": [0.33127888, 0.33127888, 0.33184785], "properties": {"magmom": -0.0}, "label": "Mg", "xyz": [0.0, 4.441795242234711, 2.3997206983722412]}, {"species": [{"element": "Mg", "occu": 1}], "abc": [0.94616292, 0.94616292, 0.6058106], "properties": {"magmom": -0.0}, "label": "Mg", "xyz": [0.0, 12.042006453097251, 4.3785846388768155]}, {"species": [{"element": "Mg", "occu": 1}], "abc": [0.66605731, 0.66605731, 0.66523014], "properties": {"magmom": -0.0}, "label": "Mg", "xyz": [0.0, 8.926799615818966, 4.810524460972605]}, {"species": [{"element": "Mg", "occu": 1}], "abc": [0.27735691, 0.27735691, 0.94662811], "properties": {"magmom": 0.0}, "label": "Mg", "xyz": [0.0, 4.9785899118263846, 6.849869280176697]}]}, "task_ids": null, "uncorrected_energy_per_atom": null, "energy_per_atom": -3.887803153333333, "formation_energy_per_atom": -0.015599096944444002, "energy_above_hull": 0.012276034166666, "is_stable": false, "equilibrium_reaction_energy_per_atom": null, "decomposes_to": null, "xas": null, "grain_boundaries": null, "band_gap": 0.0, "cbm": null, "vbm": null, "efermi": 2.87694156, "is_gap_direct": null, "is_metal": null, "es_source_calc_id": null, "bandstructure": null, "dos": null, "dos_energy_up": null, "dos_energy_down": null, "is_magnetic": null, "ordering": null, "total_magnetization": 0.0, "total_magnetization_normalized_vol": null, "total_magnetization_normalized_formula_units": null, "num_magnetic_sites": null, "num_unique_magnetic_sites": null, "types_of_magnetic_species": null, "bulk_modulus": null, "shear_modulus": null, "universal_anisotropy": null, "homogeneous_poisson": null, "e_total": null, "e_ionic": null, "e_electronic": null, "n": null, "e_ij_max": null, "weighted_surface_energy_EV_PER_ANG2": null, "weighted_surface_energy": null, "weighted_work_function": null, "surface_anisotropy": null, "shape_factor": null, "has_reconstructed": null, "possible_species": null, "has_props": null, "theoretical": null, "database_IDs": null, "fields_not_requested": ["builder_meta", "nsites", "elements", "nelements", "composition", "composition_reduced", "chemsys", "symmetry", "property_name", "deprecated", "deprecation_reasons", "last_updated", "origins", "warnings", "task_ids", "uncorrected_energy_per_atom", "equilibrium_reaction_energy_per_atom", "decomposes_to", "xas", "grain_boundaries", "cbm", "vbm", "is_gap_direct", "is_metal", "es_source_calc_id", "bandstructure", "dos", "dos_energy_up", "dos_energy_down", "is_magnetic", "ordering", "total_magnetization_normalized_vol", "total_magnetization_normalized_formula_units", "num_magnetic_sites", "num_unique_magnetic_sites", "types_of_magnetic_species", "bulk_modulus", "shear_modulus", "universal_anisotropy", "homogeneous_poisson", "e_total", "e_ionic", "e_electronic", "n", "e_ij_max", "weighted_surface_energy_EV_PER_ANG2", "weighted_surface_energy", "weighted_work_function", "surface_anisotropy", "shape_factor", "has_reconstructed", "possible_species", "has_props", "theoretical", "database_IDs"]}