{
  "builder_meta": null,
  "nsites": null,
  "elements": null,
  "nelements": null,
  "composition": null,
  "composition_reduced": null,
  "formula_pretty": "LiMg2",
  "formula_anonymous": "AB2",
  "chemsys": null,
  "volume": 61.63541710870612,
  "density": 1.49661688061598,
  "density_atomic": 20.545139036235373,
  "symmetry": null,
  "property_name": null,
  "material_id": "mp-865939",
  "deprecated": null,
  "deprecation_reasons": null,
  "last_updated": null,
  "origins": null,
  "warnings": null,
  "structure": {
    "@module": "pymatgen.core.structure",
    "@class": "Structure",
    "charge": 0,
    "lattice": {
      "matrix": [
        [3.45383493, -0.0, -0.0],
        [-1.72691847, 2.41482274, 4.87204605],
        [0.0, -2.44689154, 2.45323739]
      ],
      "pbc": [true, true, true],
      "a": 3.45383493,
      "b": 5.7053000780825585,
      "c": 3.4649173006318037,
      "alpha": 72.1988697548121,
      "beta": 90.0,
      "gamma": 107.61904441592858,
      "volume": 61.63541710870612
    },
    "properties": {},
    "sites": [
      {
        "species": [{ "element": "Li", "occu": 1 }],
        "abc": [0.69482447, 0.38964594, 0.213408899999999],
        "properties": { "magmom": -0.0 },
        "label": "Li",
        "xyz": [1.7269222541582254, 0.41873744448997197, 2.4219156557143053]
      },
      {
        "species": [{ "element": "Mg", "occu": 1 }],
        "abc": [0.03614106, 0.07228112, 0.87191204],
        "properties": { "magmom": 0.0 },
        "label": "Mg",
        "xyz": [1.6542749394082845e-6, -1.958928102051473, 2.4911641625047514]
      },
      {
        "species": [{ "element": "Mg", "occu": 1 }],
        "abc": [0.35375247, 0.70750494, 0.55506205],
        "properties": { "magmom": 0.0 },
        "label": "Mg",
        "xyz": [-7.110424646850078e-7, 0.3503223834542786, 4.808695623112536]
      }
    ]
  },
  "task_ids": null,
  "uncorrected_energy_per_atom": null,
  "energy_per_atom": -3.63085479,
  "formation_energy_per_atom": -0.055750262222222007,
  "energy_above_hull": 0.0,
  "is_stable": true,
  "equilibrium_reaction_energy_per_atom": null,
  "decomposes_to": null,
  "xas": null,
  "grain_boundaries": null,
  "band_gap": 0.0,
  "cbm": null,
  "vbm": null,
  "efermi": 2.4798649,
  "is_gap_direct": null,
  "is_metal": null,
  "es_source_calc_id": null,
  "bandstructure": null,
  "dos": null,
  "dos_energy_up": null,
  "dos_energy_down": null,
  "is_magnetic": null,
  "ordering": null,
  "total_magnetization": 3e-7,
  "total_magnetization_normalized_vol": null,
  "total_magnetization_normalized_formula_units": null,
  "num_magnetic_sites": null,
  "num_unique_magnetic_sites": null,
  "types_of_magnetic_species": null,
  "bulk_modulus": null,
  "shear_modulus": null,
  "universal_anisotropy": null,
  "homogeneous_poisson": null,
  "e_total": null,
  "e_ionic": null,
  "e_electronic": null,
  "n": null,
  "e_ij_max": null,
  "weighted_surface_energy_EV_PER_ANG2": null,
  "weighted_surface_energy": null,
  "weighted_work_function": null,
  "surface_anisotropy": null,
  "shape_factor": null,
  "has_reconstructed": null,
  "possible_species": null,
  "has_props": null,
  "theoretical": null,
  "database_IDs": null,
  "fields_not_requested": [
    "builder_meta",
    "nsites",
    "elements",
    "nelements",
    "composition",
    "composition_reduced",
    "chemsys",
    "symmetry",
    "property_name",
    "deprecated",
    "deprecation_reasons",
    "last_updated",
    "origins",
    "warnings",
    "task_ids",
    "uncorrected_energy_per_atom",
    "equilibrium_reaction_energy_per_atom",
    "decomposes_to",
    "xas",
    "grain_boundaries",
    "cbm",
    "vbm",
    "is_gap_direct",
    "is_metal",
    "es_source_calc_id",
    "bandstructure",
    "dos",
    "dos_energy_up",
    "dos_energy_down",
    "is_magnetic",
    "ordering",
    "total_magnetization_normalized_vol",
    "total_magnetization_normalized_formula_units",
    "num_magnetic_sites",
    "num_unique_magnetic_sites",
    "types_of_magnetic_species",
    "bulk_modulus",
    "shear_modulus",
    "universal_anisotropy",
    "homogeneous_poisson",
    "e_total",
    "e_ionic",
    "e_electronic",
    "n",
    "e_ij_max",
    "weighted_surface_energy_EV_PER_ANG2",
    "weighted_surface_energy",
    "weighted_work_function",
    "surface_anisotropy",
    "shape_factor",
    "has_reconstructed",
    "possible_species",
    "has_props",
    "theoretical",
    "database_IDs"
  ]
}
