{"builder_meta": null, "nsites": null, "elements": null, "nelements": null, "composition": null, "composition_reduced": null, "formula_pretty": "LiMg7", "formula_anonymous": "AB7", "chemsys": null, "volume": 175.94510620128085, "density": 1.671212244010234, "density_atomic": 21.993138275160106, "symmetry": null, "property_name": null, "material_id": "mp-1016274", "deprecated": null, "deprecation_reasons": null, "last_updated": null, "origins": null, "warnings": null, "structure": {"@module": "pymatgen.core.structure", "@class": "Structure", "charge": 0, "lattice": {"matrix": [[3.15309102, -5.46131278, 0.0], [3.15309102, 5.46131278, -0.0], [-0.0, 0.0, 5.10873809]], "pbc": [true, true, true], "a": 6.306181115492638, "b": 6.306181115492638, "c": 5.10873809, "alpha": 90.0, "beta": 90.0, "gamma": 119.99999030079931, "volume": 175.94510620128085}, "properties": {}, "sites": [{"species": [{"element": "Li", "occu": 1}], "abc": [0.666667, 0.333333, 0.5], "properties": {"magmom": -0.0}, "label": "Li", "xyz": [3.15309102, -1.82044123420852, 2.554369045]}, {"species": [{"element": "Mg", "occu": 1}], "abc": [0.16659463, 0.33318726, 0.5], "properties": {"magmom": -0.0}, "label": "Mg", "xyz": [1.5758577893176278, 0.9098144592728113, 2.554369045]}, {"species": [{"element": "Mg", "occu": 1}], "abc": [0.66681274, 0.83340537, 0.5], "properties": {"magmom": -0.0}, "label": "Mg", "xyz": [4.730324250682372, 0.9098144592728117, 2.554369045]}, {"species": [{"element": "Mg", "occu": 1}], "abc": [0.16659463, 0.83340537, 0.5], "properties": {"magmom": -0.0}, "label": "Mg", "xyz": [3.15309102, 3.6416620162032576, 2.554369045]}, {"species": [{"element": "Mg", "occu": 1}], "abc": [0.83211178, 0.16788822, -0.0], "properties": {"magmom": 0.0}, "label": "Mg", "xyz": [3.15309102, -3.6275326170050963, 0.0]}, {"species": [{"element": "Mg", "occu": 1}], "abc": [0.33577544, 0.16788822, 0.0], "properties": {"magmom": 0.0}, "label": "Mg", "xyz": [1.5880973634463331, -0.9168846201846714, 0.0]}, {"species": [{"element": "Mg", "occu": 1}], "abc": [0.83211178, 0.66422456, 0.0], "properties": {"magmom": 0.0}, "label": "Mg", "xyz": [4.7180846765536675, -0.9168846201846717, 0.0]}, {"species": [{"element": "Mg", "occu": 1}], "abc": [0.333333, 0.666667, -0.0], "properties": {"magmom": -0.0}, "label": "Mg", "xyz": [3.15309102, 1.82044123420852, 0.0]}]}, "task_ids": null, "uncorrected_energy_per_atom": null, "energy_per_atom": -3.95169603, "formation_energy_per_atom": -0.005217091458333, "energy_above_hull": 0.015689256874999002, "is_stable": false, "equilibrium_reaction_energy_per_atom": null, "decomposes_to": null, "xas": null, "grain_boundaries": null, "band_gap": 0.0, "cbm": null, "vbm": null, "efermi": 2.9956373800000002, "is_gap_direct": null, "is_metal": null, "es_source_calc_id": null, "bandstructure": null, "dos": null, "dos_energy_up": null, "dos_energy_down": null, "is_magnetic": null, "ordering": null, "total_magnetization": 0.0, "total_magnetization_normalized_vol": null, "total_magnetization_normalized_formula_units": null, "num_magnetic_sites": null, "num_unique_magnetic_sites": null, "types_of_magnetic_species": null, "bulk_modulus": null, "shear_modulus": null, "universal_anisotropy": null, "homogeneous_poisson": null, "e_total": null, "e_ionic": null, "e_electronic": null, "n": null, "e_ij_max": null, "weighted_surface_energy_EV_PER_ANG2": null, "weighted_surface_energy": null, "weighted_work_function": null, "surface_anisotropy": null, "shape_factor": null, "has_reconstructed": null, "possible_species": null, "has_props": null, "theoretical": null, "database_IDs": null, "fields_not_requested": ["builder_meta", "nsites", "elements", "nelements", "composition", "composition_reduced", "chemsys", "symmetry", "property_name", "deprecated", "deprecation_reasons", "last_updated", "origins", "warnings", "task_ids", "uncorrected_energy_per_atom", "equilibrium_reaction_energy_per_atom", "decomposes_to", "xas", "grain_boundaries", "cbm", "vbm", "is_gap_direct", "is_metal", "es_source_calc_id", "bandstructure", "dos", "dos_energy_up", "dos_energy_down", "is_magnetic", "ordering", "total_magnetization_normalized_vol", "total_magnetization_normalized_formula_units", "num_magnetic_sites", "num_unique_magnetic_sites", "types_of_magnetic_species", "bulk_modulus", "shear_modulus", "universal_anisotropy", "homogeneous_poisson", "e_total", "e_ionic", "e_electronic", "n", "e_ij_max", "weighted_surface_energy_EV_PER_ANG2", "weighted_surface_energy", "weighted_work_function", "surface_anisotropy", "shape_factor", "has_reconstructed", "possible_species", "has_props", "theoretical", "database_IDs"]}