{"builder_meta": null, "nsites": null, "elements": null, "nelements": null, "composition": null, "composition_reduced": null, "formula_pretty": "LiN3", "formula_anonymous": "AB3", "chemsys": null, "volume": 42.087708451102685, "density": 1.931723590704999, "density_atomic": 10.521927112775671, "symmetry": null, "property_name": null, "material_id": "mp-2659", "deprecated": null, "deprecation_reasons": null, "last_updated": null, "origins": null, "warnings": null, "structure": {"@module": "pymatgen.core.structure", "@class": "Structure", "charge": 0, "lattice": {"matrix": [[3.11339595, -0.00274609, 0.739814099999999], [1.39993042, 2.78090636, 0.739814099999999], [-0.05862852, -0.03608827, 4.83972212]], "pbc": [true, true, true], "a": 3.2000885589379395, "b": 3.200089102898329, "c": 4.840211758322798, "alpha": 77.32715246110668, "beta": 77.32715310292993, "gamma": 61.424536448036235, "volume": 42.087708451102685}, "properties": {}, "sites": [{"species": [{"element": "Li", "occu": 1}], "abc": [0.0, -0.0, 0.0], "properties": {"magmom": 0.0}, "label": "Li", "xyz": [0.0, 0.0, 0.0]}, {"species": [{"element": "N", "occu": 1}], "abc": [0.61541758, 0.61541758, 0.2591643], "properties": {"magmom": 0.0}, "label": "N", "xyz": [2.762385973029749, 1.7003758789827856, 2.164872401568071]}, {"species": [{"element": "N", "occu": 1}], "abc": [0.38458242, 0.38458242, 0.7408357], "properties": {"magmom": 0.0}, "label": "N", "xyz": [1.6923118769702514, 1.0416961210172144, 4.154477918431927]}, {"species": [{"element": "N", "occu": 1}], "abc": [0.5, 0.5, 0.5], "properties": {"magmom": 0.0}, "label": "N", "xyz": [2.227348925, 1.371036, 3.159675159999999]}]}, "task_ids": null, "uncorrected_energy_per_atom": null, "energy_per_atom": -7.6490611325, "formation_energy_per_atom": -0.205821525729167, "energy_above_hull": 0.0, "is_stable": true, "equilibrium_reaction_energy_per_atom": null, "decomposes_to": null, "xas": null, "grain_boundaries": null, "band_gap": 3.6364, "cbm": null, "vbm": null, "efermi": 0.57144693, "is_gap_direct": null, "is_metal": null, "es_source_calc_id": null, "bandstructure": null, "dos": null, "dos_energy_up": null, "dos_energy_down": null, "is_magnetic": null, "ordering": null, "total_magnetization": 0.0, "total_magnetization_normalized_vol": null, "total_magnetization_normalized_formula_units": null, "num_magnetic_sites": null, "num_unique_magnetic_sites": null, "types_of_magnetic_species": null, "bulk_modulus": null, "shear_modulus": null, "universal_anisotropy": null, "homogeneous_poisson": null, "e_total": null, "e_ionic": null, "e_electronic": null, "n": null, "e_ij_max": null, "weighted_surface_energy_EV_PER_ANG2": null, "weighted_surface_energy": null, "weighted_work_function": null, "surface_anisotropy": null, "shape_factor": null, "has_reconstructed": null, "possible_species": null, "has_props": null, "theoretical": null, "database_IDs": null, "fields_not_requested": ["builder_meta", "nsites", "elements", "nelements", "composition", "composition_reduced", "chemsys", "symmetry", "property_name", "deprecated", "deprecation_reasons", "last_updated", "origins", "warnings", "task_ids", "uncorrected_energy_per_atom", "equilibrium_reaction_energy_per_atom", "decomposes_to", "xas", "grain_boundaries", "cbm", "vbm", "is_gap_direct", "is_metal", "es_source_calc_id", "bandstructure", "dos", "dos_energy_up", "dos_energy_down", "is_magnetic", "ordering", "total_magnetization_normalized_vol", "total_magnetization_normalized_formula_units", "num_magnetic_sites", "num_unique_magnetic_sites", "types_of_magnetic_species", "bulk_modulus", "shear_modulus", "universal_anisotropy", "homogeneous_poisson", "e_total", "e_ionic", "e_electronic", "n", "e_ij_max", "weighted_surface_energy_EV_PER_ANG2", "weighted_surface_energy", "weighted_work_function", "surface_anisotropy", "shape_factor", "has_reconstructed", "possible_species", "has_props", "theoretical", "database_IDs"]}