{
  "builder_meta": null,
  "nsites": null,
  "elements": null,
  "nelements": null,
  "composition": null,
  "composition_reduced": null,
  "formula_pretty": "LiNp3",
  "formula_anonymous": "AB3",
  "chemsys": null,
  "volume": 63.522069062976634,
  "density": 18.767793549544773,
  "density_atomic": 15.880517265744158,
  "symmetry": null,
  "property_name": null,
  "material_id": "mp-1185274",
  "deprecated": null,
  "deprecation_reasons": null,
  "last_updated": null,
  "origins": null,
  "warnings": null,
  "structure": {
    "@module": "pymatgen.core.structure",
    "@class": "Structure",
    "charge": 0,
    "lattice": {
      "matrix": [
        [-2.241643, 2.241643, 3.160325],
        [2.241643, -2.241643, 3.160325],
        [2.241643, 2.241643, -3.160325]
      ],
      "pbc": [true, true, true],
      "a": 4.476335642523134,
      "b": 4.476335642523134,
      "c": 4.476335642523134,
      "alpha": 119.89724830636317,
      "beta": 119.89724830636317,
      "gamma": 90.17806348030655,
      "volume": 63.522069062976634
    },
    "properties": {},
    "sites": [
      {
        "species": [{ "element": "Li", "occu": 1 }],
        "abc": [0.0, 0.0, 0.0],
        "properties": { "magmom": 0.008 },
        "label": "Li",
        "xyz": [0.0, 0.0, 0.0]
      },
      {
        "species": [{ "element": "Np", "occu": 1 }],
        "abc": [0.749999, 0.249999, 0.5],
        "properties": { "magmom": 1.004 },
        "label": "Np",
        "xyz": [0.0, 2.241643, 1.5801561793499996]
      },
      {
        "species": [{ "element": "Np", "occu": 1 }],
        "abc": [0.249999, 0.749999, 0.5],
        "properties": { "magmom": 1.002 },
        "label": "Np",
        "xyz": [2.241643, 0.0, 1.5801561793499996]
      },
      {
        "species": [{ "element": "Np", "occu": 1 }],
        "abc": [0.5, 0.5, 0.0],
        "properties": { "magmom": -0.5740000000000001 },
        "label": "Np",
        "xyz": [0.0, 0.0, 3.160325]
      }
    ]
  },
  "task_ids": null,
  "uncorrected_energy_per_atom": null,
  "energy_per_atom": -62.42473380666667,
  "formation_energy_per_atom": 0.44010144510416804,
  "energy_above_hull": 0.44010144510416804,
  "is_stable": false,
  "equilibrium_reaction_energy_per_atom": null,
  "decomposes_to": null,
  "xas": null,
  "grain_boundaries": null,
  "band_gap": 0.0,
  "cbm": null,
  "vbm": null,
  "efermi": 15.95098676,
  "is_gap_direct": null,
  "is_metal": null,
  "es_source_calc_id": null,
  "bandstructure": null,
  "dos": null,
  "dos_energy_up": null,
  "dos_energy_down": null,
  "is_magnetic": null,
  "ordering": null,
  "total_magnetization": 1.4796795,
  "total_magnetization_normalized_vol": null,
  "total_magnetization_normalized_formula_units": null,
  "num_magnetic_sites": null,
  "num_unique_magnetic_sites": null,
  "types_of_magnetic_species": null,
  "bulk_modulus": null,
  "shear_modulus": null,
  "universal_anisotropy": null,
  "homogeneous_poisson": null,
  "e_total": null,
  "e_ionic": null,
  "e_electronic": null,
  "n": null,
  "e_ij_max": null,
  "weighted_surface_energy_EV_PER_ANG2": null,
  "weighted_surface_energy": null,
  "weighted_work_function": null,
  "surface_anisotropy": null,
  "shape_factor": null,
  "has_reconstructed": null,
  "possible_species": null,
  "has_props": null,
  "theoretical": null,
  "database_IDs": null,
  "fields_not_requested": [
    "builder_meta",
    "nsites",
    "elements",
    "nelements",
    "composition",
    "composition_reduced",
    "chemsys",
    "symmetry",
    "property_name",
    "deprecated",
    "deprecation_reasons",
    "last_updated",
    "origins",
    "warnings",
    "task_ids",
    "uncorrected_energy_per_atom",
    "equilibrium_reaction_energy_per_atom",
    "decomposes_to",
    "xas",
    "grain_boundaries",
    "cbm",
    "vbm",
    "is_gap_direct",
    "is_metal",
    "es_source_calc_id",
    "bandstructure",
    "dos",
    "dos_energy_up",
    "dos_energy_down",
    "is_magnetic",
    "ordering",
    "total_magnetization_normalized_vol",
    "total_magnetization_normalized_formula_units",
    "num_magnetic_sites",
    "num_unique_magnetic_sites",
    "types_of_magnetic_species",
    "bulk_modulus",
    "shear_modulus",
    "universal_anisotropy",
    "homogeneous_poisson",
    "e_total",
    "e_ionic",
    "e_electronic",
    "n",
    "e_ij_max",
    "weighted_surface_energy_EV_PER_ANG2",
    "weighted_surface_energy",
    "weighted_work_function",
    "surface_anisotropy",
    "shape_factor",
    "has_reconstructed",
    "possible_species",
    "has_props",
    "theoretical",
    "database_IDs"
  ]
}
