{
  "builder_meta": null,
  "nsites": null,
  "elements": null,
  "nelements": null,
  "composition": null,
  "composition_reduced": null,
  "formula_pretty": "LiO3",
  "formula_anonymous": "AB3",
  "chemsys": null,
  "volume": 42.8276310521927,
  "density": 2.130136214552076,
  "density_atomic": 10.706907763048175,
  "symmetry": null,
  "property_name": null,
  "material_id": "mp-1001790",
  "deprecated": null,
  "deprecation_reasons": null,
  "last_updated": null,
  "origins": null,
  "warnings": null,
  "structure": {
    "@module": "pymatgen.core.structure",
    "@class": "Structure",
    "charge": 0,
    "lattice": {
      "matrix": [
        [-1.581569, 2.492664, 2.71589],
        [1.581569, -2.492664, 2.71589],
        [1.581569, 2.492664, -2.71589]
      ],
      "pbc": [true, true, true],
      "a": 4.011333046601466,
      "b": 4.011333046601466,
      "c": 4.011333046601466,
      "alpha": 133.55844870987136,
      "beta": 103.16232656379505,
      "gamma": 94.77224659744066,
      "volume": 42.8276310521927
    },
    "properties": {},
    "sites": [
      {
        "species": [{ "element": "Li", "occu": 1 }],
        "abc": [0.48337, 0.48337, 0.0],
        "properties": { "magmom": 0.007 },
        "label": "Li",
        "xyz": [0.0, 0.0, 2.6255594986]
      },
      {
        "species": [{ "element": "O", "occu": 1 }],
        "abc": [0.985181, 0.985181, 0.0],
        "properties": { "magmom": 0.358 },
        "label": "O",
        "xyz": [0.0, 0.0, 5.35128645218]
      },
      {
        "species": [{ "element": "O", "occu": 1 }],
        "abc": [0.35188, 0.12562399999999901, 0.226255999999999],
        "properties": { "magmom": 0.231 },
        "label": "O",
        "xyz": [-3.1086244689504383e-15, 1.1279603719680003, 0.6823619307200001]
      },
      {
        "species": [{ "element": "O", "occu": 1 }],
        "abc": [0.899368, 0.12562399999999901, 0.773744],
        "properties": { "magmom": 0.231 },
        "label": "O",
        "xyz": [-1.3322676295501878e-15, 3.857367628032002, 0.6823619307199968]
      }
    ]
  },
  "task_ids": null,
  "uncorrected_energy_per_atom": null,
  "energy_per_atom": -4.81306,
  "formation_energy_per_atom": -0.6248585295833331,
  "energy_above_hull": 0.23903239732142803,
  "is_stable": false,
  "equilibrium_reaction_energy_per_atom": null,
  "decomposes_to": null,
  "xas": null,
  "grain_boundaries": null,
  "band_gap": 0.079,
  "cbm": null,
  "vbm": null,
  "efermi": 0.68125999,
  "is_gap_direct": null,
  "is_metal": null,
  "es_source_calc_id": null,
  "bandstructure": null,
  "dos": null,
  "dos_energy_up": null,
  "dos_energy_down": null,
  "is_magnetic": null,
  "ordering": null,
  "total_magnetization": 1.0004856,
  "total_magnetization_normalized_vol": null,
  "total_magnetization_normalized_formula_units": null,
  "num_magnetic_sites": null,
  "num_unique_magnetic_sites": null,
  "types_of_magnetic_species": null,
  "bulk_modulus": null,
  "shear_modulus": null,
  "universal_anisotropy": null,
  "homogeneous_poisson": null,
  "e_total": null,
  "e_ionic": null,
  "e_electronic": null,
  "n": null,
  "e_ij_max": null,
  "weighted_surface_energy_EV_PER_ANG2": null,
  "weighted_surface_energy": null,
  "weighted_work_function": null,
  "surface_anisotropy": null,
  "shape_factor": null,
  "has_reconstructed": null,
  "possible_species": null,
  "has_props": null,
  "theoretical": null,
  "database_IDs": null,
  "fields_not_requested": [
    "builder_meta",
    "nsites",
    "elements",
    "nelements",
    "composition",
    "composition_reduced",
    "chemsys",
    "symmetry",
    "property_name",
    "deprecated",
    "deprecation_reasons",
    "last_updated",
    "origins",
    "warnings",
    "task_ids",
    "uncorrected_energy_per_atom",
    "equilibrium_reaction_energy_per_atom",
    "decomposes_to",
    "xas",
    "grain_boundaries",
    "cbm",
    "vbm",
    "is_gap_direct",
    "is_metal",
    "es_source_calc_id",
    "bandstructure",
    "dos",
    "dos_energy_up",
    "dos_energy_down",
    "is_magnetic",
    "ordering",
    "total_magnetization_normalized_vol",
    "total_magnetization_normalized_formula_units",
    "num_magnetic_sites",
    "num_unique_magnetic_sites",
    "types_of_magnetic_species",
    "bulk_modulus",
    "shear_modulus",
    "universal_anisotropy",
    "homogeneous_poisson",
    "e_total",
    "e_ionic",
    "e_electronic",
    "n",
    "e_ij_max",
    "weighted_surface_energy_EV_PER_ANG2",
    "weighted_surface_energy",
    "weighted_work_function",
    "surface_anisotropy",
    "shape_factor",
    "has_reconstructed",
    "possible_species",
    "has_props",
    "theoretical",
    "database_IDs"
  ]
}
