{"builder_meta": null, "nsites": null, "elements": null, "nelements": null, "composition": null, "composition_reduced": null, "formula_pretty": "LiO8", "formula_anonymous": "AB8", "chemsys": null, "volume": 102.64477857800613, "density": 2.182934531134173, "density_atomic": 11.404975397556235, "symmetry": null, "property_name": null, "material_id": "mp-1235059", "deprecated": null, "deprecation_reasons": null, "last_updated": null, "origins": null, "warnings": null, "structure": {"@module": "pymatgen.core.structure", "@class": "Structure", "charge": 0, "lattice": {"matrix": [[4.72630922, 0.275826299999999, 2.26844515], [2.25109754, 4.52658601, 1.93527925], [0.88750719, -0.09806545, 5.33804978]], "pbc": [true, true, true], "a": 5.249754507535302, "b": 5.413199314268996, "c": 5.412214084692461, "alpha": 66.06793548132961, "beta": 55.04984107024681, "gamma": 55.053804050826955, "volume": 102.64477857800614}, "properties": {}, "sites": [{"species": [{"element": "Li", "occu": 1}], "abc": [0.49236707, 0.78274939, 0.78273441], "properties": {"magmom": -0.0}, "label": "Li", "xyz": [4.783806665566295, 3.60223102312284, 6.810021589477298]}, {"species": [{"element": "O", "occu": 1}], "abc": [0.85591657, 0.33489977, 0.7729084900000001], "properties": {"magmom": -0.533}, "label": "O", "xyz": [5.485180266822385, 1.6762412953653372, 6.71554836273654]}, {"species": [{"element": "O", "occu": 1}], "abc": [0.18507492, 0.21297145, 0.63387092], "properties": {"magmom": -0.541}, "label": "O", "xyz": [1.9167058070039102, 0.9529212794940963, 4.2156260577424485]}, {"species": [{"element": "O", "occu": 1}], "abc": [0.18520212, 0.63388875, 0.21285299], "properties": {"magmom": -0.54}, "label": "O", "xyz": [2.49117645211622, 2.899562038909948, 2.7830924520089977]}, {"species": [{"element": "O", "occu": 1}], "abc": [0.8558705, 0.77303383, 0.33484729], "properties": {"magmom": -0.532}, "label": "O", "xyz": [6.082462565752803, 3.702438763253737, 5.224963118218199]}, {"species": [{"element": "O", "occu": 1}], "abc": [0.85504576, 0.27561239, 0.27576044], "properties": {"magmom": 0.775}, "label": "O", "xyz": [4.906380405349991, 1.4563847254273528, 3.9450343027846744]}, {"species": [{"element": "O", "occu": 1}], "abc": [0.18478566, 0.69955586, 0.6996191700000001], "properties": {"magmom": 0.736}, "label": "O", "xyz": [3.069039687757202, 3.1489600452457003, 5.5076140307927375]}, {"species": [{"element": "O", "occu": 1}], "abc": [0.17546345, 0.15041602, 0.1504294], "properties": {"magmom": 0.731}, "label": "O", "xyz": [1.3014028281939858, 0.7145165592063851, 1.4921258401038846]}, {"species": [{"element": "O", "occu": 1}], "abc": [0.86305095, 0.82734754, 0.82745188], "properties": {"magmom": 0.74}, "label": "O", "xyz": [6.675855167212829, 3.9019675092563535, 7.975911594425525]}]}, "task_ids": null, "uncorrected_energy_per_atom": null, "energy_per_atom": -5.037359188888889, "formation_energy_per_atom": -0.42706908814814803, "energy_above_hull": 0.0, "is_stable": true, "equilibrium_reaction_energy_per_atom": null, "decomposes_to": null, "xas": null, "grain_boundaries": null, "band_gap": 0.0, "cbm": null, "vbm": null, "efermi": 0.7377187, "is_gap_direct": null, "is_metal": null, "es_source_calc_id": null, "bandstructure": null, "dos": null, "dos_energy_up": null, "dos_energy_down": null, "is_magnetic": null, "ordering": null, "total_magnetization": 9.19e-05, "total_magnetization_normalized_vol": null, "total_magnetization_normalized_formula_units": null, "num_magnetic_sites": null, "num_unique_magnetic_sites": null, "types_of_magnetic_species": null, "bulk_modulus": null, "shear_modulus": null, "universal_anisotropy": null, "homogeneous_poisson": null, "e_total": null, "e_ionic": null, "e_electronic": null, "n": null, "e_ij_max": null, "weighted_surface_energy_EV_PER_ANG2": null, "weighted_surface_energy": null, "weighted_work_function": null, "surface_anisotropy": null, "shape_factor": null, "has_reconstructed": null, "possible_species": null, "has_props": null, "theoretical": null, "database_IDs": null, "fields_not_requested": ["builder_meta", "nsites", "elements", "nelements", "composition", "composition_reduced", "chemsys", "symmetry", "property_name", "deprecated", "deprecation_reasons", "last_updated", "origins", "warnings", "task_ids", "uncorrected_energy_per_atom", "equilibrium_reaction_energy_per_atom", "decomposes_to", "xas", "grain_boundaries", "cbm", "vbm", "is_gap_direct", "is_metal", "es_source_calc_id", "bandstructure", "dos", "dos_energy_up", "dos_energy_down", "is_magnetic", "ordering", "total_magnetization_normalized_vol", "total_magnetization_normalized_formula_units", "num_magnetic_sites", "num_unique_magnetic_sites", "types_of_magnetic_species", "bulk_modulus", "shear_modulus", "universal_anisotropy", "homogeneous_poisson", "e_total", "e_ionic", "e_electronic", "n", "e_ij_max", "weighted_surface_energy_EV_PER_ANG2", "weighted_surface_energy", "weighted_work_function", "surface_anisotropy", "shape_factor", "has_reconstructed", "possible_species", "has_props", "theoretical", "database_IDs"]}