{
  "builder_meta": null,
  "nsites": null,
  "elements": null,
  "nelements": null,
  "composition": null,
  "composition_reduced": null,
  "formula_pretty": "LiP",
  "formula_anonymous": "AB",
  "chemsys": null,
  "volume": 248.52719555021827,
  "density": 2.026625484183503,
  "density_atomic": 15.532949721888642,
  "symmetry": null,
  "property_name": null,
  "material_id": "mp-9588",
  "deprecated": null,
  "deprecation_reasons": null,
  "last_updated": null,
  "origins": null,
  "warnings": null,
  "structure": {
    "@module": "pymatgen.core.structure",
    "@class": "Structure",
    "charge": 0,
    "lattice": {
      "matrix": [
        [4.92983196, 0.0, 0.0],
        [0.0, 5.5619651999999995, -0.47308603],
        [0.0, -0.025570000000000002, 9.06604216]
      ],
      "pbc": [true, true, true],
      "a": 4.92983196,
      "b": 5.582048663151567,
      "c": 9.066078218932233,
      "alpha": 95.02332278012366,
      "beta": 90.0,
      "gamma": 90.0,
      "volume": 248.52719555021824
    },
    "properties": {},
    "sites": [
      {
        "species": [{ "element": "Li", "occu": 1 }],
        "abc": [0.38732848000000003, 0.11290928, 0.32945042],
        "properties": { "magmom": -0.0 },
        "label": "Li",
        "xyz": [1.9094643197222207, 0.6195734388776559, 2.9333955943243493]
      },
      {
        "species": [{ "element": "Li", "occu": 1 }],
        "abc": [0.88732848, 0.38709072, 0.17054958],
        "properties": { "magmom": -0.0 },
        "label": "Li",
        "xyz": [4.37438029972222, 2.148624161122344, 1.3630824706756512]
      },
      {
        "species": [{ "element": "Li", "occu": 1 }],
        "abc": [0.61267152, 0.88709072, 0.67054958],
        "properties": { "magmom": -0.0 },
        "label": "Li",
        "xyz": [3.020367640277779, 4.9168217611223435, 5.659560535675651]
      },
      {
        "species": [{ "element": "Li", "occu": 1 }],
        "abc": [0.11267152, 0.61290928, 0.82945042],
        "properties": { "magmom": -0.0 },
        "label": "Li",
        "xyz": [0.5554516602777791, 3.3877710388776556, 7.229873659324349]
      },
      {
        "species": [{ "element": "Li", "occu": 1 }],
        "abc": [0.66014523, 0.8018065400000001, 0.03062468],
        "properties": { "magmom": 0.0 },
        "label": "Li",
        "xyz": [3.254405053095551, 4.458836999544808, -0.10167883282012735]
      },
      {
        "species": [{ "element": "Li", "occu": 1 }],
        "abc": [0.16014523, 0.69819346, 0.46937532],
        "properties": { "magmom": 0.0 },
        "label": "Li",
        "xyz": [0.7894890730955507, 3.871325800455192, 3.9250708678201276]
      },
      {
        "species": [{ "element": "Li", "occu": 1 }],
        "abc": [0.33985477000000003, 0.19819346000000002, 0.96937532],
        "properties": { "magmom": 0.0 },
        "label": "Li",
        "xyz": [1.6754269069044492, 1.077558200455192, 8.694634962820128]
      },
      {
        "species": [{ "element": "Li", "occu": 1 }],
        "abc": [0.83985477, 0.30180654, 0.53062468],
        "properties": { "magmom": 0.0 },
        "label": "Li",
        "xyz": [4.140342886904449, 1.6650693995448078, 4.6678852621798725]
      },
      {
        "species": [{ "element": "P", "occu": 1 }],
        "abc": [0.8952115700000001, 0.97570499, 0.29199262],
        "properties": { "magmom": 0.0 },
        "label": "P",
        "xyz": [4.413242608747777, 5.419370948552947, 2.1856250031585693]
      },
      {
        "species": [{ "element": "P", "occu": 1 }],
        "abc": [0.39521157, 0.52429501, 0.20800738],
        "properties": { "magmom": 0.0 },
        "label": "P",
        "xyz": [1.9483266287477772, 2.9107918514470517, 1.6377670318414306]
      },
      {
        "species": [{ "element": "P", "occu": 1 }],
        "abc": [0.10478843, 0.02429501, 0.70800738],
        "properties": { "magmom": 0.0 },
        "label": "P",
        "xyz": [0.5165893512522227, 0.11702425144705197, 6.407331126841431]
      },
      {
        "species": [{ "element": "P", "occu": 1 }],
        "abc": [0.60478843, 0.47570499, 0.79199262],
        "properties": { "magmom": 0.0 },
        "label": "P",
        "xyz": [2.981505331252223, 2.6256033485529477, 6.95518909815857]
      },
      {
        "species": [{ "element": "P", "occu": 1 }],
        "abc": [0.15780328, 0.80666231, 0.11294951],
        "properties": { "magmom": -0.0 },
        "label": "P",
        "xyz": [0.7779436531368287, 4.483739577400911, 0.6423843498228125]
      },
      {
        "species": [{ "element": "P", "occu": 1 }],
        "abc": [0.65780328, 0.69333769, 0.38705049],
        "properties": { "magmom": -0.0 },
        "label": "P",
        "xyz": [3.2428596331368285, 3.8464232225990878, 3.181007685177188]
      },
      {
        "species": [{ "element": "P", "occu": 1 }],
        "abc": [0.84219672, 0.19333769, 0.88705049],
        "properties": { "magmom": -0.0 },
        "label": "P",
        "xyz": [4.151888306863171, 1.052655622599088, 7.950571780177189]
      },
      {
        "species": [{ "element": "P", "occu": 1 }],
        "abc": [0.34219672, 0.30666231, 0.61294951],
        "properties": { "magmom": -0.0 },
        "label": "P",
        "xyz": [1.6869723268631711, 1.6899719774009119, 5.411948444822812]
      }
    ]
  },
  "task_ids": null,
  "uncorrected_energy_per_atom": null,
  "energy_per_atom": -6.3110585625,
  "formation_energy_per_atom": -0.616667199821428,
  "energy_above_hull": 0.0,
  "is_stable": true,
  "equilibrium_reaction_energy_per_atom": null,
  "decomposes_to": null,
  "xas": null,
  "grain_boundaries": null,
  "band_gap": 0.8094999999999991,
  "cbm": null,
  "vbm": null,
  "efermi": 4.12805224,
  "is_gap_direct": null,
  "is_metal": null,
  "es_source_calc_id": null,
  "bandstructure": null,
  "dos": null,
  "dos_energy_up": null,
  "dos_energy_down": null,
  "is_magnetic": null,
  "ordering": null,
  "total_magnetization": 0.0,
  "total_magnetization_normalized_vol": null,
  "total_magnetization_normalized_formula_units": null,
  "num_magnetic_sites": null,
  "num_unique_magnetic_sites": null,
  "types_of_magnetic_species": null,
  "bulk_modulus": null,
  "shear_modulus": null,
  "universal_anisotropy": null,
  "homogeneous_poisson": null,
  "e_total": null,
  "e_ionic": null,
  "e_electronic": null,
  "n": null,
  "e_ij_max": null,
  "weighted_surface_energy_EV_PER_ANG2": null,
  "weighted_surface_energy": null,
  "weighted_work_function": null,
  "surface_anisotropy": null,
  "shape_factor": null,
  "has_reconstructed": null,
  "possible_species": null,
  "has_props": null,
  "theoretical": null,
  "database_IDs": null,
  "fields_not_requested": [
    "builder_meta",
    "nsites",
    "elements",
    "nelements",
    "composition",
    "composition_reduced",
    "chemsys",
    "symmetry",
    "property_name",
    "deprecated",
    "deprecation_reasons",
    "last_updated",
    "origins",
    "warnings",
    "task_ids",
    "uncorrected_energy_per_atom",
    "equilibrium_reaction_energy_per_atom",
    "decomposes_to",
    "xas",
    "grain_boundaries",
    "cbm",
    "vbm",
    "is_gap_direct",
    "is_metal",
    "es_source_calc_id",
    "bandstructure",
    "dos",
    "dos_energy_up",
    "dos_energy_down",
    "is_magnetic",
    "ordering",
    "total_magnetization_normalized_vol",
    "total_magnetization_normalized_formula_units",
    "num_magnetic_sites",
    "num_unique_magnetic_sites",
    "types_of_magnetic_species",
    "bulk_modulus",
    "shear_modulus",
    "universal_anisotropy",
    "homogeneous_poisson",
    "e_total",
    "e_ionic",
    "e_electronic",
    "n",
    "e_ij_max",
    "weighted_surface_energy_EV_PER_ANG2",
    "weighted_surface_energy",
    "weighted_work_function",
    "surface_anisotropy",
    "shape_factor",
    "has_reconstructed",
    "possible_species",
    "has_props",
    "theoretical",
    "database_IDs"
  ]
}
