{
  "builder_meta": null,
  "nsites": null,
  "elements": null,
  "nelements": null,
  "composition": null,
  "composition_reduced": null,
  "formula_pretty": "LiP3",
  "formula_anonymous": "AB3",
  "chemsys": null,
  "volume": 124.81950337568067,
  "density": 2.657040329408825,
  "density_atomic": 15.602437921960084,
  "symmetry": null,
  "property_name": null,
  "material_id": "mp-1025406",
  "deprecated": null,
  "deprecation_reasons": null,
  "last_updated": null,
  "origins": null,
  "warnings": null,
  "structure": {
    "@module": "pymatgen.core.structure",
    "@class": "Structure",
    "charge": 0,
    "lattice": {
      "matrix": [
        [2.117169, -3.667045, 0.0],
        [2.117169, 3.667045, 0.0],
        [0.0, 0.0, 8.038605]
      ],
      "pbc": [true, true, true],
      "a": 4.234338626820722,
      "b": 4.234338626820722,
      "c": 8.038605,
      "alpha": 90.0,
      "beta": 90.0,
      "gamma": 120.0000097937666,
      "volume": 124.81950337568067
    },
    "properties": {},
    "sites": [
      {
        "species": [{ "element": "Li", "occu": 1 }],
        "abc": [0.333333, 0.666667, 0.25],
        "properties": { "magmom": 0.0 },
        "label": "Li",
        "xyz": [2.117169, 1.22235077803, 2.00965125]
      },
      {
        "species": [{ "element": "Li", "occu": 1 }],
        "abc": [0.666667, 0.333333, 0.75],
        "properties": { "magmom": 0.0 },
        "label": "Li",
        "xyz": [2.117169, -1.22235077803, 6.02895375]
      },
      {
        "species": [{ "element": "P", "occu": 1 }],
        "abc": [0.333333, 0.666667, 0.606895],
        "properties": { "magmom": 0.0 },
        "label": "P",
        "xyz": [2.117169, 1.22235077803, 4.878589181475]
      },
      {
        "species": [{ "element": "P", "occu": 1 }],
        "abc": [0.666667, 0.333333, 0.393105],
        "properties": { "magmom": 0.0 },
        "label": "P",
        "xyz": [2.117169, -1.22235077803, 3.1600158185250002]
      },
      {
        "species": [{ "element": "P", "occu": 1 }],
        "abc": [0.666667, 0.333333, 0.106894999999999],
        "properties": { "magmom": 0.0 },
        "label": "P",
        "xyz": [2.117169, -1.22235077803, 0.8592866814749921]
      },
      {
        "species": [{ "element": "P", "occu": 1 }],
        "abc": [0.333333, 0.666667, 0.893104999999999],
        "properties": { "magmom": 0.0 },
        "label": "P",
        "xyz": [2.117169, 1.22235077803, 7.1793183185249925]
      },
      {
        "species": [{ "element": "P", "occu": 1 }],
        "abc": [0.0, 0.0, 0.25],
        "properties": { "magmom": -0.0 },
        "label": "P",
        "xyz": [0.0, 0.0, 2.00965125]
      },
      {
        "species": [{ "element": "P", "occu": 1 }],
        "abc": [0.0, 0.0, 0.75],
        "properties": { "magmom": -0.0 },
        "label": "P",
        "xyz": [0.0, 0.0, 6.02895375]
      }
    ]
  },
  "task_ids": null,
  "uncorrected_energy_per_atom": null,
  "energy_per_atom": -7.051785013973215,
  "formation_energy_per_atom": 0.296448823377975,
  "energy_above_hull": 0.655289162723213,
  "is_stable": false,
  "equilibrium_reaction_energy_per_atom": null,
  "decomposes_to": null,
  "xas": null,
  "grain_boundaries": null,
  "band_gap": 0.0,
  "cbm": null,
  "vbm": null,
  "efermi": 6.45597596,
  "is_gap_direct": null,
  "is_metal": null,
  "es_source_calc_id": null,
  "bandstructure": null,
  "dos": null,
  "dos_energy_up": null,
  "dos_energy_down": null,
  "is_magnetic": null,
  "ordering": null,
  "total_magnetization": 0.000343,
  "total_magnetization_normalized_vol": null,
  "total_magnetization_normalized_formula_units": null,
  "num_magnetic_sites": null,
  "num_unique_magnetic_sites": null,
  "types_of_magnetic_species": null,
  "bulk_modulus": null,
  "shear_modulus": null,
  "universal_anisotropy": null,
  "homogeneous_poisson": null,
  "e_total": null,
  "e_ionic": null,
  "e_electronic": null,
  "n": null,
  "e_ij_max": null,
  "weighted_surface_energy_EV_PER_ANG2": null,
  "weighted_surface_energy": null,
  "weighted_work_function": null,
  "surface_anisotropy": null,
  "shape_factor": null,
  "has_reconstructed": null,
  "possible_species": null,
  "has_props": null,
  "theoretical": null,
  "database_IDs": null,
  "fields_not_requested": [
    "builder_meta",
    "nsites",
    "elements",
    "nelements",
    "composition",
    "composition_reduced",
    "chemsys",
    "symmetry",
    "property_name",
    "deprecated",
    "deprecation_reasons",
    "last_updated",
    "origins",
    "warnings",
    "task_ids",
    "uncorrected_energy_per_atom",
    "equilibrium_reaction_energy_per_atom",
    "decomposes_to",
    "xas",
    "grain_boundaries",
    "cbm",
    "vbm",
    "is_gap_direct",
    "is_metal",
    "es_source_calc_id",
    "bandstructure",
    "dos",
    "dos_energy_up",
    "dos_energy_down",
    "is_magnetic",
    "ordering",
    "total_magnetization_normalized_vol",
    "total_magnetization_normalized_formula_units",
    "num_magnetic_sites",
    "num_unique_magnetic_sites",
    "types_of_magnetic_species",
    "bulk_modulus",
    "shear_modulus",
    "universal_anisotropy",
    "homogeneous_poisson",
    "e_total",
    "e_ionic",
    "e_electronic",
    "n",
    "e_ij_max",
    "weighted_surface_energy_EV_PER_ANG2",
    "weighted_surface_energy",
    "weighted_work_function",
    "surface_anisotropy",
    "shape_factor",
    "has_reconstructed",
    "possible_species",
    "has_props",
    "theoretical",
    "database_IDs"
  ]
}
