{"builder_meta": null, "nsites": null, "elements": null, "nelements": null, "composition": null, "composition_reduced": null, "formula_pretty": "LiP5", "formula_anonymous": "AB5", "chemsys": null, "volume": 460.0201323636716, "density": 2.336345668034438, "density_atomic": 19.167505515152985, "symmetry": null, "property_name": null, "material_id": "mp-2412", "deprecated": null, "deprecation_reasons": null, "last_updated": null, "origins": null, "warnings": null, "structure": {"@module": "pymatgen.core.structure", "@class": "Structure", "charge": 0, "lattice": {"matrix": [[6.5738275900000005, 0.0, 0.0], [0.0, 6.66867239, 0.0], [0.0, 0.0, 10.49347051]], "pbc": [true, true, true], "a": 6.5738275900000005, "b": 6.66867239, "c": 10.49347051, "alpha": 90.0, "beta": 90.0, "gamma": 90.0, "volume": 460.0201323636717}, "properties": {}, "sites": [{"species": [{"element": "Li", "occu": 1}], "abc": [0.05593617, 0.45555443, 0.07784698], "properties": {"magmom": -0.0}, "label": "Li", "xyz": [0.36771473762493034, 3.0379432494831877, 0.8168849889225598]}, {"species": [{"element": "Li", "occu": 1}], "abc": [0.5559361700000001, 0.54444557, 0.92215302], "properties": {"magmom": -0.0}, "label": "Li", "xyz": [3.654628532624931, 3.630729140516813, 9.67658552107744]}, {"species": [{"element": "Li", "occu": 1}], "abc": [0.05593617, 0.044445570000000004, 0.57784698], "properties": {"magmom": -0.0}, "label": "Li", "xyz": [0.36771473762493034, 0.29639294551681233, 6.06362024392256]}, {"species": [{"element": "Li", "occu": 1}], "abc": [0.5559361700000001, 0.9555544300000001, 0.42215302], "properties": {"magmom": -0.0}, "label": "Li", "xyz": [3.654628532624931, 6.372279444483189, 4.42985026607744]}, {"species": [{"element": "P", "occu": 1}], "abc": [0.42585107, 0.91666407, 0.08490768], "properties": {"magmom": 0.0}, "label": "P", "xyz": [2.7994715131970214, 6.112932374514028, 0.8909762361525168]}, {"species": [{"element": "P", "occu": 1}], "abc": [0.92585107, 0.08333593, 0.9150923200000001], "properties": {"magmom": 0.0}, "label": "P", "xyz": [6.086385308197022, 0.5557400154859727, 9.602494273847483]}, {"species": [{"element": "P", "occu": 1}], "abc": [0.42585107, 0.5833359300000001, 0.58490768], "properties": {"magmom": 0.0}, "label": "P", "xyz": [2.7994715131970214, 3.890076210485973, 6.137711491152517]}, {"species": [{"element": "P", "occu": 1}], "abc": [0.92585107, 0.41666407, 0.41509232], "properties": {"magmom": 0.0}, "label": "P", "xyz": [6.086385308197022, 2.7785961795140275, 4.3557590188474835]}, {"species": [{"element": "P", "occu": 1}], "abc": [0.90939854, 0.90371111, 0.09271368], "properties": {"magmom": -0.0}, "label": "P", "xyz": [5.978229212557719, 6.026553327793254, 0.9728882669535769]}, {"species": [{"element": "P", "occu": 1}], "abc": [0.40939854000000003, 0.09628889, 0.90728632], "properties": {"magmom": -0.0}, "label": "P", "xyz": [2.691315417557719, 0.6421190622067471, 9.520582243046423]}, {"species": [{"element": "P", "occu": 1}], "abc": [0.90939854, 0.59628889, 0.59271368], "properties": {"magmom": -0.0}, "label": "P", "xyz": [5.978229212557719, 3.976455257206747, 6.219623521953577]}, {"species": [{"element": "P", "occu": 1}], "abc": [0.40939854000000003, 0.40371111, 0.40728632000000003], "properties": {"magmom": -0.0}, "label": "P", "xyz": [2.691315417557719, 2.6922171327932527, 4.273846988046423]}, {"species": [{"element": "P", "occu": 1}], "abc": [0.16720346, 0.92207457, 0.8082452800000001], "properties": {"magmom": -0.0}, "label": "P", "xyz": [1.0991667184914615, 6.149013226480123, 8.481298010526693]}, {"species": [{"element": "P", "occu": 1}], "abc": [0.66720346, 0.07792543, 0.19175472000000002], "properties": {"magmom": -0.0}, "label": "P", "xyz": [4.3860805134914616, 0.5196591635198777, 2.0121724994733072]}, {"species": [{"element": "P", "occu": 1}], "abc": [0.16720346, 0.57792543, 0.30824528], "properties": {"magmom": -0.0}, "label": "P", "xyz": [1.0991667184914615, 3.8539953585198776, 3.2345627555266927]}, {"species": [{"element": "P", "occu": 1}], "abc": [0.66720346, 0.42207457, 0.69175472], "properties": {"magmom": -0.0}, "label": "P", "xyz": [4.3860805134914616, 2.814677031480122, 7.258907754473308]}, {"species": [{"element": "P", "occu": 1}], "abc": [0.16722104000000002, 0.44748534, 0.69107643], "properties": {"magmom": -0.0}, "label": "P", "xyz": [1.0992822863804939, 2.984133131787763, 7.251790138361079]}, {"species": [{"element": "P", "occu": 1}], "abc": [0.66722104, 0.55251466, 0.30892257], "properties": {"magmom": -0.0}, "label": "P", "xyz": [4.386196081380494, 3.684539258212238, 3.241669878168411]}, {"species": [{"element": "P", "occu": 1}], "abc": [0.16722104000000002, 0.05251466, 0.19107643], "properties": {"magmom": -0.0}, "label": "P", "xyz": [1.0992822863804939, 0.3502030632122374, 2.0050548833610793]}, {"species": [{"element": "P", "occu": 1}], "abc": [0.66722104, 0.9474853400000001, 0.80892357], "properties": {"magmom": -0.0}, "label": "P", "xyz": [4.386196081380494, 6.318469326787763, 8.48841562663892]}, {"species": [{"element": "P", "occu": 1}], "abc": [0.18338871, 0.61097969, 0.86930057], "properties": {"magmom": 0.0}, "label": "P", "xyz": [1.205565761492509, 4.074423389553759, 9.121979895621191]}, {"species": [{"element": "P", "occu": 1}], "abc": [0.68338871, 0.38902031000000004, 0.13069943], "properties": {"magmom": 0.0}, "label": "P", "xyz": [4.492479556492509, 2.5942490004462413, 1.3714906143788093]}, {"species": [{"element": "P", "occu": 1}], "abc": [0.18338871, 0.88902031, 0.36930057], "properties": {"magmom": 0.0}, "label": "P", "xyz": [1.205565761492509, 5.928585195446241, 3.8752446406211907]}, {"species": [{"element": "P", "occu": 1}], "abc": [0.68338871, 0.11097969, 0.6306994300000001], "properties": {"magmom": 0.0}, "label": "P", "xyz": [4.492479556492509, 0.7400871945537592, 6.61822586937881]}]}, "task_ids": null, "uncorrected_energy_per_atom": null, "energy_per_atom": -8.138567135, "formation_energy_per_atom": -0.239052472757935, "energy_above_hull": 0.007694938690475, "is_stable": false, "equilibrium_reaction_energy_per_atom": null, "decomposes_to": null, "xas": null, "grain_boundaries": null, "band_gap": 1.3673, "cbm": null, "vbm": null, "efermi": 4.40576141, "is_gap_direct": null, "is_metal": null, "es_source_calc_id": null, "bandstructure": null, "dos": null, "dos_energy_up": null, "dos_energy_down": null, "is_magnetic": null, "ordering": null, "total_magnetization": 0.0, "total_magnetization_normalized_vol": null, "total_magnetization_normalized_formula_units": null, "num_magnetic_sites": null, "num_unique_magnetic_sites": null, "types_of_magnetic_species": null, "bulk_modulus": null, "shear_modulus": null, "universal_anisotropy": null, "homogeneous_poisson": null, "e_total": null, "e_ionic": null, "e_electronic": null, "n": null, "e_ij_max": null, "weighted_surface_energy_EV_PER_ANG2": null, "weighted_surface_energy": null, "weighted_work_function": null, "surface_anisotropy": null, "shape_factor": null, "has_reconstructed": null, "possible_species": null, "has_props": null, "theoretical": null, "database_IDs": null, "fields_not_requested": ["builder_meta", "nsites", "elements", "nelements", "composition", "composition_reduced", "chemsys", "symmetry", "property_name", "deprecated", "deprecation_reasons", "last_updated", "origins", "warnings", "task_ids", "uncorrected_energy_per_atom", "equilibrium_reaction_energy_per_atom", "decomposes_to", "xas", "grain_boundaries", "cbm", "vbm", "is_gap_direct", "is_metal", "es_source_calc_id", "bandstructure", "dos", "dos_energy_up", "dos_energy_down", "is_magnetic", "ordering", "total_magnetization_normalized_vol", "total_magnetization_normalized_formula_units", "num_magnetic_sites", "num_unique_magnetic_sites", "types_of_magnetic_species", "bulk_modulus", "shear_modulus", "universal_anisotropy", "homogeneous_poisson", "e_total", "e_ionic", "e_electronic", "n", "e_ij_max", "weighted_surface_energy_EV_PER_ANG2", "weighted_surface_energy", "weighted_work_function", "surface_anisotropy", "shape_factor", "has_reconstructed", "possible_species", "has_props", "theoretical", "database_IDs"]}