{"builder_meta": null, "nsites": null, "elements": null, "nelements": null, "composition": null, "composition_reduced": null, "formula_pretty": "LiP7", "formula_anonymous": "AB7", "chemsys": null, "volume": 1357.3671398103195, "density": 2.189873519980373, "density_atomic": 21.208861559536242, "symmetry": null, "property_name": null, "material_id": "mp-27687", "deprecated": null, "deprecation_reasons": null, "last_updated": null, "origins": null, "warnings": null, "structure": {"@module": "pymatgen.core.structure", "@class": "Structure", "charge": 0, "lattice": {"matrix": [[11.22832268, 0.01142169, -4.51271921], [-6.10283445, 9.98654637, -3.07560113], [0.00689963, -0.011301199999999002, 12.10102787]], "pbc": [true, true, true], "a": 12.101239412948901, "b": 12.10103380026369, "c": 12.101035114093847, "alpha": 104.78652146833736, "beta": 111.8628078210723, "gamma": 111.86281377083546, "volume": 1357.3671398103197}, "properties": {}, "sites": [{"species": [{"element": "Li", "occu": 1}], "abc": [0.98672592, 0.74335282, 0.49331986], "properties": {"magmom": 0.0}, "label": "Li", "xyz": [6.546121552584869, 7.4292223773716355, -0.7693964126851123]}, {"species": [{"element": "Li", "occu": 1}], "abc": [0.75, 0.49338579, 0.00661421], "properties": {"magmom": -0.0}, "label": "Li", "xyz": [5.410235849249277, 4.93571158912403, -4.82195856120191]}, {"species": [{"element": "Li", "occu": 1}], "abc": [0.75, 0.75662492, 0.74337508], "properties": {"magmom": -0.0}, "label": "Li", "xyz": [3.8088143954987266, 7.556235085323445, 3.2839866945053178]}, {"species": [{"element": "Li", "occu": 1}], "abc": [0.51327408, 0.00668014, 0.75664718], "properties": {"magmom": 0.0}, "label": "Li", "xyz": [5.727659790579855, 0.06402296418427175, 6.81940136599327]}, {"species": [{"element": "Li", "occu": 1}], "abc": [0.01327408, 0.25664718000000003, 0.5066801400000001], "properties": {"magmom": 0.0}, "label": "Li", "xyz": [-1.4137336925848685, 2.557444482628364, 5.2821039426851115]}, {"species": [{"element": "Li", "occu": 1}], "abc": [0.25, 0.5066142100000001, 0.99338579], "properties": {"magmom": -0.0}, "label": "Li", "xyz": [-0.27784798924927695, 5.050955270875971, 9.33466609120191]}, {"species": [{"element": "Li", "occu": 1}], "abc": [0.25, 0.24337508, 0.25662492], "properties": {"magmom": -0.0}, "label": "Li", "xyz": [1.3235734645012736, 2.430431774676556, 1.2287208354946793]}, {"species": [{"element": "Li", "occu": 1}], "abc": [0.48672592000000003, 0.99331986, 0.24335282], "properties": {"magmom": 0.0}, "label": "Li", "xyz": [-0.5952719305798544, 9.922643895815728, -2.306693835993272]}, {"species": [{"element": "P", "occu": 1}], "abc": [0.63235502, 0.41866606, 0.14294351], "properties": {"magmom": -0.0}, "label": "P", "xyz": [4.546222816193988, 4.186635151548373, -2.4115270551769585]}, {"species": [{"element": "P", "occu": 1}], "abc": [0.72427981, 0.14294797, 0.010590220000000001], "properties": {"magmom": 0.0}, "label": "P", "xyz": [7.2601326900151415, 1.4357093481711838, -3.5799698026959246]}, {"species": [{"element": "P", "occu": 1}], "abc": [0.77571652, 0.78631127, 0.41866277], "properties": {"magmom": 0.0}, "label": "P", "xyz": [3.914156505995198, 7.856662561031584, -0.8527208239606843]}, {"species": [{"element": "P", "occu": 1}], "abc": [0.77572019, 0.48940978, 0.35705203], "properties": {"magmom": 0.0}, "label": "P", "xyz": [5.725713264057737, 4.892338381036984, -0.6851401093288256]}, {"species": [{"element": "P", "occu": 1}], "abc": [0.72428348, 0.08133723, 0.71368873], "properties": {"magmom": 0.0}, "label": "P", "xyz": [7.641025164093923, 0.812485021307561, 5.117718362054184]}, {"species": [{"element": "P", "occu": 1}], "abc": [0.86764622, 0.01058936, 0.78631308], "properties": {"magmom": 0.0}, "label": "P", "xyz": [9.683011888546979, 0.10677483944343978, 5.5671840835656745]}, {"species": [{"element": "P", "occu": 1}], "abc": [0.86764498, 0.35705649, 0.08133394000000001], "properties": {"magmom": -0.0}, "label": "P", "xyz": [7.563702333446508, 3.574751994963329, -4.029377238106992]}, {"species": [{"element": "P", "occu": 1}], "abc": [0.63235378, 0.71368692, 0.48941064], "properties": {"magmom": 0.0}, "label": "P", "xyz": [2.7481359202013995, 7.1289591415632, 0.873720446374203]}, {"species": [{"element": "P", "occu": 1}], "abc": [0.36764498, 0.58133394, 0.8570564900000001], "properties": {"magmom": -0.0}, "label": "P", "xyz": [0.5861650438060119, 5.800031708451627, 6.924234585176958]}, {"species": [{"element": "P", "occu": 1}], "abc": [0.27572019000000003, 0.85705203, 0.98940978], "properties": {"magmom": 0.0}, "label": "P", "xyz": [-2.127744830015142, 8.550957511828818, 8.092677332695924]}, {"species": [{"element": "P", "occu": 1}], "abc": [0.22428348, 0.21368873, 0.58133723], "properties": {"magmom": 0.0}, "label": "P", "xyz": [1.218231354004803, 2.130004298968416, 5.365428353960684]}, {"species": [{"element": "P", "occu": 1}], "abc": [0.22427981, 0.51059022, 0.64294797], "properties": {"magmom": 0.0}, "label": "P", "xyz": [-0.5933254040577369, 5.094328478963017, 5.197847639328826]}, {"species": [{"element": "P", "occu": 1}], "abc": [0.27571652, 0.9186627700000001, 0.28631127], "properties": {"magmom": 0.0}, "label": "P", "xyz": [-2.5086373040939227, 9.174181838692439, -0.6050108320541852]}, {"species": [{"element": "P", "occu": 1}], "abc": [0.13235378, 0.98941064, 0.21368692], "properties": {"magmom": 0.0}, "label": "P", "xyz": [-4.550624028546978, 9.87989202055656, -1.054476553565677]}, {"species": [{"element": "P", "occu": 1}], "abc": [0.13235502, 0.64294351, 0.9186660600000001], "properties": {"magmom": -0.0}, "label": "P", "xyz": [-2.4313144734465078, 6.411914865036672, 8.542084768106992]}, {"species": [{"element": "P", "occu": 1}], "abc": [0.36764622, 0.28631308, 0.51058936], "properties": {"magmom": 0.0}, "label": "P", "xyz": [2.3842519397986006, 2.8577077184368, 3.638987083625796]}, {"species": [{"element": "P", "occu": 1}], "abc": [0.49710442, 0.20794363000000002, 0.08556683], "properties": {"magmom": 0.0}, "label": "P", "xyz": [4.313193664059464, 2.0813494680647966, -1.847397734336658]}, {"species": [{"element": "P", "occu": 1}], "abc": [0.87762076, 0.08556899999999901, 0.08846685], "properties": {"magmom": 0.0}, "label": "P", "xyz": [9.332606031427058, 0.8635629170275844, -3.1530923584186574]}, {"species": [{"element": "P", "occu": 1}], "abc": [0.6223756300000001, 0.7108433, 0.20794289999999901], "properties": {"magmom": 0.0}, "label": "P", "xyz": [2.651510151087732, 7.103628154461755, -2.478554089801171]}, {"species": [{"element": "P", "occu": 1}], "abc": [0.62237924, 0.41153315, 0.414431], "properties": {"magmom": 0.0}, "label": "P", "xyz": [4.479615671476675, 4.1122199403916815, 0.9407065077663104]}, {"species": [{"element": "P", "occu": 1}], "abc": [0.87762437, 0.2920571, 0.789156699999999], "properties": {"magmom": 0.0}, "label": "P", "xyz": [8.07731837618664, 2.917747307630273, 4.690883720049546]}, {"species": [{"element": "P", "occu": 1}], "abc": [0.00289646, 0.08846196, 0.7108404700000001], "properties": {"magmom": -0.0}, "label": "P", "xyz": [-0.5024417732607831, 0.8754291976697393, 8.316755723772888]}, {"species": [{"element": "P", "occu": 1}], "abc": [0.00289558, 0.41443317, 0.29205637], "properties": {"magmom": 0.0}, "label": "P", "xyz": [-2.494689439620809, 4.135488554439579, 2.246484207529458]}, {"species": [{"element": "P", "occu": 1}], "abc": [0.49710354, 0.78915953, 0.41153804], "properties": {"magmom": -0.0}, "label": "P", "xyz": [0.7683684464674044, 7.882005128506542, 0.30960465506990165]}, {"species": [{"element": "P", "occu": 1}], "abc": [0.50289558, 0.7920563700000001, 0.91443317], "properties": {"magmom": 0.0}, "label": "P", "xyz": [0.8191941959405347, 7.905317391935204, 6.360105264336657]}, {"species": [{"element": "P", "occu": 1}], "abc": [0.12237924, 0.914431, 0.91153315], "properties": {"magmom": 0.0}, "label": "P", "xyz": [-4.200218171427053, 9.123103942972406, 7.66579988841866]}, {"species": [{"element": "P", "occu": 1}], "abc": [0.37762437, 0.2891567, 0.7920571], "properties": {"magmom": 0.0}, "label": "P", "xyz": [2.48087770891227, 2.8830387055382447, 6.991261619801157]}, {"species": [{"element": "P", "occu": 1}], "abc": [0.37762076, 0.58846685, 0.585569], "properties": {"magmom": 0.0}, "label": "P", "xyz": [0.6527721885233251, 5.874446919608318, 3.5720010222336898]}, {"species": [{"element": "P", "occu": 1}], "abc": [0.12237563, 0.707942899999999, 0.210843299999999], "properties": {"magmom": 0.0}, "label": "P", "xyz": [-2.944930516186632, 7.068919552369718, -0.1781761900495673]}, {"species": [{"element": "P", "occu": 1}], "abc": [0.99710354, 0.91153804, 0.28915953], "properties": {"magmom": -0.0}, "label": "P", "xyz": [5.634829633260782, 9.111237662330263, -3.8040481937728874]}, {"species": [{"element": "P", "occu": 1}], "abc": [0.99710442, 0.58556683, 0.70794363], "properties": {"magmom": 0.0}, "label": "P", "xyz": [7.627077299620808, 5.8511783055604205, 2.266223322470543]}, {"species": [{"element": "P", "occu": 1}], "abc": [0.50289646, 0.21084047, 0.5884619600000001], "properties": {"magmom": -0.0}, "label": "P", "xyz": [4.364019413532596, 2.10466173149346, 4.203102874930098]}, {"species": [{"element": "P", "occu": 1}], "abc": [0.84353215, 0.34271341, 0.34524998], "properties": {"magmom": -0.0}, "label": "P", "xyz": [7.3823100632486955, 3.4282561842341788, -0.6827938585228122]}, {"species": [{"element": "P", "occu": 1}], "abc": [0.00253119, 0.34524805000000003, 0.0017139], "properties": {"magmom": -0.0}, "label": "P", "xyz": [-2.078558849975076, 3.4478452018179095, -1.0525278907810633]}, {"species": [{"element": "P", "occu": 1}], "abc": [0.49746826, 0.49918085, 0.34271611], "properties": {"magmom": 0.0}, "label": "P", "xyz": [2.5416806725318937, 4.9869015304892415, 0.3670014390063505]}, {"species": [{"element": "P", "occu": 1}], "abc": [0.49746881, 0.49828609999999907, 0.15475195], "properties": {"magmom": -0.0}, "label": "P", "xyz": [2.5458504760762497, 4.980090294971596, -1.9048086875992838]}, {"species": [{"element": "P", "occu": 1}], "abc": [0.00253174, 0.15728389, 0.00081915], "properties": {"magmom": 0.0}, "label": "P", "xyz": [-0.9314446968282328, 1.57074252011044, -0.48525498456781063]}, {"species": [{"element": "P", "occu": 1}], "abc": [0.65646761, 0.00171646, 0.49918108], "properties": {"magmom": 0.0}, "label": "P", "xyz": [7.363999047583349, 0.018998131697415595, 3.0728710205513114]}, {"species": [{"element": "P", "occu": 1}], "abc": [0.65646785, 0.15475002000000002, 0.15728659], "properties": {"magmom": -0.0}, "label": "P", "xyz": [6.42770431492661, 1.5511386955551862, -1.5350750046546577]}, {"species": [{"element": "P", "occu": 1}], "abc": [0.84353239, 0.00081892, 0.49828354], "properties": {"magmom": 0.0}, "label": "P", "xyz": [9.469894104824903, 0.012181546074611997, 2.220599512814668]}, {"species": [{"element": "P", "occu": 1}], "abc": [0.15646785, 0.65728659, 0.65475002], "properties": {"magmom": -0.0}, "label": "P", "xyz": [-2.249922203248695, 6.558410675765821, 5.195501388522812]}, {"species": [{"element": "P", "occu": 1}], "abc": [0.99746881, 0.65475195, 0.9982861], "properties": {"magmom": -0.0}, "label": "P", "xyz": [7.210946709975077, 6.538821658182091, 5.565235420781061]}, {"species": [{"element": "P", "occu": 1}], "abc": [0.50253174, 0.50081915, 0.65728389], "properties": {"magmom": 0.0}, "label": "P", "xyz": [2.5907071874681065, 4.999765329510758, 4.145706090993649]}, {"species": [{"element": "P", "occu": 1}], "abc": [0.50253119, 0.501713899999999, 0.84524805], "properties": {"magmom": -0.0}, "label": "P", "xyz": [2.586537383923762, 5.006576565028385, 6.41751621759929]}, {"species": [{"element": "P", "occu": 1}], "abc": [0.99746826, 0.84271611, 0.99918085], "properties": {"magmom": 0.0}, "label": "P", "xyz": [6.063832556828232, 8.41592433988956, 4.99796251456781]}, {"species": [{"element": "P", "occu": 1}], "abc": [0.34353239, 0.99828354, 0.5008189200000001], "properties": {"magmom": 0.0}, "label": "P", "xyz": [-2.2316111875833475, 9.967668728302584, 1.4398365094486882]}, {"species": [{"element": "P", "occu": 1}], "abc": [0.34353215, 0.8452499800000001, 0.84271341], "properties": {"magmom": -0.0}, "label": "P", "xyz": [-1.2953164549266107, 8.435528164444815, 6.047782534654657]}, {"species": [{"element": "P", "occu": 1}], "abc": [0.15646761, 0.99918108, 0.50171646], "properties": {"magmom": 0.0}, "label": "P", "xyz": [-4.337506244824901, 9.97448531392539, 2.2921080171853316]}, {"species": [{"element": "P", "occu": 1}], "abc": [0.03976496, 0.24999971, 0.28976741], "properties": {"magmom": -0.0}, "label": "P", "xyz": [-1.0772137525256582, 2.493813159993643, 2.5581360147751626]}, {"species": [{"element": "P", "occu": 1}], "abc": [0.0397726, 0.28976616, 0.75000846], "properties": {"magmom": 0.0}, "label": "P", "xyz": [-1.316640536198774, 2.8857414679963815, 8.005185572012373]}, {"species": [{"element": "P", "occu": 1}], "abc": [0.46023504, 0.21023259, 0.25000129], "properties": {"magmom": -0.0}, "label": "P", "xyz": [3.8863777613985047, 2.1019288558956677, 0.30176948033600715]}, {"species": [{"element": "P", "occu": 1}], "abc": [0.460227399999999, 0.74999154, 0.21023384], "properties": {"magmom": 0.0}, "label": "P", "xyz": [0.5919580815663479, 7.492705971337408, -1.8395062998056688]}, {"species": [{"element": "P", "occu": 1}], "abc": [0.96023504, 0.75000029, 0.71023259], "properties": {"magmom": -0.0}, "label": "P", "xyz": [6.20960161252566, 7.492853700006357, 1.9545715152248366]}, {"species": [{"element": "P", "occu": 1}], "abc": [0.9602274, 0.71023384, 0.24999154], "properties": {"magmom": 0.0}, "label": "P", "xyz": [6.449028396198773, 7.100925392003618, -3.4924780420123733]}, {"species": [{"element": "P", "occu": 1}], "abc": [0.53976496, 0.7897674100000001, 0.74999971], "properties": {"magmom": -0.0}, "label": "P", "xyz": [1.2460101055011248, 7.8847379928031325, 4.210950150691861]}, {"species": [{"element": "P", "occu": 1}], "abc": [0.539772599999999, 0.25000846, 0.78976616], "properties": {"magmom": 0.0}, "label": "P", "xyz": [4.540429778433632, 2.493960888662593, 6.352213829805677]}]}, "task_ids": null, "uncorrected_energy_per_atom": null, "energy_per_atom": -8.3658560221875, "formation_energy_per_atom": -0.19070094749999902, "energy_above_hull": 0.0, "is_stable": true, "equilibrium_reaction_energy_per_atom": null, "decomposes_to": null, "xas": null, "grain_boundaries": null, "band_gap": 1.688199999999999, "cbm": null, "vbm": null, "efermi": 3.9000896, "is_gap_direct": null, "is_metal": null, "es_source_calc_id": null, "bandstructure": null, "dos": null, "dos_energy_up": null, "dos_energy_down": null, "is_magnetic": null, "ordering": null, "total_magnetization": 0.0, "total_magnetization_normalized_vol": null, "total_magnetization_normalized_formula_units": null, "num_magnetic_sites": null, "num_unique_magnetic_sites": null, "types_of_magnetic_species": null, "bulk_modulus": null, "shear_modulus": null, "universal_anisotropy": null, "homogeneous_poisson": null, "e_total": null, "e_ionic": null, "e_electronic": null, "n": null, "e_ij_max": null, "weighted_surface_energy_EV_PER_ANG2": null, "weighted_surface_energy": null, "weighted_work_function": null, "surface_anisotropy": null, "shape_factor": null, "has_reconstructed": null, "possible_species": null, "has_props": null, "theoretical": null, "database_IDs": null, "fields_not_requested": ["builder_meta", "nsites", "elements", "nelements", "composition", "composition_reduced", "chemsys", "symmetry", "property_name", "deprecated", "deprecation_reasons", "last_updated", "origins", "warnings", "task_ids", "uncorrected_energy_per_atom", "equilibrium_reaction_energy_per_atom", "decomposes_to", "xas", "grain_boundaries", "cbm", "vbm", "is_gap_direct", "is_metal", "es_source_calc_id", "bandstructure", "dos", "dos_energy_up", "dos_energy_down", "is_magnetic", "ordering", "total_magnetization_normalized_vol", "total_magnetization_normalized_formula_units", "num_magnetic_sites", "num_unique_magnetic_sites", "types_of_magnetic_species", "bulk_modulus", "shear_modulus", "universal_anisotropy", "homogeneous_poisson", "e_total", "e_ionic", "e_electronic", "n", "e_ij_max", "weighted_surface_energy_EV_PER_ANG2", "weighted_surface_energy", "weighted_work_function", "surface_anisotropy", "shape_factor", "has_reconstructed", "possible_species", "has_props", "theoretical", "database_IDs"]}