{"builder_meta": null, "nsites": null, "elements": null, "nelements": null, "composition": null, "composition_reduced": null, "formula_pretty": "LiPa", "formula_anonymous": "AB", "chemsys": null, "volume": 45.3626633192597, "density": 8.711347113955767, "density_atomic": 22.68133165962985, "symmetry": null, "property_name": null, "material_id": "mp-1185271", "deprecated": null, "deprecation_reasons": null, "last_updated": null, "origins": null, "warnings": null, "structure": {"@module": "pymatgen.core.structure", "@class": "Structure", "charge": 0, "lattice": {"matrix": [[3.037961, 0.000176, -0.000992], [-1.518828, 2.631053, 0.001004], [-0.001905, 0.001126, 5.675084]], "pbc": [true, true, true], "a": 3.037961167059415, "b": 3.037972908109781, "c": 5.675084431438619, "alpha": 89.96160380575799, "beta": 90.03794132946956, "gamma": 119.99323535195066, "volume": 45.36266331925971}, "properties": {}, "sites": [{"species": [{"element": "Li", "occu": 1}], "abc": [0.66668, 0.333322, 0.749985], "properties": {"magmom": -0.0}, "label": "Li", "xyz": [1.5176603314390003, 0.8779496668560001, 4.255901182468]}, {"species": [{"element": "Pa", "occu": 1}], "abc": [0.333321, 0.666679, 0.250016], "properties": {"magmom": -0.0}, "label": "Pa", "xyz": [-0.00043081421100007257, 1.7544079654990001, 1.4192004926280002]}]}, "task_ids": null, "uncorrected_energy_per_atom": null, "energy_per_atom": -39.342236263333334, "formation_energy_per_atom": 0.279126033333334, "energy_above_hull": 0.279126033333334, "is_stable": false, "equilibrium_reaction_energy_per_atom": null, "decomposes_to": null, "xas": null, "grain_boundaries": null, "band_gap": 0.0, "cbm": null, "vbm": null, "efermi": 6.6833886, "is_gap_direct": null, "is_metal": null, "es_source_calc_id": null, "bandstructure": null, "dos": null, "dos_energy_up": null, "dos_energy_down": null, "is_magnetic": null, "ordering": null, "total_magnetization": 1.8e-06, "total_magnetization_normalized_vol": null, "total_magnetization_normalized_formula_units": null, "num_magnetic_sites": null, "num_unique_magnetic_sites": null, "types_of_magnetic_species": null, "bulk_modulus": null, "shear_modulus": null, "universal_anisotropy": null, "homogeneous_poisson": null, "e_total": null, "e_ionic": null, "e_electronic": null, "n": null, "e_ij_max": null, "weighted_surface_energy_EV_PER_ANG2": null, "weighted_surface_energy": null, "weighted_work_function": null, "surface_anisotropy": null, "shape_factor": null, "has_reconstructed": null, "possible_species": null, "has_props": null, "theoretical": null, "database_IDs": null, "fields_not_requested": ["builder_meta", "nsites", "elements", "nelements", "composition", "composition_reduced", "chemsys", "symmetry", "property_name", "deprecated", "deprecation_reasons", "last_updated", "origins", "warnings", "task_ids", "uncorrected_energy_per_atom", "equilibrium_reaction_energy_per_atom", "decomposes_to", "xas", "grain_boundaries", "cbm", "vbm", "is_gap_direct", "is_metal", "es_source_calc_id", "bandstructure", "dos", "dos_energy_up", "dos_energy_down", "is_magnetic", "ordering", "total_magnetization_normalized_vol", "total_magnetization_normalized_formula_units", "num_magnetic_sites", "num_unique_magnetic_sites", "types_of_magnetic_species", "bulk_modulus", "shear_modulus", "universal_anisotropy", "homogeneous_poisson", "e_total", "e_ionic", "e_electronic", "n", "e_ij_max", "weighted_surface_energy_EV_PER_ANG2", "weighted_surface_energy", "weighted_work_function", "surface_anisotropy", "shape_factor", "has_reconstructed", "possible_species", "has_props", "theoretical", "database_IDs"]}