{
  "builder_meta": null,
  "nsites": null,
  "elements": null,
  "nelements": null,
  "composition": null,
  "composition_reduced": null,
  "formula_pretty": "LiS4",
  "formula_anonymous": "AB4",
  "chemsys": null,
  "volume": 2115.0784624047956,
  "density": 0.212291455219233,
  "density_atomic": 211.50784624047955,
  "symmetry": null,
  "property_name": null,
  "material_id": "mp-995393",
  "deprecated": null,
  "deprecation_reasons": null,
  "last_updated": null,
  "origins": null,
  "warnings": null,
  "structure": {
    "@module": "pymatgen.core.structure",
    "@class": "Structure",
    "charge": 0,
    "lattice": {
      "matrix": [
        [-12.356020000000001, 0.0, 0.0],
        [-0.02919, -12.865822, 0.0],
        [0.545453, 1.3202720000000001, 13.304861]
      ],
      "pbc": [true, true, true],
      "a": 12.356020000000001,
      "b": 12.865855113119531,
      "c": 13.381328908539466,
      "alpha": 95.66762429412594,
      "beta": 92.3361518180965,
      "gamma": 89.87000745585101,
      "volume": 2115.0784624047956
    },
    "properties": {},
    "sites": [
      {
        "species": [{ "element": "Li", "occu": 1 }],
        "abc": [0.352504, 0.682774, 0.52381],
        "properties": { "magmom": -0.0 },
        "label": "Li",
        "xyz": [-4.08976291121, -8.092877073908, 6.96921924041]
      },
      {
        "species": [{ "element": "Li", "occu": 1 }],
        "abc": [0.478294999999999, 0.51776, 0.466485999999999],
        "properties": { "magmom": -0.0 },
        "label": "Li",
        "xyz": [-5.670489812141989, -6.045519594528001, 6.206531388445987]
      },
      {
        "species": [{ "element": "S", "occu": 1 }],
        "abc": [0.536346, 0.702094999999999, 0.49244000000000004],
        "properties": { "magmom": 0.0 },
        "label": "S",
        "xyz": [-6.37899318065, -8.382874553409987, 6.551845750840001]
      },
      {
        "species": [{ "element": "S", "occu": 1 }],
        "abc": [0.569901, 0.634659, 0.624958],
        "properties": { "magmom": 0.0 },
        "label": "S",
        "xyz": [-6.719348634256001, -7.340295176122, 8.314979320838]
      },
      {
        "species": [{ "element": "S", "occu": 1 }],
        "abc": [0.704687, 0.542416999999999, 0.605324],
        "properties": { "magmom": 0.0 },
        "label": "S",
        "xyz": [-8.392784026198001, -6.179448243645988, 8.053751679964]
      },
      {
        "species": [{ "element": "S", "occu": 1 }],
        "abc": [0.660986, 0.412526, 0.505433999999999],
        "properties": { "magmom": 0.0 },
        "label": "S",
        "xyz": [-7.903507378058, -4.640175728324001, 6.724729114673988]
      },
      {
        "species": [{ "element": "S", "occu": 1 }],
        "abc": [0.578817, 0.309749, 0.588293],
        "properties": { "magmom": 0.0 },
        "label": "S",
        "xyz": [-6.840029819921002, -3.2084687229819995, 7.827156592273]
      },
      {
        "species": [{ "element": "S", "occu": 1 }],
        "abc": [0.41631, 0.304262, 0.543775999999999],
        "properties": { "magmom": 0.0 },
        "label": "S",
        "xyz": [-4.856211843452001, -3.196648506292001, 7.234864095135988]
      },
      {
        "species": [{ "element": "S", "occu": 1 }],
        "abc": [0.332117, 0.430446999999999, 0.609758999999999],
        "properties": { "magmom": 0.0 },
        "label": "S",
        "xyz": [-3.7836141664430007, -4.733006747985989, 8.112758738498988]
      },
      {
        "species": [{ "element": "S", "occu": 1 }],
        "abc": [0.283433999999999, 0.513311, 0.489720999999999],
        "properties": { "magmom": 0.0 },
        "label": "S",
        "xyz": [-3.2499799321569887, -5.957603032530001, 6.515669833780987]
      }
    ]
  },
  "task_ids": null,
  "uncorrected_energy_per_atom": null,
  "energy_per_atom": -4.303887513,
  "formation_energy_per_atom": -0.611415285666665,
  "energy_above_hull": 0.0,
  "is_stable": true,
  "equilibrium_reaction_energy_per_atom": null,
  "decomposes_to": null,
  "xas": null,
  "grain_boundaries": null,
  "band_gap": 2.1989,
  "cbm": null,
  "vbm": null,
  "efermi": -4.18569431,
  "is_gap_direct": null,
  "is_metal": null,
  "es_source_calc_id": null,
  "bandstructure": null,
  "dos": null,
  "dos_energy_up": null,
  "dos_energy_down": null,
  "is_magnetic": null,
  "ordering": null,
  "total_magnetization": 0.0002742,
  "total_magnetization_normalized_vol": null,
  "total_magnetization_normalized_formula_units": null,
  "num_magnetic_sites": null,
  "num_unique_magnetic_sites": null,
  "types_of_magnetic_species": null,
  "bulk_modulus": null,
  "shear_modulus": null,
  "universal_anisotropy": null,
  "homogeneous_poisson": null,
  "e_total": null,
  "e_ionic": null,
  "e_electronic": null,
  "n": null,
  "e_ij_max": null,
  "weighted_surface_energy_EV_PER_ANG2": null,
  "weighted_surface_energy": null,
  "weighted_work_function": null,
  "surface_anisotropy": null,
  "shape_factor": null,
  "has_reconstructed": null,
  "possible_species": null,
  "has_props": null,
  "theoretical": null,
  "database_IDs": null,
  "fields_not_requested": [
    "builder_meta",
    "nsites",
    "elements",
    "nelements",
    "composition",
    "composition_reduced",
    "chemsys",
    "symmetry",
    "property_name",
    "deprecated",
    "deprecation_reasons",
    "last_updated",
    "origins",
    "warnings",
    "task_ids",
    "uncorrected_energy_per_atom",
    "equilibrium_reaction_energy_per_atom",
    "decomposes_to",
    "xas",
    "grain_boundaries",
    "cbm",
    "vbm",
    "is_gap_direct",
    "is_metal",
    "es_source_calc_id",
    "bandstructure",
    "dos",
    "dos_energy_up",
    "dos_energy_down",
    "is_magnetic",
    "ordering",
    "total_magnetization_normalized_vol",
    "total_magnetization_normalized_formula_units",
    "num_magnetic_sites",
    "num_unique_magnetic_sites",
    "types_of_magnetic_species",
    "bulk_modulus",
    "shear_modulus",
    "universal_anisotropy",
    "homogeneous_poisson",
    "e_total",
    "e_ionic",
    "e_electronic",
    "n",
    "e_ij_max",
    "weighted_surface_energy_EV_PER_ANG2",
    "weighted_surface_energy",
    "weighted_work_function",
    "surface_anisotropy",
    "shape_factor",
    "has_reconstructed",
    "possible_species",
    "has_props",
    "theoretical",
    "database_IDs"
  ]
}
