{
  "builder_meta": null,
  "nsites": null,
  "elements": null,
  "nelements": null,
  "composition": null,
  "composition_reduced": null,
  "formula_pretty": "LiSi",
  "formula_anonymous": "AB",
  "chemsys": null,
  "volume": 247.9166306722312,
  "density": 1.876852600281151,
  "density_atomic": 15.49478941701445,
  "symmetry": null,
  "property_name": null,
  "material_id": "mp-795",
  "deprecated": null,
  "deprecation_reasons": null,
  "last_updated": null,
  "origins": null,
  "warnings": null,
  "structure": {
    "@module": "pymatgen.core.structure",
    "@class": "Structure",
    "charge": 0,
    "lattice": {
      "matrix": [
        [5.2491776, -9.797000000000001e-5, 2.2898201],
        [2.62480219, 6.57975916, 1.14410839],
        [-0.00450933, -0.00089571, 7.17599518]
      ],
      "pbc": [true, true, true],
      "a": 5.726878868659952,
      "b": 7.175778783400523,
      "c": 7.175996652712199,
      "alpha": 80.84557316563036,
      "beta": 66.46799304503693,
      "gamma": 66.48374506158802,
      "volume": 247.9166306722312
    },
    "properties": {},
    "sites": [
      {
        "species": [{ "element": "Li", "occu": 1 }],
        "abc": [0.13397084, 0.80427291, 0.03466865],
        "properties": { "magmom": -0.0 },
        "label": "Li",
        "xyz": [2.814137695523353, 5.291877868532669, 1.475726571723706]
      },
      {
        "species": [{ "element": "Li", "occu": 1 }],
        "abc": [0.16856417, 0.46684486000000003, 0.80476186],
        "properties": { "magmom": -0.0 },
        "label": "Li",
        "xyz": [2.106569739446682, 3.070989396406562, 6.695069974168027]
      },
      {
        "species": [{ "element": "Li", "occu": 1 }],
        "abc": [0.44058195, 0.0328553, 0.69510844],
        "properties": { "magmom": -0.0 },
        "label": "Li",
        "xyz": [2.3957970929556818, 0.21551418173511408, 6.034538244210482]
      },
      {
        "species": [{ "element": "Li", "occu": 1 }],
        "abc": [0.97277446, 0.69531455, 0.46734005],
        "properties": { "magmom": -0.0 },
        "label": "Li",
        "xyz": [6.929221668355294, 4.574488375573747, 6.37662366783968]
      },
      {
        "species": [{ "element": "Li", "occu": 1 }],
        "abc": [0.86602916, 0.19572709, 0.96533135],
        "properties": { "magmom": -0.0 },
        "label": "Li",
        "xyz": [5.055332764476648, 1.2868876114673307, 9.134197098276294]
      },
      {
        "species": [{ "element": "Li", "occu": 1 }],
        "abc": [0.83143583, 0.53315514, 0.19523814],
        "properties": { "magmom": -0.0 },
        "label": "Li",
        "xyz": [5.7629007205533185, 3.5077760835934377, 3.9148536958319733]
      },
      {
        "species": [{ "element": "Li", "occu": 1 }],
        "abc": [0.55941805, 0.9671447, 0.30489156],
        "properties": { "magmom": -0.0 },
        "label": "Li",
        "xyz": [5.473673367044319, 6.363251298264887, 4.575385425789518]
      },
      {
        "species": [{ "element": "Li", "occu": 1 }],
        "abc": [0.02722554, 0.30468545, 0.53265995],
        "properties": { "magmom": -0.0 },
        "label": "Li",
        "xyz": [0.9402487916447061, 2.004277104426254, 4.233300002160321]
      },
      {
        "species": [{ "element": "Si", "occu": 1 }],
        "abc": [0.705619, 0.84220771, 0.93619285],
        "properties": { "magmom": 0.0 },
        "label": "Si",
        "xyz": [5.910326488072995, 5.54061620770402, 9.29743285542605]
      },
      {
        "species": [{ "element": "Si", "occu": 1 }],
        "abc": [0.64158552, 0.56394345, 0.84216977],
        "properties": { "magmom": 0.0 },
        "label": "Si",
        "xyz": [4.844238721255554, 3.709794884841421, 8.157734062457207]
      },
      {
        "species": [{ "element": "Si", "occu": 1 }],
        "abc": [0.04793816, 0.93622618, 0.65774033],
        "properties": { "magmom": 0.0 },
        "label": "Si",
        "xyz": [2.7060784750542717, 6.15954894259429, 5.900855427572276]
      },
      {
        "species": [{ "element": "Si", "occu": 1 }],
        "abc": [0.4840907, 0.65777862, 0.56373611],
        "properties": { "magmom": 0.0 },
        "label": "Si",
        "xyz": [4.265074748966592, 4.3274725297601915, 5.906418261139642]
      },
      {
        "species": [{ "element": "Si", "occu": 1 }],
        "abc": [0.294381, 0.15779129, 0.06380715],
        "properties": { "magmom": 0.0 },
        "label": "Si",
        "xyz": [1.9591413471248156, 1.0381426925368198, 1.3124896704655602]
      },
      {
        "species": [{ "element": "Si", "occu": 1 }],
        "abc": [0.35841448, 0.43605655, 0.15783023000000002],
        "properties": { "magmom": 0.0 },
        "label": "Si",
        "xyz": [3.0252317387444467, 2.8689705951585793, 2.452189607542794]
      },
      {
        "species": [{ "element": "Si", "occu": 1 }],
        "abc": [0.95206184, 0.06377382, 0.34225967],
        "properties": { "magmom": 0.0 },
        "label": "Si",
        "xyz": [5.163391984945728, 0.4192165374057107, 4.709068242427724]
      },
      {
        "species": [{ "element": "Si", "occu": 1 }],
        "abc": [0.5159093, 0.34222138, 0.43626389],
        "properties": { "magmom": 0.0 },
        "label": "Si",
        "xyz": [3.604395711033409, 2.251292950239808, 4.703505408860359]
      }
    ]
  },
  "task_ids": null,
  "uncorrected_energy_per_atom": null,
  "energy_per_atom": -3.829193219375,
  "formation_energy_per_atom": -0.162072771041666,
  "energy_above_hull": 0.012245563601190002,
  "is_stable": false,
  "equilibrium_reaction_energy_per_atom": null,
  "decomposes_to": null,
  "xas": null,
  "grain_boundaries": null,
  "band_gap": 0.0,
  "cbm": null,
  "vbm": null,
  "efermi": 4.69079616,
  "is_gap_direct": null,
  "is_metal": null,
  "es_source_calc_id": null,
  "bandstructure": null,
  "dos": null,
  "dos_energy_up": null,
  "dos_energy_down": null,
  "is_magnetic": null,
  "ordering": null,
  "total_magnetization": 7.8e-6,
  "total_magnetization_normalized_vol": null,
  "total_magnetization_normalized_formula_units": null,
  "num_magnetic_sites": null,
  "num_unique_magnetic_sites": null,
  "types_of_magnetic_species": null,
  "bulk_modulus": null,
  "shear_modulus": null,
  "universal_anisotropy": null,
  "homogeneous_poisson": null,
  "e_total": null,
  "e_ionic": null,
  "e_electronic": null,
  "n": null,
  "e_ij_max": null,
  "weighted_surface_energy_EV_PER_ANG2": null,
  "weighted_surface_energy": null,
  "weighted_work_function": null,
  "surface_anisotropy": null,
  "shape_factor": null,
  "has_reconstructed": null,
  "possible_species": null,
  "has_props": null,
  "theoretical": null,
  "database_IDs": null,
  "fields_not_requested": [
    "builder_meta",
    "nsites",
    "elements",
    "nelements",
    "composition",
    "composition_reduced",
    "chemsys",
    "symmetry",
    "property_name",
    "deprecated",
    "deprecation_reasons",
    "last_updated",
    "origins",
    "warnings",
    "task_ids",
    "uncorrected_energy_per_atom",
    "equilibrium_reaction_energy_per_atom",
    "decomposes_to",
    "xas",
    "grain_boundaries",
    "cbm",
    "vbm",
    "is_gap_direct",
    "is_metal",
    "es_source_calc_id",
    "bandstructure",
    "dos",
    "dos_energy_up",
    "dos_energy_down",
    "is_magnetic",
    "ordering",
    "total_magnetization_normalized_vol",
    "total_magnetization_normalized_formula_units",
    "num_magnetic_sites",
    "num_unique_magnetic_sites",
    "types_of_magnetic_species",
    "bulk_modulus",
    "shear_modulus",
    "universal_anisotropy",
    "homogeneous_poisson",
    "e_total",
    "e_ionic",
    "e_electronic",
    "n",
    "e_ij_max",
    "weighted_surface_energy_EV_PER_ANG2",
    "weighted_surface_energy",
    "weighted_work_function",
    "surface_anisotropy",
    "shape_factor",
    "has_reconstructed",
    "possible_species",
    "has_props",
    "theoretical",
    "database_IDs"
  ]
}
