{"builder_meta": null, "nsites": null, "elements": null, "nelements": null, "composition": null, "composition_reduced": null, "formula_pretty": "LiSn", "formula_anonymous": "AB", "chemsys": null, "volume": 122.90407935742938, "density": 5.092956930678413, "density_atomic": 20.48401322623823, "symmetry": null, "property_name": null, "material_id": "mp-569073", "deprecated": null, "deprecation_reasons": null, "last_updated": null, "origins": null, "warnings": null, "structure": {"@module": "pymatgen.core.structure", "@class": "Structure", "charge": 0, "lattice": {"matrix": [[3.13853384, 0.0, 0.0], [0.0, 5.0016997, -1.35069256], [0.0, -0.05713296, 7.8447093599999995]], "pbc": [true, true, true], "a": 3.13853384, "b": 5.180865784849038, "c": 7.844917406702888, "alpha": 105.52934701702405, "beta": 90.0, "gamma": 90.0, "volume": 122.90407935742938}, "properties": {}, "sites": [{"species": [{"element": "Li", "occu": 1}], "abc": [0.5, 0.7293200200000001, 0.67416604], "properties": {"magmom": 0.0}, "label": "Li", "xyz": [1.56926692, 3.6093226238413156, 4.303549519309083]}, {"species": [{"element": "Li", "occu": 1}], "abc": [0.5, 0.5, 0.0], "properties": {"magmom": -0.0}, "label": "Li", "xyz": [1.56926692, 2.50084985, -0.67534628]}, {"species": [{"element": "Li", "occu": 1}], "abc": [0.5, 0.27067998, 0.32583396000000003], "properties": {"magmom": 0.0}, "label": "Li", "xyz": [1.56926692, 1.3352441161586843, 2.190467280690917]}, {"species": [{"element": "Sn", "occu": 1}], "abc": [0.0, 0.76494313, 0.33907696], "properties": {"magmom": -0.0}, "label": "Sn", "xyz": [0.0, 3.8066433534454593, 1.6267572073582326]}, {"species": [{"element": "Sn", "occu": 1}], "abc": [0.0, 0.23505687, 0.66092304], "properties": {"magmom": -0.0}, "label": "Sn", "xyz": [0.0, 1.1379233865545404, 4.8672595926417666]}, {"species": [{"element": "Sn", "occu": 1}], "abc": [0.0, 0.0, 0.0], "properties": {"magmom": -0.0}, "label": "Sn", "xyz": [0.0, 0.0, 0.0]}]}, "task_ids": null, "uncorrected_energy_per_atom": null, "energy_per_atom": -3.28511435, "formation_energy_per_atom": -0.325866989166666, "energy_above_hull": 0.0, "is_stable": true, "equilibrium_reaction_energy_per_atom": null, "decomposes_to": null, "xas": null, "grain_boundaries": null, "band_gap": 0.0, "cbm": null, "vbm": null, "efermi": 5.50113306, "is_gap_direct": null, "is_metal": null, "es_source_calc_id": null, "bandstructure": null, "dos": null, "dos_energy_up": null, "dos_energy_down": null, "is_magnetic": null, "ordering": null, "total_magnetization": 0.0, "total_magnetization_normalized_vol": null, "total_magnetization_normalized_formula_units": null, "num_magnetic_sites": null, "num_unique_magnetic_sites": null, "types_of_magnetic_species": null, "bulk_modulus": null, "shear_modulus": null, "universal_anisotropy": null, "homogeneous_poisson": null, "e_total": null, "e_ionic": null, "e_electronic": null, "n": null, "e_ij_max": null, "weighted_surface_energy_EV_PER_ANG2": null, "weighted_surface_energy": null, "weighted_work_function": null, "surface_anisotropy": null, "shape_factor": null, "has_reconstructed": null, "possible_species": null, "has_props": null, "theoretical": null, "database_IDs": null, "fields_not_requested": ["builder_meta", "nsites", "elements", "nelements", "composition", "composition_reduced", "chemsys", "symmetry", "property_name", "deprecated", "deprecation_reasons", "last_updated", "origins", "warnings", "task_ids", "uncorrected_energy_per_atom", "equilibrium_reaction_energy_per_atom", "decomposes_to", "xas", "grain_boundaries", "cbm", "vbm", "is_gap_direct", "is_metal", "es_source_calc_id", "bandstructure", "dos", "dos_energy_up", "dos_energy_down", "is_magnetic", "ordering", "total_magnetization_normalized_vol", "total_magnetization_normalized_formula_units", "num_magnetic_sites", "num_unique_magnetic_sites", "types_of_magnetic_species", "bulk_modulus", "shear_modulus", "universal_anisotropy", "homogeneous_poisson", "e_total", "e_ionic", "e_electronic", "n", "e_ij_max", "weighted_surface_energy_EV_PER_ANG2", "weighted_surface_energy", "weighted_work_function", "surface_anisotropy", "shape_factor", "has_reconstructed", "possible_species", "has_props", "theoretical", "database_IDs"]}