{
  "builder_meta": null,
  "nsites": null,
  "elements": null,
  "nelements": null,
  "composition": null,
  "composition_reduced": null,
  "formula_pretty": "LiYb3",
  "formula_anonymous": "AB3",
  "chemsys": null,
  "volume": 223.26394643238064,
  "density": 7.825220828291958,
  "density_atomic": 27.90799330404758,
  "symmetry": null,
  "property_name": null,
  "material_id": "mp-1185470",
  "deprecated": null,
  "deprecation_reasons": null,
  "last_updated": null,
  "origins": null,
  "warnings": null,
  "structure": {
    "@module": "pymatgen.core.structure",
    "@class": "Structure",
    "charge": 0.0,
    "lattice": {
      "matrix": [
        [3.3864386619189792, -5.865483243576087, 0.0],
        [3.3864386619189792, 5.865483243576087, 0.0],
        [0.0, -0.0, 5.6200682451961175]
      ],
      "pbc": [true, true, true],
      "a": 6.772876825368335,
      "b": 6.772876825368335,
      "c": 5.6200682451961175,
      "alpha": 90.0,
      "beta": 90.0,
      "gamma": 119.999995130801,
      "volume": 223.2639464323806
    },
    "properties": {},
    "sites": [
      {
        "species": [{ "element": "Li", "occu": 1 }],
        "abc": [0.33333300000000304, 0.666666999999996, 0.75],
        "properties": { "magmom": 0.004 },
        "label": "Li",
        "xyz": [3.3864386619189757, 1.95516499151415, 4.2150511838970885]
      },
      {
        "species": [{ "element": "Li", "occu": 1 }],
        "abc": [0.666666999999996, 0.33333300000000304, 0.25],
        "properties": { "magmom": 0.004 },
        "label": "Li",
        "xyz": [3.3864386619189757, -1.95516499151415, 1.4050170612990294]
      },
      {
        "species": [{ "element": "Yb", "occu": 1 }],
        "abc": [0.83203642679252, 0.16796357320748, 0.75],
        "properties": { "magmom": 0.517 },
        "label": "Yb",
        "xyz": [3.3864386619189792, -3.8951081952168085, 4.2150511838970885]
      },
      {
        "species": [{ "element": "Yb", "occu": 1 }],
        "abc": [0.335926146397639, 0.167963573190149, 0.75],
        "properties": { "magmom": 0.517 },
        "label": "Yb",
        "xyz": [1.7063916277555986, -0.9851816586964542, 4.2150511838970885]
      },
      {
        "species": [{ "element": "Yb", "occu": 1 }],
        "abc": [0.83203642680985, 0.66407385360236, 0.75],
        "properties": { "magmom": 0.517 },
        "label": "Yb",
        "xyz": [5.066485696082353, -0.9851816586964541, 4.2150511838970885]
      },
      {
        "species": [{ "element": "Yb", "occu": 1 }],
        "abc": [0.16796357320748, 0.83203642679252, 0.25],
        "properties": { "magmom": 0.517 },
        "label": "Yb",
        "xyz": [3.3864386619189792, 3.8951081952168085, 1.4050170612990294]
      },
      {
        "species": [{ "element": "Yb", "occu": 1 }],
        "abc": [0.66407385360236, 0.83203642680985, 0.25],
        "properties": { "magmom": 0.517 },
        "label": "Yb",
        "xyz": [5.066485696082353, 0.9851816586964541, 1.4050170612990294]
      },
      {
        "species": [{ "element": "Yb", "occu": 1 }],
        "abc": [0.167963573190149, 0.335926146397639, 0.25],
        "properties": { "magmom": 0.517 },
        "label": "Yb",
        "xyz": [1.7063916277555986, 0.9851816586964542, 1.4050170612990294]
      }
    ]
  },
  "task_ids": null,
  "uncorrected_energy_per_atom": null,
  "energy_per_atom": -27.8247757575,
  "formation_energy_per_atom": 0.168934934583329,
  "energy_above_hull": 0.168934934583329,
  "is_stable": false,
  "equilibrium_reaction_energy_per_atom": null,
  "decomposes_to": null,
  "xas": null,
  "grain_boundaries": null,
  "band_gap": 0.0,
  "cbm": null,
  "vbm": null,
  "efermi": 1.8820111700000002,
  "is_gap_direct": null,
  "is_metal": null,
  "es_source_calc_id": null,
  "bandstructure": null,
  "dos": null,
  "dos_energy_up": null,
  "dos_energy_down": null,
  "is_magnetic": null,
  "ordering": null,
  "total_magnetization": 3.1172267,
  "total_magnetization_normalized_vol": null,
  "total_magnetization_normalized_formula_units": null,
  "num_magnetic_sites": null,
  "num_unique_magnetic_sites": null,
  "types_of_magnetic_species": null,
  "bulk_modulus": null,
  "shear_modulus": null,
  "universal_anisotropy": null,
  "homogeneous_poisson": null,
  "e_total": null,
  "e_ionic": null,
  "e_electronic": null,
  "n": null,
  "e_ij_max": null,
  "weighted_surface_energy_EV_PER_ANG2": null,
  "weighted_surface_energy": null,
  "weighted_work_function": null,
  "surface_anisotropy": null,
  "shape_factor": null,
  "has_reconstructed": null,
  "possible_species": null,
  "has_props": null,
  "theoretical": null,
  "database_IDs": null,
  "fields_not_requested": [
    "builder_meta",
    "nsites",
    "elements",
    "nelements",
    "composition",
    "composition_reduced",
    "chemsys",
    "symmetry",
    "property_name",
    "deprecated",
    "deprecation_reasons",
    "last_updated",
    "origins",
    "warnings",
    "task_ids",
    "uncorrected_energy_per_atom",
    "equilibrium_reaction_energy_per_atom",
    "decomposes_to",
    "xas",
    "grain_boundaries",
    "cbm",
    "vbm",
    "is_gap_direct",
    "is_metal",
    "es_source_calc_id",
    "bandstructure",
    "dos",
    "dos_energy_up",
    "dos_energy_down",
    "is_magnetic",
    "ordering",
    "total_magnetization_normalized_vol",
    "total_magnetization_normalized_formula_units",
    "num_magnetic_sites",
    "num_unique_magnetic_sites",
    "types_of_magnetic_species",
    "bulk_modulus",
    "shear_modulus",
    "universal_anisotropy",
    "homogeneous_poisson",
    "e_total",
    "e_ionic",
    "e_electronic",
    "n",
    "e_ij_max",
    "weighted_surface_energy_EV_PER_ANG2",
    "weighted_surface_energy",
    "weighted_work_function",
    "surface_anisotropy",
    "shape_factor",
    "has_reconstructed",
    "possible_species",
    "has_props",
    "theoretical",
    "database_IDs"
  ]
}
