{
  "builder_meta": null,
  "nsites": null,
  "elements": null,
  "nelements": null,
  "composition": null,
  "composition_reduced": null,
  "formula_pretty": "LiZn2",
  "formula_anonymous": "AB2",
  "chemsys": null,
  "volume": 213.8542010492913,
  "density": 4.278694552706473,
  "density_atomic": 17.821183420774275,
  "symmetry": null,
  "property_name": null,
  "material_id": "mp-1210982",
  "deprecated": null,
  "deprecation_reasons": null,
  "last_updated": null,
  "origins": null,
  "warnings": null,
  "structure": {
    "@module": "pymatgen.core.structure",
    "@class": "Structure",
    "charge": 0,
    "lattice": {
      "matrix": [
        [-4.7463809999999995, -4.7463809999999995, 0.0],
        [-4.7463809999999995, 0.0, -4.7463809999999995],
        [0.0, -4.7463809999999995, -4.7463809999999995]
      ],
      "pbc": [true, true, true],
      "a": 6.712396382389972,
      "b": 6.712396382389972,
      "c": 6.712396382389972,
      "alpha": 59.99999999999999,
      "beta": 59.99999999999999,
      "gamma": 59.99999999999999,
      "volume": 213.85420104929116
    },
    "properties": {},
    "sites": [
      {
        "species": [{ "element": "Li", "occu": 1 }],
        "abc": [0.875, 0.875, 0.875],
        "properties": { "magmom": 0.0 },
        "label": "Li",
        "xyz": [-8.30616675, -8.30616675, -8.30616675]
      },
      {
        "species": [{ "element": "Li", "occu": 1 }],
        "abc": [0.375, 0.875, 0.875],
        "properties": { "magmom": 0.0 },
        "label": "Li",
        "xyz": [-5.932976249999999, -5.932976249999999, -8.30616675]
      },
      {
        "species": [{ "element": "Li", "occu": 1 }],
        "abc": [0.875, 0.375, 0.875],
        "properties": { "magmom": 0.0 },
        "label": "Li",
        "xyz": [-5.932976249999999, -8.30616675, -5.932976249999999]
      },
      {
        "species": [{ "element": "Li", "occu": 1 }],
        "abc": [0.875, 0.875, 0.375],
        "properties": { "magmom": 0.0 },
        "label": "Li",
        "xyz": [-8.30616675, -5.932976249999999, -5.932976249999999]
      },
      {
        "species": [{ "element": "Zn", "occu": 1 }],
        "abc": [0.598086, 0.598086, 0.598086],
        "properties": { "magmom": -0.0 },
        "label": "Zn",
        "xyz": [-5.677488053532, -5.677488053532, -5.677488053532]
      },
      {
        "species": [{ "element": "Zn", "occu": 1 }],
        "abc": [0.205740999999999, 0.598086, 0.598086],
        "properties": { "magmom": 0.0 },
        "label": "Zn",
        "xyz": [-3.8152692000869948, -3.8152692000869948, -5.677488053532]
      },
      {
        "species": [{ "element": "Zn", "occu": 1 }],
        "abc": [0.598086, 0.205740999999999, 0.598086],
        "properties": { "magmom": 0.0 },
        "label": "Zn",
        "xyz": [-3.8152692000869948, -5.677488053532, -3.8152692000869948]
      },
      {
        "species": [{ "element": "Zn", "occu": 1 }],
        "abc": [0.544258999999999, 0.151914, 0.151914],
        "properties": { "magmom": 0.0 },
        "label": "Zn",
        "xyz": [-3.304302299912995, -3.304302299912995, -1.4420834464679997]
      },
      {
        "species": [{ "element": "Zn", "occu": 1 }],
        "abc": [0.151914, 0.151914, 0.151914],
        "properties": { "magmom": -0.0 },
        "label": "Zn",
        "xyz": [-1.4420834464679997, -1.4420834464679997, -1.4420834464679997]
      },
      {
        "species": [{ "element": "Zn", "occu": 1 }],
        "abc": [0.598086, 0.598086, 0.205740999999999],
        "properties": { "magmom": 0.0 },
        "label": "Zn",
        "xyz": [-5.677488053532, -3.8152692000869948, -3.8152692000869948]
      },
      {
        "species": [{ "element": "Zn", "occu": 1 }],
        "abc": [0.151914, 0.544258999999999, 0.151914],
        "properties": { "magmom": 0.0 },
        "label": "Zn",
        "xyz": [-3.304302299912995, -1.4420834464679997, -3.304302299912995]
      },
      {
        "species": [{ "element": "Zn", "occu": 1 }],
        "abc": [0.151914, 0.151914, 0.544258999999999],
        "properties": { "magmom": 0.0 },
        "label": "Zn",
        "xyz": [-1.4420834464679997, -3.304302299912995, -3.304302299912995]
      }
    ]
  },
  "task_ids": null,
  "uncorrected_energy_per_atom": null,
  "energy_per_atom": -6.6438615275,
  "formation_energy_per_atom": 0.09210901361110901,
  "energy_above_hull": 0.275214168333333,
  "is_stable": false,
  "equilibrium_reaction_energy_per_atom": null,
  "decomposes_to": null,
  "xas": null,
  "grain_boundaries": null,
  "band_gap": 0.0,
  "cbm": null,
  "vbm": null,
  "efermi": 1.15390957,
  "is_gap_direct": null,
  "is_metal": null,
  "es_source_calc_id": null,
  "bandstructure": null,
  "dos": null,
  "dos_energy_up": null,
  "dos_energy_down": null,
  "is_magnetic": null,
  "ordering": null,
  "total_magnetization": 0.0011802,
  "total_magnetization_normalized_vol": null,
  "total_magnetization_normalized_formula_units": null,
  "num_magnetic_sites": null,
  "num_unique_magnetic_sites": null,
  "types_of_magnetic_species": null,
  "bulk_modulus": null,
  "shear_modulus": null,
  "universal_anisotropy": null,
  "homogeneous_poisson": null,
  "e_total": null,
  "e_ionic": null,
  "e_electronic": null,
  "n": null,
  "e_ij_max": null,
  "weighted_surface_energy_EV_PER_ANG2": null,
  "weighted_surface_energy": null,
  "weighted_work_function": null,
  "surface_anisotropy": null,
  "shape_factor": null,
  "has_reconstructed": null,
  "possible_species": null,
  "has_props": null,
  "theoretical": null,
  "database_IDs": null,
  "fields_not_requested": [
    "builder_meta",
    "nsites",
    "elements",
    "nelements",
    "composition",
    "composition_reduced",
    "chemsys",
    "symmetry",
    "property_name",
    "deprecated",
    "deprecation_reasons",
    "last_updated",
    "origins",
    "warnings",
    "task_ids",
    "uncorrected_energy_per_atom",
    "equilibrium_reaction_energy_per_atom",
    "decomposes_to",
    "xas",
    "grain_boundaries",
    "cbm",
    "vbm",
    "is_gap_direct",
    "is_metal",
    "es_source_calc_id",
    "bandstructure",
    "dos",
    "dos_energy_up",
    "dos_energy_down",
    "is_magnetic",
    "ordering",
    "total_magnetization_normalized_vol",
    "total_magnetization_normalized_formula_units",
    "num_magnetic_sites",
    "num_unique_magnetic_sites",
    "types_of_magnetic_species",
    "bulk_modulus",
    "shear_modulus",
    "universal_anisotropy",
    "homogeneous_poisson",
    "e_total",
    "e_ionic",
    "e_electronic",
    "n",
    "e_ij_max",
    "weighted_surface_energy_EV_PER_ANG2",
    "weighted_surface_energy",
    "weighted_work_function",
    "surface_anisotropy",
    "shape_factor",
    "has_reconstructed",
    "possible_species",
    "has_props",
    "theoretical",
    "database_IDs"
  ]
}
