{"builder_meta": null, "nsites": null, "elements": null, "nelements": null, "composition": null, "composition_reduced": null, "formula_pretty": "LiZn", "formula_anonymous": "AB", "chemsys": null, "volume": 55.736715483220095, "density": 4.310982461988773, "density_atomic": 13.934178870805024, "symmetry": null, "property_name": null, "material_id": "mp-1934", "deprecated": null, "deprecation_reasons": null, "last_updated": null, "origins": null, "warnings": null, "structure": {"@module": "pymatgen.core.structure", "@class": "Structure", "charge": 0, "lattice": {"matrix": [[3.71320966, -0.0, 2.14382171], [1.23773622, 3.50084706, 2.14382171], [-0.0, -0.0, 4.28764443]], "pbc": [true, true, true], "a": 4.287644750137846, "b": 4.287644179742281, "c": 4.28764443, "alpha": 60.000005861510544, "beta": 60.000010262184965, "gamma": 60.00000689511351, "volume": 55.736715483220095}, "properties": {}, "sites": [{"species": [{"element": "Li", "occu": 1}], "abc": [0.875, 0.875, 0.875], "properties": {"magmom": 0.0}, "label": "Li", "xyz": [4.332077645, 3.0632411775, 7.50337686875]}, {"species": [{"element": "Li", "occu": 1}], "abc": [0.125, 0.125, 0.125], "properties": {"magmom": 0.0}, "label": "Li", "xyz": [0.618868235, 0.4376058825, 1.07191098125]}, {"species": [{"element": "Zn", "occu": 1}], "abc": [0.375, 0.375, 0.375], "properties": {"magmom": -0.0}, "label": "Zn", "xyz": [1.8566047049999999, 1.3128176475, 3.21573294375]}, {"species": [{"element": "Zn", "occu": 1}], "abc": [0.625, 0.625, 0.625], "properties": {"magmom": -0.0}, "label": "Zn", "xyz": [3.094341175, 2.1880294124999997, 5.3595549062500005]}]}, "task_ids": null, "uncorrected_energy_per_atom": null, "energy_per_atom": -5.8687600975, "formation_energy_per_atom": -0.22010558833333302, "energy_above_hull": 0.0, "is_stable": true, "equilibrium_reaction_energy_per_atom": null, "decomposes_to": null, "xas": null, "grain_boundaries": null, "band_gap": 0.0, "cbm": null, "vbm": null, "efermi": 1.98576397, "is_gap_direct": null, "is_metal": null, "es_source_calc_id": null, "bandstructure": null, "dos": null, "dos_energy_up": null, "dos_energy_down": null, "is_magnetic": null, "ordering": null, "total_magnetization": 3e-07, "total_magnetization_normalized_vol": null, "total_magnetization_normalized_formula_units": null, "num_magnetic_sites": null, "num_unique_magnetic_sites": null, "types_of_magnetic_species": null, "bulk_modulus": null, "shear_modulus": null, "universal_anisotropy": null, "homogeneous_poisson": null, "e_total": null, "e_ionic": null, "e_electronic": null, "n": null, "e_ij_max": null, "weighted_surface_energy_EV_PER_ANG2": null, "weighted_surface_energy": null, "weighted_work_function": null, "surface_anisotropy": null, "shape_factor": null, "has_reconstructed": null, "possible_species": null, "has_props": null, "theoretical": null, "database_IDs": null, "fields_not_requested": ["builder_meta", "nsites", "elements", "nelements", "composition", "composition_reduced", "chemsys", "symmetry", "property_name", "deprecated", "deprecation_reasons", "last_updated", "origins", "warnings", "task_ids", "uncorrected_energy_per_atom", "equilibrium_reaction_energy_per_atom", "decomposes_to", "xas", "grain_boundaries", "cbm", "vbm", "is_gap_direct", "is_metal", "es_source_calc_id", "bandstructure", "dos", "dos_energy_up", "dos_energy_down", "is_magnetic", "ordering", "total_magnetization_normalized_vol", "total_magnetization_normalized_formula_units", "num_magnetic_sites", "num_unique_magnetic_sites", "types_of_magnetic_species", "bulk_modulus", "shear_modulus", "universal_anisotropy", "homogeneous_poisson", "e_total", "e_ionic", "e_electronic", "n", "e_ij_max", "weighted_surface_energy_EV_PER_ANG2", "weighted_surface_energy", "weighted_work_function", "surface_anisotropy", "shape_factor", "has_reconstructed", "possible_species", "has_props", "theoretical", "database_IDs"]}