{"builder_meta": null, "nsites": null, "elements": null, "nelements": null, "composition": null, "composition_reduced": null, "formula_pretty": "Lu2Au", "formula_anonymous": "AB2", "chemsys": null, "volume": 288.74225717747555, "density": 12.580766933772, "density_atomic": 24.06185476478963, "symmetry": null, "property_name": null, "material_id": "mp-1101816", "deprecated": null, "deprecation_reasons": null, "last_updated": null, "origins": null, "warnings": null, "structure": {"@module": "pymatgen.core.structure", "@class": "Structure", "charge": 0, "lattice": {"matrix": [[-0.0, -4.80968483, 0.0], [-6.92617775, 0.0, 0.0], [0.0, 0.0, -8.66762464]], "pbc": [true, true, true], "a": 4.80968483, "b": 6.92617775, "c": 8.66762464, "alpha": 90.0, "beta": 90.0, "gamma": 90.0, "volume": 288.74225717747555}, "properties": {}, "sites": [{"species": [{"element": "Lu", "occu": 1}], "abc": [0.75, 0.64732957, 0.5793766300000001], "properties": {"magmom": 0.0}, "label": "Lu", "xyz": [-4.483519664651068, -3.6072636225, -5.021819154028163]}, {"species": [{"element": "Lu", "occu": 1}], "abc": [0.75, 0.14732957, 0.92062337], "properties": {"magmom": 0.0}, "label": "Lu", "xyz": [-1.0204307896510674, -3.6072636225, -7.979617805971837]}, {"species": [{"element": "Lu", "occu": 1}], "abc": [0.25, 0.35267043000000003, 0.42062337], "properties": {"magmom": 0.0}, "label": "Lu", "xyz": [-2.4426580853489326, -1.2024212075, -3.6458054859718367]}, {"species": [{"element": "Lu", "occu": 1}], "abc": [0.25, 0.85267043, 0.07937663], "properties": {"magmom": 0.0}, "label": "Lu", "xyz": [-5.9057469603489325, -1.2024212075, -0.6880068340281632]}, {"species": [{"element": "Lu", "occu": 1}], "abc": [0.75, 0.015178490000000001, 0.32310535], "properties": {"magmom": -0.0}, "label": "Lu", "xyz": [-0.1051289197165975, -3.6072636225, -2.800555892975824]}, {"species": [{"element": "Lu", "occu": 1}], "abc": [0.75, 0.51517849, 0.17689465000000001], "properties": {"magmom": -0.0}, "label": "Lu", "xyz": [-3.5682177947165976, -3.6072636225, -1.533256427024176]}, {"species": [{"element": "Lu", "occu": 1}], "abc": [0.25, 0.9848215100000001, 0.67689465], "properties": {"magmom": -0.0}, "label": "Lu", "xyz": [-6.821048830283403, -1.2024212075, -5.8670687470241765]}, {"species": [{"element": "Lu", "occu": 1}], "abc": [0.25, 0.48482051000000004, 0.8231053500000001], "properties": {"magmom": -0.0}, "label": "Lu", "xyz": [-3.3579530291056527, -1.2024212075, -7.134368212975824]}, {"species": [{"element": "Au", "occu": 1}], "abc": [0.75, 0.24284199, 0.59841975], "properties": {"magmom": -0.0}, "label": "Au", "xyz": [-1.6819667879037226, -3.6072636225, -5.18687777016264]}, {"species": [{"element": "Au", "occu": 1}], "abc": [0.75, 0.7428419900000001, 0.90158025], "properties": {"magmom": -0.0}, "label": "Au", "xyz": [-5.145055662903723, -3.6072636225, -7.814559189837359]}, {"species": [{"element": "Au", "occu": 1}], "abc": [0.25, 0.75715801, 0.40158025], "properties": {"magmom": -0.0}, "label": "Au", "xyz": [-5.244210962096278, -1.2024212075, -3.4807468698373603]}, {"species": [{"element": "Au", "occu": 1}], "abc": [0.25, 0.25715801, 0.09841975], "properties": {"magmom": -0.0}, "label": "Au", "xyz": [-1.7811220870962774, -1.2024212075, -0.85306545016264]}]}, "task_ids": null, "uncorrected_energy_per_atom": null, "energy_per_atom": -43.02568137416667, "formation_energy_per_atom": -0.7774412019444461, "energy_above_hull": 0.0, "is_stable": true, "equilibrium_reaction_energy_per_atom": null, "decomposes_to": null, "xas": null, "grain_boundaries": null, "band_gap": 0.0, "cbm": null, "vbm": null, "efermi": 3.74411241, "is_gap_direct": null, "is_metal": null, "es_source_calc_id": null, "bandstructure": null, "dos": null, "dos_energy_up": null, "dos_energy_down": null, "is_magnetic": null, "ordering": null, "total_magnetization": 2e-07, "total_magnetization_normalized_vol": null, "total_magnetization_normalized_formula_units": null, "num_magnetic_sites": null, "num_unique_magnetic_sites": null, "types_of_magnetic_species": null, "bulk_modulus": null, "shear_modulus": null, "universal_anisotropy": null, "homogeneous_poisson": null, "e_total": null, "e_ionic": null, "e_electronic": null, "n": null, "e_ij_max": null, "weighted_surface_energy_EV_PER_ANG2": null, "weighted_surface_energy": null, "weighted_work_function": null, "surface_anisotropy": null, "shape_factor": null, "has_reconstructed": null, "possible_species": null, "has_props": null, "theoretical": null, "database_IDs": null, "fields_not_requested": ["builder_meta", "nsites", "elements", "nelements", "composition", "composition_reduced", "chemsys", "symmetry", "property_name", "deprecated", "deprecation_reasons", "last_updated", "origins", "warnings", "task_ids", "uncorrected_energy_per_atom", "equilibrium_reaction_energy_per_atom", "decomposes_to", "xas", "grain_boundaries", "cbm", "vbm", "is_gap_direct", "is_metal", "es_source_calc_id", "bandstructure", "dos", "dos_energy_up", "dos_energy_down", "is_magnetic", "ordering", "total_magnetization_normalized_vol", "total_magnetization_normalized_formula_units", "num_magnetic_sites", "num_unique_magnetic_sites", "types_of_magnetic_species", "bulk_modulus", "shear_modulus", "universal_anisotropy", "homogeneous_poisson", "e_total", "e_ionic", "e_electronic", "n", "e_ij_max", "weighted_surface_energy_EV_PER_ANG2", "weighted_surface_energy", "weighted_work_function", "surface_anisotropy", "shape_factor", "has_reconstructed", "possible_species", "has_props", "theoretical", "database_IDs"]}