{
  "builder_meta": null,
  "nsites": null,
  "elements": null,
  "nelements": null,
  "composition": null,
  "composition_reduced": null,
  "formula_pretty": "Lu2C3",
  "formula_anonymous": "A2B3",
  "chemsys": null,
  "volume": 257.1003888807674,
  "density": 9.971385733383247,
  "density_atomic": 12.855019444038371,
  "symmetry": null,
  "property_name": null,
  "material_id": "mp-15319",
  "deprecated": null,
  "deprecation_reasons": null,
  "last_updated": null,
  "origins": null,
  "warnings": null,
  "structure": {
    "@module": "pymatgen.core.structure",
    "@class": "Structure",
    "charge": 0,
    "lattice": {
      "matrix": [
        [-4.005723, 4.005723, 4.005723],
        [4.005723, -4.005723, 4.005723],
        [4.005723, 4.005723, -4.005723]
      ],
      "pbc": [true, true, true],
      "a": 6.938115757047225,
      "b": 6.938115757047225,
      "c": 6.938115757047225,
      "alpha": 109.47122063449069,
      "beta": 109.47122063449069,
      "gamma": 109.47122063449069,
      "volume": 257.1003888807674
    },
    "properties": {},
    "sites": [
      {
        "species": [{ "element": "Lu", "occu": 1 }],
        "abc": [0.5, 0.0, 0.600285],
        "properties": { "magmom": -0.001 },
        "label": "Lu",
        "xyz": [0.40171393105499975, 4.407436931054999, -0.40171393105499975]
      },
      {
        "species": [{ "element": "Lu", "occu": 1 }],
        "abc": [0.100285, 0.5, 0.0],
        "properties": { "magmom": -0.001 },
        "label": "Lu",
        "xyz": [1.6011475689449999, -1.6011475689449999, 2.404575431055]
      },
      {
        "species": [{ "element": "Lu", "occu": 1 }],
        "abc": [0.399715, 0.399715, 0.399715],
        "properties": { "magmom": -0.001 },
        "label": "Lu",
        "xyz": [1.6011475689449999, 1.6011475689449999, 1.6011475689449999]
      },
      {
        "species": [{ "element": "Lu", "occu": 1 }],
        "abc": [0.0, 0.100285, 0.5],
        "properties": { "magmom": -0.001 },
        "label": "Lu",
        "xyz": [2.404575431055, 1.6011475689449999, -1.6011475689449999]
      },
      {
        "species": [{ "element": "Lu", "occu": 1 }],
        "abc": [0.899714999999999, 0.899714999999999, 0.899714999999999],
        "properties": { "magmom": -0.001 },
        "label": "Lu",
        "xyz": [3.604009068944996, 3.604009068944996, 3.604009068944996]
      },
      {
        "species": [{ "element": "Lu", "occu": 1 }],
        "abc": [0.0, 0.600285, 0.5],
        "properties": { "magmom": -0.001 },
        "label": "Lu",
        "xyz": [4.407436931054999, -0.40171393105499975, 0.40171393105499975]
      },
      {
        "species": [{ "element": "Lu", "occu": 1 }],
        "abc": [0.600285, 0.5, 0.0],
        "properties": { "magmom": -0.001 },
        "label": "Lu",
        "xyz": [-0.40171393105499975, 0.40171393105499975, 4.407436931054999]
      },
      {
        "species": [{ "element": "Lu", "occu": 1 }],
        "abc": [0.5, 0.0, 0.100285],
        "properties": { "magmom": -0.001 },
        "label": "Lu",
        "xyz": [-1.6011475689449999, 2.404575431055, 1.6011475689449999]
      },
      {
        "species": [{ "element": "C", "occu": 1 }],
        "abc": [0.7910200000000001, 0.25, 0.04102],
        "properties": { "magmom": -0.0 },
        "label": "C",
        "xyz": [-2.0028615, 2.33149101492, 4.005723]
      },
      {
        "species": [{ "element": "C", "occu": 1 }],
        "abc": [0.95898, 0.25, 0.20898000000000003],
        "properties": { "magmom": -0.0 },
        "label": "C",
        "xyz": [-2.0028615, 3.6770934850800003, 4.005723]
      },
      {
        "species": [{ "element": "C", "occu": 1 }],
        "abc": [0.75, 0.29102, 0.5410200000000001],
        "properties": { "magmom": -0.0 },
        "label": "C",
        "xyz": [0.32862951492000003, 4.005723, 2.0028614999999994]
      },
      {
        "species": [{ "element": "C", "occu": 1 }],
        "abc": [0.20898000000000003, 0.95898, 0.25],
        "properties": { "magmom": -0.0 },
        "label": "C",
        "xyz": [4.005723, -2.0028615, 3.6770934850800003]
      },
      {
        "species": [{ "element": "C", "occu": 1 }],
        "abc": [0.25, 0.20898000000000003, 0.95898],
        "properties": { "magmom": -0.0 },
        "label": "C",
        "xyz": [3.6770934850800003, 4.005723, -2.0028615]
      },
      {
        "species": [{ "element": "C", "occu": 1 }],
        "abc": [0.29102, 0.5410200000000001, 0.75],
        "properties": { "magmom": -0.0 },
        "label": "C",
        "xyz": [4.005723, 2.0028615, 0.32862951492000025]
      },
      {
        "species": [{ "element": "C", "occu": 1 }],
        "abc": [0.70898, 0.75, 0.45898000000000005],
        "properties": { "magmom": -0.0 },
        "label": "C",
        "xyz": [2.0028615, 1.6742319850800005, 4.005723]
      },
      {
        "species": [{ "element": "C", "occu": 1 }],
        "abc": [0.04102, 0.7910200000000001, 0.25],
        "properties": { "magmom": -0.0 },
        "label": "C",
        "xyz": [4.005723, -2.0028615, 2.33149101492]
      },
      {
        "species": [{ "element": "C", "occu": 1 }],
        "abc": [0.5410200000000001, 0.75, 0.29102],
        "properties": { "magmom": -0.0 },
        "label": "C",
        "xyz": [2.0028615, 0.32862951492000003, 4.005723000000001]
      },
      {
        "species": [{ "element": "C", "occu": 1 }],
        "abc": [0.75, 0.45898000000000005, 0.70898],
        "properties": { "magmom": -0.0 },
        "label": "C",
        "xyz": [1.6742319850800005, 4.005723, 2.0028615]
      },
      {
        "species": [{ "element": "C", "occu": 1 }],
        "abc": [0.25, 0.04102, 0.7910200000000001],
        "properties": { "magmom": -0.0 },
        "label": "C",
        "xyz": [2.33149101492, 4.005723, -2.0028615]
      },
      {
        "species": [{ "element": "C", "occu": 1 }],
        "abc": [0.45898000000000005, 0.70898, 0.75],
        "properties": { "magmom": -0.0 },
        "label": "C",
        "xyz": [4.005723, 2.0028615, 1.6742319850800005]
      }
    ]
  },
  "task_ids": null,
  "uncorrected_energy_per_atom": null,
  "energy_per_atom": -7.6132704175,
  "formation_energy_per_atom": -0.267396140666667,
  "energy_above_hull": 0.08779652878000001,
  "is_stable": false,
  "equilibrium_reaction_energy_per_atom": null,
  "decomposes_to": null,
  "xas": null,
  "grain_boundaries": null,
  "band_gap": 0.0,
  "cbm": null,
  "vbm": null,
  "efermi": 5.242897,
  "is_gap_direct": null,
  "is_metal": null,
  "es_source_calc_id": null,
  "bandstructure": null,
  "dos": null,
  "dos_energy_up": null,
  "dos_energy_down": null,
  "is_magnetic": null,
  "ordering": null,
  "total_magnetization": 0.039011199999999004,
  "total_magnetization_normalized_vol": null,
  "total_magnetization_normalized_formula_units": null,
  "num_magnetic_sites": null,
  "num_unique_magnetic_sites": null,
  "types_of_magnetic_species": null,
  "bulk_modulus": null,
  "shear_modulus": null,
  "universal_anisotropy": null,
  "homogeneous_poisson": null,
  "e_total": null,
  "e_ionic": null,
  "e_electronic": null,
  "n": null,
  "e_ij_max": null,
  "weighted_surface_energy_EV_PER_ANG2": null,
  "weighted_surface_energy": null,
  "weighted_work_function": null,
  "surface_anisotropy": null,
  "shape_factor": null,
  "has_reconstructed": null,
  "possible_species": null,
  "has_props": null,
  "theoretical": null,
  "database_IDs": null,
  "fields_not_requested": [
    "builder_meta",
    "nsites",
    "elements",
    "nelements",
    "composition",
    "composition_reduced",
    "chemsys",
    "symmetry",
    "property_name",
    "deprecated",
    "deprecation_reasons",
    "last_updated",
    "origins",
    "warnings",
    "task_ids",
    "uncorrected_energy_per_atom",
    "equilibrium_reaction_energy_per_atom",
    "decomposes_to",
    "xas",
    "grain_boundaries",
    "cbm",
    "vbm",
    "is_gap_direct",
    "is_metal",
    "es_source_calc_id",
    "bandstructure",
    "dos",
    "dos_energy_up",
    "dos_energy_down",
    "is_magnetic",
    "ordering",
    "total_magnetization_normalized_vol",
    "total_magnetization_normalized_formula_units",
    "num_magnetic_sites",
    "num_unique_magnetic_sites",
    "types_of_magnetic_species",
    "bulk_modulus",
    "shear_modulus",
    "universal_anisotropy",
    "homogeneous_poisson",
    "e_total",
    "e_ionic",
    "e_electronic",
    "n",
    "e_ij_max",
    "weighted_surface_energy_EV_PER_ANG2",
    "weighted_surface_energy",
    "weighted_work_function",
    "surface_anisotropy",
    "shape_factor",
    "has_reconstructed",
    "possible_species",
    "has_props",
    "theoretical",
    "database_IDs"
  ]
}
