{
  "builder_meta": null,
  "nsites": null,
  "elements": null,
  "nelements": null,
  "composition": null,
  "composition_reduced": null,
  "formula_pretty": "Lu2Co7",
  "formula_anonymous": "A2B7",
  "chemsys": null,
  "volume": 249.1350528747308,
  "density": 10.16400680226731,
  "density_atomic": 13.840836270818379,
  "symmetry": null,
  "property_name": null,
  "material_id": "mp-1189949",
  "deprecated": null,
  "deprecation_reasons": null,
  "last_updated": null,
  "origins": null,
  "warnings": null,
  "structure": {
    "@module": "pymatgen.core.structure",
    "@class": "Structure",
    "charge": 0,
    "lattice": {
      "matrix": [
        [-2.451979, -4.246952999999999, 0.0],
        [-4.903959, 0.0, 0.0],
        [-2.451979, -1.415651, -11.962185999999999]
      ],
      "pbc": [true, true, true],
      "a": 4.903958686678548,
      "b": 4.903959,
      "c": 12.292687365618551,
      "alpha": 78.49423839652694,
      "beta": 78.49423785215681,
      "gamma": 60.000004632001286,
      "volume": 249.13505287473066
    },
    "properties": {},
    "sites": [
      {
        "species": [{ "element": "Lu", "occu": 1 }],
        "abc": [0.9481400000000001, 0.9481400000000001, 0.155579],
        "properties": { "magmom": -0.276 },
        "label": "Lu",
        "xyz": [-7.355935496161001, -4.246951584348999, -1.8610649356939999]
      },
      {
        "species": [{ "element": "Lu", "occu": 1 }],
        "abc": [0.05186, 0.05186, 0.844421],
        "properties": { "magmom": -0.276 },
        "label": "Lu",
        "xyz": [-2.451981503839, -1.415652415651, -10.101121064306]
      },
      {
        "species": [{ "element": "Lu", "occu": 1 }],
        "abc": [0.851851999999999, 0.851851999999999, 0.444444],
        "properties": { "magmom": -0.37 },
        "label": "Lu",
        "xyz": [-7.355937851851993, -4.246952999999994, -5.316521794583999]
      },
      {
        "species": [{ "element": "Lu", "occu": 1 }],
        "abc": [0.148148, 0.148148, 0.555557],
        "properties": { "magmom": -0.37 },
        "label": "Lu",
        "xyz": [-2.451981600127, -1.4156524156509998, -6.645676167601999]
      },
      {
        "species": [{ "element": "Co", "occu": 1 }],
        "abc": [0.5, 0.5, 0.5],
        "properties": { "magmom": 1.504 },
        "label": "Co",
        "xyz": [-4.9039585, -2.831301999999999, -5.9810929999999995]
      },
      {
        "species": [{ "element": "Co", "occu": 1 }],
        "abc": [0.721892, 0.721892, 0.834324],
        "properties": { "magmom": 1.377 },
        "label": "Co",
        "xyz": [-7.355937721892, -4.246952999999999, -9.980338872264]
      },
      {
        "species": [{ "element": "Co", "occu": 1 }],
        "abc": [0.278107999999999, 0.278107999999999, 0.165676],
        "properties": { "magmom": 1.377 },
        "label": "Co",
        "xyz": [-2.451979278107993, -1.4156509999999953, -1.9818471277359997]
      },
      {
        "species": [{ "element": "Co", "occu": 1 }],
        "abc": [0.61111, 0.61111, 0.16667099999999901],
        "properties": { "magmom": 1.327 },
        "label": "Co",
        "xyz": [-4.903961063088998, -2.831303415650998, -1.993749502805988]
      },
      {
        "species": [{ "element": "Co", "occu": 1 }],
        "abc": [0.38889, 0.38889, 0.833329],
        "properties": { "magmom": 1.327 },
        "label": "Co",
        "xyz": [-4.903955936911, -2.8313005843489996, -9.968436497193998]
      },
      {
        "species": [{ "element": "Co", "occu": 1 }],
        "abc": [0.0, 0.5, 0.0],
        "properties": { "magmom": 1.165 },
        "label": "Co",
        "xyz": [-2.4519795, 0.0, 0.0]
      },
      {
        "species": [{ "element": "Co", "occu": 1 }],
        "abc": [0.5, 0.0, 0.0],
        "properties": { "magmom": 1.165 },
        "label": "Co",
        "xyz": [-1.2259895, -2.1234764999999993, 0.0]
      },
      {
        "species": [{ "element": "Co", "occu": 1 }],
        "abc": [0.5, 0.5, 0.0],
        "properties": { "magmom": 1.165 },
        "label": "Co",
        "xyz": [-3.677969, -2.1234764999999993, 0.0]
      },
      {
        "species": [{ "element": "Co", "occu": 1 }],
        "abc": [0.388812, 0.388812, 0.330895999999999],
        "properties": { "magmom": 1.422 },
        "label": "Co",
        "xyz": [-3.6714270088399976, -2.1196995431319983, -3.958239498655988]
      },
      {
        "species": [{ "element": "Co", "occu": 1 }],
        "abc": [0.891481, 0.388812, 0.330895999999999],
        "properties": { "magmom": 1.422 },
        "label": "Co",
        "xyz": [-4.903960840790998, -4.254511160688997, -3.958239498655988]
      },
      {
        "species": [{ "element": "Co", "occu": 1 }],
        "abc": [0.388812, 0.891481, 0.330895999999999],
        "properties": { "magmom": 1.422 },
        "label": "Co",
        "xyz": [-6.136495175410998, -2.1196995431319983, -3.958239498655988]
      },
      {
        "species": [{ "element": "Co", "occu": 1 }],
        "abc": [0.611188, 0.611188, 0.669103999999999],
        "properties": { "magmom": 1.422 },
        "label": "Co",
        "xyz": [-6.136489991159998, -3.5429044568679977, -8.003946501343988]
      },
      {
        "species": [{ "element": "Co", "occu": 1 }],
        "abc": [0.108518999999999, 0.611188, 0.669103999999999],
        "properties": { "magmom": 1.422 },
        "label": "Co",
        "xyz": [-4.903956159208995, -1.4080928393109942, -8.003946501343988]
      },
      {
        "species": [{ "element": "Co", "occu": 1 }],
        "abc": [0.611188, 0.108518999999999, 0.669103999999999],
        "properties": { "magmom": 1.422 },
        "label": "Co",
        "xyz": [-3.671421824588993, -3.5429044568679977, -8.003946501343988]
      }
    ]
  },
  "task_ids": null,
  "uncorrected_energy_per_atom": null,
  "energy_per_atom": -6.738608267222222,
  "formation_energy_per_atom": -0.185575828703704,
  "energy_above_hull": 0.0,
  "is_stable": true,
  "equilibrium_reaction_energy_per_atom": null,
  "decomposes_to": null,
  "xas": null,
  "grain_boundaries": null,
  "band_gap": 0.0,
  "cbm": null,
  "vbm": null,
  "efermi": 4.59436736,
  "is_gap_direct": null,
  "is_metal": null,
  "es_source_calc_id": null,
  "bandstructure": null,
  "dos": null,
  "dos_energy_up": null,
  "dos_energy_down": null,
  "is_magnetic": null,
  "ordering": null,
  "total_magnetization": 16.5643798,
  "total_magnetization_normalized_vol": null,
  "total_magnetization_normalized_formula_units": null,
  "num_magnetic_sites": null,
  "num_unique_magnetic_sites": null,
  "types_of_magnetic_species": null,
  "bulk_modulus": null,
  "shear_modulus": null,
  "universal_anisotropy": null,
  "homogeneous_poisson": null,
  "e_total": null,
  "e_ionic": null,
  "e_electronic": null,
  "n": null,
  "e_ij_max": null,
  "weighted_surface_energy_EV_PER_ANG2": null,
  "weighted_surface_energy": null,
  "weighted_work_function": null,
  "surface_anisotropy": null,
  "shape_factor": null,
  "has_reconstructed": null,
  "possible_species": null,
  "has_props": null,
  "theoretical": null,
  "database_IDs": null,
  "fields_not_requested": [
    "builder_meta",
    "nsites",
    "elements",
    "nelements",
    "composition",
    "composition_reduced",
    "chemsys",
    "symmetry",
    "property_name",
    "deprecated",
    "deprecation_reasons",
    "last_updated",
    "origins",
    "warnings",
    "task_ids",
    "uncorrected_energy_per_atom",
    "equilibrium_reaction_energy_per_atom",
    "decomposes_to",
    "xas",
    "grain_boundaries",
    "cbm",
    "vbm",
    "is_gap_direct",
    "is_metal",
    "es_source_calc_id",
    "bandstructure",
    "dos",
    "dos_energy_up",
    "dos_energy_down",
    "is_magnetic",
    "ordering",
    "total_magnetization_normalized_vol",
    "total_magnetization_normalized_formula_units",
    "num_magnetic_sites",
    "num_unique_magnetic_sites",
    "types_of_magnetic_species",
    "bulk_modulus",
    "shear_modulus",
    "universal_anisotropy",
    "homogeneous_poisson",
    "e_total",
    "e_ionic",
    "e_electronic",
    "n",
    "e_ij_max",
    "weighted_surface_energy_EV_PER_ANG2",
    "weighted_surface_energy",
    "weighted_work_function",
    "surface_anisotropy",
    "shape_factor",
    "has_reconstructed",
    "possible_species",
    "has_props",
    "theoretical",
    "database_IDs"
  ]
}
