{"builder_meta": null, "nsites": null, "elements": null, "nelements": null, "composition": null, "composition_reduced": null, "formula_pretty": "Lu2Ge3", "formula_anonymous": "A2B3", "chemsys": null, "volume": 111.75492107478112, "density": 8.437603839334313, "density_atomic": 22.350984214956224, "symmetry": null, "property_name": null, "material_id": "mp-1222385", "deprecated": null, "deprecation_reasons": null, "last_updated": null, "origins": null, "warnings": null, "structure": {"@module": "pymatgen.core.structure", "@class": "Structure", "charge": 0, "lattice": {"matrix": [[-2.163429, -3.771025, 0.0], [-2.163567, 3.771103, 0.0], [0.0, 0.0, -6.848828]], "pbc": [true, true, true], "a": 4.347534311384558, "b": 4.347670640710724, "c": 6.848828, "alpha": 90.0, "beta": 90.0, "gamma": 120.31333130977815, "volume": 111.75492107478112}, "properties": {}, "sites": [{"species": [{"element": "Lu", "occu": 1}], "abc": [0.999949, 4.4000000000000006e-05, 0.020773999999999], "properties": {"magmom": 0.0}, "label": "Lu", "xyz": [-2.163413862069, -3.7706667491929995, -0.14227755287199317]}, {"species": [{"element": "Lu", "occu": 1}], "abc": [0.999949, 4.4000000000000006e-05, 0.479226], "properties": {"magmom": 0.0}, "label": "Lu", "xyz": [-2.163413862069, -3.7706667491929995, -3.282136447128]}, {"species": [{"element": "Ge", "occu": 1}], "abc": [0.333522, 0.666544999999999, 0.75], "properties": {"magmom": -0.0}, "label": "Ge", "xyz": [-2.163665932952998, 1.2558900490849965, -5.136621]}, {"species": [{"element": "Ge", "occu": 1}], "abc": [0.666748999999999, 0.33311, 0.25], "properties": {"magmom": -0.0}, "label": "Ge", "xyz": [-2.1631699256909975, -1.2581350273949963, -1.712207]}, {"species": [{"element": "Ge", "occu": 1}], "abc": [0.666331999999999, 0.333557, 0.75], "properties": {"magmom": -0.0}, "label": "Ge", "xyz": [-2.163234890246998, -1.2548768269289963, -5.136621]}]}, "task_ids": null, "uncorrected_energy_per_atom": null, "energy_per_atom": -5.002933206, "formation_energy_per_atom": -0.42044151166666605, "energy_above_hull": 0.25859780800000004, "is_stable": false, "equilibrium_reaction_energy_per_atom": null, "decomposes_to": null, "xas": null, "grain_boundaries": null, "band_gap": 0.0, "cbm": null, "vbm": null, "efermi": 3.47815947, "is_gap_direct": null, "is_metal": null, "es_source_calc_id": null, "bandstructure": null, "dos": null, "dos_energy_up": null, "dos_energy_down": null, "is_magnetic": null, "ordering": null, "total_magnetization": 0.0025792, "total_magnetization_normalized_vol": null, "total_magnetization_normalized_formula_units": null, "num_magnetic_sites": null, "num_unique_magnetic_sites": null, "types_of_magnetic_species": null, "bulk_modulus": null, "shear_modulus": null, "universal_anisotropy": null, "homogeneous_poisson": null, "e_total": null, "e_ionic": null, "e_electronic": null, "n": null, "e_ij_max": null, "weighted_surface_energy_EV_PER_ANG2": null, "weighted_surface_energy": null, "weighted_work_function": null, "surface_anisotropy": null, "shape_factor": null, "has_reconstructed": null, "possible_species": null, "has_props": null, "theoretical": null, "database_IDs": null, "fields_not_requested": ["builder_meta", "nsites", "elements", "nelements", "composition", "composition_reduced", "chemsys", "symmetry", "property_name", "deprecated", "deprecation_reasons", "last_updated", "origins", "warnings", "task_ids", "uncorrected_energy_per_atom", "equilibrium_reaction_energy_per_atom", "decomposes_to", "xas", "grain_boundaries", "cbm", "vbm", "is_gap_direct", "is_metal", "es_source_calc_id", "bandstructure", "dos", "dos_energy_up", "dos_energy_down", "is_magnetic", "ordering", "total_magnetization_normalized_vol", "total_magnetization_normalized_formula_units", "num_magnetic_sites", "num_unique_magnetic_sites", "types_of_magnetic_species", "bulk_modulus", "shear_modulus", "universal_anisotropy", "homogeneous_poisson", "e_total", "e_ionic", "e_electronic", "n", "e_ij_max", "weighted_surface_energy_EV_PER_ANG2", "weighted_surface_energy", "weighted_work_function", "surface_anisotropy", "shape_factor", "has_reconstructed", "possible_species", "has_props", "theoretical", "database_IDs"]}