{"builder_meta": null, "nsites": null, "elements": null, "nelements": null, "composition": null, "composition_reduced": null, "formula_pretty": "Lu2N3", "formula_anonymous": "A2B3", "chemsys": null, "volume": 597.2118764741504, "density": 8.718582077859459, "density_atomic": 14.930296911853759, "symmetry": null, "property_name": null, "material_id": "mp-1200511", "deprecated": null, "deprecation_reasons": null, "last_updated": null, "origins": null, "warnings": null, "structure": {"@module": "pymatgen.core.structure", "@class": "Structure", "charge": 0, "lattice": {"matrix": [[-5.30505, 5.30505, 5.30505], [5.30505, -5.30505, 5.30505], [5.30505, 5.30505, -5.30505]], "pbc": [true, true, true], "a": 9.188616136693271, "b": 9.188616136693271, "c": 9.188616136693271, "alpha": 109.47122063449069, "beta": 109.47122063449069, "gamma": 109.47122063449069, "volume": 597.2118764741504}, "properties": {}, "sites": [{"species": [{"element": "Lu", "occu": 1}], "abc": [0.5, 0.0, 0.0], "properties": {"magmom": 0.1}, "label": "Lu", "xyz": [-2.652525, 2.652525, 2.652525]}, {"species": [{"element": "Lu", "occu": 1}], "abc": [0.0, 0.5, 0.0], "properties": {"magmom": 0.12}, "label": "Lu", "xyz": [2.652525, -2.652525, 2.652525]}, {"species": [{"element": "Lu", "occu": 1}], "abc": [0.0, 0.0, 0.5], "properties": {"magmom": 0.106}, "label": "Lu", "xyz": [2.652525, 2.652525, -2.652525]}, {"species": [{"element": "Lu", "occu": 1}], "abc": [0.5, 0.5, 0.5], "properties": {"magmom": 0.12}, "label": "Lu", "xyz": [2.652525, 2.652525, 2.652525]}, {"species": [{"element": "Lu", "occu": 1}], "abc": [0.46922899999999906, 0.25, 0.719229], "properties": {"magmom": 0.136}, "label": "Lu", "xyz": [2.652525000000005, 4.978566612899995, -5.329070518200751e-15]}, {"species": [{"element": "Lu", "occu": 1}], "abc": [0.030771, 0.75, 0.780771], "properties": {"magmom": 0.137}, "label": "Lu", "xyz": [7.957575, 0.32648338710000013, 0.0]}, {"species": [{"element": "Lu", "occu": 1}], "abc": [0.25, 0.719229, 0.46922899999999906], "properties": {"magmom": 0.139}, "label": "Lu", "xyz": [4.978566612899995, -5.329070518200751e-15, 2.652525000000005]}, {"species": [{"element": "Lu", "occu": 1}], "abc": [0.75, 0.780771, 0.030771], "properties": {"magmom": 0.132}, "label": "Lu", "xyz": [0.32648338710000024, -3.0531133177191805e-16, 7.957574999999999]}, {"species": [{"element": "Lu", "occu": 1}], "abc": [0.719229, 0.46922899999999906, 0.25], "properties": {"magmom": 0.131}, "label": "Lu", "xyz": [-5.329070518200751e-15, 2.652525000000005, 4.978566612899995]}, {"species": [{"element": "Lu", "occu": 1}], "abc": [0.780771, 0.030771, 0.75], "properties": {"magmom": 0.13}, "label": "Lu", "xyz": [-4.440892098500626e-16, 7.957575, 0.32648338710000013]}, {"species": [{"element": "Lu", "occu": 1}], "abc": [0.530771, 0.75, 0.280771], "properties": {"magmom": 0.136}, "label": "Lu", "xyz": [2.652525, 0.3264833870999997, 5.30505]}, {"species": [{"element": "Lu", "occu": 1}], "abc": [0.969229, 0.25, 0.219228999999999], "properties": {"magmom": 0.137}, "label": "Lu", "xyz": [-2.652525000000005, 4.978566612899995, 5.305050000000005]}, {"species": [{"element": "Lu", "occu": 1}], "abc": [0.75, 0.280771, 0.530771], "properties": {"magmom": 0.139}, "label": "Lu", "xyz": [0.3264833870999997, 5.30505, 2.652525]}, {"species": [{"element": "Lu", "occu": 1}], "abc": [0.25, 0.219228999999999, 0.969229], "properties": {"magmom": 0.132}, "label": "Lu", "xyz": [4.978566612899995, 5.305050000000005, -2.652525000000005]}, {"species": [{"element": "Lu", "occu": 1}], "abc": [0.280771, 0.530771, 0.75], "properties": {"magmom": 0.131}, "label": "Lu", "xyz": [5.30505, 2.652525, 0.32648338709999924]}, {"species": [{"element": "Lu", "occu": 1}], "abc": [0.219228999999999, 0.969229, 0.25], "properties": {"magmom": 0.13}, "label": "Lu", "xyz": [5.305050000000005, -2.652525000000005, 4.978566612899995]}, {"species": [{"element": "N", "occu": 1}], "abc": [0.530928, 0.770042999999999, 0.539323], "properties": {"magmom": 0.676}, "label": "N", "xyz": [4.1296525118999945, 1.5926184504000052, 4.040580722399994]}, {"species": [{"element": "N", "occu": 1}], "abc": [0.7692800000000001, 0.729957, 0.260885], "properties": {"magmom": 0.644}, "label": "N", "xyz": [1.1753974880999998, 1.5926184503999998, 6.5695192775999995]}, {"species": [{"element": "N", "occu": 1}], "abc": [0.969071999999999, 0.508394999999999, 0.239115], "properties": {"magmom": 0.681}, "label": "N", "xyz": [-1.1753974881, 3.7124315495999998, 6.569519277599989]}, {"species": [{"element": "N", "occu": 1}], "abc": [0.73072, 0.991605, 0.960677], "properties": {"magmom": 0.63}, "label": "N", "xyz": [6.480447488099999, 3.7124315495999998, 4.0405807224]}, {"species": [{"element": "N", "occu": 1}], "abc": [0.770042999999999, 0.539323, 0.530928], "properties": {"magmom": 0.654}, "label": "N", "xyz": [1.5926184504000052, 4.040580722399994, 4.1296525118999945]}, {"species": [{"element": "N", "occu": 1}], "abc": [0.729957, 0.260885, 0.7692800000000001], "properties": {"magmom": 0.651}, "label": "N", "xyz": [1.5926184503999998, 6.5695192775999995, 1.1753974880999998]}, {"species": [{"element": "N", "occu": 1}], "abc": [0.508394999999999, 0.239115, 0.969071999999999], "properties": {"magmom": 0.628}, "label": "N", "xyz": [3.7124315495999998, 6.569519277599989, -1.1753974880999998]}, {"species": [{"element": "N", "occu": 1}], "abc": [0.991605, 0.960677, 0.73072], "properties": {"magmom": 0.644}, "label": "N", "xyz": [3.7124315495999998, 4.0405807224, 6.480447488099999]}, {"species": [{"element": "N", "occu": 1}], "abc": [0.539323, 0.530928, 0.770042999999999], "properties": {"magmom": 0.663}, "label": "N", "xyz": [4.040580722399994, 4.1296525118999945, 1.5926184504000052]}, {"species": [{"element": "N", "occu": 1}], "abc": [0.260885, 0.7692800000000001, 0.729957], "properties": {"magmom": 0.629}, "label": "N", "xyz": [6.5695192775999995, 1.1753974880999998, 1.5926184503999998]}, {"species": [{"element": "N", "occu": 1}], "abc": [0.239115, 0.969071999999999, 0.508394999999999], "properties": {"magmom": 0.64}, "label": "N", "xyz": [6.569519277599989, -1.1753974880999998, 3.7124315495999998]}, {"species": [{"element": "N", "occu": 1}], "abc": [0.960677, 0.73072, 0.991605], "properties": {"magmom": 0.661}, "label": "N", "xyz": [4.0405807224, 6.480447488099999, 3.7124315495999998]}, {"species": [{"element": "N", "occu": 1}], "abc": [0.469072, 0.229957, 0.460677], "properties": {"magmom": 0.676}, "label": "N", "xyz": [1.1753974880999998, 3.7124315495999998, 1.2644692776]}, {"species": [{"element": "N", "occu": 1}], "abc": [0.23072, 0.270043, 0.739115], "properties": {"magmom": 0.644}, "label": "N", "xyz": [4.129652511899999, 3.7124315495999998, -1.2644692775999995]}, {"species": [{"element": "N", "occu": 1}], "abc": [0.030927999999999, 0.491604999999999, 0.760884999999999], "properties": {"magmom": 0.681}, "label": "N", "xyz": [6.480447488099994, 1.5926184503999945, -1.2644692776000053]}, {"species": [{"element": "N", "occu": 1}], "abc": [0.26928, 0.008395, 0.039323], "properties": {"magmom": 0.63}, "label": "N", "xyz": [-1.1753974880999998, 1.5926184503999998, 1.2644692776]}, {"species": [{"element": "N", "occu": 1}], "abc": [0.229957, 0.460677, 0.469072], "properties": {"magmom": 0.654}, "label": "N", "xyz": [3.7124315495999998, 1.2644692776, 1.1753974880999998]}, {"species": [{"element": "N", "occu": 1}], "abc": [0.270043, 0.739115, 0.23072], "properties": {"magmom": 0.651}, "label": "N", "xyz": [3.7124315495999998, -1.2644692776, 4.129652511899999]}, {"species": [{"element": "N", "occu": 1}], "abc": [0.491604999999999, 0.760884999999999, 0.030927999999999], "properties": {"magmom": 0.628}, "label": "N", "xyz": [1.5926184503999945, -1.2644692776000053, 6.480447488099994]}, {"species": [{"element": "N", "occu": 1}], "abc": [0.008395, 0.039323, 0.26928], "properties": {"magmom": 0.644}, "label": "N", "xyz": [1.5926184503999998, 1.2644692776, -1.1753974881]}, {"species": [{"element": "N", "occu": 1}], "abc": [0.460677, 0.469072, 0.229957], "properties": {"magmom": 0.663}, "label": "N", "xyz": [1.2644692776, 1.1753974880999998, 3.7124315495999998]}, {"species": [{"element": "N", "occu": 1}], "abc": [0.739115, 0.23072, 0.270043], "properties": {"magmom": 0.629}, "label": "N", "xyz": [-1.2644692775999997, 4.129652511899999, 3.712431549599999]}, {"species": [{"element": "N", "occu": 1}], "abc": [0.760884999999999, 0.030927999999999, 0.491604999999999], "properties": {"magmom": 0.64}, "label": "N", "xyz": [-1.2644692776000053, 6.480447488099994, 1.5926184503999945]}, {"species": [{"element": "N", "occu": 1}], "abc": [0.039323, 0.26928, 0.008395], "properties": {"magmom": 0.661}, "label": "N", "xyz": [1.2644692776, -1.1753974880999998, 1.5926184503999998]}]}, "task_ids": null, "uncorrected_energy_per_atom": null, "energy_per_atom": -21.625577848000002, "formation_energy_per_atom": -0.9163753719166691, "energy_above_hull": 0.8561893342500001, "is_stable": false, "equilibrium_reaction_energy_per_atom": null, "decomposes_to": null, "xas": null, "grain_boundaries": null, "band_gap": 0.0, "cbm": null, "vbm": null, "efermi": 1.639561, "is_gap_direct": null, "is_metal": null, "es_source_calc_id": null, "bandstructure": null, "dos": null, "dos_energy_up": null, "dos_energy_down": null, "is_magnetic": null, "ordering": null, "total_magnetization": 22.7478548, "total_magnetization_normalized_vol": null, "total_magnetization_normalized_formula_units": null, "num_magnetic_sites": null, "num_unique_magnetic_sites": null, "types_of_magnetic_species": null, "bulk_modulus": null, "shear_modulus": null, "universal_anisotropy": null, "homogeneous_poisson": null, "e_total": null, "e_ionic": null, "e_electronic": null, "n": null, "e_ij_max": null, "weighted_surface_energy_EV_PER_ANG2": null, "weighted_surface_energy": null, "weighted_work_function": null, "surface_anisotropy": null, "shape_factor": null, "has_reconstructed": null, "possible_species": null, "has_props": null, "theoretical": null, "database_IDs": null, "fields_not_requested": ["builder_meta", "nsites", "elements", "nelements", "composition", "composition_reduced", "chemsys", "symmetry", "property_name", "deprecated", "deprecation_reasons", "last_updated", "origins", "warnings", "task_ids", "uncorrected_energy_per_atom", "equilibrium_reaction_energy_per_atom", "decomposes_to", "xas", "grain_boundaries", "cbm", "vbm", "is_gap_direct", "is_metal", "es_source_calc_id", "bandstructure", "dos", "dos_energy_up", "dos_energy_down", "is_magnetic", "ordering", "total_magnetization_normalized_vol", "total_magnetization_normalized_formula_units", "num_magnetic_sites", "num_unique_magnetic_sites", "types_of_magnetic_species", "bulk_modulus", "shear_modulus", "universal_anisotropy", "homogeneous_poisson", "e_total", "e_ionic", "e_electronic", "n", "e_ij_max", "weighted_surface_energy_EV_PER_ANG2", "weighted_surface_energy", "weighted_work_function", "surface_anisotropy", "shape_factor", "has_reconstructed", "possible_species", "has_props", "theoretical", "database_IDs"]}