{
  "builder_meta": null,
  "nsites": null,
  "elements": null,
  "nelements": null,
  "composition": null,
  "composition_reduced": null,
  "formula_pretty": "Lu2Pt",
  "formula_anonymous": "AB2",
  "chemsys": null,
  "volume": 275.93047414914184,
  "density": 13.119590125605754,
  "density_atomic": 22.994206179095155,
  "symmetry": null,
  "property_name": null,
  "material_id": "mp-1102319",
  "deprecated": null,
  "deprecation_reasons": null,
  "last_updated": null,
  "origins": null,
  "warnings": null,
  "structure": {
    "@module": "pymatgen.core.structure",
    "@class": "Structure",
    "charge": 0,
    "lattice": {
      "matrix": [
        [-0.0, -4.65337601, 0.0],
        [-6.94302305, 0.0, 0.0],
        [0.0, 0.0, -8.54049246]
      ],
      "pbc": [true, true, true],
      "a": 4.65337601,
      "b": 6.94302305,
      "c": 8.54049246,
      "alpha": 90.0,
      "beta": 90.0,
      "gamma": 90.0,
      "volume": 275.93047414914184
    },
    "properties": {},
    "sites": [
      {
        "species": [{ "element": "Lu", "occu": 1 }],
        "abc": [0.75, 0.64420259, 0.5785737],
        "properties": { "magmom": -0.0 },
        "label": "Lu",
        "xyz": [-4.4727134312397, -3.4900320075, -4.941304322404301]
      },
      {
        "species": [{ "element": "Lu", "occu": 1 }],
        "abc": [0.75, 0.14420159, 0.921426299999999],
        "properties": { "magmom": -0.0 },
        "label": "Lu",
        "xyz": [-1.0011949632166495, -3.4900320075, -7.869434367595689]
      },
      {
        "species": [{ "element": "Lu", "occu": 1 }],
        "abc": [0.25, 0.35579841, 0.4214253],
        "properties": { "magmom": -0.0 },
        "label": "Lu",
        "xyz": [-2.4703165617833505, -1.1633440025, -3.599179597103238]
      },
      {
        "species": [{ "element": "Lu", "occu": 1 }],
        "abc": [0.25, 0.85579841, 0.0785757],
        "properties": { "magmom": -0.0 },
        "label": "Lu",
        "xyz": [-5.94182808678335, -1.1633440025, -0.671075173389222]
      },
      {
        "species": [{ "element": "Lu", "occu": 1 }],
        "abc": [0.75, 0.51091101, 0.1673356],
        "properties": { "magmom": -0.0 },
        "label": "Lu",
        "xyz": [-3.5472669189287807, -3.4900320075, -1.429128430089576]
      },
      {
        "species": [{ "element": "Lu", "occu": 1 }],
        "abc": [0.75, 0.01090901, 0.332664399999999],
        "properties": { "magmom": -0.0 },
        "label": "Lu",
        "xyz": [-0.0757415078826805, -3.4900320075, -2.8411177999104154]
      },
      {
        "species": [{ "element": "Lu", "occu": 1 }],
        "abc": [0.25, 0.48908999000000003, 0.8326654],
        "properties": { "magmom": -0.0 },
        "label": "Lu",
        "xyz": [-3.3957630740942695, -1.1633440025, -7.111372570402883]
      },
      {
        "species": [{ "element": "Lu", "occu": 1 }],
        "abc": [0.25, 0.9890889900000001, 0.6673336],
        "properties": { "magmom": -0.0 },
        "label": "Lu",
        "xyz": [-6.86726765607122, -1.1633440025, -5.699357579104656]
      },
      {
        "species": [{ "element": "Pt", "occu": 1 }],
        "abc": [0.75, 0.24149789, 0.5954824200000001],
        "properties": { "magmom": -0.0 },
        "label": "Pt",
        "xyz": [-1.6767254167963643, -3.4900320075, -5.085713118072554]
      },
      {
        "species": [{ "element": "Pt", "occu": 1 }],
        "abc": [0.75, 0.74149889, 0.90451658],
        "properties": { "magmom": -0.0 },
        "label": "Pt",
        "xyz": [-5.148243884819415, -3.4900320075, -7.725017031434986]
      },
      {
        "species": [{ "element": "Pt", "occu": 1 }],
        "abc": [0.25, 0.7585001100000001, 0.40451458],
        "properties": { "magmom": -0.0 },
        "label": "Pt",
        "xyz": [-5.2662837471575354, -1.1633440025, -3.4547537204500665]
      },
      {
        "species": [{ "element": "Pt", "occu": 1 }],
        "abc": [0.25, 0.25850211, 0.09548442],
        "properties": { "magmom": -0.0 },
        "label": "Pt",
        "xyz": [-1.7947861082036356, -1.1633440025, -0.8154839690574731]
      }
    ]
  },
  "task_ids": null,
  "uncorrected_energy_per_atom": null,
  "energy_per_atom": -43.675618735,
  "formation_energy_per_atom": -1.12645964611111,
  "energy_above_hull": 0.0,
  "is_stable": true,
  "equilibrium_reaction_energy_per_atom": null,
  "decomposes_to": null,
  "xas": null,
  "grain_boundaries": null,
  "band_gap": 0.0,
  "cbm": null,
  "vbm": null,
  "efermi": 4.10549627,
  "is_gap_direct": null,
  "is_metal": null,
  "es_source_calc_id": null,
  "bandstructure": null,
  "dos": null,
  "dos_energy_up": null,
  "dos_energy_down": null,
  "is_magnetic": null,
  "ordering": null,
  "total_magnetization": 6e-7,
  "total_magnetization_normalized_vol": null,
  "total_magnetization_normalized_formula_units": null,
  "num_magnetic_sites": null,
  "num_unique_magnetic_sites": null,
  "types_of_magnetic_species": null,
  "bulk_modulus": null,
  "shear_modulus": null,
  "universal_anisotropy": null,
  "homogeneous_poisson": null,
  "e_total": null,
  "e_ionic": null,
  "e_electronic": null,
  "n": null,
  "e_ij_max": null,
  "weighted_surface_energy_EV_PER_ANG2": null,
  "weighted_surface_energy": null,
  "weighted_work_function": null,
  "surface_anisotropy": null,
  "shape_factor": null,
  "has_reconstructed": null,
  "possible_species": null,
  "has_props": null,
  "theoretical": null,
  "database_IDs": null,
  "fields_not_requested": [
    "builder_meta",
    "nsites",
    "elements",
    "nelements",
    "composition",
    "composition_reduced",
    "chemsys",
    "symmetry",
    "property_name",
    "deprecated",
    "deprecation_reasons",
    "last_updated",
    "origins",
    "warnings",
    "task_ids",
    "uncorrected_energy_per_atom",
    "equilibrium_reaction_energy_per_atom",
    "decomposes_to",
    "xas",
    "grain_boundaries",
    "cbm",
    "vbm",
    "is_gap_direct",
    "is_metal",
    "es_source_calc_id",
    "bandstructure",
    "dos",
    "dos_energy_up",
    "dos_energy_down",
    "is_magnetic",
    "ordering",
    "total_magnetization_normalized_vol",
    "total_magnetization_normalized_formula_units",
    "num_magnetic_sites",
    "num_unique_magnetic_sites",
    "types_of_magnetic_species",
    "bulk_modulus",
    "shear_modulus",
    "universal_anisotropy",
    "homogeneous_poisson",
    "e_total",
    "e_ionic",
    "e_electronic",
    "n",
    "e_ij_max",
    "weighted_surface_energy_EV_PER_ANG2",
    "weighted_surface_energy",
    "weighted_work_function",
    "surface_anisotropy",
    "shape_factor",
    "has_reconstructed",
    "possible_species",
    "has_props",
    "theoretical",
    "database_IDs"
  ]
}
