{"builder_meta": null, "nsites": null, "elements": null, "nelements": null, "composition": null, "composition_reduced": null, "formula_pretty": "Lu2Se3", "formula_anonymous": "A2B3", "chemsys": null, "volume": 536.7983550660795, "density": 7.26103247248484, "density_atomic": 26.839917753303972, "symmetry": null, "property_name": null, "material_id": "mp-1189125", "deprecated": null, "deprecation_reasons": null, "last_updated": null, "origins": null, "warnings": null, "structure": {"@module": "pymatgen.core.structure", "@class": "Structure", "charge": 0, "lattice": {"matrix": [[5.61784838, 4.00243548, -9.635000000000002e-05], [-5.61784838, 4.00243548, -9.635000000000002e-05], [-0.0, -4.00273062, 11.93686639]], "pbc": [true, true, true], "a": 6.897804737850643, "b": 6.897804737850643, "c": 12.590100540861348, "alpha": 100.6313738558823, "beta": 100.6313738558823, "gamma": 109.06406415594547, "volume": 536.7983550660795}, "properties": {}, "sites": [{"species": [{"element": "Lu", "occu": 1}], "abc": [0.70875752, 0.9587979600000001, 0.91762646], "properties": {"magmom": -0.0}, "label": "Lu", "xyz": [-1.404689280788487, 3.0012716888562254, 10.953423779978182]}, {"species": [{"element": "Lu", "occu": 1}], "abc": [0.54120204, 0.79124248, 0.58237354], "properties": {"magmom": -0.0}, "label": "Lu", "xyz": [-1.4046892807884865, 3.0019388211437747, 6.951586755021818]}, {"species": [{"element": "Lu", "occu": 1}], "abc": [0.29124248, 0.04120204, 0.08237354], "properties": {"magmom": -0.0}, "label": "Lu", "xyz": [1.4046892807884872, 1.000868651143775, 0.9832499100218186]}, {"species": [{"element": "Lu", "occu": 1}], "abc": [0.45879796, 0.20875752, 0.41762646000000003], "properties": {"magmom": -0.0}, "label": "Lu", "xyz": [1.4046892807884872, 1.0002015188562248, 4.985086934978182]}, {"species": [{"element": "Lu", "occu": 1}], "abc": [0.37254117000000003, 0.62255866, 0.24518807], "properties": {"magmom": 0.0}, "label": "Lu", "xyz": [-1.4045603511681661, 3.0014010702862652, 2.926681354143347]}, {"species": [{"element": "Lu", "occu": 1}], "abc": [0.8774413400000001, 0.12745883, 0.25481193], "properties": {"magmom": 0.0}, "label": "Lu", "xyz": [4.213288028831834, 3.0021045797137353, 3.0415591408566534]}, {"species": [{"element": "Lu", "occu": 1}], "abc": [0.62745883, 0.37744134, 0.75481193], "properties": {"magmom": 0.0}, "label": "Lu", "xyz": [1.4045603511681661, 1.0007392697137343, 9.009992335856655]}, {"species": [{"element": "Lu", "occu": 1}], "abc": [0.12255866, 0.87254117, 0.74518807], "properties": {"magmom": 0.0}, "label": "Lu", "xyz": [-4.213288028831833, 1.0000357602862646, 8.895114549143347]}, {"species": [{"element": "Se", "occu": 1}], "abc": [0.86874683, 0.11874479, 0.74996441], "properties": {"magmom": -0.0}, "label": "Se", "xyz": [4.2133977454106954, 0.9504659882734425, 8.952129814607593]}, {"species": [{"element": "Se", "occu": 1}], "abc": [0.38125521, 0.63125317, 0.75003559], "properties": {"magmom": -0.0}, "label": "Se", "xyz": [-1.4044506345893049, 1.0503090417265568, 8.952977070392407]}, {"species": [{"element": "Se", "occu": 1}], "abc": [0.13125317, 0.8812552100000001, 0.25003559000000003], "properties": {"magmom": -0.0}, "label": "Se", "xyz": [-4.2133977454106954, 3.0516743517265565, 2.9845438753924074]}, {"species": [{"element": "Se", "occu": 1}], "abc": [0.61874479, 0.36874683, 0.24996441], "properties": {"magmom": -0.0}, "label": "Se", "xyz": [1.4044506345893049, 2.9518312982734436, 2.983696619607593]}, {"species": [{"element": "Se", "occu": 1}], "abc": [0.54790997, 0.80330075, 0.08742712], "properties": {"magmom": -0.0}, "label": "Se", "xyz": [-1.4347466796899364, 5.058186516441931, 1.0434756611496248]}, {"species": [{"element": "Se", "occu": 1}], "abc": [0.69669925, 0.95209003, 0.41257288000000003], "properties": {"magmom": -0.0}, "label": "Se", "xyz": [-1.4347466796899369, 4.947754613558069, 4.924668483850376]}, {"species": [{"element": "Se", "occu": 1}], "abc": [0.21592037, 0.46032897, 0.41260343], "properties": {"magmom": -0.0}, "label": "Se", "xyz": [-1.3730504575680678, 1.0551039685645567, 4.925126859341809]}, {"species": [{"element": "Se", "occu": 1}], "abc": [0.03967103, 0.28407963, 0.08739657], "properties": {"magmom": -0.0}, "label": "Se", "xyz": [-1.3730504575680682, 0.9459662014354435, 1.0432099856581913]}, {"species": [{"element": "Se", "occu": 1}], "abc": [0.45209003000000003, 0.19669925, 0.91257288], "properties": {"magmom": -0.0}, "label": "Se", "xyz": [1.4347466796899364, -1.0560461764419316, 10.893198028850376]}, {"species": [{"element": "Se", "occu": 1}], "abc": [0.30330075, 0.04790997, 0.58742712], "properties": {"magmom": -0.0}, "label": "Se", "xyz": [1.4347466796899364, -0.945614273558069, 7.012005206149625]}, {"species": [{"element": "Se", "occu": 1}], "abc": [0.78407963, 0.53967103, 0.58739657], "properties": {"magmom": -0.0}, "label": "Se", "xyz": [1.373050457568068, 2.947036371435444, 7.011546830658192]}, {"species": [{"element": "Se", "occu": 1}], "abc": [0.9603289700000001, 0.71592037, 0.91260343], "properties": {"magmom": -0.0}, "label": "Se", "xyz": [1.3730504575680689, 3.056174138564556, 10.893463704341809]}]}, "task_ids": null, "uncorrected_energy_per_atom": null, "energy_per_atom": -25.9673875735, "formation_energy_per_atom": -2.148499361604166, "energy_above_hull": 0.0, "is_stable": true, "equilibrium_reaction_energy_per_atom": null, "decomposes_to": null, "xas": null, "grain_boundaries": null, "band_gap": 1.3355000000000001, "cbm": null, "vbm": null, "efermi": 1.97353179, "is_gap_direct": null, "is_metal": null, "es_source_calc_id": null, "bandstructure": null, "dos": null, "dos_energy_up": null, "dos_energy_down": null, "is_magnetic": null, "ordering": null, "total_magnetization": 0.0, "total_magnetization_normalized_vol": null, "total_magnetization_normalized_formula_units": null, "num_magnetic_sites": null, "num_unique_magnetic_sites": null, "types_of_magnetic_species": null, "bulk_modulus": null, "shear_modulus": null, "universal_anisotropy": null, "homogeneous_poisson": null, "e_total": null, "e_ionic": null, "e_electronic": null, "n": null, "e_ij_max": null, "weighted_surface_energy_EV_PER_ANG2": null, "weighted_surface_energy": null, "weighted_work_function": null, "surface_anisotropy": null, "shape_factor": null, "has_reconstructed": null, "possible_species": null, "has_props": null, "theoretical": null, "database_IDs": null, "fields_not_requested": ["builder_meta", "nsites", "elements", "nelements", "composition", "composition_reduced", "chemsys", "symmetry", "property_name", "deprecated", "deprecation_reasons", "last_updated", "origins", "warnings", "task_ids", "uncorrected_energy_per_atom", "equilibrium_reaction_energy_per_atom", "decomposes_to", "xas", "grain_boundaries", "cbm", "vbm", "is_gap_direct", "is_metal", "es_source_calc_id", "bandstructure", "dos", "dos_energy_up", "dos_energy_down", "is_magnetic", "ordering", "total_magnetization_normalized_vol", "total_magnetization_normalized_formula_units", "num_magnetic_sites", "num_unique_magnetic_sites", "types_of_magnetic_species", "bulk_modulus", "shear_modulus", "universal_anisotropy", "homogeneous_poisson", "e_total", "e_ionic", "e_electronic", "n", "e_ij_max", "weighted_surface_energy_EV_PER_ANG2", "weighted_surface_energy", "weighted_work_function", "surface_anisotropy", "shape_factor", "has_reconstructed", "possible_species", "has_props", "theoretical", "database_IDs"]}