{
  "builder_meta": null,
  "nsites": null,
  "elements": null,
  "nelements": null,
  "composition": null,
  "composition_reduced": null,
  "formula_pretty": "Lu2S3",
  "formula_anonymous": "A2B3",
  "chemsys": null,
  "volume": 234.79907691597418,
  "density": 6.310200559334407,
  "density_atomic": 23.47990769159742,
  "symmetry": null,
  "property_name": null,
  "material_id": "mp-2826",
  "deprecated": null,
  "deprecation_reasons": null,
  "last_updated": null,
  "origins": null,
  "warnings": null,
  "structure": {
    "@module": "pymatgen.core.structure",
    "@class": "Structure",
    "charge": 0,
    "lattice": {
      "matrix": [
        [5.92346311, -0.00093032, 4.04415032],
        [2.13523735, 5.52523215, 4.04415032],
        [-0.00135746, -0.00093032, 7.17234753]
      ],
      "pbc": [true, true, true],
      "a": 7.172347446393146,
      "b": 7.172348336701498,
      "c": 7.172347718794039,
      "alpha": 55.68816011542579,
      "beta": 55.68815696808593,
      "gamma": 55.688160753784175,
      "volume": 234.79907691597418
    },
    "properties": {},
    "sites": [
      {
        "species": [{ "element": "Lu", "occu": 1 }],
        "abc": [0.848974599999999, 0.848974599999999, 0.848974599999999],
        "properties": { "magmom": -0.0 },
        "label": "Lu",
        "xyz": [6.840479550487792, 4.68920211835364, 12.955902675866467]
      },
      {
        "species": [{ "element": "Lu", "occu": 1 }],
        "abc": [0.6510254, 0.6510254, 0.6510254],
        "properties": { "magmom": -0.0 },
        "label": "Lu",
        "xyz": [5.2455349495122, 3.5958551466463544, 9.935069579133517]
      },
      {
        "species": [{ "element": "Lu", "occu": 1 }],
        "abc": [0.1510254, 0.1510254, 0.1510254],
        "properties": { "magmom": -0.0 },
        "label": "Lu",
        "xyz": [1.2168634495122002, 0.834169391646354, 2.304745494133518]
      },
      {
        "species": [{ "element": "Lu", "occu": 1 }],
        "abc": [0.348974599999999, 0.348974599999999, 0.348974599999999],
        "properties": { "magmom": -0.0 },
        "label": "Lu",
        "xyz": [2.8118080504877923, 1.9275163633536407, 5.325578590866467]
      },
      {
        "species": [{ "element": "S", "occu": 1 }],
        "abc": [0.054143250000000004, 0.75, 0.44585675],
        "properties": { "magmom": 0.0 },
        "label": "S",
        "xyz": [1.9215383238266526, 4.1434589525, 6.449915741409668]
      },
      {
        "species": [{ "element": "S", "occu": 1 }],
        "abc": [0.75, 0.44585675, 0.054143250000000004],
        "properties": { "magmom": 0.0 },
        "label": "S",
        "xyz": [5.394533820553468, 2.4627139388461727, 5.224558663590332]
      },
      {
        "species": [{ "element": "S", "occu": 1 }],
        "abc": [0.44585675, 0.054143250000000004, 0.75],
        "properties": { "magmom": 0.0 },
        "label": "S",
        "xyz": [2.7556066056198802, 0.2980414961538275, 7.4013358075]
      },
      {
        "species": [{ "element": "S", "occu": 1 }],
        "abc": [0.94585675, 0.25, 0.55414325],
        "properties": { "magmom": 0.0 },
        "label": "S",
        "xyz": [6.135804676173348, 1.3799125575, 8.810732428590331]
      },
      {
        "species": [{ "element": "S", "occu": 1 }],
        "abc": [0.55414325, 0.94585675, 0.25],
        "properties": { "magmom": 0.0 },
        "label": "S",
        "xyz": [5.30173639438012, 5.225330013846173, 7.8593123625]
      },
      {
        "species": [{ "element": "S", "occu": 1 }],
        "abc": [0.25, 0.55414325, 0.94585675],
        "properties": { "magmom": 0.0 },
        "label": "S",
        "xyz": [2.662809179446533, 3.0606575711538273, 10.036089506409667]
      }
    ]
  },
  "task_ids": null,
  "uncorrected_energy_per_atom": null,
  "energy_per_atom": -22.40641765,
  "formation_energy_per_atom": -2.353466127354164,
  "energy_above_hull": 0.0,
  "is_stable": true,
  "equilibrium_reaction_energy_per_atom": null,
  "decomposes_to": null,
  "xas": null,
  "grain_boundaries": null,
  "band_gap": 2.5664,
  "cbm": null,
  "vbm": null,
  "efermi": 2.35414804,
  "is_gap_direct": null,
  "is_metal": null,
  "es_source_calc_id": null,
  "bandstructure": null,
  "dos": null,
  "dos_energy_up": null,
  "dos_energy_down": null,
  "is_magnetic": null,
  "ordering": null,
  "total_magnetization": 0.0,
  "total_magnetization_normalized_vol": null,
  "total_magnetization_normalized_formula_units": null,
  "num_magnetic_sites": null,
  "num_unique_magnetic_sites": null,
  "types_of_magnetic_species": null,
  "bulk_modulus": null,
  "shear_modulus": null,
  "universal_anisotropy": null,
  "homogeneous_poisson": null,
  "e_total": null,
  "e_ionic": null,
  "e_electronic": null,
  "n": null,
  "e_ij_max": null,
  "weighted_surface_energy_EV_PER_ANG2": null,
  "weighted_surface_energy": null,
  "weighted_work_function": null,
  "surface_anisotropy": null,
  "shape_factor": null,
  "has_reconstructed": null,
  "possible_species": null,
  "has_props": null,
  "theoretical": null,
  "database_IDs": null,
  "fields_not_requested": [
    "builder_meta",
    "nsites",
    "elements",
    "nelements",
    "composition",
    "composition_reduced",
    "chemsys",
    "symmetry",
    "property_name",
    "deprecated",
    "deprecation_reasons",
    "last_updated",
    "origins",
    "warnings",
    "task_ids",
    "uncorrected_energy_per_atom",
    "equilibrium_reaction_energy_per_atom",
    "decomposes_to",
    "xas",
    "grain_boundaries",
    "cbm",
    "vbm",
    "is_gap_direct",
    "is_metal",
    "es_source_calc_id",
    "bandstructure",
    "dos",
    "dos_energy_up",
    "dos_energy_down",
    "is_magnetic",
    "ordering",
    "total_magnetization_normalized_vol",
    "total_magnetization_normalized_formula_units",
    "num_magnetic_sites",
    "num_unique_magnetic_sites",
    "types_of_magnetic_species",
    "bulk_modulus",
    "shear_modulus",
    "universal_anisotropy",
    "homogeneous_poisson",
    "e_total",
    "e_ionic",
    "e_electronic",
    "n",
    "e_ij_max",
    "weighted_surface_energy_EV_PER_ANG2",
    "weighted_surface_energy",
    "weighted_work_function",
    "surface_anisotropy",
    "shape_factor",
    "has_reconstructed",
    "possible_species",
    "has_props",
    "theoretical",
    "database_IDs"
  ]
}
