{
  "builder_meta": null,
  "nsites": null,
  "elements": null,
  "nelements": null,
  "composition": null,
  "composition_reduced": null,
  "formula_pretty": "Lu2Te3",
  "formula_anonymous": "A2B3",
  "chemsys": null,
  "volume": 664.6160970181179,
  "density": 7.322924845697291,
  "density_atomic": 33.2308048509059,
  "symmetry": null,
  "property_name": null,
  "material_id": "mp-1189748",
  "deprecated": null,
  "deprecation_reasons": null,
  "last_updated": null,
  "origins": null,
  "warnings": null,
  "structure": {
    "@module": "pymatgen.core.structure",
    "@class": "Structure",
    "charge": 0,
    "lattice": {
      "matrix": [
        [6.04804809, 4.28872211, 0.0],
        [-6.04804809, 4.28872211, 0.0],
        [0.0, -4.28872211, 12.81143323]
      ],
      "pbc": [true, true, true],
      "a": 7.414312040624909,
      "b": 7.414312040624909,
      "c": 13.510216828147174,
      "alpha": 100.58075136361131,
      "beta": 100.58075136361131,
      "gamma": 109.31844734347047,
      "volume": 664.6160970181179
    },
    "properties": {},
    "sites": [
      {
        "species": [{ "element": "Lu", "occu": 1 }],
        "abc": [0.70778962, 0.95778962, 0.91557924],
        "properties": { "magmom": 0.0 },
        "label": "Lu",
        "xyz": [-1.5120120224999996, 3.216541582499999, 11.729882300034145]
      },
      {
        "species": [{ "element": "Lu", "occu": 1 }],
        "abc": [0.54221038, 0.79221038, 0.58442076],
        "properties": { "magmom": 0.0 },
        "label": "Lu",
        "xyz": [-1.5120120224999996, 3.216541582500001, 7.487267544965855]
      },
      {
        "species": [{ "element": "Lu", "occu": 1 }],
        "abc": [0.29221038, 0.04221038, 0.08442076],
        "properties": { "magmom": 0.0 },
        "label": "Lu",
        "xyz": [1.5120120225, 1.0721805274999998, 1.0815509299658548]
      },
      {
        "species": [{ "element": "Lu", "occu": 1 }],
        "abc": [0.45778962, 0.20778962, 0.41557924],
        "properties": { "magmom": 0.0 },
        "label": "Lu",
        "xyz": [1.5120120224999998, 1.0721805275000003, 5.324165685034146]
      },
      {
        "species": [{ "element": "Lu", "occu": 1 }],
        "abc": [0.37433804, 0.62433804, 0.24867808],
        "properties": { "magmom": -0.0 },
        "label": "Lu",
        "xyz": [-1.5120120225000004, 3.21653300505578, 3.1859226176845983]
      },
      {
        "species": [{ "element": "Lu", "occu": 1 }],
        "abc": [0.8756619600000001, 0.12566196, 0.25132192000000003],
        "properties": { "magmom": -0.0 },
        "label": "Lu",
        "xyz": [4.5360360675, 3.2165501599442203, 3.219793997315402]
      },
      {
        "species": [{ "element": "Lu", "occu": 1 }],
        "abc": [0.62566196, 0.37566196, 0.75132192],
        "properties": { "magmom": -0.0 },
        "label": "Lu",
        "xyz": [1.5120120224999996, 1.0721891049442203, 9.625510612315402]
      },
      {
        "species": [{ "element": "Lu", "occu": 1 }],
        "abc": [0.12433804, 0.87433804, 0.74867808],
        "properties": { "magmom": -0.0 },
        "label": "Lu",
        "xyz": [-4.5360360674999995, 1.0721719500557798, 9.5916392326846]
      },
      {
        "species": [{ "element": "Te", "occu": 1 }],
        "abc": [0.87507715, 0.12507715, 0.75],
        "properties": { "magmom": 0.0 },
        "label": "Te",
        "xyz": [4.5360360675, 1.072842277321573, 9.6085749225]
      },
      {
        "species": [{ "element": "Te", "occu": 1 }],
        "abc": [0.37492285000000003, 0.62492285, 0.75],
        "properties": { "magmom": 0.0 },
        "label": "Te",
        "xyz": [-1.5120120225, 1.0715187776784272, 9.6085749225]
      },
      {
        "species": [{ "element": "Te", "occu": 1 }],
        "abc": [0.12492285, 0.87492285, 0.25],
        "properties": { "magmom": 0.0 },
        "label": "Te",
        "xyz": [-4.5360360675, 3.2158798326784273, 3.2028583075]
      },
      {
        "species": [{ "element": "Te", "occu": 1 }],
        "abc": [0.62507715, 0.37507715, 0.25],
        "properties": { "magmom": 0.0 },
        "label": "Te",
        "xyz": [1.5120120224999996, 3.217203332321573, 3.2028583075]
      },
      {
        "species": [{ "element": "Te", "occu": 1 }],
        "abc": [0.54377407, 0.79608826, 0.08507529],
        "properties": { "magmom": 0.0 },
        "label": "Te",
        "xyz": [-1.526008354909397, 5.381432921789455, 1.0899363973578866]
      },
      {
        "species": [{ "element": "Te", "occu": 1 }],
        "abc": [0.70391174, 0.95622593, 0.41492471000000003],
        "properties": { "magmom": 0.0 },
        "label": "Te",
        "xyz": [-1.526008354909397, 5.340372353210546, 5.315780217642114]
      },
      {
        "species": [{ "element": "Te", "occu": 1 }],
        "abc": [0.21101397, 0.45869978, 0.41492471000000003],
        "properties": { "magmom": 0.0 },
        "label": "Te",
        "xyz": [-1.498015690090603, 1.0927193892336742, 5.315780217642114]
      },
      {
        "species": [{ "element": "Te", "occu": 1 }],
        "abc": [0.04130022, 0.28898603, 0.08507529],
        "properties": { "magmom": 0.0 },
        "label": "Te",
        "xyz": [-1.4980156900906028, 1.0516416657663257, 1.0899363973578866]
      },
      {
        "species": [{ "element": "Te", "occu": 1 }],
        "abc": [0.45622593, 0.20391174, 0.91492471],
        "properties": { "magmom": 0.0 },
        "label": "Te",
        "xyz": [1.526008354909397, -1.0927108117894542, 11.721496832642114]
      },
      {
        "species": [{ "element": "Te", "occu": 1 }],
        "abc": [0.29608926, 0.04377407, 0.58507529],
        "properties": { "magmom": 0.0 },
        "label": "Te",
        "xyz": [1.5260144029574874, -1.0516459544884358, 7.495653012357887]
      },
      {
        "species": [{ "element": "Te", "occu": 1 }],
        "abc": [0.78898603, 0.54130122, 0.58507529],
        "properties": { "magmom": 0.0 },
        "label": "Te",
        "xyz": [1.4980096420425126, 3.1960070094884356, 7.495653012357887]
      },
      {
        "species": [{ "element": "Te", "occu": 1 }],
        "abc": [0.95869878, 0.71101397, 0.91492471],
        "properties": { "magmom": 0.0 },
        "label": "Te",
        "xyz": [1.498009642042513, 3.2370761555115655, 11.721496832642114]
      }
    ]
  },
  "task_ids": null,
  "uncorrected_energy_per_atom": null,
  "energy_per_atom": -5.288796589000003,
  "formation_energy_per_atom": -1.59413807166667,
  "energy_above_hull": 0.0,
  "is_stable": true,
  "equilibrium_reaction_energy_per_atom": null,
  "decomposes_to": null,
  "xas": null,
  "grain_boundaries": null,
  "band_gap": 0.5877999999999991,
  "cbm": null,
  "vbm": null,
  "efermi": 3.9377244300000003,
  "is_gap_direct": null,
  "is_metal": null,
  "es_source_calc_id": null,
  "bandstructure": null,
  "dos": null,
  "dos_energy_up": null,
  "dos_energy_down": null,
  "is_magnetic": null,
  "ordering": null,
  "total_magnetization": 0.0,
  "total_magnetization_normalized_vol": null,
  "total_magnetization_normalized_formula_units": null,
  "num_magnetic_sites": null,
  "num_unique_magnetic_sites": null,
  "types_of_magnetic_species": null,
  "bulk_modulus": null,
  "shear_modulus": null,
  "universal_anisotropy": null,
  "homogeneous_poisson": null,
  "e_total": null,
  "e_ionic": null,
  "e_electronic": null,
  "n": null,
  "e_ij_max": null,
  "weighted_surface_energy_EV_PER_ANG2": null,
  "weighted_surface_energy": null,
  "weighted_work_function": null,
  "surface_anisotropy": null,
  "shape_factor": null,
  "has_reconstructed": null,
  "possible_species": null,
  "has_props": null,
  "theoretical": null,
  "database_IDs": null,
  "fields_not_requested": [
    "builder_meta",
    "nsites",
    "elements",
    "nelements",
    "composition",
    "composition_reduced",
    "chemsys",
    "symmetry",
    "property_name",
    "deprecated",
    "deprecation_reasons",
    "last_updated",
    "origins",
    "warnings",
    "task_ids",
    "uncorrected_energy_per_atom",
    "equilibrium_reaction_energy_per_atom",
    "decomposes_to",
    "xas",
    "grain_boundaries",
    "cbm",
    "vbm",
    "is_gap_direct",
    "is_metal",
    "es_source_calc_id",
    "bandstructure",
    "dos",
    "dos_energy_up",
    "dos_energy_down",
    "is_magnetic",
    "ordering",
    "total_magnetization_normalized_vol",
    "total_magnetization_normalized_formula_units",
    "num_magnetic_sites",
    "num_unique_magnetic_sites",
    "types_of_magnetic_species",
    "bulk_modulus",
    "shear_modulus",
    "universal_anisotropy",
    "homogeneous_poisson",
    "e_total",
    "e_ionic",
    "e_electronic",
    "n",
    "e_ij_max",
    "weighted_surface_energy_EV_PER_ANG2",
    "weighted_surface_energy",
    "weighted_work_function",
    "surface_anisotropy",
    "shape_factor",
    "has_reconstructed",
    "possible_species",
    "has_props",
    "theoretical",
    "database_IDs"
  ]
}
