{"builder_meta": null, "nsites": null, "elements": null, "nelements": null, "composition": null, "composition_reduced": null, "formula_pretty": "Lu3Al2", "formula_anonymous": "A2B3", "chemsys": null, "volume": 475.3552576412534, "density": 8.088488758589795, "density_atomic": 23.76776288206267, "symmetry": null, "property_name": null, "material_id": "mp-16508", "deprecated": null, "deprecation_reasons": null, "last_updated": null, "origins": null, "warnings": null, "structure": {"@module": "pymatgen.core.structure", "@class": "Structure", "charge": 0, "lattice": {"matrix": [[7.43284314, 0.0, 0.0], [0.0, 7.99708417, 1.1900000000000001e-05], [0.0, 1.1900000000000001e-05, 7.99708417]], "pbc": [true, true, true], "a": 7.43284314, "b": 7.997084170008854, "c": 7.997084170008854, "alpha": 89.9998294829061, "beta": 90.0, "gamma": 90.0, "volume": 475.3552576412534}, "properties": {}, "sites": [{"species": [{"element": "Lu", "occu": 1}], "abc": [0.24999941, -0.0, 0.5], "properties": {"magmom": -0.0}, "label": "Lu", "xyz": [1.8582063996225475, 5.950000000000001e-06, 3.998542085]}, {"species": [{"element": "Lu", "occu": 1}], "abc": [0.75000059, -0.0, 0.5], "properties": {"magmom": -0.0}, "label": "Lu", "xyz": [5.574636740377453, 5.950000000000001e-06, 3.998542085]}, {"species": [{"element": "Lu", "occu": 1}], "abc": [0.24999941, 0.5, 0.0], "properties": {"magmom": -0.0}, "label": "Lu", "xyz": [1.8582063996225475, 3.998542085, 5.950000000000001e-06]}, {"species": [{"element": "Lu", "occu": 1}], "abc": [0.75000059, 0.5, 0.0], "properties": {"magmom": -0.0}, "label": "Lu", "xyz": [5.574636740377453, 3.998542085, 5.950000000000001e-06]}, {"species": [{"element": "Lu", "occu": 1}], "abc": [-0.0, 0.34826758, 0.34826758], "properties": {"magmom": -0.0}, "label": "Lu", "xyz": [0.0, 2.785129295326411, 2.785129295326411]}, {"species": [{"element": "Lu", "occu": 1}], "abc": [0.5, 0.15173152, 0.84826848], "properties": {"magmom": 0.0}, "label": "Lu", "xyz": [3.71642157, 1.2134198310769504, 6.783676238923049]}, {"species": [{"element": "Lu", "occu": 1}], "abc": [0.5, 0.84826848, 0.15173152], "properties": {"magmom": 0.0}, "label": "Lu", "xyz": [3.71642157, 6.783676238923049, 1.2134198310769504]}, {"species": [{"element": "Lu", "occu": 1}], "abc": [-0.0, 0.65173242, 0.65173242], "properties": {"magmom": -0.0}, "label": "Lu", "xyz": [0.0, 5.211966774673589, 5.211966774673589]}, {"species": [{"element": "Lu", "occu": 1}], "abc": [-0.0, 0.20209485, 0.7979051500000001], "properties": {"magmom": -0.0}, "label": "Lu", "xyz": [0.0, 1.6161790208448095, 6.380917049155191]}, {"species": [{"element": "Lu", "occu": 1}], "abc": [0.5, 0.70208602, 0.70208602], "properties": {"magmom": 0.0}, "label": "Lu", "xyz": [3.71642157, 5.6146493513439415, 5.6146493513439415]}, {"species": [{"element": "Lu", "occu": 1}], "abc": [0.5, 0.29791398, 0.29791398], "properties": {"magmom": 0.0}, "label": "Lu", "xyz": [3.71642157, 2.3824467186560585, 2.3824467186560585]}, {"species": [{"element": "Lu", "occu": 1}], "abc": [-0.0, 0.7979051500000001, 0.20209485], "properties": {"magmom": -0.0}, "label": "Lu", "xyz": [0.0, 6.380917049155191, 1.6161790208448095]}, {"species": [{"element": "Al", "occu": 1}], "abc": [0.198965299999999, 0.11917876000000001, 0.11917876000000001], "properties": {"magmom": -0.0}, "label": "Al", "xyz": [1.4788778652030348, 0.9530839932234733, 0.9530839932234733]}, {"species": [{"element": "Al", "occu": 1}], "abc": [0.69901748, 0.38084265, 0.61915735], "properties": {"magmom": -0.0}, "label": "Al", "xyz": [5.195687280958087, 3.0456380955483153, 4.951457974451684]}, {"species": [{"element": "Al", "occu": 1}], "abc": [0.69901748, 0.61915735, 0.38084265], "properties": {"magmom": -0.0}, "label": "Al", "xyz": [5.195687280958087, 4.951457974451684, 3.0456380955483153]}, {"species": [{"element": "Al", "occu": 1}], "abc": [0.198965299999999, 0.8808212400000001, 0.8808212400000001], "properties": {"magmom": -0.0}, "label": "Al", "xyz": [1.4788778652030348, 7.044012076776528, 7.044012076776528]}, {"species": [{"element": "Al", "occu": 1}], "abc": [0.30098252000000003, 0.61915735, 0.38084265], "properties": {"magmom": -0.0}, "label": "Al", "xyz": [2.237155859041913, 4.951457974451684, 3.0456380955483153]}, {"species": [{"element": "Al", "occu": 1}], "abc": [0.30098252000000003, 0.38084265, 0.61915735], "properties": {"magmom": -0.0}, "label": "Al", "xyz": [2.237155859041913, 3.0456380955483153, 4.951457974451684]}, {"species": [{"element": "Al", "occu": 1}], "abc": [0.8010347, 0.11917876000000001, 0.11917876000000001], "properties": {"magmom": -0.0}, "label": "Al", "xyz": [5.953965274796958, 0.9530839932234733, 0.9530839932234733]}, {"species": [{"element": "Al", "occu": 1}], "abc": [0.8010347, 0.8808212400000001, 0.8808212400000001], "properties": {"magmom": -0.0}, "label": "Al", "xyz": [5.953965274796958, 7.044012076776528, 7.044012076776528]}]}, "task_ids": null, "uncorrected_energy_per_atom": null, "energy_per_atom": -25.918930425999996, "formation_energy_per_atom": -0.37816298399999304, "energy_above_hull": 0.0, "is_stable": true, "equilibrium_reaction_energy_per_atom": null, "decomposes_to": null, "xas": null, "grain_boundaries": null, "band_gap": 0.0, "cbm": null, "vbm": null, "efermi": 3.96063131, "is_gap_direct": null, "is_metal": null, "es_source_calc_id": null, "bandstructure": null, "dos": null, "dos_energy_up": null, "dos_energy_down": null, "is_magnetic": null, "ordering": null, "total_magnetization": 1.1e-06, "total_magnetization_normalized_vol": null, "total_magnetization_normalized_formula_units": null, "num_magnetic_sites": null, "num_unique_magnetic_sites": null, "types_of_magnetic_species": null, "bulk_modulus": null, "shear_modulus": null, "universal_anisotropy": null, "homogeneous_poisson": null, "e_total": null, "e_ionic": null, "e_electronic": null, "n": null, "e_ij_max": null, "weighted_surface_energy_EV_PER_ANG2": null, "weighted_surface_energy": null, "weighted_work_function": null, "surface_anisotropy": null, "shape_factor": null, "has_reconstructed": null, "possible_species": null, "has_props": null, "theoretical": null, "database_IDs": null, "fields_not_requested": ["builder_meta", "nsites", "elements", "nelements", "composition", "composition_reduced", "chemsys", "symmetry", "property_name", "deprecated", "deprecation_reasons", "last_updated", "origins", "warnings", "task_ids", "uncorrected_energy_per_atom", "equilibrium_reaction_energy_per_atom", "decomposes_to", "xas", "grain_boundaries", "cbm", "vbm", "is_gap_direct", "is_metal", "es_source_calc_id", "bandstructure", "dos", "dos_energy_up", "dos_energy_down", "is_magnetic", "ordering", "total_magnetization_normalized_vol", "total_magnetization_normalized_formula_units", "num_magnetic_sites", "num_unique_magnetic_sites", "types_of_magnetic_species", "bulk_modulus", "shear_modulus", "universal_anisotropy", "homogeneous_poisson", "e_total", "e_ionic", "e_electronic", "n", "e_ij_max", "weighted_surface_energy_EV_PER_ANG2", "weighted_surface_energy", "weighted_work_function", "surface_anisotropy", "shape_factor", "has_reconstructed", "possible_species", "has_props", "theoretical", "database_IDs"]}