{
  "builder_meta": null,
  "nsites": null,
  "elements": null,
  "nelements": null,
  "composition": null,
  "composition_reduced": null,
  "formula_pretty": "Lu3Al",
  "formula_anonymous": "AB3",
  "chemsys": null,
  "volume": 197.98167467547006,
  "density": 9.257649901405014,
  "density_atomic": 24.747709334433758,
  "symmetry": null,
  "property_name": null,
  "material_id": "mp-973266",
  "deprecated": null,
  "deprecation_reasons": null,
  "last_updated": null,
  "origins": null,
  "warnings": null,
  "structure": {
    "@module": "pymatgen.core.structure",
    "@class": "Structure",
    "charge": 0,
    "lattice": {
      "matrix": [
        [6.60912331, 0.0, 0.0],
        [-3.30456115, 5.72366775, 0.0],
        [-0.0, 0.0, 5.23367467]
      ],
      "pbc": [true, true, true],
      "a": 6.60912331,
      "b": 6.609122249321719,
      "c": 5.23367467,
      "alpha": 90.0,
      "beta": 90.0,
      "gamma": 120.00000025365307,
      "volume": 197.98167467547006
    },
    "properties": {},
    "sites": [
      {
        "species": [{ "element": "Lu", "occu": 1 }],
        "abc": [0.82761332, 0.17238568, 0.750000999999999],
        "properties": { "magmom": 0.0 },
        "label": "Lu",
        "xyz": [4.900139463934157, 0.98667835717782, 3.925261236174665]
      },
      {
        "species": [{ "element": "Lu", "occu": 1 }],
        "abc": [0.34477335000000003, 0.17238568, 0.750000999999999],
        "properties": { "magmom": 0.0 },
        "label": "Lu",
        "xyz": [1.7089905632074567, 0.98667835717782, 3.925261236174665]
      },
      {
        "species": [{ "element": "Lu", "occu": 1 }],
        "abc": [0.82761332, 0.65522665, 0.750000999999999],
        "properties": { "magmom": 0.0 },
        "label": "Lu",
        "xyz": [3.3045619528438417, 3.7502996455455375, 3.925261236174665]
      },
      {
        "species": [{ "element": "Lu", "occu": 1 }],
        "abc": [0.17238568, 0.82761332, 0.250001],
        "properties": { "magmom": 0.0 },
        "label": "Lu",
        "xyz": [-1.5955806084963169, 4.73698366915443, 1.30842390117467]
      },
      {
        "species": [{ "element": "Lu", "occu": 1 }],
        "abc": [0.65522665, 0.82761332, 0.250001],
        "properties": { "magmom": 0.0 },
        "label": "Lu",
        "xyz": [1.5955749013536935, 4.73698366915443, 1.30842390117467]
      },
      {
        "species": [{ "element": "Lu", "occu": 1 }],
        "abc": [0.17238568, 0.34477235, 0.250001],
        "properties": { "magmom": 0.0 },
        "label": "Lu",
        "xyz": [-3.0974060016841776e-6, 1.9733623807867124, 1.30842390117467]
      },
      {
        "species": [{ "element": "Al", "occu": 1 }],
        "abc": [0.666667, 0.333331999999999, 0.250001],
        "properties": { "magmom": -0.0 },
        "label": "Al",
        "xyz": [3.304568432455973, 1.9078816184429943, 1.30842390117467]
      },
      {
        "species": [{ "element": "Al", "occu": 1 }],
        "abc": [0.333333, 0.666667, 0.750000999999999],
        "properties": { "magmom": -0.0 },
        "label": "Al",
        "xyz": [-2.9678948201272703e-6, 3.8157804078892497, 3.925261236174665]
      }
    ]
  },
  "task_ids": null,
  "uncorrected_energy_per_atom": null,
  "energy_per_atom": -30.47644859625,
  "formation_energy_per_atom": -0.233513876249993,
  "energy_above_hull": 0.0028379887500020002,
  "is_stable": false,
  "equilibrium_reaction_energy_per_atom": null,
  "decomposes_to": null,
  "xas": null,
  "grain_boundaries": null,
  "band_gap": 0.0,
  "cbm": null,
  "vbm": null,
  "efermi": 3.65655743,
  "is_gap_direct": null,
  "is_metal": null,
  "es_source_calc_id": null,
  "bandstructure": null,
  "dos": null,
  "dos_energy_up": null,
  "dos_energy_down": null,
  "is_magnetic": null,
  "ordering": null,
  "total_magnetization": 0.0023686,
  "total_magnetization_normalized_vol": null,
  "total_magnetization_normalized_formula_units": null,
  "num_magnetic_sites": null,
  "num_unique_magnetic_sites": null,
  "types_of_magnetic_species": null,
  "bulk_modulus": null,
  "shear_modulus": null,
  "universal_anisotropy": null,
  "homogeneous_poisson": null,
  "e_total": null,
  "e_ionic": null,
  "e_electronic": null,
  "n": null,
  "e_ij_max": null,
  "weighted_surface_energy_EV_PER_ANG2": null,
  "weighted_surface_energy": null,
  "weighted_work_function": null,
  "surface_anisotropy": null,
  "shape_factor": null,
  "has_reconstructed": null,
  "possible_species": null,
  "has_props": null,
  "theoretical": null,
  "database_IDs": null,
  "fields_not_requested": [
    "builder_meta",
    "nsites",
    "elements",
    "nelements",
    "composition",
    "composition_reduced",
    "chemsys",
    "symmetry",
    "property_name",
    "deprecated",
    "deprecation_reasons",
    "last_updated",
    "origins",
    "warnings",
    "task_ids",
    "uncorrected_energy_per_atom",
    "equilibrium_reaction_energy_per_atom",
    "decomposes_to",
    "xas",
    "grain_boundaries",
    "cbm",
    "vbm",
    "is_gap_direct",
    "is_metal",
    "es_source_calc_id",
    "bandstructure",
    "dos",
    "dos_energy_up",
    "dos_energy_down",
    "is_magnetic",
    "ordering",
    "total_magnetization_normalized_vol",
    "total_magnetization_normalized_formula_units",
    "num_magnetic_sites",
    "num_unique_magnetic_sites",
    "types_of_magnetic_species",
    "bulk_modulus",
    "shear_modulus",
    "universal_anisotropy",
    "homogeneous_poisson",
    "e_total",
    "e_ionic",
    "e_electronic",
    "n",
    "e_ij_max",
    "weighted_surface_energy_EV_PER_ANG2",
    "weighted_surface_energy",
    "weighted_work_function",
    "surface_anisotropy",
    "shape_factor",
    "has_reconstructed",
    "possible_species",
    "has_props",
    "theoretical",
    "database_IDs"
  ]
}
