{"builder_meta": null, "nsites": null, "elements": null, "nelements": null, "composition": null, "composition_reduced": null, "formula_pretty": "Lu3C4", "formula_anonymous": "A3B4", "chemsys": null, "volume": 943.3645561244192, "density": 10.085131529372177, "density_atomic": 13.476636516063131, "symmetry": null, "property_name": null, "material_id": "mp-1203767", "deprecated": null, "deprecation_reasons": null, "last_updated": null, "origins": null, "warnings": null, "structure": {"@module": "pymatgen.core.structure", "@class": "Structure", "charge": 0, "lattice": {"matrix": [[7.79706242, -0.0, -0.0], [-0.0, 7.79706242, 0.0], [-0.0, -0.0, 15.51734918]], "pbc": [true, true, true], "a": 7.79706242, "b": 7.79706242, "c": 15.51734918, "alpha": 90.0, "beta": 90.0, "gamma": 90.0, "volume": 943.3645561244192}, "properties": {}, "sites": [{"species": [{"element": "Lu", "occu": 1}], "abc": [0.5, 0.5, 0.5], "properties": {"magmom": 0.0}, "label": "Lu", "xyz": [3.89853121, 3.89853121, 7.75867459]}, {"species": [{"element": "Lu", "occu": 1}], "abc": [0.0, 0.0, -0.0], "properties": {"magmom": 0.0}, "label": "Lu", "xyz": [0.0, 0.0, 0.0]}, {"species": [{"element": "Lu", "occu": 1}], "abc": [0.5, 0.5, 0.18708488], "properties": {"magmom": -0.0}, "label": "Lu", "xyz": [3.89853121, 3.89853121, 2.9030614092583984]}, {"species": [{"element": "Lu", "occu": 1}], "abc": [0.0, 0.0, 0.68708488], "properties": {"magmom": -0.0}, "label": "Lu", "xyz": [0.0, 0.0, 10.661735999258399]}, {"species": [{"element": "Lu", "occu": 1}], "abc": [0.5, 0.5, 0.81291512], "properties": {"magmom": -0.0}, "label": "Lu", "xyz": [3.89853121, 3.89853121, 12.614287770741601]}, {"species": [{"element": "Lu", "occu": 1}], "abc": [0.0, 0.0, 0.31291512], "properties": {"magmom": -0.0}, "label": "Lu", "xyz": [0.0, 0.0, 4.855613180741601]}, {"species": [{"element": "Lu", "occu": 1}], "abc": [0.70215181, 0.90419558, 0.5], "properties": {"magmom": 0.0}, "label": "Lu", "xyz": [5.4747214908859805, 7.0500693771481036, 7.75867459]}, {"species": [{"element": "Lu", "occu": 1}], "abc": [0.29784819, 0.09580442, 0.5], "properties": {"magmom": 0.0}, "label": "Lu", "xyz": [2.3223409291140196, 0.7469930428518964, 7.75867459]}, {"species": [{"element": "Lu", "occu": 1}], "abc": [0.7978481900000001, 0.40419558, -0.0], "properties": {"magmom": 0.0}, "label": "Lu", "xyz": [6.22087213911402, 3.1515381671481033, 0.0]}, {"species": [{"element": "Lu", "occu": 1}], "abc": [0.20215181000000002, 0.59580442, -0.0], "properties": {"magmom": 0.0}, "label": "Lu", "xyz": [1.5761902808859802, 4.645524252851896, 0.0]}, {"species": [{"element": "Lu", "occu": 1}], "abc": [0.90419558, 0.29784819, 0.5], "properties": {"magmom": 0.0}, "label": "Lu", "xyz": [7.0500693771481036, 2.3223409291140196, 7.75867459]}, {"species": [{"element": "Lu", "occu": 1}], "abc": [0.09580442, 0.70215181, 0.5], "properties": {"magmom": 0.0}, "label": "Lu", "xyz": [0.7469930428518964, 5.4747214908859805, 7.75867459]}, {"species": [{"element": "Lu", "occu": 1}], "abc": [0.40419558, 0.20215181000000002, -0.0], "properties": {"magmom": 0.0}, "label": "Lu", "xyz": [3.1515381671481033, 1.5761902808859802, 0.0]}, {"species": [{"element": "Lu", "occu": 1}], "abc": [0.59580442, 0.7978481900000001, -0.0], "properties": {"magmom": 0.0}, "label": "Lu", "xyz": [4.645524252851896, 6.22087213911402, 0.0]}, {"species": [{"element": "Lu", "occu": 1}], "abc": [0.78772001, 0.60027557, 0.35516844000000003], "properties": {"magmom": 0.0}, "label": "Lu", "xyz": [6.141902087453024, 4.680386088491079, 5.51127270119588]}, {"species": [{"element": "Lu", "occu": 1}], "abc": [0.21227999, 0.39972443, 0.35516844000000003], "properties": {"magmom": 0.0}, "label": "Lu", "xyz": [1.6551603325469757, 3.1166763315089208, 5.51127270119588]}, {"species": [{"element": "Lu", "occu": 1}], "abc": [0.71227999, 0.10027557000000001, 0.85516844], "properties": {"magmom": 0.0}, "label": "Lu", "xyz": [5.553691542546975, 0.7818548784910794, 13.26994729119588]}, {"species": [{"element": "Lu", "occu": 1}], "abc": [0.28772001, 0.89972443, 0.85516844], "properties": {"magmom": 0.0}, "label": "Lu", "xyz": [2.243370877453024, 7.015207541508921, 13.26994729119588]}, {"species": [{"element": "Lu", "occu": 1}], "abc": [0.60027557, 0.21227999, 0.35516844000000003], "properties": {"magmom": 0.0}, "label": "Lu", "xyz": [4.680386088491079, 1.6551603325469757, 5.51127270119588]}, {"species": [{"element": "Lu", "occu": 1}], "abc": [0.39972443, 0.78772001, 0.35516844000000003], "properties": {"magmom": 0.0}, "label": "Lu", "xyz": [3.1166763315089208, 6.141902087453024, 5.51127270119588]}, {"species": [{"element": "Lu", "occu": 1}], "abc": [0.10027557000000001, 0.28772001, 0.85516844], "properties": {"magmom": 0.0}, "label": "Lu", "xyz": [0.7818548784910794, 2.243370877453024, 13.26994729119588]}, {"species": [{"element": "Lu", "occu": 1}], "abc": [0.89972443, 0.71227999, 0.85516844], "properties": {"magmom": 0.0}, "label": "Lu", "xyz": [7.015207541508921, 5.553691542546975, 13.26994729119588]}, {"species": [{"element": "Lu", "occu": 1}], "abc": [0.21227999, 0.39972443, 0.64483156], "properties": {"magmom": 0.0}, "label": "Lu", "xyz": [1.6551603325469757, 3.1166763315089208, 10.00607647880412]}, {"species": [{"element": "Lu", "occu": 1}], "abc": [0.78772001, 0.60027557, 0.64483156], "properties": {"magmom": 0.0}, "label": "Lu", "xyz": [6.141902087453024, 4.680386088491079, 10.00607647880412]}, {"species": [{"element": "Lu", "occu": 1}], "abc": [0.28772001, 0.89972443, 0.14483156], "properties": {"magmom": 0.0}, "label": "Lu", "xyz": [2.243370877453024, 7.015207541508921, 2.247401888804121]}, {"species": [{"element": "Lu", "occu": 1}], "abc": [0.71227999, 0.10027557000000001, 0.14483156], "properties": {"magmom": 0.0}, "label": "Lu", "xyz": [5.553691542546975, 0.7818548784910794, 2.247401888804121]}, {"species": [{"element": "Lu", "occu": 1}], "abc": [0.39972443, 0.78772001, 0.64483156], "properties": {"magmom": 0.0}, "label": "Lu", "xyz": [3.1166763315089208, 6.141902087453024, 10.00607647880412]}, {"species": [{"element": "Lu", "occu": 1}], "abc": [0.60027557, 0.21227999, 0.64483156], "properties": {"magmom": 0.0}, "label": "Lu", "xyz": [4.680386088491079, 1.6551603325469757, 10.00607647880412]}, {"species": [{"element": "Lu", "occu": 1}], "abc": [0.89972443, 0.71227999, 0.14483156], "properties": {"magmom": 0.0}, "label": "Lu", "xyz": [7.015207541508921, 5.553691542546975, 2.247401888804121]}, {"species": [{"element": "Lu", "occu": 1}], "abc": [0.10027557000000001, 0.28772001, 0.14483156], "properties": {"magmom": 0.0}, "label": "Lu", "xyz": [0.7818548784910794, 2.243370877453024, 2.247401888804121]}, {"species": [{"element": "C", "occu": 1}], "abc": [0.5, 0.5, 0.95809687], "properties": {"magmom": -0.0}, "label": "C", "xyz": [3.89853121, 3.89853121, 14.867123680055066]}, {"species": [{"element": "C", "occu": 1}], "abc": [0.0, 0.0, 0.45809687], "properties": {"magmom": -0.0}, "label": "C", "xyz": [0.0, 0.0, 7.108449090055067]}, {"species": [{"element": "C", "occu": 1}], "abc": [0.5, 0.5, 0.041903130000000004], "properties": {"magmom": -0.0}, "label": "C", "xyz": [3.89853121, 3.89853121, 0.6502254999449335]}, {"species": [{"element": "C", "occu": 1}], "abc": [0.0, 0.0, 0.54190313], "properties": {"magmom": -0.0}, "label": "C", "xyz": [0.0, 0.0, 8.408900089944934]}, {"species": [{"element": "C", "occu": 1}], "abc": [0.5, 0.5, 0.34272038], "properties": {"magmom": -0.0}, "label": "C", "xyz": [3.89853121, 3.89853121, 5.318111807562288]}, {"species": [{"element": "C", "occu": 1}], "abc": [0.0, 0.0, 0.84272038], "properties": {"magmom": -0.0}, "label": "C", "xyz": [0.0, 0.0, 13.076786397562289]}, {"species": [{"element": "C", "occu": 1}], "abc": [0.5, 0.5, 0.6572796200000001], "properties": {"magmom": -0.0}, "label": "C", "xyz": [3.89853121, 3.89853121, 10.199237372437713]}, {"species": [{"element": "C", "occu": 1}], "abc": [0.0, 0.0, 0.15727962], "properties": {"magmom": -0.0}, "label": "C", "xyz": [0.0, 0.0, 2.440562782437712]}, {"species": [{"element": "C", "occu": 1}], "abc": [0.60657456, 0.19609639, 0.5], "properties": {"magmom": -0.0}, "label": "C", "xyz": [4.7294997067040345, 1.5289757931666639, 7.75867459]}, {"species": [{"element": "C", "occu": 1}], "abc": [0.39342544, 0.80390361, 0.5], "properties": {"magmom": -0.0}, "label": "C", "xyz": [3.0675627132959646, 6.268086626833336, 7.75867459]}, {"species": [{"element": "C", "occu": 1}], "abc": [0.89342544, 0.69609639, -0.0], "properties": {"magmom": -0.0}, "label": "C", "xyz": [6.966093923295965, 5.427507003166664, 0.0]}, {"species": [{"element": "C", "occu": 1}], "abc": [0.10657456, 0.30390361, -0.0], "properties": {"magmom": -0.0}, "label": "C", "xyz": [0.8309684967040352, 2.369555416833336, 0.0]}, {"species": [{"element": "C", "occu": 1}], "abc": [0.19609639, 0.39342544, 0.5], "properties": {"magmom": -0.0}, "label": "C", "xyz": [1.5289757931666639, 3.0675627132959646, 7.75867459]}, {"species": [{"element": "C", "occu": 1}], "abc": [0.80390361, 0.60657456, 0.5], "properties": {"magmom": -0.0}, "label": "C", "xyz": [6.268086626833336, 4.7294997067040345, 7.75867459]}, {"species": [{"element": "C", "occu": 1}], "abc": [0.69609639, 0.10657456, -0.0], "properties": {"magmom": -0.0}, "label": "C", "xyz": [5.427507003166664, 0.8309684967040352, 0.0]}, {"species": [{"element": "C", "occu": 1}], "abc": [0.30390361, 0.89342544, -0.0], "properties": {"magmom": -0.0}, "label": "C", "xyz": [2.369555416833336, 6.966093923295965, 0.0]}, {"species": [{"element": "C", "occu": 1}], "abc": [0.69328459, 0.90247909, 0.32914821], "properties": {"magmom": 0.0}, "label": "C", "xyz": [5.405583223054108, 7.036685797474798, 5.107507706541968]}, {"species": [{"element": "C", "occu": 1}], "abc": [0.30671541, 0.09752091, 0.32914821], "properties": {"magmom": 0.0}, "label": "C", "xyz": [2.3914791969458924, 0.7603766225252022, 5.107507706541968]}, {"species": [{"element": "C", "occu": 1}], "abc": [0.80671541, 0.40247909, 0.82914821], "properties": {"magmom": 0.0}, "label": "C", "xyz": [6.290010406945892, 3.1381545874747974, 12.866182296541968]}, {"species": [{"element": "C", "occu": 1}], "abc": [0.19328459, 0.59752091, 0.82914821], "properties": {"magmom": 0.0}, "label": "C", "xyz": [1.5070520130541079, 4.658907832525202, 12.866182296541968]}, {"species": [{"element": "C", "occu": 1}], "abc": [0.90247909, 0.30671541, 0.32914821], "properties": {"magmom": 0.0}, "label": "C", "xyz": [7.036685797474798, 2.3914791969458924, 5.107507706541968]}, {"species": [{"element": "C", "occu": 1}], "abc": [0.09752091, 0.69328459, 0.32914821], "properties": {"magmom": 0.0}, "label": "C", "xyz": [0.7603766225252022, 5.405583223054108, 5.107507706541968]}, {"species": [{"element": "C", "occu": 1}], "abc": [0.40247909, 0.19328459, 0.82914821], "properties": {"magmom": 0.0}, "label": "C", "xyz": [3.1381545874747974, 1.5070520130541079, 12.866182296541968]}, {"species": [{"element": "C", "occu": 1}], "abc": [0.59752091, 0.80671541, 0.82914821], "properties": {"magmom": 0.0}, "label": "C", "xyz": [4.658907832525202, 6.290010406945892, 12.866182296541968]}, {"species": [{"element": "C", "occu": 1}], "abc": [0.30671541, 0.09752091, 0.6708517900000001], "properties": {"magmom": 0.0}, "label": "C", "xyz": [2.3914791969458924, 0.7603766225252022, 10.409841473458034]}, {"species": [{"element": "C", "occu": 1}], "abc": [0.69328459, 0.90247909, 0.6708517900000001], "properties": {"magmom": 0.0}, "label": "C", "xyz": [5.405583223054108, 7.036685797474798, 10.409841473458034]}, {"species": [{"element": "C", "occu": 1}], "abc": [0.19328459, 0.59752091, 0.17085179], "properties": {"magmom": 0.0}, "label": "C", "xyz": [1.5070520130541079, 4.658907832525202, 2.6511668834580324]}, {"species": [{"element": "C", "occu": 1}], "abc": [0.80671541, 0.40247909, 0.17085179], "properties": {"magmom": 0.0}, "label": "C", "xyz": [6.290010406945892, 3.1381545874747974, 2.6511668834580324]}, {"species": [{"element": "C", "occu": 1}], "abc": [0.09752091, 0.69328459, 0.6708517900000001], "properties": {"magmom": 0.0}, "label": "C", "xyz": [0.7603766225252022, 5.405583223054108, 10.409841473458034]}, {"species": [{"element": "C", "occu": 1}], "abc": [0.90247909, 0.30671541, 0.6708517900000001], "properties": {"magmom": 0.0}, "label": "C", "xyz": [7.036685797474798, 2.3914791969458924, 10.409841473458034]}, {"species": [{"element": "C", "occu": 1}], "abc": [0.59752091, 0.80671541, 0.17085179], "properties": {"magmom": 0.0}, "label": "C", "xyz": [4.658907832525202, 6.290010406945892, 2.6511668834580324]}, {"species": [{"element": "C", "occu": 1}], "abc": [0.40247909, 0.19328459, 0.17085179], "properties": {"magmom": 0.0}, "label": "C", "xyz": [3.1381545874747974, 1.5070520130541079, 2.6511668834580324]}, {"species": [{"element": "C", "occu": 1}], "abc": [0.64958897, 0.8504110300000001, 0.25], "properties": {"magmom": -0.0}, "label": "C", "xyz": [5.064885746433507, 6.630707883566493, 3.879337295]}, {"species": [{"element": "C", "occu": 1}], "abc": [0.35041103, 0.14958897000000002, 0.25], "properties": {"magmom": -0.0}, "label": "C", "xyz": [2.7321766735664927, 1.1663545364335075, 3.879337295]}, {"species": [{"element": "C", "occu": 1}], "abc": [0.8504110300000001, 0.35041103, 0.75], "properties": {"magmom": -0.0}, "label": "C", "xyz": [6.630707883566493, 2.7321766735664927, 11.638011885000001]}, {"species": [{"element": "C", "occu": 1}], "abc": [0.14958897000000002, 0.64958897, 0.75], "properties": {"magmom": -0.0}, "label": "C", "xyz": [1.1663545364335075, 5.064885746433507, 11.638011885000001]}, {"species": [{"element": "C", "occu": 1}], "abc": [0.8504110300000001, 0.35041103, 0.25], "properties": {"magmom": -0.0}, "label": "C", "xyz": [6.630707883566493, 2.7321766735664927, 3.879337295]}, {"species": [{"element": "C", "occu": 1}], "abc": [0.14958897000000002, 0.64958897, 0.25], "properties": {"magmom": -0.0}, "label": "C", "xyz": [1.1663545364335075, 5.064885746433507, 3.879337295]}, {"species": [{"element": "C", "occu": 1}], "abc": [0.35041103, 0.14958897000000002, 0.75], "properties": {"magmom": -0.0}, "label": "C", "xyz": [2.7321766735664927, 1.1663545364335075, 11.638011885000001]}, {"species": [{"element": "C", "occu": 1}], "abc": [0.64958897, 0.8504110300000001, 0.75], "properties": {"magmom": -0.0}, "label": "C", "xyz": [5.064885746433507, 6.630707883566493, 11.638011885000001]}]}, "task_ids": null, "uncorrected_energy_per_atom": null, "energy_per_atom": -7.590896327285714, "formation_energy_per_atom": -0.379507137285713, "energy_above_hull": 0.0, "is_stable": true, "equilibrium_reaction_energy_per_atom": null, "decomposes_to": null, "xas": null, "grain_boundaries": null, "band_gap": 0.0, "cbm": null, "vbm": null, "efermi": 4.35328208, "is_gap_direct": null, "is_metal": null, "es_source_calc_id": null, "bandstructure": null, "dos": null, "dos_energy_up": null, "dos_energy_down": null, "is_magnetic": null, "ordering": null, "total_magnetization": 3e-06, "total_magnetization_normalized_vol": null, "total_magnetization_normalized_formula_units": null, "num_magnetic_sites": null, "num_unique_magnetic_sites": null, "types_of_magnetic_species": null, "bulk_modulus": null, "shear_modulus": null, "universal_anisotropy": null, "homogeneous_poisson": null, "e_total": null, "e_ionic": null, "e_electronic": null, "n": null, "e_ij_max": null, "weighted_surface_energy_EV_PER_ANG2": null, "weighted_surface_energy": null, "weighted_work_function": null, "surface_anisotropy": null, "shape_factor": null, "has_reconstructed": null, "possible_species": null, "has_props": null, "theoretical": null, "database_IDs": null, "fields_not_requested": ["builder_meta", "nsites", "elements", "nelements", "composition", "composition_reduced", "chemsys", "symmetry", "property_name", "deprecated", "deprecation_reasons", "last_updated", "origins", "warnings", "task_ids", "uncorrected_energy_per_atom", "equilibrium_reaction_energy_per_atom", "decomposes_to", "xas", "grain_boundaries", "cbm", "vbm", "is_gap_direct", "is_metal", "es_source_calc_id", "bandstructure", "dos", "dos_energy_up", "dos_energy_down", "is_magnetic", "ordering", "total_magnetization_normalized_vol", "total_magnetization_normalized_formula_units", "num_magnetic_sites", "num_unique_magnetic_sites", "types_of_magnetic_species", "bulk_modulus", "shear_modulus", "universal_anisotropy", "homogeneous_poisson", "e_total", "e_ionic", "e_electronic", "n", "e_ij_max", "weighted_surface_energy_EV_PER_ANG2", "weighted_surface_energy", "weighted_work_function", "surface_anisotropy", "shape_factor", "has_reconstructed", "possible_species", "has_props", "theoretical", "database_IDs"]}