{"builder_meta": null, "nsites": null, "elements": null, "nelements": null, "composition": null, "composition_reduced": null, "formula_pretty": "Lu3Co", "formula_anonymous": "AB3", "chemsys": null, "volume": 380.44353413029216, "density": 10.193149860525061, "density_atomic": 23.77772088314326, "symmetry": null, "property_name": null, "material_id": "mp-1189116", "deprecated": null, "deprecation_reasons": null, "last_updated": null, "origins": null, "warnings": null, "structure": {"@module": "pymatgen.core.structure", "@class": "Structure", "charge": 0, "lattice": {"matrix": [[0.0, 0.0, 6.120835], [6.824176, 0.0, 0.0], [0.0, 9.108132, 0.0]], "pbc": [true, true, true], "a": 6.120835, "b": 6.824176, "c": 9.108132, "alpha": 90.0, "beta": 90.0, "gamma": 90.0, "volume": 380.44353413029216}, "properties": {}, "sites": [{"species": [{"element": "Lu", "occu": 1}], "abc": [0.323191, 0.676624, 0.06549], "properties": {"magmom": 0.001}, "label": "Lu", "xyz": [4.617401261824, 0.59649156468, 1.978198784485]}, {"species": [{"element": "Lu", "occu": 1}], "abc": [0.176809, 0.176624, 0.43451000000000006], "properties": {"magmom": 0.001}, "label": "Lu", "xyz": [1.205313261824, 3.95757443532, 1.0822187155149998]}, {"species": [{"element": "Lu", "occu": 1}], "abc": [0.676809, 0.323376, 0.56549], "properties": {"magmom": 0.001}, "label": "Lu", "xyz": [2.2067747381759997, 5.15055756468, 4.142636215515]}, {"species": [{"element": "Lu", "occu": 1}], "abc": [0.823191, 0.823376, 0.9345100000000001], "properties": {"magmom": 0.001}, "label": "Lu", "xyz": [5.6188627381759995, 8.51164043532, 5.038616284484999]}, {"species": [{"element": "Lu", "occu": 1}], "abc": [0.676809, 0.323376, 0.9345100000000001], "properties": {"magmom": 0.001}, "label": "Lu", "xyz": [2.2067747381759997, 8.51164043532, 4.142636215515]}, {"species": [{"element": "Lu", "occu": 1}], "abc": [0.823191, 0.823376, 0.56549], "properties": {"magmom": 0.001}, "label": "Lu", "xyz": [5.6188627381759995, 5.15055756468, 5.038616284484999]}, {"species": [{"element": "Lu", "occu": 1}], "abc": [0.323191, 0.676624, 0.43451000000000006], "properties": {"magmom": 0.001}, "label": "Lu", "xyz": [4.617401261824, 3.95757443532, 1.978198784485]}, {"species": [{"element": "Lu", "occu": 1}], "abc": [0.176809, 0.176624, 0.06549], "properties": {"magmom": 0.001}, "label": "Lu", "xyz": [1.205313261824, 0.59649156468, 1.0822187155149998]}, {"species": [{"element": "Lu", "occu": 1}], "abc": [0.866092, 0.540428, 0.25], "properties": {"magmom": 0.0}, "label": "Lu", "xyz": [3.687975787328, 2.277033, 5.30120622682]}, {"species": [{"element": "Lu", "occu": 1}], "abc": [0.633907999999999, 0.040428, 0.25], "properties": {"magmom": 0.0}, "label": "Lu", "xyz": [0.27588778732799996, 2.277033, 3.880046273179994]}, {"species": [{"element": "Lu", "occu": 1}], "abc": [0.133908, 0.459572, 0.75], "properties": {"magmom": 0.0}, "label": "Lu", "xyz": [3.1362002126719997, 6.831099, 0.8196287731799999]}, {"species": [{"element": "Lu", "occu": 1}], "abc": [0.366092, 0.959572, 0.75], "properties": {"magmom": 0.0}, "label": "Lu", "xyz": [6.5482882126719995, 6.831099, 2.2407887268199995]}, {"species": [{"element": "Co", "occu": 1}], "abc": [0.048556999999999004, 0.889115, 0.25], "properties": {"magmom": -0.002}, "label": "Co", "xyz": [6.067477244239999, 2.277033, 0.2972093850949939]}, {"species": [{"element": "Co", "occu": 1}], "abc": [0.451443, 0.389115, 0.25], "properties": {"magmom": -0.002}, "label": "Co", "xyz": [2.65538924424, 2.277033, 2.763208114905]}, {"species": [{"element": "Co", "occu": 1}], "abc": [0.951442999999999, 0.110885, 0.75], "properties": {"magmom": -0.002}, "label": "Co", "xyz": [0.7566987557599999, 6.831099, 5.823625614904993]}, {"species": [{"element": "Co", "occu": 1}], "abc": [0.548557, 0.610885, 0.75], "properties": {"magmom": -0.002}, "label": "Co", "xyz": [4.16878675576, 6.831099, 3.3576268850949997]}]}, "task_ids": null, "uncorrected_energy_per_atom": null, "energy_per_atom": -5.383881034375, "formation_energy_per_atom": -0.209261264375, "energy_above_hull": 0.0, "is_stable": true, "equilibrium_reaction_energy_per_atom": null, "decomposes_to": null, "xas": null, "grain_boundaries": null, "band_gap": 0.0, "cbm": null, "vbm": null, "efermi": 3.24830941, "is_gap_direct": null, "is_metal": null, "es_source_calc_id": null, "bandstructure": null, "dos": null, "dos_energy_up": null, "dos_energy_down": null, "is_magnetic": null, "ordering": null, "total_magnetization": 0.0008206, "total_magnetization_normalized_vol": null, "total_magnetization_normalized_formula_units": null, "num_magnetic_sites": null, "num_unique_magnetic_sites": null, "types_of_magnetic_species": null, "bulk_modulus": null, "shear_modulus": null, "universal_anisotropy": null, "homogeneous_poisson": null, "e_total": null, "e_ionic": null, "e_electronic": null, "n": null, "e_ij_max": null, "weighted_surface_energy_EV_PER_ANG2": null, "weighted_surface_energy": null, "weighted_work_function": null, "surface_anisotropy": null, "shape_factor": null, "has_reconstructed": null, "possible_species": null, "has_props": null, "theoretical": null, "database_IDs": null, "fields_not_requested": ["builder_meta", "nsites", "elements", "nelements", "composition", "composition_reduced", "chemsys", "symmetry", "property_name", "deprecated", "deprecation_reasons", "last_updated", "origins", "warnings", "task_ids", "uncorrected_energy_per_atom", "equilibrium_reaction_energy_per_atom", "decomposes_to", "xas", "grain_boundaries", "cbm", "vbm", "is_gap_direct", "is_metal", "es_source_calc_id", "bandstructure", "dos", "dos_energy_up", "dos_energy_down", "is_magnetic", "ordering", "total_magnetization_normalized_vol", "total_magnetization_normalized_formula_units", "num_magnetic_sites", "num_unique_magnetic_sites", "types_of_magnetic_species", "bulk_modulus", "shear_modulus", "universal_anisotropy", "homogeneous_poisson", "e_total", "e_ionic", "e_electronic", "n", "e_ij_max", "weighted_surface_energy_EV_PER_ANG2", "weighted_surface_energy", "weighted_work_function", "surface_anisotropy", "shape_factor", "has_reconstructed", "possible_species", "has_props", "theoretical", "database_IDs"]}