{
  "builder_meta": null,
  "nsites": null,
  "elements": null,
  "nelements": null,
  "composition": null,
  "composition_reduced": null,
  "formula_pretty": "Lu3Ga",
  "formula_anonymous": "AB3",
  "chemsys": null,
  "volume": 197.86181413666756,
  "density": 9.980666418593955,
  "density_atomic": 24.732726767083445,
  "symmetry": null,
  "property_name": null,
  "material_id": "mp-973300",
  "deprecated": null,
  "deprecation_reasons": null,
  "last_updated": null,
  "origins": null,
  "warnings": null,
  "structure": {
    "@module": "pymatgen.core.structure",
    "@class": "Structure",
    "charge": 0,
    "lattice": {
      "matrix": [
        [3.303261, -5.721416, 0.0],
        [3.303261, 5.721416, 0.0],
        [0.0, 0.0, 5.234625]
      ],
      "pbc": [true, true, true],
      "a": 6.606522101618748,
      "b": 6.606522101618748,
      "c": 5.234625,
      "alpha": 90.0,
      "beta": 90.0,
      "gamma": 120.00000101763713,
      "volume": 197.86181413666756
    },
    "properties": {},
    "sites": [
      {
        "species": [{ "element": "Lu", "occu": 1 }],
        "abc": [0.17183299999999901, 0.343665, 0.25],
        "properties": { "magmom": -0.025 },
        "label": "Lu",
        "xyz": [1.7028244389779967, 0.9831223541120055, 1.30865625]
      },
      {
        "species": [{ "element": "Lu", "occu": 1 }],
        "abc": [0.656335, 0.828167, 0.25],
        "properties": { "magmom": -0.032 },
        "label": "Lu",
        "xyz": [4.903697561022, 0.9831223541120004, 1.30865625]
      },
      {
        "species": [{ "element": "Lu", "occu": 1 }],
        "abc": [0.17183299999999901, 0.828167, 0.25],
        "properties": { "magmom": -0.024 },
        "label": "Lu",
        "xyz": [3.303260999999997, 3.7551598489440057, 1.30865625]
      },
      {
        "species": [{ "element": "Lu", "occu": 1 }],
        "abc": [0.828167, 0.656335, 0.75],
        "properties": { "magmom": -0.025 },
        "label": "Lu",
        "xyz": [4.903697561022, -0.9831223541120004, 3.92596875]
      },
      {
        "species": [{ "element": "Lu", "occu": 1 }],
        "abc": [0.343665, 0.17183299999999901, 0.75],
        "properties": { "magmom": -0.032 },
        "label": "Lu",
        "xyz": [1.7028244389779967, -0.9831223541120055, 3.92596875]
      },
      {
        "species": [{ "element": "Lu", "occu": 1 }],
        "abc": [0.828167, 0.17183299999999901, 0.75],
        "properties": { "magmom": -0.024 },
        "label": "Lu",
        "xyz": [3.303260999999997, -3.7551598489440057, 3.92596875]
      },
      {
        "species": [{ "element": "Ga", "occu": 1 }],
        "abc": [0.333333, 0.666667, 0.75],
        "properties": { "magmom": 0.002 },
        "label": "Ga",
        "xyz": [3.303261, 1.9071424809439999, 3.92596875]
      },
      {
        "species": [{ "element": "Ga", "occu": 1 }],
        "abc": [0.666667, 0.333333, 0.25],
        "properties": { "magmom": 0.002 },
        "label": "Ga",
        "xyz": [3.303261, -1.9071424809439999, 1.30865625]
      }
    ]
  },
  "task_ids": null,
  "uncorrected_energy_per_atom": null,
  "energy_per_atom": -31.718779050000002,
  "formation_energy_per_atom": -0.29817492499999704,
  "energy_above_hull": 0.10216128093750101,
  "is_stable": false,
  "equilibrium_reaction_energy_per_atom": null,
  "decomposes_to": null,
  "xas": null,
  "grain_boundaries": null,
  "band_gap": 0.0,
  "cbm": null,
  "vbm": null,
  "efermi": 3.28256079,
  "is_gap_direct": null,
  "is_metal": null,
  "es_source_calc_id": null,
  "bandstructure": null,
  "dos": null,
  "dos_energy_up": null,
  "dos_energy_down": null,
  "is_magnetic": null,
  "ordering": null,
  "total_magnetization": 0.219692199999999,
  "total_magnetization_normalized_vol": null,
  "total_magnetization_normalized_formula_units": null,
  "num_magnetic_sites": null,
  "num_unique_magnetic_sites": null,
  "types_of_magnetic_species": null,
  "bulk_modulus": null,
  "shear_modulus": null,
  "universal_anisotropy": null,
  "homogeneous_poisson": null,
  "e_total": null,
  "e_ionic": null,
  "e_electronic": null,
  "n": null,
  "e_ij_max": null,
  "weighted_surface_energy_EV_PER_ANG2": null,
  "weighted_surface_energy": null,
  "weighted_work_function": null,
  "surface_anisotropy": null,
  "shape_factor": null,
  "has_reconstructed": null,
  "possible_species": null,
  "has_props": null,
  "theoretical": null,
  "database_IDs": null,
  "fields_not_requested": [
    "builder_meta",
    "nsites",
    "elements",
    "nelements",
    "composition",
    "composition_reduced",
    "chemsys",
    "symmetry",
    "property_name",
    "deprecated",
    "deprecation_reasons",
    "last_updated",
    "origins",
    "warnings",
    "task_ids",
    "uncorrected_energy_per_atom",
    "equilibrium_reaction_energy_per_atom",
    "decomposes_to",
    "xas",
    "grain_boundaries",
    "cbm",
    "vbm",
    "is_gap_direct",
    "is_metal",
    "es_source_calc_id",
    "bandstructure",
    "dos",
    "dos_energy_up",
    "dos_energy_down",
    "is_magnetic",
    "ordering",
    "total_magnetization_normalized_vol",
    "total_magnetization_normalized_formula_units",
    "num_magnetic_sites",
    "num_unique_magnetic_sites",
    "types_of_magnetic_species",
    "bulk_modulus",
    "shear_modulus",
    "universal_anisotropy",
    "homogeneous_poisson",
    "e_total",
    "e_ionic",
    "e_electronic",
    "n",
    "e_ij_max",
    "weighted_surface_energy_EV_PER_ANG2",
    "weighted_surface_energy",
    "weighted_work_function",
    "surface_anisotropy",
    "shape_factor",
    "has_reconstructed",
    "possible_species",
    "has_props",
    "theoretical",
    "database_IDs"
  ]
}
