{
  "builder_meta": null,
  "nsites": null,
  "elements": null,
  "nelements": null,
  "composition": null,
  "composition_reduced": null,
  "formula_pretty": "Lu3Ga2",
  "formula_anonymous": "A2B3",
  "chemsys": null,
  "volume": 916.3441434027177,
  "density": 9.631090286075493,
  "density_atomic": 22.908603585067944,
  "symmetry": null,
  "property_name": null,
  "material_id": "mp-1199315",
  "deprecated": null,
  "deprecation_reasons": null,
  "last_updated": null,
  "origins": null,
  "warnings": null,
  "structure": {
    "@module": "pymatgen.core.structure",
    "@class": "Structure",
    "charge": 0,
    "lattice": {
      "matrix": [
        [-5.6419435, -5.6419435, 7.19682847],
        [-5.6419435, 5.6419435, -7.19682847],
        [5.6419435, -5.6419435, -7.19682847]
      ],
      "pbc": [true, true, true],
      "a": 10.745110187475372,
      "b": 10.745110187475372,
      "c": 10.745110187475372,
      "alpha": 95.9002766745019,
      "beta": 116.65398208757698,
      "gamma": 116.65398208757698,
      "volume": 916.3441434027177
    },
    "properties": {},
    "sites": [
      {
        "species": [{ "element": "Lu", "occu": 1 }],
        "abc": [0.5, 0.85466513, 0.35466513],
        "properties": { "magmom": -0.017 },
        "label": "Lu",
        "xyz": [-5.6419435, 0.0, -5.1049282098005015]
      },
      {
        "species": [{ "element": "Lu", "occu": 1 }],
        "abc": [0.5, 0.35466513, 0.85466513],
        "properties": { "magmom": -0.017 },
        "label": "Lu",
        "xyz": [0.0, -5.6419435, -5.1049282098005015]
      },
      {
        "species": [{ "element": "Lu", "occu": 1 }],
        "abc": [0.5, 0.14533487, 0.64533487],
        "properties": { "magmom": -0.017 },
        "label": "Lu",
        "xyz": [0.0, -5.6419435, -2.0919002601994983]
      },
      {
        "species": [{ "element": "Lu", "occu": 1 }],
        "abc": [0.5, 0.64533487, 0.14533487],
        "properties": { "magmom": -0.017 },
        "label": "Lu",
        "xyz": [-5.6419435, -1.1102230246251565e-16, -2.0919002601994983]
      },
      {
        "species": [{ "element": "Lu", "occu": 1 }],
        "abc": [0.16132616, 0.33066258, 0.83066258],
        "properties": { "magmom": -0.117 },
        "label": "Lu",
        "xyz": [1.9107786702080403, -3.73116482979196, -7.19682127317153]
      },
      {
        "species": [{ "element": "Lu", "occu": 1 }],
        "abc": [0.83867384, 0.66933742, 0.16933742000000002],
        "properties": { "magmom": -0.117 },
        "label": "Lu",
        "xyz": [-7.55272217020804, -1.91077867020804, -7.1968284702794705e-6]
      },
      {
        "species": [{ "element": "Lu", "occu": 1 }],
        "abc": [0.5, 0.16933742000000002, 0.33066258],
        "properties": { "magmom": -0.117 },
        "label": "Lu",
        "xyz": [-1.91078431215154, -3.73115918784846, 0.0]
      },
      {
        "species": [{ "element": "Lu", "occu": 1 }],
        "abc": [0.5, 0.83066258, 0.66933742],
        "properties": { "magmom": -0.117 },
        "label": "Lu",
        "xyz": [-3.7311591878484602, -1.9107843121515398, -7.19682847]
      },
      {
        "species": [{ "element": "Lu", "occu": 1 }],
        "abc": [0.72977861, 0.56923996, 0.43292125000000004],
        "properties": { "magmom": -0.054 },
        "label": "Lu",
        "xyz": [-4.88647214494142, -3.348267225315651, -1.9602908504126222]
      },
      {
        "species": [{ "element": "Lu", "occu": 1 }],
        "abc": [0.27022139, 0.70314464, 0.83946135],
        "properties": { "magmom": -0.054 },
        "label": "Lu",
        "xyz": [-0.7554826389455798, -2.2936649907973505, -9.157133714069563]
      },
      {
        "species": [{ "element": "Lu", "occu": 1 }],
        "abc": [0.86368329, 0.20314464000000002, 0.93292125],
        "properties": { "magmom": -0.054 },
        "label": "Lu",
        "xyz": [-0.7554939228325805, -8.990210725315649, -1.9602908504126217]
      },
      {
        "species": [{ "element": "Lu", "occu": 1 }],
        "abc": [0.13631671, 0.06923996, 0.33946135],
        "properties": { "magmom": -0.054 },
        "label": "Lu",
        "xyz": [0.7554826389455798, -2.29366499079735, -1.9603052440695616]
      },
      {
        "species": [{ "element": "Lu", "occu": 1 }],
        "abc": [0.86368329, 0.43292125000000004, 0.70314464],
        "properties": { "magmom": -0.054 },
        "label": "Lu",
        "xyz": [-3.348267225315651, -6.39743742283258, -1.9602908504126222]
      },
      {
        "species": [{ "element": "Lu", "occu": 1 }],
        "abc": [0.13631671, 0.83946135, 0.56923996],
        "properties": { "magmom": -0.054 },
        "label": "Lu",
        "xyz": [-2.2936649907973505, 0.7554826389455807, -9.157133714069563]
      },
      {
        "species": [{ "element": "Lu", "occu": 1 }],
        "abc": [0.72977861, 0.93292125, 0.06923996],
        "properties": { "magmom": -0.054 },
        "label": "Lu",
        "xyz": [-8.99021072531565, 0.7554713550585797, -1.9602908504126217]
      },
      {
        "species": [{ "element": "Lu", "occu": 1 }],
        "abc": [0.27022139, 0.33946135, 0.20314464000000002],
        "properties": { "magmom": -0.054 },
        "label": "Lu",
        "xyz": [-2.2936649907973496, -0.7554826389455802, -1.9603052440695619]
      },
      {
        "species": [{ "element": "Lu", "occu": 1 }],
        "abc": [0.27022139, 0.43076004, 0.56707875],
        "properties": { "magmom": -0.054 },
        "label": "Lu",
        "xyz": [-0.7554713550585803, -2.2936762746843495, -5.236537619587378]
      },
      {
        "species": [{ "element": "Lu", "occu": 1 }],
        "abc": [0.72977861, 0.29685536, 0.16053865],
        "properties": { "magmom": -0.054 },
        "label": "Lu",
        "xyz": [-4.88646086105442, -3.3482785092026504, 1.960305244069562]
      },
      {
        "species": [{ "element": "Lu", "occu": 1 }],
        "abc": [0.13631671, 0.79685536, 0.06707875],
        "properties": { "magmom": -0.054 },
        "label": "Lu",
        "xyz": [-4.88644957716742, 3.3482672253156505, -5.236537619587378]
      },
      {
        "species": [{ "element": "Lu", "occu": 1 }],
        "abc": [0.86368329, 0.93076004, 0.66053865],
        "properties": { "magmom": -0.054 },
        "label": "Lu",
        "xyz": [-6.39742613894558, -3.34827850920265, -5.236523225930438]
      },
      {
        "species": [{ "element": "Lu", "occu": 1 }],
        "abc": [0.13631671, 0.56707875, 0.29685536],
        "properties": { "magmom": -0.054 },
        "label": "Lu",
        "xyz": [-2.2936762746843495, 0.7554939228325797, -5.236537619587378]
      },
      {
        "species": [{ "element": "Lu", "occu": 1 }],
        "abc": [0.86368329, 0.16053865, 0.43076004],
        "properties": { "magmom": -0.054 },
        "label": "Lu",
        "xyz": [-3.3482785092026495, -6.39742613894558, 1.9603052440695619]
      },
      {
        "species": [{ "element": "Lu", "occu": 1 }],
        "abc": [0.27022139, 0.06707875, 0.93076004],
        "properties": { "magmom": -0.054 },
        "label": "Lu",
        "xyz": [3.3482672253156505, -6.39741485505858, -5.236537619587378]
      },
      {
        "species": [{ "element": "Lu", "occu": 1 }],
        "abc": [0.72977861, 0.66053865, 0.79685536],
        "properties": { "magmom": -0.054 },
        "label": "Lu",
        "xyz": [-3.3482785092026495, -4.88646086105442, -5.236523225930438]
      },
      {
        "species": [{ "element": "Ga", "occu": 1 }],
        "abc": [0.0, 0.75, 0.75],
        "properties": { "magmom": 0.007 },
        "label": "Ga",
        "xyz": [0.0, 0.0, -10.795242705]
      },
      {
        "species": [{ "element": "Ga", "occu": 1 }],
        "abc": [0.0, 0.25, 0.25],
        "properties": { "magmom": 0.007 },
        "label": "Ga",
        "xyz": [0.0, 0.0, -3.598414235]
      },
      {
        "species": [{ "element": "Ga", "occu": 1 }],
        "abc": [0.0, 0.5, 0.5],
        "properties": { "magmom": 0.049 },
        "label": "Ga",
        "xyz": [0.0, 0.0, -7.19682847]
      },
      {
        "species": [{ "element": "Ga", "occu": 1 }],
        "abc": [0.0, 0.0, 0.0],
        "properties": { "magmom": 0.049 },
        "label": "Ga",
        "xyz": [0.0, 0.0, 0.0]
      },
      {
        "species": [{ "element": "Ga", "occu": 1 }],
        "abc": [0.26236175, 0.88118188, 0.38118188000000003],
        "properties": { "magmom": 0.002 },
        "label": "Ga",
        "xyz": [-4.301201920061125, 1.3407415799388747, -7.196842935625225]
      },
      {
        "species": [{ "element": "Ga", "occu": 1 }],
        "abc": [0.73763825, 0.11881812, 0.61881812],
        "properties": { "magmom": 0.002 },
        "label": "Ga",
        "xyz": [-1.3407415799388755, -6.982685079938875, 1.4465625225668077e-5]
      },
      {
        "species": [{ "element": "Ga", "occu": 1 }],
        "abc": [0.5, 0.61881812, 0.88118188],
        "properties": { "magmom": 0.002 },
        "label": "Ga",
        "xyz": [-1.3407302396324399, -4.301213260367559, -7.19682847]
      },
      {
        "species": [{ "element": "Ga", "occu": 1 }],
        "abc": [0.5, 0.38118188000000003, 0.11881812],
        "properties": { "magmom": 0.002 },
        "label": "Ga",
        "xyz": [-4.30121326036756, -1.3407302396324399, -1.1102230246251565e-16]
      },
      {
        "species": [{ "element": "Ga", "occu": 1 }],
        "abc": [0.14615725000000002, 0.12264989, 0.62264989],
        "properties": { "magmom": 0.005 },
        "label": "Ga",
        "xyz": [1.9963608033846252, -3.6455826966153753, -4.311926017491829]
      },
      {
        "species": [{ "element": "Ga", "occu": 1 }],
        "abc": [0.85384275, 0.47649264, 0.97649264],
        "properties": { "magmom": 0.005 },
        "label": "Ga",
        "xyz": [-1.9963608033846247, -7.638304303384625, -4.31192601749183]
      },
      {
        "species": [{ "element": "Ga", "occu": 1 }],
        "abc": [0.5, 0.97649264, 0.12264989],
        "properties": { "magmom": 0.005 },
        "label": "Ga",
        "xyz": [-7.638304303384626, 1.9963608033846252, -4.31192601749183]
      },
      {
        "species": [{ "element": "Ga", "occu": 1 }],
        "abc": [0.5, 0.62264989, 0.47649264],
        "properties": { "magmom": 0.005 },
        "label": "Ga",
        "xyz": [-3.6455826966153753, -1.9963608033846247, -4.31192601749183]
      },
      {
        "species": [{ "element": "Ga", "occu": 1 }],
        "abc": [0.85384275, 0.8773501100000001, 0.37735011],
        "properties": { "magmom": 0.005 },
        "label": "Ga",
        "xyz": [-7.638304303384626, -1.9963608033846243, -2.8849024525081712]
      },
      {
        "species": [{ "element": "Ga", "occu": 1 }],
        "abc": [0.14615725000000002, 0.52350736, 0.02350636],
        "properties": { "magmom": 0.005 },
        "label": "Ga",
        "xyz": [-3.645588338558875, 1.9963664453281247, -2.8848952556797003]
      },
      {
        "species": [{ "element": "Ga", "occu": 1 }],
        "abc": [0.5, 0.02350636, 0.8773501100000001],
        "properties": { "magmom": 0.005 },
        "label": "Ga",
        "xyz": [1.9963664453281256, -7.638309945328126, -2.884895255679701]
      },
      {
        "species": [{ "element": "Ga", "occu": 1 }],
        "abc": [0.5, 0.37735011, 0.52350736],
        "properties": { "magmom": 0.005 },
        "label": "Ga",
        "xyz": [-1.9963608033846247, -3.645582696615375, -2.884902452508171]
      }
    ]
  },
  "task_ids": null,
  "uncorrected_energy_per_atom": null,
  "energy_per_atom": -28.0655764195,
  "formation_energy_per_atom": -0.6405379294999981,
  "energy_above_hull": 0.0,
  "is_stable": true,
  "equilibrium_reaction_energy_per_atom": null,
  "decomposes_to": null,
  "xas": null,
  "grain_boundaries": null,
  "band_gap": 0.026499999999999004,
  "cbm": null,
  "vbm": null,
  "efermi": 3.19870557,
  "is_gap_direct": null,
  "is_metal": null,
  "es_source_calc_id": null,
  "bandstructure": null,
  "dos": null,
  "dos_energy_up": null,
  "dos_energy_down": null,
  "is_magnetic": null,
  "ordering": null,
  "total_magnetization": 2.0313108,
  "total_magnetization_normalized_vol": null,
  "total_magnetization_normalized_formula_units": null,
  "num_magnetic_sites": null,
  "num_unique_magnetic_sites": null,
  "types_of_magnetic_species": null,
  "bulk_modulus": null,
  "shear_modulus": null,
  "universal_anisotropy": null,
  "homogeneous_poisson": null,
  "e_total": null,
  "e_ionic": null,
  "e_electronic": null,
  "n": null,
  "e_ij_max": null,
  "weighted_surface_energy_EV_PER_ANG2": null,
  "weighted_surface_energy": null,
  "weighted_work_function": null,
  "surface_anisotropy": null,
  "shape_factor": null,
  "has_reconstructed": null,
  "possible_species": null,
  "has_props": null,
  "theoretical": null,
  "database_IDs": null,
  "fields_not_requested": [
    "builder_meta",
    "nsites",
    "elements",
    "nelements",
    "composition",
    "composition_reduced",
    "chemsys",
    "symmetry",
    "property_name",
    "deprecated",
    "deprecation_reasons",
    "last_updated",
    "origins",
    "warnings",
    "task_ids",
    "uncorrected_energy_per_atom",
    "equilibrium_reaction_energy_per_atom",
    "decomposes_to",
    "xas",
    "grain_boundaries",
    "cbm",
    "vbm",
    "is_gap_direct",
    "is_metal",
    "es_source_calc_id",
    "bandstructure",
    "dos",
    "dos_energy_up",
    "dos_energy_down",
    "is_magnetic",
    "ordering",
    "total_magnetization_normalized_vol",
    "total_magnetization_normalized_formula_units",
    "num_magnetic_sites",
    "num_unique_magnetic_sites",
    "types_of_magnetic_species",
    "bulk_modulus",
    "shear_modulus",
    "universal_anisotropy",
    "homogeneous_poisson",
    "e_total",
    "e_ionic",
    "e_electronic",
    "n",
    "e_ij_max",
    "weighted_surface_energy_EV_PER_ANG2",
    "weighted_surface_energy",
    "weighted_work_function",
    "surface_anisotropy",
    "shape_factor",
    "has_reconstructed",
    "possible_species",
    "has_props",
    "theoretical",
    "database_IDs"
  ]
}
