{
  "builder_meta": null,
  "nsites": null,
  "elements": null,
  "nelements": null,
  "composition": null,
  "composition_reduced": null,
  "formula_pretty": "Lu3Ga5",
  "formula_anonymous": "A3B5",
  "chemsys": null,
  "volume": 627.1139096304679,
  "density": 9.251955161733786,
  "density_atomic": 19.597309675952122,
  "symmetry": null,
  "property_name": null,
  "material_id": "mp-1202542",
  "deprecated": null,
  "deprecation_reasons": null,
  "last_updated": null,
  "origins": null,
  "warnings": null,
  "structure": {
    "@module": "pymatgen.core.structure",
    "@class": "Structure",
    "charge": 0,
    "lattice": {
      "matrix": [
        [-4.103e-5, 1.43e-5, -5.963155],
        [-4.0560000000000005e-5, -9.4341613, 2.231e-5],
        [-11.14723196, -4.8460000000000014e-5, -7.614e-5]
      ],
      "pbc": [true, true, true],
      "a": 5.963155000158301,
      "b": 9.43416130011357,
      "c": 11.147231960365367,
      "alpha": 89.99950459085571,
      "beta": 89.99921441924766,
      "gamma": 90.00027289062722,
      "volume": 627.1139096304679
    },
    "properties": {},
    "sites": [
      {
        "species": [{ "element": "Lu", "occu": 1 }],
        "abc": [0.65113631, 0.7499837300000001, 0.42547436],
        "properties": { "magmom": 0.0 },
        "label": "Lu",
        "xyz": [-4.742918519415433, -7.075478788433902, -3.882842406138805]
      },
      {
        "species": [{ "element": "Lu", "occu": 1 }],
        "abc": [0.84885499, 0.74998666, 0.92542642],
        "properties": { "magmom": -0.0 },
        "label": "Lu",
        "xyz": [-10.316008213631552, -7.075527830826213, -5.061907607658685]
      },
      {
        "species": [{ "element": "Lu", "occu": 1 }],
        "abc": [0.34888256, 0.25001262, 0.57461021],
        "properties": { "magmom": 0.0 },
        "label": "Lu",
        "xyz": [-6.405337752617616, -2.358682240705775, -2.080478955116637]
      },
      {
        "species": [{ "element": "Lu", "occu": 1 }],
        "abc": [0.15114575, 0.25001656, 0.07448628],
        "properties": { "magmom": -0.0 },
        "label": "Lu",
        "xyz": [-0.8303321831793049, -2.358698002932032, -0.9013056283571557]
      },
      {
        "species": [{ "element": "Lu", "occu": 1 }],
        "abc": [0.60968519, 0.9892851300000001, 0.14797842],
        "properties": { "magmom": 0.0 },
        "label": "Lu",
        "xyz": [-1.6496149136025215, -9.333073940647486, -3.6356364853000986]
      },
      {
        "species": [{ "element": "Lu", "occu": 1 }],
        "abc": [0.89030752, 0.51071615, 0.64807665],
        "properties": { "magmom": -0.0 },
        "label": "Lu",
        "xyz": [-7.224317989374324, -4.818197212011918, -5.309079689904425]
      },
      {
        "species": [{ "element": "Lu", "occu": 1 }],
        "abc": [0.39031807, 0.48929576, 0.8519737],
        "properties": { "magmom": 0.0 },
        "label": "Lu",
        "xyz": [-9.497184318305889, -4.616130828343189, -2.3275811037999627]
      },
      {
        "species": [{ "element": "Lu", "occu": 1 }],
        "abc": [0.10968855, 0.01069021, 0.35197418],
        "properties": { "magmom": -0.0 },
        "label": "Lu",
        "xyz": [-3.923542762506917, -0.1008686535933708, -0.6541163861907302]
      },
      {
        "species": [{ "element": "Lu", "occu": 1 }],
        "abc": [0.39032181, 0.01070603, 0.85197491],
        "properties": { "magmom": -0.0 },
        "label": "Lu",
        "xyz": [-9.497178395010565, -0.10103811900489458, -2.3276140834286685]
      },
      {
        "species": [{ "element": "Lu", "occu": 1 }],
        "abc": [0.10969065, 0.4893088, 0.35197133],
        "properties": { "magmom": 0.0 },
        "label": "Lu",
        "xyz": [-3.923530405752004, -4.616233632663797, -0.6541182306184882]
      },
      {
        "species": [{ "element": "Lu", "occu": 1 }],
        "abc": [0.60968268, 0.51071413, 0.14797952],
        "properties": { "magmom": 0.0 },
        "label": "Lu",
        "xyz": [-1.6496077646149323, -4.818157933234384, -3.635632194783813]
      },
      {
        "species": [{ "element": "Lu", "occu": 1 }],
        "abc": [0.89030721, 0.98928269, 0.64807566],
        "properties": { "magmom": -0.0 },
        "label": "Lu",
        "xyz": [-7.224326364260826, -9.333071143111278, -5.309067164431489]
      },
      {
        "species": [{ "element": "Ga", "occu": 1 }],
        "abc": [0.62645546, 0.44732577, 0.40892794],
        "properties": { "magmom": 0.0 },
        "label": "Ga",
        "xyz": [-4.558458449105717, -4.2201543261615955, -3.735672164511723]
      },
      {
        "species": [{ "element": "Ga", "occu": 1 }],
        "abc": [0.8735400400000001, 0.05266354, 0.90881638],
        "properties": { "magmom": 0.0 },
        "label": "Ga",
        "xyz": [-10.130824974288528, -0.4968678806082048, -5.209122679581797]
      },
      {
        "species": [{ "element": "Ga", "occu": 1 }],
        "abc": [0.37355552000000003, 0.9473252600000001, 0.59127802],
        "properties": { "magmom": -0.0 },
        "label": "Ga",
        "xyz": [-6.591166992285049, -8.937242617893352, -2.2275933519474926]
      },
      {
        "species": [{ "element": "Ga", "occu": 1 }],
        "abc": [0.12646027, 0.55267871, 0.09098218],
        "properties": { "magmom": 0.0 },
        "label": "Ga",
        "xyz": [-1.0142270699998284, -5.214062697830505, -0.7540967884730152]
      },
      {
        "species": [{ "element": "Ga", "occu": 1 }],
        "abc": [0.373550999999999, 0.55266916, 0.59127616],
        "properties": { "magmom": -0.0 },
        "label": "Ga",
        "xyz": [-6.591130250996733, -5.213993312438921, -2.227575203122857]
      },
      {
        "species": [{ "element": "Ga", "occu": 1 }],
        "abc": [0.12646409, 0.9473147900000001, 0.09097956],
        "properties": { "magmom": 0.0 },
        "label": "Ga",
        "xyz": [-1.0142138708482327, -8.937123131168619, -0.7541107631946835]
      },
      {
        "species": [{ "element": "Ga", "occu": 1 }],
        "abc": [0.62645276, 0.05268048, 0.40892786000000003],
        "properties": { "magmom": -0.0 },
        "label": "Ga",
        "xyz": [-4.558441550403417, -0.4970070040510516, -3.735664868523552]
      },
      {
        "species": [{ "element": "Ga", "occu": 1 }],
        "abc": [0.87353649, 0.44734241, 0.90881478],
        "properties": { "magmom": 0.0 },
        "label": "Ga",
        "xyz": [-10.130823146746703, -4.220332001863165, -5.209092704974132]
      },
      {
        "species": [{ "element": "Ga", "occu": 1 }],
        "abc": [0.32445672000000003, 0.74998844, 0.24904113],
        "properties": { "magmom": -0.0 },
        "label": "Ga",
        "xyz": [-2.7761629756808626, -7.075519344897435, -1.9347879419011422]
      },
      {
        "species": [{ "element": "Ga", "occu": 1 }],
        "abc": [0.175555699999999, 0.74998675, 0.74920832],
        "properties": { "magmom": -0.0 },
        "label": "Ga",
        "xyz": [-8.351636551914858, -7.075529768551452, -1.0469061627505865]
      },
      {
        "species": [{ "element": "Ga", "occu": 1 }],
        "abc": [0.67555003, 0.25001376000000003, 0.75096474],
        "properties": { "magmom": 0.0 },
        "label": "Ga",
        "xyz": [-8.371216008936926, -2.3586968704453595, -4.028461139792969]
      },
      {
        "species": [{ "element": "Ga", "occu": 1 }],
        "abc": [0.82443289, 0.25001345, 0.25078966],
        "properties": { "magmom": -0.0 },
        "label": "Ga",
        "xyz": [-2.795654480216542, -2.3586675783460813, -4.916234627492593]
      },
      {
        "species": [{ "element": "Ga", "occu": 1 }],
        "abc": [0.12527103, 0.74998462, 0.49376014],
        "properties": { "magmom": -0.0 },
        "label": "Ga",
        "xyz": [-5.504094372428622, -7.075498013839861, -0.7470314316398375]
      },
      {
        "species": [{ "element": "Ga", "occu": 1 }],
        "abc": [0.37471324, 0.74998628, 0.99350058],
        "properties": { "magmom": -0.0 },
        "label": "Ga",
        "xyz": [-11.074827211582289, -7.075534324945738, -2.2345320436124543]
      },
      {
        "species": [{ "element": "Ga", "occu": 1 }],
        "abc": [0.87469375, 0.25001231, 0.50650138],
        "properties": { "magmom": -0.0 },
        "label": "Ga",
        "xyz": [-5.646134400103961, -2.358668496461853, -5.2159673960216875]
      },
      {
        "species": [{ "element": "Ga", "occu": 1 }],
        "abc": [0.62525483, 0.25001513000000003, 0.00623731],
        "properties": { "magmom": -0.0 },
        "label": "Ga",
        "xyz": [-0.06956453619577531, -2.3586744249764426, -3.728486362859883]
      },
      {
        "species": [{ "element": "Ga", "occu": 1 }],
        "abc": [0.89574677, 0.74999299, 0.20053565],
        "properties": { "magmom": 0.0 },
        "label": "Ga",
        "xyz": [-2.2354845790050213, -7.075551750308074, -5.341475366700134]
      },
      {
        "species": [{ "element": "Ga", "occu": 1 }],
        "abc": [0.60424705, 0.7499871, 0.700785],
        "properties": { "magmom": -0.0 },
        "label": "Ga",
        "xyz": [-7.811868160821837, -7.075524593627516, -3.603255443000449]
      },
      {
        "species": [{ "element": "Ga", "occu": 1 }],
        "abc": [0.10426986, 0.25001159, 0.79938581],
        "properties": { "magmom": -0.0 },
        "label": "Ga",
        "xyz": [-8.910953468264932, -2.3586869141068214, -0.6218326244853005]
      },
      {
        "species": [{ "element": "Ga", "occu": 1 }],
        "abc": [0.39577019, 0.25001199, 0.29928476],
        "properties": { "magmom": -0.0 },
        "label": "Ga",
        "xyz": [-3.3362230207501393, -2.3586622844197396, -2.3600561971235803]
      }
    ]
  },
  "task_ids": null,
  "uncorrected_energy_per_atom": null,
  "energy_per_atom": -22.114775784375,
  "formation_energy_per_atom": -0.683085746874997,
  "energy_above_hull": 0.0,
  "is_stable": true,
  "equilibrium_reaction_energy_per_atom": null,
  "decomposes_to": null,
  "xas": null,
  "grain_boundaries": null,
  "band_gap": 0.0,
  "cbm": null,
  "vbm": null,
  "efermi": 3.62985992,
  "is_gap_direct": null,
  "is_metal": null,
  "es_source_calc_id": null,
  "bandstructure": null,
  "dos": null,
  "dos_energy_up": null,
  "dos_energy_down": null,
  "is_magnetic": null,
  "ordering": null,
  "total_magnetization": 3.5e-6,
  "total_magnetization_normalized_vol": null,
  "total_magnetization_normalized_formula_units": null,
  "num_magnetic_sites": null,
  "num_unique_magnetic_sites": null,
  "types_of_magnetic_species": null,
  "bulk_modulus": null,
  "shear_modulus": null,
  "universal_anisotropy": null,
  "homogeneous_poisson": null,
  "e_total": null,
  "e_ionic": null,
  "e_electronic": null,
  "n": null,
  "e_ij_max": null,
  "weighted_surface_energy_EV_PER_ANG2": null,
  "weighted_surface_energy": null,
  "weighted_work_function": null,
  "surface_anisotropy": null,
  "shape_factor": null,
  "has_reconstructed": null,
  "possible_species": null,
  "has_props": null,
  "theoretical": null,
  "database_IDs": null,
  "fields_not_requested": [
    "builder_meta",
    "nsites",
    "elements",
    "nelements",
    "composition",
    "composition_reduced",
    "chemsys",
    "symmetry",
    "property_name",
    "deprecated",
    "deprecation_reasons",
    "last_updated",
    "origins",
    "warnings",
    "task_ids",
    "uncorrected_energy_per_atom",
    "equilibrium_reaction_energy_per_atom",
    "decomposes_to",
    "xas",
    "grain_boundaries",
    "cbm",
    "vbm",
    "is_gap_direct",
    "is_metal",
    "es_source_calc_id",
    "bandstructure",
    "dos",
    "dos_energy_up",
    "dos_energy_down",
    "is_magnetic",
    "ordering",
    "total_magnetization_normalized_vol",
    "total_magnetization_normalized_formula_units",
    "num_magnetic_sites",
    "num_unique_magnetic_sites",
    "types_of_magnetic_species",
    "bulk_modulus",
    "shear_modulus",
    "universal_anisotropy",
    "homogeneous_poisson",
    "e_total",
    "e_ionic",
    "e_electronic",
    "n",
    "e_ij_max",
    "weighted_surface_energy_EV_PER_ANG2",
    "weighted_surface_energy",
    "weighted_work_function",
    "surface_anisotropy",
    "shape_factor",
    "has_reconstructed",
    "possible_species",
    "has_props",
    "theoretical",
    "database_IDs"
  ]
}
