{"builder_meta": null, "nsites": null, "elements": null, "nelements": null, "composition": null, "composition_reduced": null, "formula_pretty": "Lu3Ge4", "formula_anonymous": "A3B4", "chemsys": null, "volume": 288.46559632139673, "density": 9.388328210065048, "density_atomic": 20.604685451528336, "symmetry": null, "property_name": null, "material_id": "mp-1104514", "deprecated": null, "deprecation_reasons": null, "last_updated": null, "origins": null, "warnings": null, "structure": {"@module": "pymatgen.core.structure", "@class": "Structure", "charge": 0, "lattice": {"matrix": [[3.96178992, 0.0, -0.0], [-1.98089445, 5.20390459, -0.0], [0.0, -0.0, 13.9917893]], "pbc": [true, true, true], "a": 3.96178992, "b": 5.568174369024723, "c": 13.9917893, "alpha": 90.0, "beta": 90.0, "gamma": 110.83959791041472, "volume": 288.46559632139673}, "properties": {}, "sites": [{"species": [{"element": "Lu", "occu": 1}], "abc": [0.33260934000000003, 0.6652186800000001, 0.40314713], "properties": {"magmom": 0.0}, "label": "Lu", "xyz": [3.392615268715815e-07, 3.461734542205741, 5.640749699859709]}, {"species": [{"element": "Lu", "occu": 1}], "abc": [0.66739066, 0.33478132, 0.59685287], "properties": {"magmom": 0.0}, "label": "Lu", "xyz": [1.9808951307384737, 1.7421700477942585, 8.351039600140291]}, {"species": [{"element": "Lu", "occu": 1}], "abc": [0.33260934000000003, 0.6652186800000001, 0.09685287000000001], "properties": {"magmom": 0.0}, "label": "Lu", "xyz": [3.392615268715815e-07, 3.461734542205741, 1.3551449501402912]}, {"species": [{"element": "Lu", "occu": 1}], "abc": [0.66739066, 0.33478132, 0.90314713], "properties": {"magmom": 0.0}, "label": "Lu", "xyz": [1.9808951307384737, 1.7421700477942585, 12.63664434985971]}, {"species": [{"element": "Lu", "occu": 1}], "abc": [0.05093788, 0.10187576, 0.25], "properties": {"magmom": -0.0}, "label": "Lu", "xyz": [5.195663760337865e-08, 0.5301517350737384, 3.497947325]}, {"species": [{"element": "Lu", "occu": 1}], "abc": [0.94906212, 0.89812424, 0.75], "properties": {"magmom": -0.0}, "label": "Lu", "xyz": [1.9808954180433624, 4.673752854926262, 10.493841975]}, {"species": [{"element": "Ge", "occu": 1}], "abc": [0.37746266, 0.75492431, 0.6086804100000001], "properties": {"magmom": -0.0}, "label": "Ge", "xyz": [2.385715307751113e-06, 3.928554081911583, 8.516528047757614]}, {"species": [{"element": "Ge", "occu": 1}], "abc": [0.62253734, 0.24507569, 0.39131959], "properties": {"magmom": -0.0}, "label": "Ge", "xyz": [1.9808930842846926, 1.275350508088417, 5.475261252242388]}, {"species": [{"element": "Ge", "occu": 1}], "abc": [0.37746266, 0.75492431, 0.89131959], "properties": {"magmom": -0.0}, "label": "Ge", "xyz": [2.385715307751113e-06, 3.928554081911583, 12.471155902242389]}, {"species": [{"element": "Ge", "occu": 1}], "abc": [0.62253734, 0.24507569, 0.10868041], "properties": {"magmom": -0.0}, "label": "Ge", "xyz": [1.9808930842846926, 1.275350508088417, 1.5206333977576132]}, {"species": [{"element": "Ge", "occu": 1}], "abc": [0.78106787, 0.56213574, 0.25], "properties": {"magmom": -0.0}, "label": "Ge", "xyz": [1.9808952466892278, 2.925300757589046, 3.497947325]}, {"species": [{"element": "Ge", "occu": 1}], "abc": [0.21893213, 0.43786426, 0.75], "properties": {"magmom": -0.0}, "label": "Ge", "xyz": [2.2331077265125288e-07, 2.2786038324109534, 10.493841975]}, {"species": [{"element": "Ge", "occu": 1}], "abc": [-0.0, -0.0, 0.5], "properties": {"magmom": 0.0}, "label": "Ge", "xyz": [0.0, 0.0, 6.99589465]}, {"species": [{"element": "Ge", "occu": 1}], "abc": [-0.0, -0.0, 0.0], "properties": {"magmom": 0.0}, "label": "Ge", "xyz": [0.0, 0.0, 0.0]}]}, "task_ids": null, "uncorrected_energy_per_atom": null, "energy_per_atom": -5.302327272142857, "formation_energy_per_atom": -0.7227310178571421, "energy_above_hull": 0.0, "is_stable": true, "equilibrium_reaction_energy_per_atom": null, "decomposes_to": null, "xas": null, "grain_boundaries": null, "band_gap": 0.0, "cbm": null, "vbm": null, "efermi": 5.11731234, "is_gap_direct": null, "is_metal": null, "es_source_calc_id": null, "bandstructure": null, "dos": null, "dos_energy_up": null, "dos_energy_down": null, "is_magnetic": null, "ordering": null, "total_magnetization": 0.0, "total_magnetization_normalized_vol": null, "total_magnetization_normalized_formula_units": null, "num_magnetic_sites": null, "num_unique_magnetic_sites": null, "types_of_magnetic_species": null, "bulk_modulus": null, "shear_modulus": null, "universal_anisotropy": null, "homogeneous_poisson": null, "e_total": null, "e_ionic": null, "e_electronic": null, "n": null, "e_ij_max": null, "weighted_surface_energy_EV_PER_ANG2": null, "weighted_surface_energy": null, "weighted_work_function": null, "surface_anisotropy": null, "shape_factor": null, "has_reconstructed": null, "possible_species": null, "has_props": null, "theoretical": null, "database_IDs": null, "fields_not_requested": ["builder_meta", "nsites", "elements", "nelements", "composition", "composition_reduced", "chemsys", "symmetry", "property_name", "deprecated", "deprecation_reasons", "last_updated", "origins", "warnings", "task_ids", "uncorrected_energy_per_atom", "equilibrium_reaction_energy_per_atom", "decomposes_to", "xas", "grain_boundaries", "cbm", "vbm", "is_gap_direct", "is_metal", "es_source_calc_id", "bandstructure", "dos", "dos_energy_up", "dos_energy_down", "is_magnetic", "ordering", "total_magnetization_normalized_vol", "total_magnetization_normalized_formula_units", "num_magnetic_sites", "num_unique_magnetic_sites", "types_of_magnetic_species", "bulk_modulus", "shear_modulus", "universal_anisotropy", "homogeneous_poisson", "e_total", "e_ionic", "e_electronic", "n", "e_ij_max", "weighted_surface_energy_EV_PER_ANG2", "weighted_surface_energy", "weighted_work_function", "surface_anisotropy", "shape_factor", "has_reconstructed", "possible_species", "has_props", "theoretical", "database_IDs"]}