{"builder_meta": null, "nsites": null, "elements": null, "nelements": null, "composition": null, "composition_reduced": null, "formula_pretty": "Lu3Ir", "formula_anonymous": "AB3", "chemsys": null, "volume": 403.24612834881736, "density": 11.812165034174727, "density_atomic": 25.202883021801085, "symmetry": null, "property_name": null, "material_id": "mp-1189562", "deprecated": null, "deprecation_reasons": null, "last_updated": null, "origins": null, "warnings": null, "structure": {"@module": "pymatgen.core.structure", "@class": "Structure", "charge": 0, "lattice": {"matrix": [[0.0, 0.0, 6.235124], [7.161365, 0.0, 0.0], [0.0, 9.030864, 0.0]], "pbc": [true, true, true], "a": 6.235124, "b": 7.161365, "c": 9.030864, "alpha": 90.0, "beta": 90.0, "gamma": 90.0, "volume": 403.24612834881736}, "properties": {}, "sites": [{"species": [{"element": "Lu", "occu": 1}], "abc": [0.328974, 0.676705, 0.062208], "properties": {"magmom": 0.0}, "label": "Lu", "xyz": [4.846131502325, 0.561791987712, 2.051193682776]}, {"species": [{"element": "Lu", "occu": 1}], "abc": [0.171025999999999, 0.176705, 0.437791999999999], "properties": {"magmom": 0.0}, "label": "Lu", "xyz": [1.265449002325, 3.9536400122879907, 1.0663683172239937]}, {"species": [{"element": "Lu", "occu": 1}], "abc": [0.671026, 0.323295, 0.562207999999999], "properties": {"magmom": 0.0}, "label": "Lu", "xyz": [2.315233497675, 5.077223987711991, 4.183930317224]}, {"species": [{"element": "Lu", "occu": 1}], "abc": [0.828974, 0.823295, 0.937792], "properties": {"magmom": 0.0}, "label": "Lu", "xyz": [5.895915997675, 8.469072012287999, 5.168755682776]}, {"species": [{"element": "Lu", "occu": 1}], "abc": [0.671026, 0.323295, 0.937792], "properties": {"magmom": 0.0}, "label": "Lu", "xyz": [2.315233497675, 8.469072012287999, 4.183930317224]}, {"species": [{"element": "Lu", "occu": 1}], "abc": [0.828974, 0.823295, 0.562207999999999], "properties": {"magmom": 0.0}, "label": "Lu", "xyz": [5.895915997675, 5.077223987711991, 5.168755682776]}, {"species": [{"element": "Lu", "occu": 1}], "abc": [0.328974, 0.676705, 0.437791999999999], "properties": {"magmom": 0.0}, "label": "Lu", "xyz": [4.846131502325, 3.9536400122879907, 2.051193682776]}, {"species": [{"element": "Lu", "occu": 1}], "abc": [0.171025999999999, 0.176705, 0.062208], "properties": {"magmom": 0.0}, "label": "Lu", "xyz": [1.265449002325, 0.561791987712, 1.0663683172239937]}, {"species": [{"element": "Lu", "occu": 1}], "abc": [0.867671, 0.534986, 0.25], "properties": {"magmom": 0.0}, "label": "Lu", "xyz": [3.8312300158899997, 2.257716, 5.410036276204]}, {"species": [{"element": "Lu", "occu": 1}], "abc": [0.632328999999999, 0.034985999999999004, 0.25], "properties": {"magmom": 0.0}, "label": "Lu", "xyz": [0.25054751588999286, 2.257716, 3.942649723795994]}, {"species": [{"element": "Lu", "occu": 1}], "abc": [0.132329, 0.465014, 0.75], "properties": {"magmom": 0.0}, "label": "Lu", "xyz": [3.33013498411, 6.773147999999999, 0.825087723796]}, {"species": [{"element": "Lu", "occu": 1}], "abc": [0.367670999999999, 0.965013999999999, 0.75], "properties": {"magmom": 0.0}, "label": "Lu", "xyz": [6.910817484109993, 6.773147999999999, 2.292474276203994]}, {"species": [{"element": "Ir", "occu": 1}], "abc": [0.045455999999999004, 0.882493, 0.25], "properties": {"magmom": -0.0}, "label": "Ir", "xyz": [6.319854482945, 2.257716, 0.2834237965439938]}, {"species": [{"element": "Ir", "occu": 1}], "abc": [0.454544, 0.38249299999999903, 0.25], "properties": {"magmom": -0.0}, "label": "Ir", "xyz": [2.739171982944993, 2.257716, 2.834138203456]}, {"species": [{"element": "Ir", "occu": 1}], "abc": [0.954544, 0.117507, 0.75], "properties": {"magmom": -0.0}, "label": "Ir", "xyz": [0.841510517055, 6.773147999999999, 5.951700203455999]}, {"species": [{"element": "Ir", "occu": 1}], "abc": [0.545455999999999, 0.617506999999999, 0.75], "properties": {"magmom": -0.0}, "label": "Ir", "xyz": [4.422193017054993, 6.773147999999999, 3.4009857965439942]}]}, "task_ids": null, "uncorrected_energy_per_atom": null, "energy_per_atom": -6.257011365, "formation_energy_per_atom": -0.65613723, "energy_above_hull": 0.0, "is_stable": true, "equilibrium_reaction_energy_per_atom": null, "decomposes_to": null, "xas": null, "grain_boundaries": null, "band_gap": 0.0, "cbm": null, "vbm": null, "efermi": 3.90492864, "is_gap_direct": null, "is_metal": null, "es_source_calc_id": null, "bandstructure": null, "dos": null, "dos_energy_up": null, "dos_energy_down": null, "is_magnetic": null, "ordering": null, "total_magnetization": 0.006294, "total_magnetization_normalized_vol": null, "total_magnetization_normalized_formula_units": null, "num_magnetic_sites": null, "num_unique_magnetic_sites": null, "types_of_magnetic_species": null, "bulk_modulus": null, "shear_modulus": null, "universal_anisotropy": null, "homogeneous_poisson": null, "e_total": null, "e_ionic": null, "e_electronic": null, "n": null, "e_ij_max": null, "weighted_surface_energy_EV_PER_ANG2": null, "weighted_surface_energy": null, "weighted_work_function": null, "surface_anisotropy": null, "shape_factor": null, "has_reconstructed": null, "possible_species": null, "has_props": null, "theoretical": null, "database_IDs": null, "fields_not_requested": ["builder_meta", "nsites", "elements", "nelements", "composition", "composition_reduced", "chemsys", "symmetry", "property_name", "deprecated", "deprecation_reasons", "last_updated", "origins", "warnings", "task_ids", "uncorrected_energy_per_atom", "equilibrium_reaction_energy_per_atom", "decomposes_to", "xas", "grain_boundaries", "cbm", "vbm", "is_gap_direct", "is_metal", "es_source_calc_id", "bandstructure", "dos", "dos_energy_up", "dos_energy_down", "is_magnetic", "ordering", "total_magnetization_normalized_vol", "total_magnetization_normalized_formula_units", "num_magnetic_sites", "num_unique_magnetic_sites", "types_of_magnetic_species", "bulk_modulus", "shear_modulus", "universal_anisotropy", "homogeneous_poisson", "e_total", "e_ionic", "e_electronic", "n", "e_ij_max", "weighted_surface_energy_EV_PER_ANG2", "weighted_surface_energy", "weighted_work_function", "surface_anisotropy", "shape_factor", "has_reconstructed", "possible_species", "has_props", "theoretical", "database_IDs"]}