{
  "builder_meta": null,
  "nsites": null,
  "elements": null,
  "nelements": null,
  "composition": null,
  "composition_reduced": null,
  "formula_pretty": "Lu3Mg",
  "formula_anonymous": "AB3",
  "chemsys": null,
  "volume": 221.29319773669332,
  "density": 8.242259842945925,
  "density_atomic": 27.661649717086664,
  "symmetry": null,
  "property_name": null,
  "material_id": "mp-1185475",
  "deprecated": null,
  "deprecation_reasons": null,
  "last_updated": null,
  "origins": null,
  "warnings": null,
  "structure": {
    "@module": "pymatgen.core.structure",
    "@class": "Structure",
    "charge": 0,
    "lattice": {
      "matrix": [
        [3.41471744, -5.91446366, 0.0],
        [3.41471744, 5.91446366, 0.0],
        [-0.0, 0.0, 5.478579]
      ],
      "pbc": [true, true, true],
      "a": 6.829434499319892,
      "b": 6.829434499319892,
      "c": 5.478579,
      "alpha": 90.0,
      "beta": 90.0,
      "gamma": 119.99999631219929,
      "volume": 221.29319773669332
    },
    "properties": {},
    "sites": [
      {
        "species": [{ "element": "Lu", "occu": 1 }],
        "abc": [0.16852857000000002, 0.33705815, 0.25],
        "properties": { "magmom": -0.001 },
        "label": "Lu",
        "xyz": [1.7264357902163967, 0.9967620765450628, 1.36964475]
      },
      {
        "species": [{ "element": "Lu", "occu": 1 }],
        "abc": [0.16852857000000002, 0.83147143, 0.25],
        "properties": { "magmom": -0.001 },
        "label": "Lu",
        "xyz": [3.41471744, 3.9209514541264676, 1.36964475]
      },
      {
        "species": [{ "element": "Lu", "occu": 1 }],
        "abc": [0.66294185, 0.83147143, 0.25],
        "properties": { "magmom": -0.001 },
        "label": "Lu",
        "xyz": [5.102999089783603, 0.9967620765450627, 1.36964475]
      },
      {
        "species": [{ "element": "Lu", "occu": 1 }],
        "abc": [0.33705815, 0.16852857000000002, 0.75],
        "properties": { "magmom": -0.001 },
        "label": "Lu",
        "xyz": [1.7264357902163967, -0.9967620765450628, 4.10893425]
      },
      {
        "species": [{ "element": "Lu", "occu": 1 }],
        "abc": [0.83147143, 0.16852857000000002, 0.75],
        "properties": { "magmom": -0.001 },
        "label": "Lu",
        "xyz": [3.41471744, -3.9209514541264676, 4.10893425]
      },
      {
        "species": [{ "element": "Lu", "occu": 1 }],
        "abc": [0.83147143, 0.66294185, 0.75],
        "properties": { "magmom": -0.001 },
        "label": "Lu",
        "xyz": [5.102999089783603, -0.9967620765450627, 4.10893425]
      },
      {
        "species": [{ "element": "Mg", "occu": 1 }],
        "abc": [0.666667, 0.333333, 0.25],
        "properties": { "magmom": 0.0 },
        "label": "Mg",
        "xyz": [3.41471744, -1.9714918296424402, 1.36964475]
      },
      {
        "species": [{ "element": "Mg", "occu": 1 }],
        "abc": [0.333333, 0.666667, 0.75],
        "properties": { "magmom": 0.0 },
        "label": "Mg",
        "xyz": [3.41471744, 1.9714918296424402, 4.10893425]
      }
    ]
  },
  "task_ids": null,
  "uncorrected_energy_per_atom": null,
  "energy_per_atom": -3.7807237025000013,
  "formation_energy_per_atom": 0.018159391249998002,
  "energy_above_hull": 0.033458699166665,
  "is_stable": false,
  "equilibrium_reaction_energy_per_atom": null,
  "decomposes_to": null,
  "xas": null,
  "grain_boundaries": null,
  "band_gap": 0.0,
  "cbm": null,
  "vbm": null,
  "efermi": 2.89622305,
  "is_gap_direct": null,
  "is_metal": null,
  "es_source_calc_id": null,
  "bandstructure": null,
  "dos": null,
  "dos_energy_up": null,
  "dos_energy_down": null,
  "is_magnetic": null,
  "ordering": null,
  "total_magnetization": 0.009072499999999002,
  "total_magnetization_normalized_vol": null,
  "total_magnetization_normalized_formula_units": null,
  "num_magnetic_sites": null,
  "num_unique_magnetic_sites": null,
  "types_of_magnetic_species": null,
  "bulk_modulus": null,
  "shear_modulus": null,
  "universal_anisotropy": null,
  "homogeneous_poisson": null,
  "e_total": null,
  "e_ionic": null,
  "e_electronic": null,
  "n": null,
  "e_ij_max": null,
  "weighted_surface_energy_EV_PER_ANG2": null,
  "weighted_surface_energy": null,
  "weighted_work_function": null,
  "surface_anisotropy": null,
  "shape_factor": null,
  "has_reconstructed": null,
  "possible_species": null,
  "has_props": null,
  "theoretical": null,
  "database_IDs": null,
  "fields_not_requested": [
    "builder_meta",
    "nsites",
    "elements",
    "nelements",
    "composition",
    "composition_reduced",
    "chemsys",
    "symmetry",
    "property_name",
    "deprecated",
    "deprecation_reasons",
    "last_updated",
    "origins",
    "warnings",
    "task_ids",
    "uncorrected_energy_per_atom",
    "equilibrium_reaction_energy_per_atom",
    "decomposes_to",
    "xas",
    "grain_boundaries",
    "cbm",
    "vbm",
    "is_gap_direct",
    "is_metal",
    "es_source_calc_id",
    "bandstructure",
    "dos",
    "dos_energy_up",
    "dos_energy_down",
    "is_magnetic",
    "ordering",
    "total_magnetization_normalized_vol",
    "total_magnetization_normalized_formula_units",
    "num_magnetic_sites",
    "num_unique_magnetic_sites",
    "types_of_magnetic_species",
    "bulk_modulus",
    "shear_modulus",
    "universal_anisotropy",
    "homogeneous_poisson",
    "e_total",
    "e_ionic",
    "e_electronic",
    "n",
    "e_ij_max",
    "weighted_surface_energy_EV_PER_ANG2",
    "weighted_surface_energy",
    "weighted_work_function",
    "surface_anisotropy",
    "shape_factor",
    "has_reconstructed",
    "possible_species",
    "has_props",
    "theoretical",
    "database_IDs"
  ]
}
