{
  "builder_meta": null,
  "nsites": null,
  "elements": null,
  "nelements": null,
  "composition": null,
  "composition_reduced": null,
  "formula_pretty": "Lu3Os",
  "formula_anonymous": "AB3",
  "chemsys": null,
  "volume": 397.3674784208222,
  "density": 11.953700569115313,
  "density_atomic": 24.835467401301386,
  "symmetry": null,
  "property_name": null,
  "material_id": "mp-1189947",
  "deprecated": null,
  "deprecation_reasons": null,
  "last_updated": null,
  "origins": null,
  "warnings": null,
  "structure": {
    "@module": "pymatgen.core.structure",
    "@class": "Structure",
    "charge": 0,
    "lattice": {
      "matrix": [
        [7.289599, 0.0, 0.0],
        [0.0, 8.848133, 0.0],
        [0.0, 0.0, 6.160799]
      ],
      "pbc": [true, true, true],
      "a": 7.289599,
      "b": 8.848133,
      "c": 6.160799,
      "alpha": 90.0,
      "beta": 90.0,
      "gamma": 90.0,
      "volume": 397.3674784208222
    },
    "properties": {},
    "sites": [
      {
        "species": [{ "element": "Lu", "occu": 1 }],
        "abc": [0.675613, 0.061977, 0.333122],
        "properties": { "magmom": -0.0 },
        "label": "Lu",
        "xyz": [4.924947849187, 0.548380738941, 2.052297684478]
      },
      {
        "species": [{ "element": "Lu", "occu": 1 }],
        "abc": [0.175613, 0.438023, 0.166878],
        "properties": { "magmom": -0.0 },
        "label": "Lu",
        "xyz": [1.2801483491869998, 3.875685761059, 1.028101815522]
      },
      {
        "species": [{ "element": "Lu", "occu": 1 }],
        "abc": [0.324387, 0.561977, 0.666878],
        "properties": { "magmom": -0.0 },
        "label": "Lu",
        "xyz": [2.3646511508129997, 4.972447238941, 4.108501315522]
      },
      {
        "species": [{ "element": "Lu", "occu": 1 }],
        "abc": [0.824387, 0.938022999999999, 0.833121999999999],
        "properties": { "magmom": -0.0 },
        "label": "Lu",
        "xyz": [6.009450650813, 8.299752261058993, 5.132697184477994]
      },
      {
        "species": [{ "element": "Lu", "occu": 1 }],
        "abc": [0.324387, 0.938022999999999, 0.666878],
        "properties": { "magmom": -0.0 },
        "label": "Lu",
        "xyz": [2.3646511508129997, 8.299752261058993, 4.108501315522]
      },
      {
        "species": [{ "element": "Lu", "occu": 1 }],
        "abc": [0.824387, 0.561977, 0.833121999999999],
        "properties": { "magmom": -0.0 },
        "label": "Lu",
        "xyz": [6.009450650813, 4.972447238941, 5.132697184477994]
      },
      {
        "species": [{ "element": "Lu", "occu": 1 }],
        "abc": [0.675613, 0.438023, 0.333122],
        "properties": { "magmom": -0.0 },
        "label": "Lu",
        "xyz": [4.924947849187, 3.875685761059, 2.052297684478]
      },
      {
        "species": [{ "element": "Lu", "occu": 1 }],
        "abc": [0.175613, 0.061977, 0.166878],
        "properties": { "magmom": -0.0 },
        "label": "Lu",
        "xyz": [1.2801483491869998, 0.548380738941, 1.028101815522]
      },
      {
        "species": [{ "element": "Lu", "occu": 1 }],
        "abc": [0.539311, 0.25, 0.871149],
        "properties": { "magmom": 0.0 },
        "label": "Lu",
        "xyz": [3.931360926289, 2.21203325, 5.366973888051]
      },
      {
        "species": [{ "element": "Lu", "occu": 1 }],
        "abc": [0.039311, 0.25, 0.628850999999999],
        "properties": { "magmom": 0.0 },
        "label": "Lu",
        "xyz": [0.286561426289, 2.21203325, 3.874224611948994]
      },
      {
        "species": [{ "element": "Lu", "occu": 1 }],
        "abc": [0.460688999999999, 0.75, 0.128851],
        "properties": { "magmom": 0.0 },
        "label": "Lu",
        "xyz": [3.358238073710993, 6.6360997500000005, 0.793825111949]
      },
      {
        "species": [{ "element": "Lu", "occu": 1 }],
        "abc": [0.9606889999999991, 0.75, 0.371149],
        "properties": { "magmom": 0.0 },
        "label": "Lu",
        "xyz": [7.003037573710993, 6.6360997500000005, 2.286574388051]
      },
      {
        "species": [{ "element": "Os", "occu": 1 }],
        "abc": [0.883366, 0.25, 0.038686],
        "properties": { "magmom": -0.001 },
        "label": "Os",
        "xyz": [6.439383910234, 2.21203325, 0.23833667011399998]
      },
      {
        "species": [{ "element": "Os", "occu": 1 }],
        "abc": [0.383366, 0.25, 0.461314],
        "properties": { "magmom": -0.001 },
        "label": "Os",
        "xyz": [2.794584410234, 2.21203325, 2.842062829886]
      },
      {
        "species": [{ "element": "Os", "occu": 1 }],
        "abc": [0.116634, 0.75, 0.961314],
        "properties": { "magmom": -0.001 },
        "label": "Os",
        "xyz": [0.850215089766, 6.6360997500000005, 5.922462329886]
      },
      {
        "species": [{ "element": "Os", "occu": 1 }],
        "abc": [0.616634, 0.75, 0.538686],
        "properties": { "magmom": -0.001 },
        "label": "Os",
        "xyz": [4.495014589766, 6.6360997500000005, 3.318736170114]
      }
    ]
  },
  "task_ids": null,
  "uncorrected_energy_per_atom": null,
  "energy_per_atom": -6.534683300625,
  "formation_energy_per_atom": -0.33657585312499905,
  "energy_above_hull": 0.0,
  "is_stable": true,
  "equilibrium_reaction_energy_per_atom": null,
  "decomposes_to": null,
  "xas": null,
  "grain_boundaries": null,
  "band_gap": 0.0,
  "cbm": null,
  "vbm": null,
  "efermi": 3.62771044,
  "is_gap_direct": null,
  "is_metal": null,
  "es_source_calc_id": null,
  "bandstructure": null,
  "dos": null,
  "dos_energy_up": null,
  "dos_energy_down": null,
  "is_magnetic": null,
  "ordering": null,
  "total_magnetization": 0.042820899999999,
  "total_magnetization_normalized_vol": null,
  "total_magnetization_normalized_formula_units": null,
  "num_magnetic_sites": null,
  "num_unique_magnetic_sites": null,
  "types_of_magnetic_species": null,
  "bulk_modulus": null,
  "shear_modulus": null,
  "universal_anisotropy": null,
  "homogeneous_poisson": null,
  "e_total": null,
  "e_ionic": null,
  "e_electronic": null,
  "n": null,
  "e_ij_max": null,
  "weighted_surface_energy_EV_PER_ANG2": null,
  "weighted_surface_energy": null,
  "weighted_work_function": null,
  "surface_anisotropy": null,
  "shape_factor": null,
  "has_reconstructed": null,
  "possible_species": null,
  "has_props": null,
  "theoretical": null,
  "database_IDs": null,
  "fields_not_requested": [
    "builder_meta",
    "nsites",
    "elements",
    "nelements",
    "composition",
    "composition_reduced",
    "chemsys",
    "symmetry",
    "property_name",
    "deprecated",
    "deprecation_reasons",
    "last_updated",
    "origins",
    "warnings",
    "task_ids",
    "uncorrected_energy_per_atom",
    "equilibrium_reaction_energy_per_atom",
    "decomposes_to",
    "xas",
    "grain_boundaries",
    "cbm",
    "vbm",
    "is_gap_direct",
    "is_metal",
    "es_source_calc_id",
    "bandstructure",
    "dos",
    "dos_energy_up",
    "dos_energy_down",
    "is_magnetic",
    "ordering",
    "total_magnetization_normalized_vol",
    "total_magnetization_normalized_formula_units",
    "num_magnetic_sites",
    "num_unique_magnetic_sites",
    "types_of_magnetic_species",
    "bulk_modulus",
    "shear_modulus",
    "universal_anisotropy",
    "homogeneous_poisson",
    "e_total",
    "e_ionic",
    "e_electronic",
    "n",
    "e_ij_max",
    "weighted_surface_energy_EV_PER_ANG2",
    "weighted_surface_energy",
    "weighted_work_function",
    "surface_anisotropy",
    "shape_factor",
    "has_reconstructed",
    "possible_species",
    "has_props",
    "theoretical",
    "database_IDs"
  ]
}
