{"builder_meta": null, "nsites": null, "elements": null, "nelements": null, "composition": null, "composition_reduced": null, "formula_pretty": "Lu3Pt", "formula_anonymous": "AB3", "chemsys": null, "volume": 403.5521474112791, "density": 11.850396312202456, "density_atomic": 25.222009213204945, "symmetry": null, "property_name": null, "material_id": "mp-1189834", "deprecated": null, "deprecation_reasons": null, "last_updated": null, "origins": null, "warnings": null, "structure": {"@module": "pymatgen.core.structure", "@class": "Structure", "charge": 0, "lattice": {"matrix": [[6.31913789, 7.932e-05, -0.0001592], [8.583000000000002e-05, 6.87020434, 0.00022578], [-0.00023025, 0.00030289, 9.29548762]], "pbc": [true, true, true], "a": 6.319137892503214, "b": 6.870204344246118, "c": 9.295487627786434, "alpha": 89.99625010758926, "beta": 90.0028626681146, "gamma": 89.99856505038412, "volume": 403.55214741127907}, "properties": {}, "sites": [{"species": [{"element": "Lu", "occu": 1}], "abc": [0.31485807, 0.6796726, 0.060852830000000004], "properties": {"magmom": 0.035}, "label": "Lu", "xyz": [1.9896758850444232, 4.6695330525548755, 0.5657600589818487]}, {"species": [{"element": "Lu", "occu": 1}], "abc": [0.18512302, 0.17970456, 0.43922808], "properties": {"magmom": 0.034}, "label": "Lu", "xyz": [1.1697321817701927, 1.234754769780888, 4.082850282107143]}, {"species": [{"element": "Lu", "occu": 1}], "abc": [0.68514981, 0.32032088000000003, 0.56061229], "properties": {"magmom": 0.035}, "label": "Lu", "xyz": [4.329454536858659, 2.200894049908066, 5.211127847513384]}, {"species": [{"element": "Lu", "occu": 1}], "abc": [0.8148227, 0.82034644, 0.93928839], "properties": {"magmom": 0.035}, "label": "Lu", "xyz": [5.148831136385251, 5.63629680518856, 8.731199098900113]}, {"species": [{"element": "Lu", "occu": 1}], "abc": [0.68515319, 0.32037837, 0.9392916800000001], "properties": {"magmom": 0.035}, "label": "Lu", "xyz": [4.329388709549547, 2.201403716424112, 8.731137441649532]}, {"species": [{"element": "Lu", "occu": 1}], "abc": [0.814873899999999, 0.82032689, 0.5606221100000001], "properties": {"magmom": 0.035}, "label": "Lu", "xyz": [5.149241862478206, 5.636047802525348, 5.2113113684836225]}, {"species": [{"element": "Lu", "occu": 1}], "abc": [0.31489924, 0.67970471, 0.4392375], "properties": {"magmom": 0.034}, "label": "Lu", "xyz": [1.989848923637088, 4.669868267014532, 4.083030075260165]}, {"species": [{"element": "Lu", "occu": 1}], "abc": [0.18512601, 0.17965014, 0.06085466], "properties": {"magmom": 0.035}, "label": "Lu", "xyz": [1.1698381918015703, 1.2342662879726884, 0.5656848279971264]}, {"species": [{"element": "Lu", "occu": 1}], "abc": [0.87473541, 0.5271876600000001, 0.24991649999999901], "properties": {"magmom": 0.056}, "label": "Lu", "xyz": [5.527561378298418, 3.6220320309478504, 2.3230755023363234]}, {"species": [{"element": "Lu", "occu": 1}], "abc": [0.62526647, 0.027183910000000002, 0.2499147], "properties": {"magmom": 0.056}, "label": "Lu", "xyz": [3.951089832258869, 0.1868843092600528, 2.3229855950671894]}, {"species": [{"element": "Lu", "occu": 1}], "abc": [0.12513732, 0.47281232, 0.75007771], "properties": {"magmom": 0.056}, "label": "Lu", "xyz": [0.7906278563537529, 3.248554369799273, 6.972424897047215]}, {"species": [{"element": "Lu", "occu": 1}], "abc": [0.37488413, 0.97283098, 0.75007921], "properties": {"magmom": 0.056}, "label": "Lu", "xyz": [2.3688553025875967, 6.683804548183562, 6.972511974799548]}, {"species": [{"element": "Pt", "occu": 1}], "abc": [0.04275487, 0.89285813, 0.25004389], "properties": {"magmom": -0.0}, "label": "Pt", "xyz": [0.2701929804066497, 6.134196926840414, 2.324474666884929]}, {"species": [{"element": "Pt", "occu": 1}], "abc": [0.4572621, 0.39289481, 0.25004019], "properties": {"magmom": -0.0}, "label": "Pt", "xyz": [2.889478412178764, 2.6993796335283964, 2.324261402311329]}, {"species": [{"element": "Pt", "occu": 1}], "abc": [0.95728553, 0.10708255, 0.74998296], "properties": {"magmom": -0.0}, "label": "Pt", "xyz": [6.049055771490458, 0.735982093975261, 6.971329097132718]}, {"species": [{"element": "Pt", "occu": 1}], "abc": [0.54266822, 0.6070440500000001, 0.7499563], "properties": {"magmom": -0.0}, "label": "Pt", "xyz": [3.4290747358535927, 4.170786865588095, 6.971260167815991]}]}, "task_ids": null, "uncorrected_energy_per_atom": null, "energy_per_atom": -42.27255737875, "formation_energy_per_atom": -0.8407180162499941, "energy_above_hull": 0.0041267183333310005, "is_stable": false, "equilibrium_reaction_energy_per_atom": null, "decomposes_to": null, "xas": null, "grain_boundaries": null, "band_gap": 0.0, "cbm": null, "vbm": null, "efermi": 3.68829733, "is_gap_direct": null, "is_metal": null, "es_source_calc_id": null, "bandstructure": null, "dos": null, "dos_energy_up": null, "dos_energy_down": null, "is_magnetic": null, "ordering": null, "total_magnetization": 0.914364299999999, "total_magnetization_normalized_vol": null, "total_magnetization_normalized_formula_units": null, "num_magnetic_sites": null, "num_unique_magnetic_sites": null, "types_of_magnetic_species": null, "bulk_modulus": null, "shear_modulus": null, "universal_anisotropy": null, "homogeneous_poisson": null, "e_total": null, "e_ionic": null, "e_electronic": null, "n": null, "e_ij_max": null, "weighted_surface_energy_EV_PER_ANG2": null, "weighted_surface_energy": null, "weighted_work_function": null, "surface_anisotropy": null, "shape_factor": null, "has_reconstructed": null, "possible_species": null, "has_props": null, "theoretical": null, "database_IDs": null, "fields_not_requested": ["builder_meta", "nsites", "elements", "nelements", "composition", "composition_reduced", "chemsys", "symmetry", "property_name", "deprecated", "deprecation_reasons", "last_updated", "origins", "warnings", "task_ids", "uncorrected_energy_per_atom", "equilibrium_reaction_energy_per_atom", "decomposes_to", "xas", "grain_boundaries", "cbm", "vbm", "is_gap_direct", "is_metal", "es_source_calc_id", "bandstructure", "dos", "dos_energy_up", "dos_energy_down", "is_magnetic", "ordering", "total_magnetization_normalized_vol", "total_magnetization_normalized_formula_units", "num_magnetic_sites", "num_unique_magnetic_sites", "types_of_magnetic_species", "bulk_modulus", "shear_modulus", "universal_anisotropy", "homogeneous_poisson", "e_total", "e_ionic", "e_electronic", "n", "e_ij_max", "weighted_surface_energy_EV_PER_ANG2", "weighted_surface_energy", "weighted_work_function", "surface_anisotropy", "shape_factor", "has_reconstructed", "possible_species", "has_props", "theoretical", "database_IDs"]}