{
  "builder_meta": null,
  "nsites": null,
  "elements": null,
  "nelements": null,
  "composition": null,
  "composition_reduced": null,
  "formula_pretty": "Lu3Pt4",
  "formula_anonymous": "A3B4",
  "chemsys": null,
  "volume": 268.2802920854901,
  "density": 16.157705903951545,
  "density_atomic": 19.162878006106435,
  "symmetry": null,
  "property_name": null,
  "material_id": "mp-1104877",
  "deprecated": null,
  "deprecation_reasons": null,
  "last_updated": null,
  "origins": null,
  "warnings": null,
  "structure": {
    "@module": "pymatgen.core.structure",
    "@class": "Structure",
    "charge": 0,
    "lattice": {
      "matrix": [
        [0.00208607, 0.00027197, -5.63638438],
        [0.00378473, -7.41747299, 1.87916751],
        [-6.42001932, 3.71240583, 1.88100282]
      ],
      "pbc": [true, true, true],
      "a": 5.636384772597033,
      "b": 7.651809616829232,
      "c": 7.650933062355153,
      "alpha": 114.22996800740657,
      "beta": 104.24920639361504,
      "gamma": 104.21914424496904,
      "volume": 268.2802920854901
    },
    "properties": {},
    "sites": [
      {
        "species": [{ "element": "Lu", "occu": 1 }],
        "abc": [0.40498106, 0.12763087, 0.38029537],
        "properties": { "magmom": -0.0 },
        "label": "Lu",
        "xyz": [-2.4401757554840993, 0.4652223604936939, -1.3274524731998656]
      },
      {
        "species": [{ "element": "Lu", "occu": 1 }],
        "abc": [0.024607280000000002, 0.61954555, 0.74750972],
        "properties": { "magmom": -0.0 },
        "label": "Lu",
        "xyz": [-4.796630699149749, -1.8203962482480849, 2.4316016711962045]
      },
      {
        "species": [{ "element": "Lu", "occu": 1 }],
        "abc": [0.27723325, 0.25259849, 0.87219546],
        "properties": { "magmom": 0.0 },
        "label": "Lu",
        "xyz": [-5.597977358967403, 1.3643764328407493, 0.5526838354176222]
      },
      {
        "species": [{ "element": "Lu", "occu": 1 }],
        "abc": [0.59501894, 0.87236913, 0.61970463],
        "properties": { "magmom": -0.0 },
        "label": "Lu",
        "xyz": [-3.9739727645159006, -4.170017550493695, -0.5487615768001342]
      },
      {
        "species": [{ "element": "Lu", "occu": 1 }],
        "abc": [0.97539272, 0.38045445, 0.25249028],
        "properties": { "magmom": -0.0 },
        "label": "Lu",
        "xyz": [-1.6175178208502508, -1.8843989417519147, -4.307815721196205]
      },
      {
        "species": [{ "element": "Lu", "occu": 1 }],
        "abc": [0.72276675, 0.74740151, 0.12780454],
        "properties": { "magmom": 0.0 },
        "label": "Lu",
        "xyz": [-0.8161711610325979, -5.0691716228407495, -2.428897885417622]
      },
      {
        "species": [{ "element": "Pt", "occu": 1 }],
        "abc": [-0.0, -0.0, -0.0],
        "properties": { "magmom": -0.0 },
        "label": "Pt",
        "xyz": [0.0, 0.0, 0.0]
      },
      {
        "species": [{ "element": "Pt", "occu": 1 }],
        "abc": [0.5, -0.0, -0.0],
        "properties": { "magmom": 0.0 },
        "label": "Pt",
        "xyz": [0.001043035, 0.000135985, -2.81819219]
      },
      {
        "species": [{ "element": "Pt", "occu": 1 }],
        "abc": [0.23028014, 0.6799952300000001, 0.16612588],
        "properties": { "magmom": 0.0 },
        "label": "Pt",
        "xyz": [-1.0634773803135138, -4.427056937138282, 0.29236080780574586]
      },
      {
        "species": [{ "element": "Pt", "occu": 1 }],
        "abc": [0.06419199, 0.83399858, 0.51430754],
        "properties": { "magmom": -0.0 },
        "label": "Pt",
        "xyz": [-3.29857397479141, -4.276826172643877, 2.1728262382522825]
      },
      {
        "species": [{ "element": "Pt", "occu": 1 }],
        "abc": [0.54999123, 0.48576942, 0.32008473],
        "properties": { "magmom": 0.0 },
        "label": "Pt",
        "xyz": [-2.051964324334861, -2.4147475533571674, -1.5850395867245046]
      },
      {
        "species": [{ "element": "Pt", "occu": 1 }],
        "abc": [0.76971986, 0.32000477, 0.83387412],
        "properties": { "magmom": 0.0 },
        "label": "Pt",
        "xyz": [-5.3506711396864866, 0.7222617471382815, -2.168574857805746]
      },
      {
        "species": [{ "element": "Pt", "occu": 1 }],
        "abc": [0.93580801, 0.16600142, 0.48569246],
        "properties": { "magmom": -0.0 },
        "label": "Pt",
        "xyz": [-3.11557454520859, 0.5720309826438754, -4.049040288252282]
      },
      {
        "species": [{ "element": "Pt", "occu": 1 }],
        "abc": [0.45000877, 0.51423058, 0.67991527],
        "properties": { "magmom": 0.0 },
        "label": "Pt",
        "xyz": [-4.362184195665139, -1.290047636642834, -0.29117446327549534]
      }
    ]
  },
  "task_ids": null,
  "uncorrected_energy_per_atom": null,
  "energy_per_atom": -47.143809347142856,
  "formation_energy_per_atom": -1.402308182857138,
  "energy_above_hull": 0.0,
  "is_stable": true,
  "equilibrium_reaction_energy_per_atom": null,
  "decomposes_to": null,
  "xas": null,
  "grain_boundaries": null,
  "band_gap": 0.0,
  "cbm": null,
  "vbm": null,
  "efermi": 5.16270943,
  "is_gap_direct": null,
  "is_metal": null,
  "es_source_calc_id": null,
  "bandstructure": null,
  "dos": null,
  "dos_energy_up": null,
  "dos_energy_down": null,
  "is_magnetic": null,
  "ordering": null,
  "total_magnetization": 0.0,
  "total_magnetization_normalized_vol": null,
  "total_magnetization_normalized_formula_units": null,
  "num_magnetic_sites": null,
  "num_unique_magnetic_sites": null,
  "types_of_magnetic_species": null,
  "bulk_modulus": null,
  "shear_modulus": null,
  "universal_anisotropy": null,
  "homogeneous_poisson": null,
  "e_total": null,
  "e_ionic": null,
  "e_electronic": null,
  "n": null,
  "e_ij_max": null,
  "weighted_surface_energy_EV_PER_ANG2": null,
  "weighted_surface_energy": null,
  "weighted_work_function": null,
  "surface_anisotropy": null,
  "shape_factor": null,
  "has_reconstructed": null,
  "possible_species": null,
  "has_props": null,
  "theoretical": null,
  "database_IDs": null,
  "fields_not_requested": [
    "builder_meta",
    "nsites",
    "elements",
    "nelements",
    "composition",
    "composition_reduced",
    "chemsys",
    "symmetry",
    "property_name",
    "deprecated",
    "deprecation_reasons",
    "last_updated",
    "origins",
    "warnings",
    "task_ids",
    "uncorrected_energy_per_atom",
    "equilibrium_reaction_energy_per_atom",
    "decomposes_to",
    "xas",
    "grain_boundaries",
    "cbm",
    "vbm",
    "is_gap_direct",
    "is_metal",
    "es_source_calc_id",
    "bandstructure",
    "dos",
    "dos_energy_up",
    "dos_energy_down",
    "is_magnetic",
    "ordering",
    "total_magnetization_normalized_vol",
    "total_magnetization_normalized_formula_units",
    "num_magnetic_sites",
    "num_unique_magnetic_sites",
    "types_of_magnetic_species",
    "bulk_modulus",
    "shear_modulus",
    "universal_anisotropy",
    "homogeneous_poisson",
    "e_total",
    "e_ionic",
    "e_electronic",
    "n",
    "e_ij_max",
    "weighted_surface_energy_EV_PER_ANG2",
    "weighted_surface_energy",
    "weighted_work_function",
    "surface_anisotropy",
    "shape_factor",
    "has_reconstructed",
    "possible_species",
    "has_props",
    "theoretical",
    "database_IDs"
  ]
}
