{"builder_meta": null, "nsites": null, "elements": null, "nelements": null, "composition": null, "composition_reduced": null, "formula_pretty": "Lu3Pd4", "formula_anonymous": "A3B4", "chemsys": null, "volume": 268.43774343108663, "density": 11.760469047996757, "density_atomic": 19.174124530791904, "symmetry": null, "property_name": null, "material_id": "mp-1103963", "deprecated": null, "deprecation_reasons": null, "last_updated": null, "origins": null, "warnings": null, "structure": {"@module": "pymatgen.core.structure", "@class": "Structure", "charge": 0, "lattice": {"matrix": [[0.00028981, -0.00473882, -5.64443038], [0.00258109, -7.41554372, 1.8752409600000002], [-6.41335881, 3.71245302, 1.88494282]], "pbc": [true, true, true], "a": 5.644432376694026, "b": 7.648975355125597, "c": 7.6463382142160885, "alpha": 114.23938311682177, "beta": 104.29806887048663, "gamma": 104.14332566135604, "volume": 268.43774343108663}, "properties": {}, "sites": [{"species": [{"element": "Lu", "occu": 1}], "abc": [0.40557779, 0.13156171, 0.38321805000000003], "properties": {"magmom": 0.0}, "label": "Lu", "xyz": [-2.457257744005137, 0.4451554345152422, -1.3202015801277174]}, {"species": [{"element": "Lu", "occu": 1}], "abc": [0.0218865, 0.61642769, 0.74841435], "properties": {"magmom": 0.0}, "label": "Lu", "xyz": [-4.798252366829976, -1.7927970877287, 2.4431318830717794]}, {"species": [{"element": "Lu", "occu": 1}], "abc": [0.27407684, 0.25178674, 0.8683152], "properties": {"magmom": 0.0}, "label": "Lu", "xyz": [-5.568087623331165, 1.3551450071547024, 0.5618776676193353]}, {"species": [{"element": "Lu", "occu": 1}], "abc": [0.59442325, 0.86843844, 0.61678266], "properties": {"magmom": 0.0}, "label": "Lu", "xyz": [-3.9532347187910526, -4.152983435933528, -0.5640492704843312]}, {"species": [{"element": "Lu", "occu": 1}], "abc": [0.97811254, 0.38357162, 0.25158532], "properties": {"magmom": 0.0}, "label": "Lu", "xyz": [-1.612233428820786, -1.9150285361063624, -4.327374980366008]}, {"species": [{"element": "Lu", "occu": 1}], "abc": [0.72592307, 0.7482124, 0.13168366], "properties": {"magmom": 0.0}, "label": "Lu", "xyz": [-0.8423929776856119, -5.062972381557052, -2.4461275211626416]}, {"species": [{"element": "Pd", "occu": 1}], "abc": [1e-06, 1e-07, 8.699999999999999e-07], "properties": {"magmom": -0.0}, "label": "Pd", "xyz": [-5.579074245699999e-06, 2.4835409354e-06, -3.817006030600001e-06]}, {"species": [{"element": "Pd", "occu": 1}], "abc": [0.49999999, 7e-08, 0.9999998800000001], "properties": {"magmom": -0.0}, "label": "Pd", "xyz": [-6.4132131352191655, 3.7100826454649654, -0.9372724084819672]}, {"species": [{"element": "Pd", "occu": 1}], "abc": [0.23076352, 0.68575166, 0.16628728], "properties": {"magmom": -0.0}, "label": "Pd", "xyz": [-1.0646231278510963, -4.468981247752836, 0.29686299282958584]}, {"species": [{"element": "Pd", "occu": 1}], "abc": [0.06475575, 0.83389415, 0.52024068], "properties": {"magmom": -0.0}, "label": "Pd", "xyz": [-3.3343190256828596, -4.2527163094275995, 2.1788670782426167]}, {"species": [{"element": "Pd", "occu": 1}], "abc": [0.54520037, 0.48009433, 0.31430586], "properties": {"magmom": -0.0}, "label": "Pd", "xyz": [-2.014359085072177, -2.3958983610957736, -1.5846044052445585]}, {"species": [{"element": "Pd", "occu": 1}], "abc": [0.76923682, 0.31424929, 0.8337143300000001], "properties": {"magmom": -0.0}, "label": "Pd", "xyz": [-5.345875105106018, 0.7611506584244654, -2.181106695699063]}, {"species": [{"element": "Pd", "occu": 1}], "abc": [0.93524507, 0.16610489, 0.47975998000000003], "properties": {"magmom": -0.0}, "label": "Pd", "xyz": [-3.076173119374157, 0.5448963546827317, -4.063118862844589]}, {"species": [{"element": "Pd", "occu": 1}], "abc": [0.45479651, 0.51990389, 0.6856908700000001], "properties": {"magmom": -0.0}, "label": "Pd", "xyz": [-4.396107858743061, -1.3119300841726615, -0.29963408582458584]}]}, "task_ids": null, "uncorrected_energy_per_atom": null, "energy_per_atom": -30.46518651, "formation_energy_per_atom": -1.0249786542857091, "energy_above_hull": 0.0, "is_stable": true, "equilibrium_reaction_energy_per_atom": null, "decomposes_to": null, "xas": null, "grain_boundaries": null, "band_gap": 0.0, "cbm": null, "vbm": null, "efermi": 4.4540419700000005, "is_gap_direct": null, "is_metal": null, "es_source_calc_id": null, "bandstructure": null, "dos": null, "dos_energy_up": null, "dos_energy_down": null, "is_magnetic": null, "ordering": null, "total_magnetization": 6.3e-06, "total_magnetization_normalized_vol": null, "total_magnetization_normalized_formula_units": null, "num_magnetic_sites": null, "num_unique_magnetic_sites": null, "types_of_magnetic_species": null, "bulk_modulus": null, "shear_modulus": null, "universal_anisotropy": null, "homogeneous_poisson": null, "e_total": null, "e_ionic": null, "e_electronic": null, "n": null, "e_ij_max": null, "weighted_surface_energy_EV_PER_ANG2": null, "weighted_surface_energy": null, "weighted_work_function": null, "surface_anisotropy": null, "shape_factor": null, "has_reconstructed": null, "possible_species": null, "has_props": null, "theoretical": null, "database_IDs": null, "fields_not_requested": ["builder_meta", "nsites", "elements", "nelements", "composition", "composition_reduced", "chemsys", "symmetry", "property_name", "deprecated", "deprecation_reasons", "last_updated", "origins", "warnings", "task_ids", "uncorrected_energy_per_atom", "equilibrium_reaction_energy_per_atom", "decomposes_to", "xas", "grain_boundaries", "cbm", "vbm", "is_gap_direct", "is_metal", "es_source_calc_id", "bandstructure", "dos", "dos_energy_up", "dos_energy_down", "is_magnetic", "ordering", "total_magnetization_normalized_vol", "total_magnetization_normalized_formula_units", "num_magnetic_sites", "num_unique_magnetic_sites", "types_of_magnetic_species", "bulk_modulus", "shear_modulus", "universal_anisotropy", "homogeneous_poisson", "e_total", "e_ionic", "e_electronic", "n", "e_ij_max", "weighted_surface_energy_EV_PER_ANG2", "weighted_surface_energy", "weighted_work_function", "surface_anisotropy", "shape_factor", "has_reconstructed", "possible_species", "has_props", "theoretical", "database_IDs"]}