{
  "builder_meta": null,
  "nsites": null,
  "elements": null,
  "nelements": null,
  "composition": null,
  "composition_reduced": null,
  "formula_pretty": "Lu3Ru2",
  "formula_anonymous": "A2B3",
  "chemsys": null,
  "volume": 224.91303542481856,
  "density": 10.735527011492287,
  "density_atomic": 22.491303542481855,
  "symmetry": null,
  "property_name": null,
  "material_id": "mp-1205980",
  "deprecated": null,
  "deprecation_reasons": null,
  "last_updated": null,
  "origins": null,
  "warnings": null,
  "structure": {
    "@module": "pymatgen.core.structure",
    "@class": "Structure",
    "charge": 0,
    "lattice": {
      "matrix": [
        [0.0, 0.0, -4.630516],
        [-3.74453, -6.485716, 0.0],
        [-3.74453, 6.485716, 0.0]
      ],
      "pbc": [true, true, true],
      "a": 4.630516,
      "b": 7.489059817731195,
      "c": 7.489059817731195,
      "alpha": 119.99999838981029,
      "beta": 90.0,
      "gamma": 90.0,
      "volume": 224.91303542481856
    },
    "properties": {},
    "sites": [
      {
        "species": [{ "element": "Lu", "occu": 1 }],
        "abc": [0.75, 0.612359, 0.697541],
        "properties": { "magmom": -0.0 },
        "label": "Lu",
        "xyz": [-4.904959847000001, 0.5524662603119999, -3.472887]
      },
      {
        "species": [{ "element": "Lu", "occu": 1 }],
        "abc": [0.25, 0.387640999999999, 0.302459],
        "properties": { "magmom": -0.0 },
        "label": "Lu",
        "xyz": [-2.584100152999996, -0.5524662603119936, -1.157629]
      },
      {
        "species": [{ "element": "Lu", "occu": 1 }],
        "abc": [0.75, 0.08518099999999901, 0.387640999999999],
        "properties": { "magmom": -0.0 },
        "label": "Lu",
        "xyz": [-1.7704961636599927, 1.96166966136, -3.472887]
      },
      {
        "species": [{ "element": "Lu", "occu": 1 }],
        "abc": [0.25, 0.914818999999999, 0.612359],
        "properties": { "magmom": -0.0 },
        "label": "Lu",
        "xyz": [-5.718563836339997, -1.9616696613599944, -1.157629]
      },
      {
        "species": [{ "element": "Lu", "occu": 1 }],
        "abc": [0.75, 0.302459, 0.914818999999999],
        "properties": { "magmom": 0.001 },
        "label": "Lu",
        "xyz": [-4.558133989339996, 3.9715930497599943, -3.472887]
      },
      {
        "species": [{ "element": "Lu", "occu": 1 }],
        "abc": [0.25, 0.697541, 0.08518099999999901],
        "properties": { "magmom": 0.001 },
        "label": "Lu",
        "xyz": [-2.9309260106599964, -3.9715930497600063, -1.157629]
      },
      {
        "species": [{ "element": "Ru", "occu": 1 }],
        "abc": [0.75, 0.666667, 0.333333],
        "properties": { "magmom": 0.0 },
        "label": "Ru",
        "xyz": [-3.74453, -2.1619096571439997, -3.472887]
      },
      {
        "species": [{ "element": "Ru", "occu": 1 }],
        "abc": [0.25, 0.333333, 0.666667],
        "properties": { "magmom": 0.0 },
        "label": "Ru",
        "xyz": [-3.74453, 2.1619096571439997, -1.157629]
      },
      {
        "species": [{ "element": "Ru", "occu": 1 }],
        "abc": [0.0, 0.0, 0.0],
        "properties": { "magmom": -0.0 },
        "label": "Ru",
        "xyz": [0.0, 0.0, 0.0]
      },
      {
        "species": [{ "element": "Ru", "occu": 1 }],
        "abc": [0.5, 0.0, 0.0],
        "properties": { "magmom": -0.0 },
        "label": "Ru",
        "xyz": [0.0, 0.0, -2.315258]
      }
    ]
  },
  "task_ids": null,
  "uncorrected_energy_per_atom": null,
  "energy_per_atom": -6.768182980000001,
  "formation_energy_per_atom": -0.34540949200000004,
  "energy_above_hull": 0.10572052300000201,
  "is_stable": false,
  "equilibrium_reaction_energy_per_atom": null,
  "decomposes_to": null,
  "xas": null,
  "grain_boundaries": null,
  "band_gap": 0.0,
  "cbm": null,
  "vbm": null,
  "efermi": 4.06340925,
  "is_gap_direct": null,
  "is_metal": null,
  "es_source_calc_id": null,
  "bandstructure": null,
  "dos": null,
  "dos_energy_up": null,
  "dos_energy_down": null,
  "is_magnetic": null,
  "ordering": null,
  "total_magnetization": 0.0030249,
  "total_magnetization_normalized_vol": null,
  "total_magnetization_normalized_formula_units": null,
  "num_magnetic_sites": null,
  "num_unique_magnetic_sites": null,
  "types_of_magnetic_species": null,
  "bulk_modulus": null,
  "shear_modulus": null,
  "universal_anisotropy": null,
  "homogeneous_poisson": null,
  "e_total": null,
  "e_ionic": null,
  "e_electronic": null,
  "n": null,
  "e_ij_max": null,
  "weighted_surface_energy_EV_PER_ANG2": null,
  "weighted_surface_energy": null,
  "weighted_work_function": null,
  "surface_anisotropy": null,
  "shape_factor": null,
  "has_reconstructed": null,
  "possible_species": null,
  "has_props": null,
  "theoretical": null,
  "database_IDs": null,
  "fields_not_requested": [
    "builder_meta",
    "nsites",
    "elements",
    "nelements",
    "composition",
    "composition_reduced",
    "chemsys",
    "symmetry",
    "property_name",
    "deprecated",
    "deprecation_reasons",
    "last_updated",
    "origins",
    "warnings",
    "task_ids",
    "uncorrected_energy_per_atom",
    "equilibrium_reaction_energy_per_atom",
    "decomposes_to",
    "xas",
    "grain_boundaries",
    "cbm",
    "vbm",
    "is_gap_direct",
    "is_metal",
    "es_source_calc_id",
    "bandstructure",
    "dos",
    "dos_energy_up",
    "dos_energy_down",
    "is_magnetic",
    "ordering",
    "total_magnetization_normalized_vol",
    "total_magnetization_normalized_formula_units",
    "num_magnetic_sites",
    "num_unique_magnetic_sites",
    "types_of_magnetic_species",
    "bulk_modulus",
    "shear_modulus",
    "universal_anisotropy",
    "homogeneous_poisson",
    "e_total",
    "e_ionic",
    "e_electronic",
    "n",
    "e_ij_max",
    "weighted_surface_energy_EV_PER_ANG2",
    "weighted_surface_energy",
    "weighted_work_function",
    "surface_anisotropy",
    "shape_factor",
    "has_reconstructed",
    "possible_species",
    "has_props",
    "theoretical",
    "database_IDs"
  ]
}
