{
  "builder_meta": null,
  "nsites": null,
  "elements": null,
  "nelements": null,
  "composition": null,
  "composition_reduced": null,
  "formula_pretty": "Lu3Ru",
  "formula_anonymous": "AB3",
  "chemsys": null,
  "volume": 394.85107264733034,
  "density": 10.530039015363899,
  "density_atomic": 24.678192040458146,
  "symmetry": null,
  "property_name": null,
  "material_id": "mp-1189148",
  "deprecated": null,
  "deprecation_reasons": null,
  "last_updated": null,
  "origins": null,
  "warnings": null,
  "structure": {
    "@module": "pymatgen.core.structure",
    "@class": "Structure",
    "charge": 0,
    "lattice": {
      "matrix": [
        [0.0, 0.0, 6.135579],
        [7.220384, 0.0, 0.0],
        [0.0, 8.912868, 0.0]
      ],
      "pbc": [true, true, true],
      "a": 6.135579,
      "b": 7.220384,
      "c": 8.912868,
      "alpha": 90.0,
      "beta": 90.0,
      "gamma": 90.0,
      "volume": 394.85107264733034
    },
    "properties": {},
    "sites": [
      {
        "species": [{ "element": "Lu", "occu": 1 }],
        "abc": [0.33339799999999903, 0.6765500000000001, 0.063240999999999],
        "properties": { "magmom": -0.0 },
        "label": "Lu",
        "xyz": [4.884950795200001, 0.5636586851879911, 2.045589767441994]
      },
      {
        "species": [{ "element": "Lu", "occu": 1 }],
        "abc": [0.166602, 0.17655, 0.436758999999999],
        "properties": { "magmom": -0.0 },
        "label": "Lu",
        "xyz": [1.2747587952000001, 3.892775314811991, 1.022199732558]
      },
      {
        "species": [{ "element": "Lu", "occu": 1 }],
        "abc": [0.666601999999999, 0.32345, 0.563241],
        "properties": { "magmom": -0.0 },
        "label": "Lu",
        "xyz": [2.3354332048, 5.020092685188, 4.089989232557994]
      },
      {
        "species": [{ "element": "Lu", "occu": 1 }],
        "abc": [0.833398, 0.82345, 0.936759],
        "properties": { "magmom": -0.0 },
        "label": "Lu",
        "xyz": [5.9456252048, 8.349209314811999, 5.113379267441999]
      },
      {
        "species": [{ "element": "Lu", "occu": 1 }],
        "abc": [0.666601999999999, 0.32345, 0.936759],
        "properties": { "magmom": -0.0 },
        "label": "Lu",
        "xyz": [2.3354332048, 8.349209314811999, 4.089989232557994]
      },
      {
        "species": [{ "element": "Lu", "occu": 1 }],
        "abc": [0.833398, 0.82345, 0.563241],
        "properties": { "magmom": -0.0 },
        "label": "Lu",
        "xyz": [5.9456252048, 5.020092685188, 5.113379267441999]
      },
      {
        "species": [{ "element": "Lu", "occu": 1 }],
        "abc": [0.33339799999999903, 0.6765500000000001, 0.436758999999999],
        "properties": { "magmom": -0.0 },
        "label": "Lu",
        "xyz": [4.884950795200001, 3.892775314811991, 2.045589767441994]
      },
      {
        "species": [{ "element": "Lu", "occu": 1 }],
        "abc": [0.166602, 0.17655, 0.063240999999999],
        "properties": { "magmom": -0.0 },
        "label": "Lu",
        "xyz": [1.2747587952000001, 0.5636586851879911, 1.022199732558]
      },
      {
        "species": [{ "element": "Lu", "occu": 1 }],
        "abc": [0.868703, 0.540528, 0.25],
        "properties": { "magmom": -0.0 },
        "label": "Lu",
        "xyz": [3.902819722752, 2.228217, 5.329995884037]
      },
      {
        "species": [{ "element": "Lu", "occu": 1 }],
        "abc": [0.631297, 0.040528, 0.25],
        "properties": { "magmom": -0.0 },
        "label": "Lu",
        "xyz": [0.292627722752, 2.228217, 3.873372615963]
      },
      {
        "species": [{ "element": "Lu", "occu": 1 }],
        "abc": [0.131297, 0.459472, 0.75],
        "properties": { "magmom": -0.0 },
        "label": "Lu",
        "xyz": [3.317564277248, 6.684651, 0.8055831159629999]
      },
      {
        "species": [{ "element": "Lu", "occu": 1 }],
        "abc": [0.368703, 0.959472, 0.75],
        "properties": { "magmom": -0.0 },
        "label": "Lu",
        "xyz": [6.927756277248, 6.684651, 2.262206384037]
      },
      {
        "species": [{ "element": "Ru", "occu": 1 }],
        "abc": [0.039846, 0.884085, 0.25],
        "properties": { "magmom": 0.0 },
        "label": "Ru",
        "xyz": [6.38343318864, 2.228217, 0.244478280834]
      },
      {
        "species": [{ "element": "Ru", "occu": 1 }],
        "abc": [0.460153999999999, 0.384085, 0.25],
        "properties": { "magmom": 0.0 },
        "label": "Ru",
        "xyz": [2.77324118864, 2.228217, 2.8233112191659937]
      },
      {
        "species": [{ "element": "Ru", "occu": 1 }],
        "abc": [0.960154, 0.115914999999999, 0.75],
        "properties": { "magmom": 0.0 },
        "label": "Ru",
        "xyz": [0.8369508113599928, 6.684651, 5.891100719165999]
      },
      {
        "species": [{ "element": "Ru", "occu": 1 }],
        "abc": [0.539845999999999, 0.615915, 0.75],
        "properties": { "magmom": 0.0 },
        "label": "Ru",
        "xyz": [4.44714281136, 6.684651, 3.312267780833994]
      }
    ]
  },
  "task_ids": null,
  "uncorrected_energy_per_atom": null,
  "energy_per_atom": -6.105607110625,
  "formation_energy_per_atom": -0.395740885625,
  "energy_above_hull": 0.0,
  "is_stable": true,
  "equilibrium_reaction_energy_per_atom": null,
  "decomposes_to": null,
  "xas": null,
  "grain_boundaries": null,
  "band_gap": 0.0,
  "cbm": null,
  "vbm": null,
  "efermi": 3.6920849000000002,
  "is_gap_direct": null,
  "is_metal": null,
  "es_source_calc_id": null,
  "bandstructure": null,
  "dos": null,
  "dos_energy_up": null,
  "dos_energy_down": null,
  "is_magnetic": null,
  "ordering": null,
  "total_magnetization": 0.0021366,
  "total_magnetization_normalized_vol": null,
  "total_magnetization_normalized_formula_units": null,
  "num_magnetic_sites": null,
  "num_unique_magnetic_sites": null,
  "types_of_magnetic_species": null,
  "bulk_modulus": null,
  "shear_modulus": null,
  "universal_anisotropy": null,
  "homogeneous_poisson": null,
  "e_total": null,
  "e_ionic": null,
  "e_electronic": null,
  "n": null,
  "e_ij_max": null,
  "weighted_surface_energy_EV_PER_ANG2": null,
  "weighted_surface_energy": null,
  "weighted_work_function": null,
  "surface_anisotropy": null,
  "shape_factor": null,
  "has_reconstructed": null,
  "possible_species": null,
  "has_props": null,
  "theoretical": null,
  "database_IDs": null,
  "fields_not_requested": [
    "builder_meta",
    "nsites",
    "elements",
    "nelements",
    "composition",
    "composition_reduced",
    "chemsys",
    "symmetry",
    "property_name",
    "deprecated",
    "deprecation_reasons",
    "last_updated",
    "origins",
    "warnings",
    "task_ids",
    "uncorrected_energy_per_atom",
    "equilibrium_reaction_energy_per_atom",
    "decomposes_to",
    "xas",
    "grain_boundaries",
    "cbm",
    "vbm",
    "is_gap_direct",
    "is_metal",
    "es_source_calc_id",
    "bandstructure",
    "dos",
    "dos_energy_up",
    "dos_energy_down",
    "is_magnetic",
    "ordering",
    "total_magnetization_normalized_vol",
    "total_magnetization_normalized_formula_units",
    "num_magnetic_sites",
    "num_unique_magnetic_sites",
    "types_of_magnetic_species",
    "bulk_modulus",
    "shear_modulus",
    "universal_anisotropy",
    "homogeneous_poisson",
    "e_total",
    "e_ionic",
    "e_electronic",
    "n",
    "e_ij_max",
    "weighted_surface_energy_EV_PER_ANG2",
    "weighted_surface_energy",
    "weighted_work_function",
    "surface_anisotropy",
    "shape_factor",
    "has_reconstructed",
    "possible_species",
    "has_props",
    "theoretical",
    "database_IDs"
  ]
}
