{"builder_meta": null, "nsites": null, "elements": null, "nelements": null, "composition": null, "composition_reduced": null, "formula_pretty": "Lu3S4", "formula_anonymous": "A3B4", "chemsys": null, "volume": 151.93956007313, "density": 7.138360521496141, "density_atomic": 21.70565143901857, "symmetry": null, "property_name": null, "material_id": "mp-1222266", "deprecated": null, "deprecation_reasons": null, "last_updated": null, "origins": null, "warnings": null, "structure": {"@module": "pymatgen.core.structure", "@class": "Structure", "charge": 0, "lattice": {"matrix": [[0.0, -2e-08, -5.34605624], [5.34605624, -2e-08, -0.0], [2.67302965, -5.31623071, -2.67302965]], "pbc": [true, true, true], "a": 5.34605624, "b": 5.34605624, "c": 6.5232265008587085, "alpha": 65.80954380452243, "beta": 65.80954380452243, "gamma": 90.0, "volume": 151.93956007313}, "properties": {}, "sites": [{"species": [{"element": "Lu", "occu": 1}], "abc": [0.25, 0.75, 0.5], "properties": {"magmom": 0.0}, "label": "Lu", "xyz": [5.3460570050000005, -2.658115375, -2.673028885]}, {"species": [{"element": "Lu", "occu": 1}], "abc": [0.5, 0.5, -0.0], "properties": {"magmom": -0.0}, "label": "Lu", "xyz": [2.67302812, -2e-08, -2.67302812]}, {"species": [{"element": "Lu", "occu": 1}], "abc": [0.75, 0.25, 0.5], "properties": {"magmom": 0.0}, "label": "Lu", "xyz": [2.673028885, -2.658115375, -5.3460570050000005]}, {"species": [{"element": "S", "occu": 1}], "abc": [0.5, 0.0, -0.0], "properties": {"magmom": -0.0}, "label": "S", "xyz": [0.0, -1e-08, -2.67302812]}, {"species": [{"element": "S", "occu": 1}], "abc": [0.74940301, 0.74940301, 0.50119497], "properties": {"magmom": -0.0}, "label": "S", "xyz": [5.346059653126144, -2.664468121187649, -5.346059653126144]}, {"species": [{"element": "S", "occu": 1}], "abc": [0.0, 0.5, -0.0], "properties": {"magmom": -0.0}, "label": "S", "xyz": [2.67302812, -1e-08, 0.0]}, {"species": [{"element": "S", "occu": 1}], "abc": [0.25059699, 0.25059699, 0.49880503000000004], "properties": {"magmom": -0.0}, "label": "S", "xyz": [2.6730262368738575, -2.6517626288123513, -2.6730262368738575]}]}, "task_ids": null, "uncorrected_energy_per_atom": null, "energy_per_atom": -23.20140187285714, "formation_energy_per_atom": -2.29002517589285, "energy_above_hull": 0.0, "is_stable": true, "equilibrium_reaction_energy_per_atom": null, "decomposes_to": null, "xas": null, "grain_boundaries": null, "band_gap": 0.0, "cbm": null, "vbm": null, "efermi": 4.44049615, "is_gap_direct": null, "is_metal": null, "es_source_calc_id": null, "bandstructure": null, "dos": null, "dos_energy_up": null, "dos_energy_down": null, "is_magnetic": null, "ordering": null, "total_magnetization": 0.0, "total_magnetization_normalized_vol": null, "total_magnetization_normalized_formula_units": null, "num_magnetic_sites": null, "num_unique_magnetic_sites": null, "types_of_magnetic_species": null, "bulk_modulus": null, "shear_modulus": null, "universal_anisotropy": null, "homogeneous_poisson": null, "e_total": null, "e_ionic": null, "e_electronic": null, "n": null, "e_ij_max": null, "weighted_surface_energy_EV_PER_ANG2": null, "weighted_surface_energy": null, "weighted_work_function": null, "surface_anisotropy": null, "shape_factor": null, "has_reconstructed": null, "possible_species": null, "has_props": null, "theoretical": null, "database_IDs": null, "fields_not_requested": ["builder_meta", "nsites", "elements", "nelements", "composition", "composition_reduced", "chemsys", "symmetry", "property_name", "deprecated", "deprecation_reasons", "last_updated", "origins", "warnings", "task_ids", "uncorrected_energy_per_atom", "equilibrium_reaction_energy_per_atom", "decomposes_to", "xas", "grain_boundaries", "cbm", "vbm", "is_gap_direct", "is_metal", "es_source_calc_id", "bandstructure", "dos", "dos_energy_up", "dos_energy_down", "is_magnetic", "ordering", "total_magnetization_normalized_vol", "total_magnetization_normalized_formula_units", "num_magnetic_sites", "num_unique_magnetic_sites", "types_of_magnetic_species", "bulk_modulus", "shear_modulus", "universal_anisotropy", "homogeneous_poisson", "e_total", "e_ionic", "e_electronic", "n", "e_ij_max", "weighted_surface_energy_EV_PER_ANG2", "weighted_surface_energy", "weighted_work_function", "surface_anisotropy", "shape_factor", "has_reconstructed", "possible_species", "has_props", "theoretical", "database_IDs"]}