{"builder_meta": null, "nsites": null, "elements": null, "nelements": null, "composition": null, "composition_reduced": null, "formula_pretty": "Lu3Sc", "formula_anonymous": "AB3", "chemsys": null, "volume": 225.1530531739492, "density": 8.40556813606225, "density_atomic": 28.14413164674365, "symmetry": null, "property_name": null, "material_id": "mp-1185479", "deprecated": null, "deprecation_reasons": null, "last_updated": null, "origins": null, "warnings": null, "structure": {"@module": "pymatgen.core.structure", "@class": "Structure", "charge": 0, "lattice": {"matrix": [[3.47650132, -6.02147509, 0.0], [3.47650553, 6.02147721, -0.0], [0.0, 0.0, 5.37776986]], "pbc": [true, true, true], "a": 6.95300105619525, "b": 6.953004997169925, "c": 5.37776986, "alpha": 90.0, "beta": 90.0, "gamma": 119.99996362023259, "volume": 225.1530531739492}, "properties": {}, "sites": [{"species": [{"element": "Lu", "occu": 1}], "abc": [0.8317820100000001, 0.16821699, 0.75], "properties": {"magmom": 0.001}, "label": "Lu", "xyz": [3.4764985516922082, -3.9956398819053334, 4.033327395]}, {"species": [{"element": "Lu", "occu": 1}], "abc": [0.33643598, 0.16821799, 0.75], "properties": {"magmom": 0.001}, "label": "Lu", "xyz": [1.7544309010459784, -1.0129200798527305, 4.033327395]}, {"species": [{"element": "Lu", "occu": 1}], "abc": [0.8317820100000001, 0.6635650200000001, 0.75], "properties": {"magmom": 0.001}, "label": "Lu", "xyz": [5.198578717261814, -1.0129130082419366, 4.033327395]}, {"species": [{"element": "Lu", "occu": 1}], "abc": [0.16821799, 0.83178301, 0.25], "properties": {"magmom": 0.001}, "label": "Lu", "xyz": [3.4765082983077917, 3.995642001905333, 1.344442465]}, {"species": [{"element": "Lu", "occu": 1}], "abc": [0.66356402, 0.8317820100000001, 0.25], "properties": {"magmom": 0.001}, "label": "Lu", "xyz": [5.198575948954022, 1.0129221998527305, 1.344442465]}, {"species": [{"element": "Lu", "occu": 1}], "abc": [0.16821799, 0.33643498, 0.25], "properties": {"magmom": 0.001}, "label": "Lu", "xyz": [1.754428132738186, 1.0129151282419364, 1.344442465]}, {"species": [{"element": "Sc", "occu": 1}], "abc": [0.666667, 0.333333, 0.25], "properties": {"magmom": 0.001}, "label": "Sc", "xyz": [3.4765027233319303, -2.0071616709841007, 1.344442465]}, {"species": [{"element": "Sc", "occu": 1}], "abc": [0.333333, 0.666667, 0.75], "properties": {"magmom": 0.001}, "label": "Sc", "xyz": [3.47650412666807, 2.0071637909840994, 4.033327395]}]}, "task_ids": null, "uncorrected_energy_per_atom": null, "energy_per_atom": -31.39052728375, "formation_energy_per_atom": 0.019004692500004, "energy_above_hull": 0.019004692500004, "is_stable": false, "equilibrium_reaction_energy_per_atom": null, "decomposes_to": null, "xas": null, "grain_boundaries": null, "band_gap": 0.0, "cbm": null, "vbm": null, "efermi": 2.97897384, "is_gap_direct": null, "is_metal": null, "es_source_calc_id": null, "bandstructure": null, "dos": null, "dos_energy_up": null, "dos_energy_down": null, "is_magnetic": null, "ordering": null, "total_magnetization": 0.0148772, "total_magnetization_normalized_vol": null, "total_magnetization_normalized_formula_units": null, "num_magnetic_sites": null, "num_unique_magnetic_sites": null, "types_of_magnetic_species": null, "bulk_modulus": null, "shear_modulus": null, "universal_anisotropy": null, "homogeneous_poisson": null, "e_total": null, "e_ionic": null, "e_electronic": null, "n": null, "e_ij_max": null, "weighted_surface_energy_EV_PER_ANG2": null, "weighted_surface_energy": null, "weighted_work_function": null, "surface_anisotropy": null, "shape_factor": null, "has_reconstructed": null, "possible_species": null, "has_props": null, "theoretical": null, "database_IDs": null, "fields_not_requested": ["builder_meta", "nsites", "elements", "nelements", "composition", "composition_reduced", "chemsys", "symmetry", "property_name", "deprecated", "deprecation_reasons", "last_updated", "origins", "warnings", "task_ids", "uncorrected_energy_per_atom", "equilibrium_reaction_energy_per_atom", "decomposes_to", "xas", "grain_boundaries", "cbm", "vbm", "is_gap_direct", "is_metal", "es_source_calc_id", "bandstructure", "dos", "dos_energy_up", "dos_energy_down", "is_magnetic", "ordering", "total_magnetization_normalized_vol", "total_magnetization_normalized_formula_units", "num_magnetic_sites", "num_unique_magnetic_sites", "types_of_magnetic_species", "bulk_modulus", "shear_modulus", "universal_anisotropy", "homogeneous_poisson", "e_total", "e_ionic", "e_electronic", "n", "e_ij_max", "weighted_surface_energy_EV_PER_ANG2", "weighted_surface_energy", "weighted_work_function", "surface_anisotropy", "shape_factor", "has_reconstructed", "possible_species", "has_props", "theoretical", "database_IDs"]}