{
  "builder_meta": null,
  "nsites": null,
  "elements": null,
  "nelements": null,
  "composition": null,
  "composition_reduced": null,
  "formula_pretty": "Lu3Tl5",
  "formula_anonymous": "A3B5",
  "chemsys": null,
  "volume": 425.6948403188856,
  "density": 12.067568804575872,
  "density_atomic": 26.60592751993035,
  "symmetry": null,
  "property_name": null,
  "material_id": "mp-1189963",
  "deprecated": null,
  "deprecation_reasons": null,
  "last_updated": null,
  "origins": null,
  "warnings": null,
  "structure": {
    "@module": "pymatgen.core.structure",
    "@class": "Structure",
    "charge": 0,
    "lattice": {
      "matrix": [
        [5.092165, 3.924733, 0.0],
        [-5.092165, 3.924733, 0.0],
        [0.0, 0.0, 10.650152]
      ],
      "pbc": [true, true, true],
      "a": 6.4291269631664605,
      "b": 6.4291269631664605,
      "c": 10.650152,
      "alpha": 90.0,
      "beta": 90.0,
      "gamma": 104.7542737132826,
      "volume": 425.6948403188856
    },
    "properties": {},
    "sites": [
      {
        "species": [{ "element": "Lu", "occu": 1 }],
        "abc": [0.604901, 0.604901, 0.25],
        "properties": { "magmom": 0.003 },
        "label": "Lu",
        "xyz": [0.0, 4.748149832866, 2.662538]
      },
      {
        "species": [{ "element": "Lu", "occu": 1 }],
        "abc": [0.395099, 0.395099, 0.75],
        "properties": { "magmom": 0.003 },
        "label": "Lu",
        "xyz": [0.0, 3.1013161671339997, 7.987614000000001]
      },
      {
        "species": [{ "element": "Lu", "occu": 1 }],
        "abc": [0.78903, 0.21097000000000002, 0.5],
        "properties": { "magmom": 0.002 },
        "label": "Lu",
        "xyz": [2.9435768999, 3.924733, 5.325076]
      },
      {
        "species": [{ "element": "Lu", "occu": 1 }],
        "abc": [0.78903, 0.21097000000000002, 0.0],
        "properties": { "magmom": 0.002 },
        "label": "Lu",
        "xyz": [2.9435768999, 3.924733, 0.0]
      },
      {
        "species": [{ "element": "Lu", "occu": 1 }],
        "abc": [0.21097000000000002, 0.78903, 0.5],
        "properties": { "magmom": 0.002 },
        "label": "Lu",
        "xyz": [-2.9435768999, 3.924733, 5.325076]
      },
      {
        "species": [{ "element": "Lu", "occu": 1 }],
        "abc": [0.21097000000000002, 0.78903, 0.0],
        "properties": { "magmom": 0.002 },
        "label": "Lu",
        "xyz": [-2.9435768999, 3.924733, 0.0]
      },
      {
        "species": [{ "element": "Tl", "occu": 1 }],
        "abc": [0.997749, 0.997749, 0.25],
        "properties": { "magmom": 0.001 },
        "label": "Tl",
        "xyz": [0.0, 7.831796852034, 2.662538]
      },
      {
        "species": [{ "element": "Tl", "occu": 1 }],
        "abc": [0.002251, 0.002251, 0.75],
        "properties": { "magmom": 0.001 },
        "label": "Tl",
        "xyz": [0.0, 0.017669147966, 7.987614000000001]
      },
      {
        "species": [{ "element": "Tl", "occu": 1 }],
        "abc": [0.296016, 0.296016, 0.038530999999999004],
        "properties": { "magmom": 0.0 },
        "label": "Tl",
        "xyz": [0.0, 2.323567527456, 0.4103610067119894]
      },
      {
        "species": [{ "element": "Tl", "occu": 1 }],
        "abc": [0.703983999999999, 0.703983999999999, 0.9614689999999991],
        "properties": { "magmom": 0.0 },
        "label": "Tl",
        "xyz": [0.0, 5.525898472543992, 10.239790993287992]
      },
      {
        "species": [{ "element": "Tl", "occu": 1 }],
        "abc": [0.296016, 0.296016, 0.461468999999999],
        "properties": { "magmom": 0.0 },
        "label": "Tl",
        "xyz": [0.0, 2.323567527456, 4.91471499328799]
      },
      {
        "species": [{ "element": "Tl", "occu": 1 }],
        "abc": [0.703983999999999, 0.703983999999999, 0.538531],
        "properties": { "magmom": 0.0 },
        "label": "Tl",
        "xyz": [0.0, 5.525898472543992, 5.735437006712]
      },
      {
        "species": [{ "element": "Tl", "occu": 1 }],
        "abc": [0.058508, 0.515559, 0.25],
        "properties": { "magmom": 0.0 },
        "label": "Tl",
        "xyz": [-2.3273791054149995, 2.2530596991109997, 2.662538]
      },
      {
        "species": [{ "element": "Tl", "occu": 1 }],
        "abc": [0.484440999999999, 0.941492, 0.75],
        "properties": { "magmom": 0.0 },
        "label": "Tl",
        "xyz": [-2.3273791054150053, 5.5964063008889955, 7.987614000000001]
      },
      {
        "species": [{ "element": "Tl", "occu": 1 }],
        "abc": [0.941492, 0.484440999999999, 0.75],
        "properties": { "magmom": 0.0 },
        "label": "Tl",
        "xyz": [2.3273791054150053, 5.5964063008889955, 7.987614000000001]
      },
      {
        "species": [{ "element": "Tl", "occu": 1 }],
        "abc": [0.515559, 0.058508, 0.25],
        "properties": { "magmom": 0.0 },
        "label": "Tl",
        "xyz": [2.3273791054149995, 2.2530596991109997, 2.662538]
      }
    ]
  },
  "task_ids": null,
  "uncorrected_energy_per_atom": null,
  "energy_per_atom": -3.351755395625,
  "formation_energy_per_atom": -0.17395252770833802,
  "energy_above_hull": 0.019989458124998003,
  "is_stable": false,
  "equilibrium_reaction_energy_per_atom": null,
  "decomposes_to": null,
  "xas": null,
  "grain_boundaries": null,
  "band_gap": 0.0,
  "cbm": null,
  "vbm": null,
  "efermi": 6.01982985,
  "is_gap_direct": null,
  "is_metal": null,
  "es_source_calc_id": null,
  "bandstructure": null,
  "dos": null,
  "dos_energy_up": null,
  "dos_energy_down": null,
  "is_magnetic": null,
  "ordering": null,
  "total_magnetization": 0.175080899999999,
  "total_magnetization_normalized_vol": null,
  "total_magnetization_normalized_formula_units": null,
  "num_magnetic_sites": null,
  "num_unique_magnetic_sites": null,
  "types_of_magnetic_species": null,
  "bulk_modulus": null,
  "shear_modulus": null,
  "universal_anisotropy": null,
  "homogeneous_poisson": null,
  "e_total": null,
  "e_ionic": null,
  "e_electronic": null,
  "n": null,
  "e_ij_max": null,
  "weighted_surface_energy_EV_PER_ANG2": null,
  "weighted_surface_energy": null,
  "weighted_work_function": null,
  "surface_anisotropy": null,
  "shape_factor": null,
  "has_reconstructed": null,
  "possible_species": null,
  "has_props": null,
  "theoretical": null,
  "database_IDs": null,
  "fields_not_requested": [
    "builder_meta",
    "nsites",
    "elements",
    "nelements",
    "composition",
    "composition_reduced",
    "chemsys",
    "symmetry",
    "property_name",
    "deprecated",
    "deprecation_reasons",
    "last_updated",
    "origins",
    "warnings",
    "task_ids",
    "uncorrected_energy_per_atom",
    "equilibrium_reaction_energy_per_atom",
    "decomposes_to",
    "xas",
    "grain_boundaries",
    "cbm",
    "vbm",
    "is_gap_direct",
    "is_metal",
    "es_source_calc_id",
    "bandstructure",
    "dos",
    "dos_energy_up",
    "dos_energy_down",
    "is_magnetic",
    "ordering",
    "total_magnetization_normalized_vol",
    "total_magnetization_normalized_formula_units",
    "num_magnetic_sites",
    "num_unique_magnetic_sites",
    "types_of_magnetic_species",
    "bulk_modulus",
    "shear_modulus",
    "universal_anisotropy",
    "homogeneous_poisson",
    "e_total",
    "e_ionic",
    "e_electronic",
    "n",
    "e_ij_max",
    "weighted_surface_energy_EV_PER_ANG2",
    "weighted_surface_energy",
    "weighted_work_function",
    "surface_anisotropy",
    "shape_factor",
    "has_reconstructed",
    "possible_species",
    "has_props",
    "theoretical",
    "database_IDs"
  ]
}
