{"builder_meta": null, "nsites": null, "elements": null, "nelements": null, "composition": null, "composition_reduced": null, "formula_pretty": "Lu3Th", "formula_anonymous": "AB3", "chemsys": null, "volume": 244.57590397870172, "density": 10.278419580327403, "density_atomic": 30.571987997337715, "symmetry": null, "property_name": null, "material_id": "mp-1185525", "deprecated": null, "deprecation_reasons": null, "last_updated": null, "origins": null, "warnings": null, "structure": {"@module": "pymatgen.core.structure", "@class": "Structure", "charge": 0, "lattice": {"matrix": [[3.53851833, -6.12889391, 0.0], [3.53851833, 6.12889391, -0.0], [-0.0, -0.0, 5.63871466]], "pbc": [true, true, true], "a": 7.0770369881597395, "b": 7.0770369881597395, "c": 5.63871466, "alpha": 90.0, "beta": 90.0, "gamma": 120.00000306779144, "volume": 244.57590397870172}, "properties": {}, "sites": [{"species": [{"element": "Lu", "occu": 1}], "abc": [0.1660615, 0.332124, 0.25], "properties": {"magmom": 0.194}, "label": "Lu", "xyz": [1.762838523490215, 1.0177794449293749, 1.409678665]}, {"species": [{"element": "Lu", "occu": 1}], "abc": [0.667876, 0.833938499999999, 0.25], "properties": {"magmom": 0.194}, "label": "Lu", "xyz": [5.3141981365097815, 1.017779444929369, 1.409678665]}, {"species": [{"element": "Lu", "occu": 1}], "abc": [0.1660615, 0.833938499999999, 0.25], "properties": {"magmom": 0.194}, "label": "Lu", "xyz": [3.5385183299999965, 4.093347277929064, 1.409678665]}, {"species": [{"element": "Lu", "occu": 1}], "abc": [0.833938499999999, 0.667876, 0.75], "properties": {"magmom": 0.194}, "label": "Lu", "xyz": [5.3141981365097815, -1.017779444929369, 4.229035995]}, {"species": [{"element": "Lu", "occu": 1}], "abc": [0.332124, 0.1660615, 0.75], "properties": {"magmom": 0.194}, "label": "Lu", "xyz": [1.762838523490215, -1.0177794449293749, 4.229035995]}, {"species": [{"element": "Lu", "occu": 1}], "abc": [0.833938499999999, 0.1660615, 0.75], "properties": {"magmom": 0.194}, "label": "Lu", "xyz": [3.5385183299999965, -4.093347277929064, 4.229035995]}, {"species": [{"element": "Th", "occu": 1}], "abc": [0.333333, 0.666667, 0.75], "properties": {"magmom": 0.28400000000000003}, "label": "Th", "xyz": [3.53851833, 2.0429687225959405, 4.229035995]}, {"species": [{"element": "Th", "occu": 1}], "abc": [0.666667, 0.333333, 0.25], "properties": {"magmom": 0.28400000000000003}, "label": "Th", "xyz": [3.53851833, -2.0429687225959405, 1.409678665]}]}, "task_ids": null, "uncorrected_energy_per_atom": null, "energy_per_atom": -46.90640368625, "formation_energy_per_atom": 0.022321988750007002, "energy_above_hull": 0.022321988750007002, "is_stable": false, "equilibrium_reaction_energy_per_atom": null, "decomposes_to": null, "xas": null, "grain_boundaries": null, "band_gap": 0.0, "cbm": null, "vbm": null, "efermi": 3.9954047999999993, "is_gap_direct": null, "is_metal": null, "es_source_calc_id": null, "bandstructure": null, "dos": null, "dos_energy_up": null, "dos_energy_down": null, "is_magnetic": null, "ordering": null, "total_magnetization": 2.7323633, "total_magnetization_normalized_vol": null, "total_magnetization_normalized_formula_units": null, "num_magnetic_sites": null, "num_unique_magnetic_sites": null, "types_of_magnetic_species": null, "bulk_modulus": null, "shear_modulus": null, "universal_anisotropy": null, "homogeneous_poisson": null, "e_total": null, "e_ionic": null, "e_electronic": null, "n": null, "e_ij_max": null, "weighted_surface_energy_EV_PER_ANG2": null, "weighted_surface_energy": null, "weighted_work_function": null, "surface_anisotropy": null, "shape_factor": null, "has_reconstructed": null, "possible_species": null, "has_props": null, "theoretical": null, "database_IDs": null, "fields_not_requested": ["builder_meta", "nsites", "elements", "nelements", "composition", "composition_reduced", "chemsys", "symmetry", "property_name", "deprecated", "deprecation_reasons", "last_updated", "origins", "warnings", "task_ids", "uncorrected_energy_per_atom", "equilibrium_reaction_energy_per_atom", "decomposes_to", "xas", "grain_boundaries", "cbm", "vbm", "is_gap_direct", "is_metal", "es_source_calc_id", "bandstructure", "dos", "dos_energy_up", "dos_energy_down", "is_magnetic", "ordering", "total_magnetization_normalized_vol", "total_magnetization_normalized_formula_units", "num_magnetic_sites", "num_unique_magnetic_sites", "types_of_magnetic_species", "bulk_modulus", "shear_modulus", "universal_anisotropy", "homogeneous_poisson", "e_total", "e_ionic", "e_electronic", "n", "e_ij_max", "weighted_surface_energy_EV_PER_ANG2", "weighted_surface_energy", "weighted_work_function", "surface_anisotropy", "shape_factor", "has_reconstructed", "possible_species", "has_props", "theoretical", "database_IDs"]}