{
  "builder_meta": null,
  "nsites": null,
  "elements": null,
  "nelements": null,
  "composition": null,
  "composition_reduced": null,
  "formula_pretty": "Lu4C7",
  "formula_anonymous": "A4B7",
  "chemsys": null,
  "volume": 291.0269185899322,
  "density": 8.946030269233868,
  "density_atomic": 13.228496299542373,
  "symmetry": null,
  "property_name": null,
  "material_id": "mp-15178",
  "deprecated": null,
  "deprecation_reasons": null,
  "last_updated": null,
  "origins": null,
  "warnings": null,
  "structure": {
    "@module": "pymatgen.core.structure",
    "@class": "Structure",
    "charge": 0,
    "lattice": {
      "matrix": [
        [3.5834248, -0.01138818, 0.0],
        [-1.63508779, 6.040021, 0.0],
        [0.0, 0.0, 13.45768037]
      ],
      "pbc": [true, true, true],
      "a": 3.5834428958612907,
      "b": 6.2574248506432815,
      "c": 13.45768037,
      "alpha": 90.0,
      "beta": 90.0,
      "gamma": 105.32951490843465,
      "volume": 291.0269185899322
    },
    "properties": {},
    "sites": [
      {
        "species": [{ "element": "Lu", "occu": 1 }],
        "abc": [0.63402161, 0.25936306, 0.94560495],
        "properties": { "magmom": 0.0 },
        "label": "Lu",
        "xyz": [1.8478873884268907, 1.55933797680569, 12.725649173389831]
      },
      {
        "species": [{ "element": "Lu", "occu": 1 }],
        "abc": [0.36597839, 0.24063694, 0.44560495],
        "properties": { "magmom": 0.0 },
        "label": "Lu",
        "xyz": [0.9179935165731095, 1.4492843431943099, 5.996808988389832]
      },
      {
        "species": [{ "element": "Lu", "occu": 1 }],
        "abc": [0.36597839, 0.74063694, 0.05439505],
        "properties": { "magmom": 0.0 },
        "label": "Lu",
        "xyz": [0.10044962157310944, 4.4692948431943105, 0.7320311966101685]
      },
      {
        "species": [{ "element": "Lu", "occu": 1 }],
        "abc": [0.63402161, 0.75936306, 0.55439505],
        "properties": { "magmom": 0.0 },
        "label": "Lu",
        "xyz": [1.0303434934268907, 4.57934847680569, 7.460871381610168]
      },
      {
        "species": [{ "element": "Lu", "occu": 1 }],
        "abc": [0.94217545, 0.33931913, 0.65977743],
        "properties": { "magmom": 0.0 },
        "label": "Lu",
        "xyz": [2.821398307104737, 2.038765007285549, 8.87907376828005]
      },
      {
        "species": [{ "element": "Lu", "occu": 1 }],
        "abc": [0.05782455, 0.16067987, 0.15977743],
        "properties": { "magmom": 0.0 },
        "label": "Lu",
        "xyz": [-0.05551576701694727, 0.9698512726934511, 2.150233583280049]
      },
      {
        "species": [{ "element": "Lu", "occu": 1 }],
        "abc": [0.05782455, 0.6606798700000001, 0.34022257],
        "properties": { "magmom": 0.0 },
        "label": "Lu",
        "xyz": [-0.8730596620169473, 3.9898617726934518, 4.578606601719951]
      },
      {
        "species": [{ "element": "Lu", "occu": 1 }],
        "abc": [0.94217545, 0.83932013, 0.84022257],
        "properties": { "magmom": 0.0 },
        "label": "Lu",
        "xyz": [2.003852777016947, 5.058781547306549, 11.307446786719952]
      },
      {
        "species": [{ "element": "C", "occu": 1 }],
        "abc": [-0.0, 0.5, 0.5],
        "properties": { "magmom": -0.0 },
        "label": "C",
        "xyz": [-0.817543895, 3.0200105, 6.728840185]
      },
      {
        "species": [{ "element": "C", "occu": 1 }],
        "abc": [-0.0, 0.0, 0.0],
        "properties": { "magmom": -0.0 },
        "label": "C",
        "xyz": [0.0, 0.0, 0.0]
      },
      {
        "species": [{ "element": "C", "occu": 1 }],
        "abc": [0.53642726, 0.07593641, 0.78626563],
        "properties": { "magmom": 0.0 },
        "label": "C",
        "xyz": [1.798084050072614, 0.4525485808708232, 10.581311534456685]
      },
      {
        "species": [{ "element": "C", "occu": 1 }],
        "abc": [0.46357274, 0.42406359, 0.28626563],
        "properties": { "magmom": 0.0 },
        "label": "C",
        "xyz": [0.9677968549273858, 2.5560737391291766, 3.852471349456683]
      },
      {
        "species": [{ "element": "C", "occu": 1 }],
        "abc": [0.46357274, 0.92406359, 0.21373437],
        "properties": { "magmom": 0.0 },
        "label": "C",
        "xyz": [0.15025295992738563, 5.576084239129178, 2.876368835543317]
      },
      {
        "species": [{ "element": "C", "occu": 1 }],
        "abc": [0.53642726, 0.5759364100000001, 0.7137343700000001],
        "properties": { "magmom": 0.0 },
        "label": "C",
        "xyz": [0.9805401550726139, 3.4725590808708238, 9.605209020543318]
      },
      {
        "species": [{ "element": "C", "occu": 1 }],
        "abc": [0.62252929, 0.45544501, 0.19752634],
        "properties": { "magmom": -0.0 },
        "label": "C",
        "xyz": [1.486094321644964, 2.7438079491354177, 2.658246348375946]
      },
      {
        "species": [{ "element": "C", "occu": 1 }],
        "abc": [0.37747071, 0.04455499, 0.69752634],
        "properties": { "magmom": -0.0 },
        "label": "C",
        "xyz": [1.279786583355036, 0.26481437086458226, 9.387086533375946]
      },
      {
        "species": [{ "element": "C", "occu": 1 }],
        "abc": [0.732429, 0.95052022, 0.3964394],
        "properties": { "magmom": 0.0 },
        "label": "C",
        "xyz": [1.070420236969086, 5.732821056435401, 5.335154731274578]
      },
      {
        "species": [{ "element": "C", "occu": 1 }],
        "abc": [0.267571, 0.54947978, 0.8964394],
        "properties": { "magmom": 0.0 },
        "label": "C",
        "xyz": [0.060372878030913846, 3.3158222635646, 12.063994916274579]
      },
      {
        "species": [{ "element": "C", "occu": 1 }],
        "abc": [0.267571, 0.04947978, 0.6035606],
        "properties": { "magmom": 0.0 },
        "label": "C",
        "xyz": [0.8779167730309139, 0.29581176356460004, 8.122525638725422]
      },
      {
        "species": [{ "element": "C", "occu": 1 }],
        "abc": [0.732429, 0.45052022, 0.103560599999999],
        "properties": { "magmom": 0.0 },
        "label": "C",
        "xyz": [1.887964131969086, 2.7128105564354, 1.3936854537254086]
      },
      {
        "species": [{ "element": "C", "occu": 1 }],
        "abc": [0.62252929, 0.95544501, 0.30247366000000003],
        "properties": { "magmom": -0.0 },
        "label": "C",
        "xyz": [0.668550426644964, 5.763818449135418, 4.070593836624055]
      },
      {
        "species": [{ "element": "C", "occu": 1 }],
        "abc": [0.37747071, 0.54455499, 0.80247366],
        "properties": { "magmom": -0.0 },
        "label": "C",
        "xyz": [0.4622426883550359, 3.284824870864582, 10.799434021624053]
      }
    ]
  },
  "task_ids": null,
  "uncorrected_energy_per_atom": null,
  "energy_per_atom": -7.841284097727274,
  "formation_energy_per_atom": -0.32424698310606304,
  "energy_above_hull": 0.0,
  "is_stable": true,
  "equilibrium_reaction_energy_per_atom": null,
  "decomposes_to": null,
  "xas": null,
  "grain_boundaries": null,
  "band_gap": 0.0,
  "cbm": null,
  "vbm": null,
  "efermi": 4.00163089,
  "is_gap_direct": null,
  "is_metal": null,
  "es_source_calc_id": null,
  "bandstructure": null,
  "dos": null,
  "dos_energy_up": null,
  "dos_energy_down": null,
  "is_magnetic": null,
  "ordering": null,
  "total_magnetization": 0.0,
  "total_magnetization_normalized_vol": null,
  "total_magnetization_normalized_formula_units": null,
  "num_magnetic_sites": null,
  "num_unique_magnetic_sites": null,
  "types_of_magnetic_species": null,
  "bulk_modulus": null,
  "shear_modulus": null,
  "universal_anisotropy": null,
  "homogeneous_poisson": null,
  "e_total": null,
  "e_ionic": null,
  "e_electronic": null,
  "n": null,
  "e_ij_max": null,
  "weighted_surface_energy_EV_PER_ANG2": null,
  "weighted_surface_energy": null,
  "weighted_work_function": null,
  "surface_anisotropy": null,
  "shape_factor": null,
  "has_reconstructed": null,
  "possible_species": null,
  "has_props": null,
  "theoretical": null,
  "database_IDs": null,
  "fields_not_requested": [
    "builder_meta",
    "nsites",
    "elements",
    "nelements",
    "composition",
    "composition_reduced",
    "chemsys",
    "symmetry",
    "property_name",
    "deprecated",
    "deprecation_reasons",
    "last_updated",
    "origins",
    "warnings",
    "task_ids",
    "uncorrected_energy_per_atom",
    "equilibrium_reaction_energy_per_atom",
    "decomposes_to",
    "xas",
    "grain_boundaries",
    "cbm",
    "vbm",
    "is_gap_direct",
    "is_metal",
    "es_source_calc_id",
    "bandstructure",
    "dos",
    "dos_energy_up",
    "dos_energy_down",
    "is_magnetic",
    "ordering",
    "total_magnetization_normalized_vol",
    "total_magnetization_normalized_formula_units",
    "num_magnetic_sites",
    "num_unique_magnetic_sites",
    "types_of_magnetic_species",
    "bulk_modulus",
    "shear_modulus",
    "universal_anisotropy",
    "homogeneous_poisson",
    "e_total",
    "e_ionic",
    "e_electronic",
    "n",
    "e_ij_max",
    "weighted_surface_energy_EV_PER_ANG2",
    "weighted_surface_energy",
    "weighted_work_function",
    "surface_anisotropy",
    "shape_factor",
    "has_reconstructed",
    "possible_species",
    "has_props",
    "theoretical",
    "database_IDs"
  ]
}
