{"builder_meta": null, "nsites": null, "elements": null, "nelements": null, "composition": null, "composition_reduced": null, "formula_pretty": "Lu4Co3", "formula_anonymous": "A3B4", "chemsys": null, "volume": 407.9134306919612, "density": 10.706247922591862, "density_atomic": 19.42444908056958, "symmetry": null, "property_name": null, "material_id": "mp-1222465", "deprecated": null, "deprecation_reasons": null, "last_updated": null, "origins": null, "warnings": null, "structure": {"@module": "pymatgen.core.structure", "@class": "Structure", "charge": 0, "lattice": {"matrix": [[-1.844e-05, -3.6e-07, -3.96636685], [-10.89725938, 0.00039478, -3.9260000000000014e-05], [-5.44820807, 9.43771633, -1.072e-05]], "pbc": [true, true, true], "a": 3.966366850042881, "b": 10.89725938722166, "c": 10.89740614548603, "alpha": 60.00092949544274, "beta": 89.99981496620133, "gamma": 89.9995272050646, "volume": 407.9134306919612}, "properties": {}, "sites": [{"species": [{"element": "Lu", "occu": 1}], "abc": [0.74928521, 0.62004215, 0.86630069], "properties": {"magmom": -0.16}, "label": "Lu", "xyz": [-11.476560362206708, 8.17614467920057, -2.9719736477374945]}, {"species": [{"element": "Lu", "occu": 1}], "abc": [0.74928658, 0.51365139, 0.6200357200000001], "properties": {"magmom": -0.16}, "label": "Lu", "xyz": [-8.975489857964334, 5.851923749379884, -2.971972264798363]}, {"species": [{"element": "Lu", "occu": 1}], "abc": [0.74928371, 0.86630511, 0.51365387], "properties": {"magmom": -0.16}, "label": "Lu", "xyz": [-12.238858462401776, 4.848061247055887, -2.971973586097119]}, {"species": [{"element": "Lu", "occu": 1}], "abc": [0.25071479, 0.37995785, 0.13369931000000002], "properties": {"magmom": -0.16}, "label": "Lu", "xyz": [-4.868925527793293, 1.2619660707994311, -0.9944431822625057]}, {"species": [{"element": "Lu", "occu": 1}], "abc": [0.25071342, 0.48634861, 0.37996428], "properties": {"magmom": -0.16}, "label": "Lu", "xyz": [-7.369996032035665, 3.586187000620117, -0.9944445652016374]}, {"species": [{"element": "Lu", "occu": 1}], "abc": [0.25071629, 0.13369489, 0.48634613], "properties": {"magmom": -0.16}, "label": "Lu", "xyz": [-4.106627427598225, 4.590049502944113, -0.9944432439028816]}, {"species": [{"element": "Lu", "occu": 1}], "abc": [0.75018943, 0.77609754, 0.24764404], "properties": {"magmom": -0.079}, "label": "Lu", "xyz": [-9.806566288268415, 2.33750031805382, -2.975559610705925]}, {"species": [{"element": "Lu", "occu": 1}], "abc": [0.75020405, 0.97625608, 0.77610893], "properties": {"magmom": -0.079}, "label": "Lu", "xyz": [-14.866932494449777, 7.325081058821632, -2.9756311223571728]}, {"species": [{"element": "Lu", "occu": 1}], "abc": [0.7501971900000001, 0.24763732, 0.9762491600000001], "properties": {"magmom": -0.079}, "label": "Lu", "xyz": [-8.017390493686968, 9.213660131670986, -2.97557745301133]}, {"species": [{"element": "Lu", "occu": 1}], "abc": [0.24981057, 0.22390246, 0.75235596], "properties": {"magmom": -0.079}, "label": "Lu", "xyz": [-6.538919601731583, 7.100610431946182, -0.9908572192940753]}, {"species": [{"element": "Lu", "occu": 1}], "abc": [0.24979595000000002, 0.02374392, 0.22389107], "properties": {"magmom": -0.079}, "label": "Lu", "xyz": [-1.4785533955502224, 2.113029691178369, -0.9907857076428271]}, {"species": [{"element": "Lu", "occu": 1}], "abc": [0.24980281000000001, 0.7523626800000001, 0.023750840000000002], "properties": {"magmom": -0.079}, "label": "Lu", "xyz": [-8.328095396313033, 0.22445061832901606, -0.9908393769886701]}, {"species": [{"element": "Co", "occu": 1}], "abc": [0.750968899999999, 0.3333372, 0.33334106], "properties": {"magmom": 0.752}, "label": "Co", "xyz": [-5.448587230423806, 3.1461096899325223, -2.978634810575597]}, {"species": [{"element": "Co", "occu": 1}], "abc": [0.249031099999999, 0.6666628, 0.66665894], "properties": {"magmom": 0.752}, "label": "Co", "xyz": [-10.896898659576193, 6.292001060067479, -0.9877820194243958]}, {"species": [{"element": "Co", "occu": 1}], "abc": [0.74870925, 0.28362492, 0.56092418], "properties": {"magmom": 0.36}, "label": "Co", "xyz": [-6.146779770204452, 5.293954993388447, -2.969672697709931]}, {"species": [{"element": "Co", "occu": 1}], "abc": [0.7486970900000001, 0.15545992, 0.28362294], "properties": {"magmom": 0.361}, "label": "Co", "xyz": [-3.2393376679535146, 2.6768139553368755, -2.9696164622618433]}, {"species": [{"element": "Co", "occu": 1}], "abc": [0.74871127, 0.56092671, 0.15546826], "properties": {"magmom": 0.361}, "label": "Co", "xyz": [-6.959601087036717, 1.4674865093092024, -2.9696872501517815]}, {"species": [{"element": "Co", "occu": 1}], "abc": [0.25129075, 0.71637508, 0.43907582], "properties": {"magmom": 0.36}, "label": "Co", "xyz": [-10.198706119795547, 4.144155756611553, -0.9967441322900686]}, {"species": [{"element": "Co", "occu": 1}], "abc": [0.25130291, 0.84454008, 0.71637706], "properties": {"magmom": 0.361}, "label": "Co", "xyz": [-13.106148222046485, 6.761296794663125, -0.9968003677381575]}, {"species": [{"element": "Co", "occu": 1}], "abc": [0.25128873, 0.43907329, 0.84453174], "properties": {"magmom": 0.361}, "label": "Co", "xyz": [-9.385884802963282, 7.970624240690798, -0.9967295798482187]}, {"species": [{"element": "Co", "occu": 1}], "abc": [0.5, 0.0, -0.0], "properties": {"magmom": -1.072}, "label": "Co", "xyz": [-9.22e-06, -1.8e-07, -1.983183425]}]}, "task_ids": null, "uncorrected_energy_per_atom": null, "energy_per_atom": -5.885287113809522, "formation_energy_per_atom": -0.244287117619046, "energy_above_hull": 0.0, "is_stable": true, "equilibrium_reaction_energy_per_atom": null, "decomposes_to": null, "xas": null, "grain_boundaries": null, "band_gap": 0.0, "cbm": null, "vbm": null, "efermi": 3.59365071, "is_gap_direct": null, "is_metal": null, "es_source_calc_id": null, "bandstructure": null, "dos": null, "dos_energy_up": null, "dos_energy_down": null, "is_magnetic": null, "ordering": null, "total_magnetization": 0.6241536, "total_magnetization_normalized_vol": null, "total_magnetization_normalized_formula_units": null, "num_magnetic_sites": null, "num_unique_magnetic_sites": null, "types_of_magnetic_species": null, "bulk_modulus": null, "shear_modulus": null, "universal_anisotropy": null, "homogeneous_poisson": null, "e_total": null, "e_ionic": null, "e_electronic": null, "n": null, "e_ij_max": null, "weighted_surface_energy_EV_PER_ANG2": null, "weighted_surface_energy": null, "weighted_work_function": null, "surface_anisotropy": null, "shape_factor": null, "has_reconstructed": null, "possible_species": null, "has_props": null, "theoretical": null, "database_IDs": null, "fields_not_requested": ["builder_meta", "nsites", "elements", "nelements", "composition", "composition_reduced", "chemsys", "symmetry", "property_name", "deprecated", "deprecation_reasons", "last_updated", "origins", "warnings", "task_ids", "uncorrected_energy_per_atom", "equilibrium_reaction_energy_per_atom", "decomposes_to", "xas", "grain_boundaries", "cbm", "vbm", "is_gap_direct", "is_metal", "es_source_calc_id", "bandstructure", "dos", "dos_energy_up", "dos_energy_down", "is_magnetic", "ordering", "total_magnetization_normalized_vol", "total_magnetization_normalized_formula_units", "num_magnetic_sites", "num_unique_magnetic_sites", "types_of_magnetic_species", "bulk_modulus", "shear_modulus", "universal_anisotropy", "homogeneous_poisson", "e_total", "e_ionic", "e_electronic", "n", "e_ij_max", "weighted_surface_energy_EV_PER_ANG2", "weighted_surface_energy", "weighted_work_function", "surface_anisotropy", "shape_factor", "has_reconstructed", "possible_species", "has_props", "theoretical", "database_IDs"]}