{
  "builder_meta": null,
  "nsites": null,
  "elements": null,
  "nelements": null,
  "composition": null,
  "composition_reduced": null,
  "formula_pretty": "Lu4Fe",
  "formula_anonymous": "AB4",
  "chemsys": null,
  "volume": 268.71725449385025,
  "density": 9.339861424240658,
  "density_atomic": 26.871725449385025,
  "symmetry": null,
  "property_name": null,
  "material_id": "mp-1210831",
  "deprecated": null,
  "deprecation_reasons": null,
  "last_updated": null,
  "origins": null,
  "warnings": null,
  "structure": {
    "@module": "pymatgen.core.structure",
    "@class": "Structure",
    "charge": 0,
    "lattice": {
      "matrix": [
        [0.0, 5.121791, 5.121791],
        [5.121791, 0.0, 5.121791],
        [5.121791, 5.121791, 0.0]
      ],
      "pbc": [true, true, true],
      "a": 7.2433062958404575,
      "b": 7.2433062958404575,
      "c": 7.2433062958404575,
      "alpha": 60.00000000000001,
      "beta": 60.00000000000001,
      "gamma": 60.00000000000001,
      "volume": 268.71725449385025
    },
    "properties": {},
    "sites": [
      {
        "species": [{ "element": "Lu", "occu": 1 }],
        "abc": [0.384829, 0.384829, 0.384829],
        "properties": { "magmom": -0.001 },
        "label": "Lu",
        "xyz": [3.9420274174779997, 3.9420274174779997, 3.9420274174779997]
      },
      {
        "species": [{ "element": "Lu", "occu": 1 }],
        "abc": [0.384829, 0.384829, 0.845514],
        "properties": { "magmom": -0.001 },
        "label": "Lu",
        "xyz": [6.301559704313, 6.301559704313, 3.9420274174779997]
      },
      {
        "species": [{ "element": "Lu", "occu": 1 }],
        "abc": [0.384829, 0.845514, 0.384829],
        "properties": { "magmom": -0.001 },
        "label": "Lu",
        "xyz": [6.301559704313, 3.9420274174779997, 6.301559704313]
      },
      {
        "species": [{ "element": "Lu", "occu": 1 }],
        "abc": [0.865170999999999, 0.865170999999999, 0.404485999999999],
        "properties": { "magmom": -0.001 },
        "label": "Lu",
        "xyz": [6.50291779568699, 6.50291779568699, 8.86245008252199]
      },
      {
        "species": [{ "element": "Lu", "occu": 1 }],
        "abc": [0.865170999999999, 0.865170999999999, 0.865170999999999],
        "properties": { "magmom": -0.001 },
        "label": "Lu",
        "xyz": [8.86245008252199, 8.86245008252199, 8.86245008252199]
      },
      {
        "species": [{ "element": "Lu", "occu": 1 }],
        "abc": [0.845514, 0.384829, 0.384829],
        "properties": { "magmom": -0.001 },
        "label": "Lu",
        "xyz": [3.9420274174779997, 6.301559704313, 6.301559704313]
      },
      {
        "species": [{ "element": "Lu", "occu": 1 }],
        "abc": [0.865170999999999, 0.404485999999999, 0.865170999999999],
        "properties": { "magmom": -0.001 },
        "label": "Lu",
        "xyz": [6.50291779568699, 8.86245008252199, 6.50291779568699]
      },
      {
        "species": [{ "element": "Lu", "occu": 1 }],
        "abc": [0.404485999999999, 0.865170999999999, 0.865170999999999],
        "properties": { "magmom": -0.001 },
        "label": "Lu",
        "xyz": [8.86245008252199, 6.50291779568699, 6.50291779568699]
      },
      {
        "species": [{ "element": "Fe", "occu": 1 }],
        "abc": [0.0, 0.0, 0.0],
        "properties": { "magmom": 0.004 },
        "label": "Fe",
        "xyz": [0.0, 0.0, 0.0]
      },
      {
        "species": [{ "element": "Fe", "occu": 1 }],
        "abc": [0.25, 0.25, 0.25],
        "properties": { "magmom": 0.004 },
        "label": "Fe",
        "xyz": [2.5608955, 2.5608955, 2.5608955]
      }
    ]
  },
  "task_ids": null,
  "uncorrected_energy_per_atom": null,
  "energy_per_atom": -4.875706168,
  "formation_energy_per_atom": 0.435648036666666,
  "energy_above_hull": 0.488090089833332,
  "is_stable": false,
  "equilibrium_reaction_energy_per_atom": null,
  "decomposes_to": null,
  "xas": null,
  "grain_boundaries": null,
  "band_gap": 0.0,
  "cbm": null,
  "vbm": null,
  "efermi": 2.71215785,
  "is_gap_direct": null,
  "is_metal": null,
  "es_source_calc_id": null,
  "bandstructure": null,
  "dos": null,
  "dos_energy_up": null,
  "dos_energy_down": null,
  "is_magnetic": null,
  "ordering": null,
  "total_magnetization": 0.0107199,
  "total_magnetization_normalized_vol": null,
  "total_magnetization_normalized_formula_units": null,
  "num_magnetic_sites": null,
  "num_unique_magnetic_sites": null,
  "types_of_magnetic_species": null,
  "bulk_modulus": null,
  "shear_modulus": null,
  "universal_anisotropy": null,
  "homogeneous_poisson": null,
  "e_total": null,
  "e_ionic": null,
  "e_electronic": null,
  "n": null,
  "e_ij_max": null,
  "weighted_surface_energy_EV_PER_ANG2": null,
  "weighted_surface_energy": null,
  "weighted_work_function": null,
  "surface_anisotropy": null,
  "shape_factor": null,
  "has_reconstructed": null,
  "possible_species": null,
  "has_props": null,
  "theoretical": null,
  "database_IDs": null,
  "fields_not_requested": [
    "builder_meta",
    "nsites",
    "elements",
    "nelements",
    "composition",
    "composition_reduced",
    "chemsys",
    "symmetry",
    "property_name",
    "deprecated",
    "deprecation_reasons",
    "last_updated",
    "origins",
    "warnings",
    "task_ids",
    "uncorrected_energy_per_atom",
    "equilibrium_reaction_energy_per_atom",
    "decomposes_to",
    "xas",
    "grain_boundaries",
    "cbm",
    "vbm",
    "is_gap_direct",
    "is_metal",
    "es_source_calc_id",
    "bandstructure",
    "dos",
    "dos_energy_up",
    "dos_energy_down",
    "is_magnetic",
    "ordering",
    "total_magnetization_normalized_vol",
    "total_magnetization_normalized_formula_units",
    "num_magnetic_sites",
    "num_unique_magnetic_sites",
    "types_of_magnetic_species",
    "bulk_modulus",
    "shear_modulus",
    "universal_anisotropy",
    "homogeneous_poisson",
    "e_total",
    "e_ionic",
    "e_electronic",
    "n",
    "e_ij_max",
    "weighted_surface_energy_EV_PER_ANG2",
    "weighted_surface_energy",
    "weighted_work_function",
    "surface_anisotropy",
    "shape_factor",
    "has_reconstructed",
    "possible_species",
    "has_props",
    "theoretical",
    "database_IDs"
  ]
}
