{"builder_meta": null, "nsites": null, "elements": null, "nelements": null, "composition": null, "composition_reduced": null, "formula_pretty": "Lu4Ir", "formula_anonymous": "AB4", "chemsys": null, "volume": 299.88672080261375, "density": 9.879343701936602, "density_atomic": 29.988672080261374, "symmetry": null, "property_name": null, "material_id": "mp-1210563", "deprecated": null, "deprecation_reasons": null, "last_updated": null, "origins": null, "warnings": null, "structure": {"@module": "pymatgen.core.structure", "@class": "Structure", "charge": 0, "lattice": {"matrix": [[-5.312624, -5.312624, 0.0], [-5.312624, 0.0, -5.312624], [0.0, -5.312624, -5.312624]], "pbc": [true, true, true], "a": 7.513184912588801, "b": 7.513184912588801, "c": 7.513184912588801, "alpha": 59.99999999999999, "beta": 59.99999999999999, "gamma": 59.99999999999999, "volume": 299.88672080261375}, "properties": {}, "sites": [{"species": [{"element": "Lu", "occu": 1}], "abc": [0.611112, 0.611112, 0.611112], "properties": {"magmom": 0.0}, "label": "Lu", "xyz": [-6.493216555776, -6.493216555776, -6.493216555776]}, {"species": [{"element": "Lu", "occu": 1}], "abc": [0.166663, 0.611112, 0.611112], "properties": {"magmom": 0.0}, "label": "Lu", "xyz": [-4.1320261316, -4.1320261316, -6.493216555776]}, {"species": [{"element": "Lu", "occu": 1}], "abc": [0.611112, 0.166663, 0.611112], "properties": {"magmom": 0.0}, "label": "Lu", "xyz": [-4.1320261316, -6.493216555776, -4.1320261316]}, {"species": [{"element": "Lu", "occu": 1}], "abc": [0.583337, 0.138887999999999, 0.138887999999999], "properties": {"magmom": 0.0}, "label": "Lu", "xyz": [-3.836909868399994, -3.836909868399994, -1.4757194442239894]}, {"species": [{"element": "Lu", "occu": 1}], "abc": [0.138887999999999, 0.138887999999999, 0.138887999999999], "properties": {"magmom": 0.0}, "label": "Lu", "xyz": [-1.4757194442239894, -1.4757194442239894, -1.4757194442239894]}, {"species": [{"element": "Lu", "occu": 1}], "abc": [0.611112, 0.611112, 0.166663], "properties": {"magmom": 0.0}, "label": "Lu", "xyz": [-6.493216555776, -4.1320261316, -4.1320261316]}, {"species": [{"element": "Lu", "occu": 1}], "abc": [0.138887999999999, 0.583337, 0.138887999999999], "properties": {"magmom": 0.0}, "label": "Lu", "xyz": [-3.836909868399994, -1.4757194442239894, -3.836909868399994]}, {"species": [{"element": "Lu", "occu": 1}], "abc": [0.138887999999999, 0.138887999999999, 0.583337], "properties": {"magmom": 0.0}, "label": "Lu", "xyz": [-1.4757194442239894, -3.836909868399994, -3.836909868399994]}, {"species": [{"element": "Ir", "occu": 1}], "abc": [0.0, 0.0, 0.0], "properties": {"magmom": -0.0}, "label": "Ir", "xyz": [0.0, 0.0, 0.0]}, {"species": [{"element": "Ir", "occu": 1}], "abc": [0.75, 0.75, 0.75], "properties": {"magmom": -0.0}, "label": "Ir", "xyz": [-7.968935999999999, -7.968935999999999, -7.968935999999999]}]}, "task_ids": null, "uncorrected_energy_per_atom": null, "energy_per_atom": -5.291797107, "formation_energy_per_atom": 0.09323969166666601, "energy_above_hull": 0.618149475666666, "is_stable": false, "equilibrium_reaction_energy_per_atom": null, "decomposes_to": null, "xas": null, "grain_boundaries": null, "band_gap": 0.0, "cbm": null, "vbm": null, "efermi": 2.8171855900000002, "is_gap_direct": null, "is_metal": null, "es_source_calc_id": null, "bandstructure": null, "dos": null, "dos_energy_up": null, "dos_energy_down": null, "is_magnetic": null, "ordering": null, "total_magnetization": 0.0070553, "total_magnetization_normalized_vol": null, "total_magnetization_normalized_formula_units": null, "num_magnetic_sites": null, "num_unique_magnetic_sites": null, "types_of_magnetic_species": null, "bulk_modulus": null, "shear_modulus": null, "universal_anisotropy": null, "homogeneous_poisson": null, "e_total": null, "e_ionic": null, "e_electronic": null, "n": null, "e_ij_max": null, "weighted_surface_energy_EV_PER_ANG2": null, "weighted_surface_energy": null, "weighted_work_function": null, "surface_anisotropy": null, "shape_factor": null, "has_reconstructed": null, "possible_species": null, "has_props": null, "theoretical": null, "database_IDs": null, "fields_not_requested": ["builder_meta", "nsites", "elements", "nelements", "composition", "composition_reduced", "chemsys", "symmetry", "property_name", "deprecated", "deprecation_reasons", "last_updated", "origins", "warnings", "task_ids", "uncorrected_energy_per_atom", "equilibrium_reaction_energy_per_atom", "decomposes_to", "xas", "grain_boundaries", "cbm", "vbm", "is_gap_direct", "is_metal", "es_source_calc_id", "bandstructure", "dos", "dos_energy_up", "dos_energy_down", "is_magnetic", "ordering", "total_magnetization_normalized_vol", "total_magnetization_normalized_formula_units", "num_magnetic_sites", "num_unique_magnetic_sites", "types_of_magnetic_species", "bulk_modulus", "shear_modulus", "universal_anisotropy", "homogeneous_poisson", "e_total", "e_ionic", "e_electronic", "n", "e_ij_max", "weighted_surface_energy_EV_PER_ANG2", "weighted_surface_energy", "weighted_work_function", "surface_anisotropy", "shape_factor", "has_reconstructed", "possible_species", "has_props", "theoretical", "database_IDs"]}