{"builder_meta": null, "nsites": null, "elements": null, "nelements": null, "composition": null, "composition_reduced": null, "formula_pretty": "Lu4Rh", "formula_anonymous": "AB4", "chemsys": null, "volume": 294.7431265000683, "density": 9.045413707931921, "density_atomic": 29.47431265000683, "symmetry": null, "property_name": null, "material_id": "mp-1210757", "deprecated": null, "deprecation_reasons": null, "last_updated": null, "origins": null, "warnings": null, "structure": {"@module": "pymatgen.core.structure", "@class": "Structure", "charge": 0, "lattice": {"matrix": [[0.0, 5.282075, 5.282075], [5.282075, 0.0, 5.282075], [5.282075, 5.282075, 0.0]], "pbc": [true, true, true], "a": 7.469982102471866, "b": 7.469982102471866, "c": 7.469982102471866, "alpha": 59.99999999999999, "beta": 59.99999999999999, "gamma": 59.99999999999999, "volume": 294.7431265000683}, "properties": {}, "sites": [{"species": [{"element": "Lu", "occu": 1}], "abc": [0.388631, 0.388631, 0.388631], "properties": {"magmom": 0.006}, "label": "Lu", "xyz": [4.10555617865, 4.10555617865, 4.10555617865]}, {"species": [{"element": "Lu", "occu": 1}], "abc": [0.388631, 0.388631, 0.834106], "properties": {"magmom": 0.005}, "label": "Lu", "xyz": [6.4585885392749995, 6.4585885392749995, 4.10555617865]}, {"species": [{"element": "Lu", "occu": 1}], "abc": [0.388631, 0.834106, 0.388631], "properties": {"magmom": 0.006}, "label": "Lu", "xyz": [6.4585885392749995, 4.10555617865, 6.4585885392749995]}, {"species": [{"element": "Lu", "occu": 1}], "abc": [0.861368999999999, 0.861368999999999, 0.415894], "properties": {"magmom": 0.005}, "label": "Lu", "xyz": [6.746598960724994, 6.746598960724994, 9.099631321349989]}, {"species": [{"element": "Lu", "occu": 1}], "abc": [0.861368999999999, 0.861368999999999, 0.861368999999999], "properties": {"magmom": 0.006}, "label": "Lu", "xyz": [9.099631321349989, 9.099631321349989, 9.099631321349989]}, {"species": [{"element": "Lu", "occu": 1}], "abc": [0.834106, 0.388631, 0.388631], "properties": {"magmom": 0.006}, "label": "Lu", "xyz": [4.10555617865, 6.4585885392749995, 6.4585885392749995]}, {"species": [{"element": "Lu", "occu": 1}], "abc": [0.861368999999999, 0.415894, 0.861368999999999], "properties": {"magmom": 0.006}, "label": "Lu", "xyz": [6.746598960724994, 9.099631321349989, 6.746598960724994]}, {"species": [{"element": "Lu", "occu": 1}], "abc": [0.415894, 0.861368999999999, 0.861368999999999], "properties": {"magmom": 0.006}, "label": "Lu", "xyz": [9.099631321349989, 6.746598960724994, 6.746598960724994]}, {"species": [{"element": "Rh", "occu": 1}], "abc": [0.0, 0.0, 0.0], "properties": {"magmom": 0.001}, "label": "Rh", "xyz": [0.0, 0.0, 0.0]}, {"species": [{"element": "Rh", "occu": 1}], "abc": [0.25, 0.25, 0.25], "properties": {"magmom": 0.001}, "label": "Rh", "xyz": [2.6410375, 2.6410375, 2.6410375]}]}, "task_ids": null, "uncorrected_energy_per_atom": null, "energy_per_atom": -35.24586635922223, "formation_energy_per_atom": 0.045283513444445006, "energy_above_hull": 0.501973603666662, "is_stable": false, "equilibrium_reaction_energy_per_atom": null, "decomposes_to": null, "xas": null, "grain_boundaries": null, "band_gap": 0.0, "cbm": null, "vbm": null, "efermi": 2.69795155, "is_gap_direct": null, "is_metal": null, "es_source_calc_id": null, "bandstructure": null, "dos": null, "dos_energy_up": null, "dos_energy_down": null, "is_magnetic": null, "ordering": null, "total_magnetization": 0.0763399, "total_magnetization_normalized_vol": null, "total_magnetization_normalized_formula_units": null, "num_magnetic_sites": null, "num_unique_magnetic_sites": null, "types_of_magnetic_species": null, "bulk_modulus": null, "shear_modulus": null, "universal_anisotropy": null, "homogeneous_poisson": null, "e_total": null, "e_ionic": null, "e_electronic": null, "n": null, "e_ij_max": null, "weighted_surface_energy_EV_PER_ANG2": null, "weighted_surface_energy": null, "weighted_work_function": null, "surface_anisotropy": null, "shape_factor": null, "has_reconstructed": null, "possible_species": null, "has_props": null, "theoretical": null, "database_IDs": null, "fields_not_requested": ["builder_meta", "nsites", "elements", "nelements", "composition", "composition_reduced", "chemsys", "symmetry", "property_name", "deprecated", "deprecation_reasons", "last_updated", "origins", "warnings", "task_ids", "uncorrected_energy_per_atom", "equilibrium_reaction_energy_per_atom", "decomposes_to", "xas", "grain_boundaries", "cbm", "vbm", "is_gap_direct", "is_metal", "es_source_calc_id", "bandstructure", "dos", "dos_energy_up", "dos_energy_down", "is_magnetic", "ordering", "total_magnetization_normalized_vol", "total_magnetization_normalized_formula_units", "num_magnetic_sites", "num_unique_magnetic_sites", "types_of_magnetic_species", "bulk_modulus", "shear_modulus", "universal_anisotropy", "homogeneous_poisson", "e_total", "e_ionic", "e_electronic", "n", "e_ij_max", "weighted_surface_energy_EV_PER_ANG2", "weighted_surface_energy", "weighted_work_function", "surface_anisotropy", "shape_factor", "has_reconstructed", "possible_species", "has_props", "theoretical", "database_IDs"]}