{"builder_meta": null, "nsites": null, "elements": null, "nelements": null, "composition": null, "composition_reduced": null, "formula_pretty": "Lu5Bi3", "formula_anonymous": "A3B5", "chemsys": null, "volume": 877.7597299492345, "density": 11.364194388522801, "density_atomic": 27.429991560913578, "symmetry": null, "property_name": null, "material_id": "mp-1210607", "deprecated": null, "deprecation_reasons": null, "last_updated": null, "origins": null, "warnings": null, "structure": {"@module": "pymatgen.core.structure", "@class": "Structure", "charge": 0, "lattice": {"matrix": [[8.06051665, -0.0, 0.0], [-0.0, 9.28468218, 0.0], [0.0, 0.0, 11.728588]], "pbc": [true, true, true], "a": 8.06051665, "b": 9.28468218, "c": 11.728588, "alpha": 90.0, "beta": 90.0, "gamma": 90.0, "volume": 877.7597299492345}, "properties": {}, "sites": [{"species": [{"element": "Lu", "occu": 1}], "abc": [0.022187870000000002, 0.25, 0.51087222], "properties": {"magmom": 0.0}, "label": "Lu", "xyz": [0.17884569556303553, 2.321170545, 5.99180978902536]}, {"species": [{"element": "Lu", "occu": 1}], "abc": [0.97781213, 0.75, 0.48912778], "properties": {"magmom": 0.0}, "label": "Lu", "xyz": [7.881670954436965, 6.963511635000001, 5.736778210974641]}, {"species": [{"element": "Lu", "occu": 1}], "abc": [0.47781213, 0.75, 0.01087222], "properties": {"magmom": 0.0}, "label": "Lu", "xyz": [3.8514126294369646, 6.963511635000001, 0.12751578902536]}, {"species": [{"element": "Lu", "occu": 1}], "abc": [0.52218787, 0.25, 0.98912778], "properties": {"magmom": 0.0}, "label": "Lu", "xyz": [4.209104020563036, 2.321170545, 11.60107221097464]}, {"species": [{"element": "Lu", "occu": 1}], "abc": [0.35583472, 0.25, 0.28310493000000003], "properties": {"magmom": 0.0}, "label": "Lu", "xyz": [2.868211685208088, 2.321170545, 3.3204210847388405]}, {"species": [{"element": "Lu", "occu": 1}], "abc": [0.6441652800000001, 0.75, 0.71689507], "properties": {"magmom": 0.0}, "label": "Lu", "xyz": [5.192304964791913, 6.963511635000001, 8.40816691526116]}, {"species": [{"element": "Lu", "occu": 1}], "abc": [0.14416528, 0.75, 0.78310493], "properties": {"magmom": 0.0}, "label": "Lu", "xyz": [1.162046639791912, 6.963511635000001, 9.18471508473884]}, {"species": [{"element": "Lu", "occu": 1}], "abc": [0.85583472, 0.25, 0.21689507], "properties": {"magmom": 0.0}, "label": "Lu", "xyz": [6.898470010208088, 2.321170545, 2.54387291526116]}, {"species": [{"element": "Lu", "occu": 1}], "abc": [0.18623456, 0.25, 0.7849079], "properties": {"magmom": 0.0}, "label": "Lu", "xyz": [1.501146771685424, 2.321170545, 9.205861377045201]}, {"species": [{"element": "Lu", "occu": 1}], "abc": [0.8137654400000001, 0.75, 0.215092099999999], "properties": {"magmom": 0.0}, "label": "Lu", "xyz": [6.559369878314577, 6.963511635000001, 2.5227266229547882]}, {"species": [{"element": "Lu", "occu": 1}], "abc": [0.31376544, 0.75, 0.2849079], "properties": {"magmom": 0.0}, "label": "Lu", "xyz": [2.5291115533145763, 6.963511635000001, 3.3415673770452]}, {"species": [{"element": "Lu", "occu": 1}], "abc": [0.68623456, 0.25, 0.7150921], "properties": {"magmom": 0.0}, "label": "Lu", "xyz": [5.5314050966854245, 2.321170545, 8.3870206229548]}, {"species": [{"element": "Lu", "occu": 1}], "abc": [0.19210557, 0.06764005000000001, 0.05971984], "properties": {"magmom": 0.001}, "label": "Lu", "xyz": [1.5484701455427405, 0.6280163668893092, 0.70042939878592]}, {"species": [{"element": "Lu", "occu": 1}], "abc": [0.80789443, 0.93235995, 0.94028016], "properties": {"magmom": 0.001}, "label": "Lu", "xyz": [6.51204650445726, 8.656665813110692, 11.02815860121408]}, {"species": [{"element": "Lu", "occu": 1}], "abc": [0.30789443, 0.93235995, 0.55971984], "properties": {"magmom": 0.001}, "label": "Lu", "xyz": [2.4817881794572596, 8.656665813110692, 6.56472339878592]}, {"species": [{"element": "Lu", "occu": 1}], "abc": [0.80789443, 0.5676400500000001, 0.94028016], "properties": {"magmom": 0.001}, "label": "Lu", "xyz": [6.51204650445726, 5.27035745688931, 11.02815860121408]}, {"species": [{"element": "Lu", "occu": 1}], "abc": [0.6921055700000001, 0.06764005000000001, 0.44028016000000003], "properties": {"magmom": 0.001}, "label": "Lu", "xyz": [5.578728470542742, 0.6280163668893092, 5.1638646012140805]}, {"species": [{"element": "Lu", "occu": 1}], "abc": [0.19210557, 0.43235995, 0.05971984], "properties": {"magmom": 0.001}, "label": "Lu", "xyz": [1.5484701455427405, 4.0143247231106916, 0.70042939878592]}, {"species": [{"element": "Lu", "occu": 1}], "abc": [0.6921055700000001, 0.43235995, 0.44028016000000003], "properties": {"magmom": 0.001}, "label": "Lu", "xyz": [5.578728470542742, 4.0143247231106916, 5.1638646012140805]}, {"species": [{"element": "Lu", "occu": 1}], "abc": [0.30789443, 0.5676400500000001, 0.55971984], "properties": {"magmom": 0.001}, "label": "Lu", "xyz": [2.4817881794572596, 5.27035745688931, 6.56472339878592]}, {"species": [{"element": "Bi", "occu": 1}], "abc": [0.40209439, 0.25, 0.54239978], "properties": {"magmom": -0.0}, "label": "Bi", "xyz": [3.2410885254665938, 2.321170545, 6.36158355091064]}, {"species": [{"element": "Bi", "occu": 1}], "abc": [0.59790561, 0.75, 0.45760022], "properties": {"magmom": -0.0}, "label": "Bi", "xyz": [4.819428124533406, 6.963511635000001, 5.36700444908936]}, {"species": [{"element": "Bi", "occu": 1}], "abc": [0.09790561, 0.75, 0.04239978], "properties": {"magmom": -0.0}, "label": "Bi", "xyz": [0.7891697995334066, 6.963511635000001, 0.49728955091064]}, {"species": [{"element": "Bi", "occu": 1}], "abc": [0.90209439, 0.25, 0.95760022], "properties": {"magmom": -0.0}, "label": "Bi", "xyz": [7.271346850466594, 2.321170545, 11.23129844908936]}, {"species": [{"element": "Bi", "occu": 1}], "abc": [0.06541915, 0.00370329, 0.32544414], "properties": {"magmom": -0.0}, "label": "Bi", "xyz": [0.5273121478038475, 0.034383870670372206, 3.81700023507432]}, {"species": [{"element": "Bi", "occu": 1}], "abc": [0.93458085, 0.99629671, 0.67455586], "properties": {"magmom": -0.0}, "label": "Bi", "xyz": [7.533204502196153, 9.250298309329628, 7.91158776492568]}, {"species": [{"element": "Bi", "occu": 1}], "abc": [0.43458085, 0.99629671, 0.82544414], "properties": {"magmom": -0.0}, "label": "Bi", "xyz": [3.502946177196153, 9.250298309329628, 9.68129423507432]}, {"species": [{"element": "Bi", "occu": 1}], "abc": [0.93458085, 0.50370329, 0.67455586], "properties": {"magmom": -0.0}, "label": "Bi", "xyz": [7.533204502196153, 4.676724960670373, 7.91158776492568]}, {"species": [{"element": "Bi", "occu": 1}], "abc": [0.56541915, 0.00370329, 0.17455586], "properties": {"magmom": -0.0}, "label": "Bi", "xyz": [4.557570472803848, 0.034383870670372206, 2.04729376492568]}, {"species": [{"element": "Bi", "occu": 1}], "abc": [0.06541915, 0.49629671000000003, 0.32544414], "properties": {"magmom": -0.0}, "label": "Bi", "xyz": [0.5273121478038475, 4.607957219329628, 3.81700023507432]}, {"species": [{"element": "Bi", "occu": 1}], "abc": [0.56541915, 0.49629671000000003, 0.17455586], "properties": {"magmom": -0.0}, "label": "Bi", "xyz": [4.557570472803848, 4.607957219329628, 2.04729376492568]}, {"species": [{"element": "Bi", "occu": 1}], "abc": [0.43458085, 0.50370329, 0.82544414], "properties": {"magmom": -0.0}, "label": "Bi", "xyz": [3.502946177196153, 4.676724960670373, 9.68129423507432]}]}, "task_ids": null, "uncorrected_energy_per_atom": null, "energy_per_atom": -46.4218231946875, "formation_energy_per_atom": -0.6835454257291641, "energy_above_hull": 0.006766912395832001, "is_stable": false, "equilibrium_reaction_energy_per_atom": null, "decomposes_to": null, "xas": null, "grain_boundaries": null, "band_gap": 0.0, "cbm": null, "vbm": null, "efermi": 5.10259497, "is_gap_direct": null, "is_metal": null, "es_source_calc_id": null, "bandstructure": null, "dos": null, "dos_energy_up": null, "dos_energy_down": null, "is_magnetic": null, "ordering": null, "total_magnetization": 0.0135486, "total_magnetization_normalized_vol": null, "total_magnetization_normalized_formula_units": null, "num_magnetic_sites": null, "num_unique_magnetic_sites": null, "types_of_magnetic_species": null, "bulk_modulus": null, "shear_modulus": null, "universal_anisotropy": null, "homogeneous_poisson": null, "e_total": null, "e_ionic": null, "e_electronic": null, "n": null, "e_ij_max": null, "weighted_surface_energy_EV_PER_ANG2": null, "weighted_surface_energy": null, "weighted_work_function": null, "surface_anisotropy": null, "shape_factor": null, "has_reconstructed": null, "possible_species": null, "has_props": null, "theoretical": null, "database_IDs": null, "fields_not_requested": ["builder_meta", "nsites", "elements", "nelements", "composition", "composition_reduced", "chemsys", "symmetry", "property_name", "deprecated", "deprecation_reasons", "last_updated", "origins", "warnings", "task_ids", "uncorrected_energy_per_atom", "equilibrium_reaction_energy_per_atom", "decomposes_to", "xas", "grain_boundaries", "cbm", "vbm", "is_gap_direct", "is_metal", "es_source_calc_id", "bandstructure", "dos", "dos_energy_up", "dos_energy_down", "is_magnetic", "ordering", "total_magnetization_normalized_vol", "total_magnetization_normalized_formula_units", "num_magnetic_sites", "num_unique_magnetic_sites", "types_of_magnetic_species", "bulk_modulus", "shear_modulus", "universal_anisotropy", "homogeneous_poisson", "e_total", "e_ionic", "e_electronic", "n", "e_ij_max", "weighted_surface_energy_EV_PER_ANG2", "weighted_surface_energy", "weighted_work_function", "surface_anisotropy", "shape_factor", "has_reconstructed", "possible_species", "has_props", "theoretical", "database_IDs"]}