{
  "builder_meta": null,
  "nsites": null,
  "elements": null,
  "nelements": null,
  "composition": null,
  "composition_reduced": null,
  "formula_pretty": "Lu5Ge3",
  "formula_anonymous": "A3B5",
  "chemsys": null,
  "volume": 364.2179901493369,
  "density": 9.964155625472948,
  "density_atomic": 22.763624384333557,
  "symmetry": null,
  "property_name": null,
  "material_id": "mp-1105989",
  "deprecated": null,
  "deprecation_reasons": null,
  "last_updated": null,
  "origins": null,
  "warnings": null,
  "structure": {
    "@module": "pymatgen.core.structure",
    "@class": "Structure",
    "charge": 0,
    "lattice": {
      "matrix": [
        [1.3e-7, -3.899999999999998e-7, -6.20392897],
        [-4.11674052, -7.13036129, 1.149999999999999e-6],
        [-4.11673425, 7.13035741, -3e-7]
      ],
      "pbc": [true, true, true],
      "a": 6.203928970000013,
      "b": 8.233444275328623,
      "c": 8.233437780141722,
      "alpha": 119.99972886527941,
      "beta": 90.00000163188177,
      "gamma": 90.00000548379619,
      "volume": 364.2179901493369
    },
    "properties": {},
    "sites": [
      {
        "species": [{ "element": "Lu", "occu": 1 }],
        "abc": [0.49999934, 0.33333121, 0.66666768],
        "properties": { "magmom": -0.0 },
        "label": "Lu",
        "xyz": [-4.116731705411755, 2.376806680562906, -3.101960207076292]
      },
      {
        "species": [{ "element": "Lu", "occu": 1 }],
        "abc": [0.49999994000000003, 0.66666179, 0.33333018000000003],
        "properties": { "magmom": -0.0 },
        "label": "Lu",
        "xyz": [-4.116705307593404, -2.376776296998451, -3.1019634461022574]
      },
      {
        "species": [{ "element": "Lu", "occu": 1 }],
        "abc": [0.99999841, 0.66666651, 0.33333189],
        "properties": { "magmom": -0.0 },
        "label": "Lu",
        "xyz": [-4.116731713224425, -2.376797954391972, -6.203918439086018]
      },
      {
        "species": [{ "element": "Lu", "occu": 1 }],
        "abc": [0.99999948, 0.33333714000000003, 0.66666791],
        "properties": { "magmom": -0.0 },
        "label": "Lu",
        "xyz": [-4.116756999531898, 2.3767658425026053, -6.203925560619598]
      },
      {
        "species": [{ "element": "Lu", "occu": 1 }],
        "abc": [0.750001199999999, 0.24109215, 1.275e-5],
        "properties": { "magmom": 0.0 },
        "label": "Lu",
        "xyz": [-0.9925662138204494, -1.718983514126364, -4.652953894962611]
      },
      {
        "species": [{ "element": "Lu", "occu": 1 }],
        "abc": [0.74999368, 0.75893052, 0.75891628],
        "properties": { "magmom": -0.0 },
        "label": "Lu",
        "xyz": [-6.248576568808081, -0.00010477343747083978, -4.652906873573696]
      },
      {
        "species": [{ "element": "Lu", "occu": 1 }],
        "abc": [0.750005599999999, -1.5350000000000004e-5, 0.24107465],
        "properties": { "magmom": 0.0 },
        "label": "Lu",
        "xyz": [-0.9923769789940526, 1.719057575534274, -4.652981541842274]
      },
      {
        "species": [{ "element": "Lu", "occu": 1 }],
        "abc": [0.249999399999999, 0.75892569, 1.6530000000000003e-5],
        "properties": { "magmom": -0.0 },
        "label": "Lu",
        "xyz": [-3.124368156809189, -5.411296594654318, -1.5509776473830272]
      },
      {
        "species": [{ "element": "Lu", "occu": 1 }],
        "abc": [0.24999879, 0.24109664, 0.24107627],
        "properties": { "magmom": 0.0 },
        "label": "Lu",
        "xyz": [
          -1.9849792121952574, -0.0001462783349328589, -1.5509745308076912
        ]
      },
      {
        "species": [{ "element": "Lu", "occu": 1 }],
        "abc": [0.25000279000000003, -1.9180000000000003e-5, 0.75890452],
        "properties": { "magmom": 0.0 },
        "label": "Lu",
        "xyz": [-3.1241292383802737, 5.411397130492947, -1.5509997791552395]
      },
      {
        "species": [{ "element": "Ge", "occu": 1 }],
        "abc": [0.7499943, 0.60629309, 5.7870000000000013e-5],
        "properties": { "magmom": -0.0 },
        "label": "Ge",
        "xyz": [-2.4961894685107953, -4.3226764380449465, -4.652910667885179]
      },
      {
        "species": [{ "element": "Ge", "occu": 1 }],
        "abc": [0.749999899999999, 0.39376692, 0.39370562000000003],
        "properties": { "magmom": -0.0 },
        "label": "Ge",
        "xyz": [
          -3.2418175477710967, -0.00043891122484351897, -4.652945772386825
        ]
      },
      {
        "species": [{ "element": "Ge", "occu": 1 }],
        "abc": [0.75000022, -6.108e-5, 0.60623816],
        "properties": { "magmom": 0.0 },
        "label": "Ge",
        "xyz": [-2.4954698489179896, 4.323129986348273, -4.652948274306063]
      },
      {
        "species": [{ "element": "Ge", "occu": 1 }],
        "abc": [0.24999568, 0.39376296, 5.5900000000000004e-5],
        "properties": { "magmom": 0.0 },
        "label": "Ge",
        "xyz": [-1.6212500256522755, -2.8072736779389142, -1.5509549887162155]
      },
      {
        "species": [{ "element": "Ge", "occu": 1 }],
        "abc": [0.25000411, 0.60629608, 0.60623847],
        "properties": { "magmom": -0.0 },
        "label": "Ge",
        "xyz": [-4.991686280269224, -0.0004132298207837337, -1.5510072252791156]
      },
      {
        "species": [{ "element": "Ge", "occu": 1 }],
        "abc": [0.25000217, -6.208e-5, 0.3937043],
        "properties": { "magmom": 0.0 },
        "label": "Ge",
        "xyz": [-1.6205203764305114, 2.8076949281819, -1.550995823208547]
      }
    ]
  },
  "task_ids": null,
  "uncorrected_energy_per_atom": null,
  "energy_per_atom": -5.353991241875001,
  "formation_energy_per_atom": -0.794301137916667,
  "energy_above_hull": 0.0,
  "is_stable": true,
  "equilibrium_reaction_energy_per_atom": null,
  "decomposes_to": null,
  "xas": null,
  "grain_boundaries": null,
  "band_gap": 0.0,
  "cbm": null,
  "vbm": null,
  "efermi": 4.27313143,
  "is_gap_direct": null,
  "is_metal": null,
  "es_source_calc_id": null,
  "bandstructure": null,
  "dos": null,
  "dos_energy_up": null,
  "dos_energy_down": null,
  "is_magnetic": null,
  "ordering": null,
  "total_magnetization": 6.799999999999997e-6,
  "total_magnetization_normalized_vol": null,
  "total_magnetization_normalized_formula_units": null,
  "num_magnetic_sites": null,
  "num_unique_magnetic_sites": null,
  "types_of_magnetic_species": null,
  "bulk_modulus": null,
  "shear_modulus": null,
  "universal_anisotropy": null,
  "homogeneous_poisson": null,
  "e_total": null,
  "e_ionic": null,
  "e_electronic": null,
  "n": null,
  "e_ij_max": null,
  "weighted_surface_energy_EV_PER_ANG2": null,
  "weighted_surface_energy": null,
  "weighted_work_function": null,
  "surface_anisotropy": null,
  "shape_factor": null,
  "has_reconstructed": null,
  "possible_species": null,
  "has_props": null,
  "theoretical": null,
  "database_IDs": null,
  "fields_not_requested": [
    "builder_meta",
    "nsites",
    "elements",
    "nelements",
    "composition",
    "composition_reduced",
    "chemsys",
    "symmetry",
    "property_name",
    "deprecated",
    "deprecation_reasons",
    "last_updated",
    "origins",
    "warnings",
    "task_ids",
    "uncorrected_energy_per_atom",
    "equilibrium_reaction_energy_per_atom",
    "decomposes_to",
    "xas",
    "grain_boundaries",
    "cbm",
    "vbm",
    "is_gap_direct",
    "is_metal",
    "es_source_calc_id",
    "bandstructure",
    "dos",
    "dos_energy_up",
    "dos_energy_down",
    "is_magnetic",
    "ordering",
    "total_magnetization_normalized_vol",
    "total_magnetization_normalized_formula_units",
    "num_magnetic_sites",
    "num_unique_magnetic_sites",
    "types_of_magnetic_species",
    "bulk_modulus",
    "shear_modulus",
    "universal_anisotropy",
    "homogeneous_poisson",
    "e_total",
    "e_ionic",
    "e_electronic",
    "n",
    "e_ij_max",
    "weighted_surface_energy_EV_PER_ANG2",
    "weighted_surface_energy",
    "weighted_work_function",
    "surface_anisotropy",
    "shape_factor",
    "has_reconstructed",
    "possible_species",
    "has_props",
    "theoretical",
    "database_IDs"
  ]
}
