{
  "builder_meta": null,
  "nsites": null,
  "elements": null,
  "nelements": null,
  "composition": null,
  "composition_reduced": null,
  "formula_pretty": "Lu5Ga3",
  "formula_anonymous": "A3B5",
  "chemsys": null,
  "volume": 378.6695819713272,
  "density": 9.507132740791228,
  "density_atomic": 23.66684887320795,
  "symmetry": null,
  "property_name": null,
  "material_id": "mp-1094132",
  "deprecated": null,
  "deprecation_reasons": null,
  "last_updated": null,
  "origins": null,
  "warnings": null,
  "structure": {
    "@module": "pymatgen.core.structure",
    "@class": "Structure",
    "charge": 0,
    "lattice": {
      "matrix": [
        [7.2145237, 4.17384382, 0.00580114],
        [-7.2145237, 4.17384382, 0.00580114],
        [0.0, 0.17007131, 6.28786042]
      ],
      "pbc": [true, true, true],
      "a": 8.33488800793623,
      "b": 8.33488800793623,
      "c": 6.290160006858943,
      "alpha": 89.18434691207015,
      "beta": 89.18434691207015,
      "gamma": 119.898310869905,
      "volume": 378.6695819713272
    },
    "properties": {},
    "sites": [
      {
        "species": [{ "element": "Lu", "occu": 1 }],
        "abc": [0.50413799, 0.74577896, 0.26319724],
        "properties": { "magmom": 0.013000000000000001 },
        "label": "Lu",
        "xyz": [-1.743324504955989, 5.261720436665934, 1.6621984512645638]
      },
      {
        "species": [{ "element": "Lu", "occu": 1 }],
        "abc": [0.49586201, 0.25422104, 0.73680276],
        "properties": { "magmom": 0.013000000000000001 },
        "label": "Lu",
        "xyz": [1.7433245049559891, 3.256038513334067, 4.637264248735437]
      },
      {
        "species": [{ "element": "Lu", "occu": 1 }],
        "abc": [0.25422104, 0.49586201, 0.73680276],
        "properties": { "magmom": 0.013000000000000001 },
        "label": "Lu",
        "xyz": [-1.7433245049559891, 3.256038513334067, 4.637264248735437]
      },
      {
        "species": [{ "element": "Lu", "occu": 1 }],
        "abc": [0.74577896, 0.50413799, 0.26319724],
        "properties": { "magmom": 0.013000000000000001 },
        "label": "Lu",
        "xyz": [1.743324504955989, 5.261720436665934, 1.6621984512645638]
      },
      {
        "species": [{ "element": "Lu", "occu": 1 }],
        "abc": [0.26796112, 0.26796112, 0.22806693],
        "properties": { "magmom": 0.027 },
        "label": "Lu",
        "xyz": [0.0, 2.275643370977335, 1.4371619822012642]
      },
      {
        "species": [{ "element": "Lu", "occu": 1 }],
        "abc": [0.7320388800000001, 0.7320388800000001, 0.77193307],
        "properties": { "magmom": 0.027 },
        "label": "Lu",
        "xyz": [0.0, 6.2421155790226655, 4.862300717798736]
      },
      {
        "species": [{ "element": "Lu", "occu": 1 }],
        "abc": [0.85147234, 0.14852766, 0.5],
        "properties": { "magmom": 0.013000000000000001 },
        "label": "Lu",
        "xyz": [5.071411053648916, 4.2588794750000005, 3.14973135]
      },
      {
        "species": [{ "element": "Lu", "occu": 1 }],
        "abc": [0.14852766, 0.85147234, 0.5],
        "properties": { "magmom": 0.013000000000000001 },
        "label": "Lu",
        "xyz": [-5.071411053648916, 4.2588794750000005, 3.14973135]
      },
      {
        "species": [{ "element": "Lu", "occu": 1 }],
        "abc": [0.81593543, 0.18406457, -0.0],
        "properties": { "magmom": 0.011 },
        "label": "Lu",
        "xyz": [4.558647294809382, 4.17384382, 0.00580114]
      },
      {
        "species": [{ "element": "Lu", "occu": 1 }],
        "abc": [0.18406457, 0.81593543, -0.0],
        "properties": { "magmom": 0.011 },
        "label": "Lu",
        "xyz": [-4.558647294809382, 4.17384382, 0.00580114]
      },
      {
        "species": [{ "element": "Ga", "occu": 1 }],
        "abc": [0.50120259, 0.09795261, 0.28625499],
        "properties": { "magmom": 0.001 },
        "label": "Ga",
        "xyz": [2.909256537734526, 2.549463989884201, 1.803407204845424]
      },
      {
        "species": [{ "element": "Ga", "occu": 1 }],
        "abc": [0.49879741, 0.90204739, 0.71374501],
        "properties": { "magmom": 0.001 },
        "label": "Ga",
        "xyz": [-2.9092565377345263, 5.968294960115799, 4.496055495154577]
      },
      {
        "species": [{ "element": "Ga", "occu": 1 }],
        "abc": [0.90204739, 0.49879741, 0.71374501],
        "properties": { "magmom": 0.001 },
        "label": "Ga",
        "xyz": [2.9092565377345263, 5.968294960115799, 4.496055495154577]
      },
      {
        "species": [{ "element": "Ga", "occu": 1 }],
        "abc": [0.09795261, 0.50120259, 0.28625499],
        "properties": { "magmom": 0.001 },
        "label": "Ga",
        "xyz": [-2.909256537734526, 2.549463989884201, 1.803407204845424]
      },
      {
        "species": [{ "element": "Ga", "occu": 1 }],
        "abc": [0.90867496, 0.90867496, 0.18978615000000001],
        "properties": { "magmom": 0.0 },
        "label": "Ga",
        "xyz": [0.0, 7.617611911519851, 1.203891522164092]
      },
      {
        "species": [{ "element": "Ga", "occu": 1 }],
        "abc": [0.09132504, 0.09132504, 0.81021385],
        "properties": { "magmom": 0.0 },
        "label": "Ga",
        "xyz": [0.0, 0.9001470384801491, 5.095571177835909]
      }
    ]
  },
  "task_ids": null,
  "uncorrected_energy_per_atom": null,
  "energy_per_atom": -28.684459084375,
  "formation_energy_per_atom": -0.5934929885416651,
  "energy_above_hull": 0.007011320364583001,
  "is_stable": false,
  "equilibrium_reaction_energy_per_atom": null,
  "decomposes_to": null,
  "xas": null,
  "grain_boundaries": null,
  "band_gap": 0.0,
  "cbm": null,
  "vbm": null,
  "efermi": 2.9013896900000002,
  "is_gap_direct": null,
  "is_metal": null,
  "es_source_calc_id": null,
  "bandstructure": null,
  "dos": null,
  "dos_energy_up": null,
  "dos_energy_down": null,
  "is_magnetic": null,
  "ordering": null,
  "total_magnetization": 0.2601755,
  "total_magnetization_normalized_vol": null,
  "total_magnetization_normalized_formula_units": null,
  "num_magnetic_sites": null,
  "num_unique_magnetic_sites": null,
  "types_of_magnetic_species": null,
  "bulk_modulus": null,
  "shear_modulus": null,
  "universal_anisotropy": null,
  "homogeneous_poisson": null,
  "e_total": null,
  "e_ionic": null,
  "e_electronic": null,
  "n": null,
  "e_ij_max": null,
  "weighted_surface_energy_EV_PER_ANG2": null,
  "weighted_surface_energy": null,
  "weighted_work_function": null,
  "surface_anisotropy": null,
  "shape_factor": null,
  "has_reconstructed": null,
  "possible_species": null,
  "has_props": null,
  "theoretical": null,
  "database_IDs": null,
  "fields_not_requested": [
    "builder_meta",
    "nsites",
    "elements",
    "nelements",
    "composition",
    "composition_reduced",
    "chemsys",
    "symmetry",
    "property_name",
    "deprecated",
    "deprecation_reasons",
    "last_updated",
    "origins",
    "warnings",
    "task_ids",
    "uncorrected_energy_per_atom",
    "equilibrium_reaction_energy_per_atom",
    "decomposes_to",
    "xas",
    "grain_boundaries",
    "cbm",
    "vbm",
    "is_gap_direct",
    "is_metal",
    "es_source_calc_id",
    "bandstructure",
    "dos",
    "dos_energy_up",
    "dos_energy_down",
    "is_magnetic",
    "ordering",
    "total_magnetization_normalized_vol",
    "total_magnetization_normalized_formula_units",
    "num_magnetic_sites",
    "num_unique_magnetic_sites",
    "types_of_magnetic_species",
    "bulk_modulus",
    "shear_modulus",
    "universal_anisotropy",
    "homogeneous_poisson",
    "e_total",
    "e_ionic",
    "e_electronic",
    "n",
    "e_ij_max",
    "weighted_surface_energy_EV_PER_ANG2",
    "weighted_surface_energy",
    "weighted_work_function",
    "surface_anisotropy",
    "shape_factor",
    "has_reconstructed",
    "possible_species",
    "has_props",
    "theoretical",
    "database_IDs"
  ]
}
