{"builder_meta": null, "nsites": null, "elements": null, "nelements": null, "composition": null, "composition_reduced": null, "formula_pretty": "Lu5Ir3", "formula_anonymous": "A3B5", "chemsys": null, "volume": 351.20139083977733, "density": 13.725738396762527, "density_atomic": 21.950086927486083, "symmetry": null, "property_name": null, "material_id": "mp-1105600", "deprecated": null, "deprecation_reasons": null, "last_updated": null, "origins": null, "warnings": null, "structure": {"@module": "pymatgen.core.structure", "@class": "Structure", "charge": 0, "lattice": {"matrix": [[0.0, 0.0, -6.082548], [-4.082082, -7.070373, 0.0], [-4.083727, 7.071322, 0.0]], "pbc": [true, true, true], "a": 6.082548, "b": 8.164163632231595, "c": 8.16580804563841, "alpha": 119.99333051558169, "beta": 90.0, "gamma": 90.0, "volume": 351.20139083977733}, "properties": {}, "sites": [{"species": [{"element": "Lu", "occu": 1}], "abc": [0.5, 0.333327999999999, 0.666685], "properties": {"magmom": -0.0}, "label": "Lu", "xyz": [-4.083231763890995, 2.357591016226007, -3.041274]}, {"species": [{"element": "Lu", "occu": 1}], "abc": [0.5, 0.666643, 0.333315], "properties": {"magmom": 0.0}, "label": "Lu", "xyz": [-4.082458855731, -2.356436975409, -3.041274]}, {"species": [{"element": "Lu", "occu": 1}], "abc": [0.0, 0.666671999999999, 0.333315], "properties": {"magmom": 0.0}, "label": "Lu", "xyz": [-4.082577236108996, -2.356642016225993, 0.0]}, {"species": [{"element": "Lu", "occu": 1}], "abc": [0.0, 0.333356999999999, 0.666685], "properties": {"magmom": -0.0}, "label": "Lu", "xyz": [-4.083350144268996, 2.357385975409007, 0.0]}, {"species": [{"element": "Lu", "occu": 1}], "abc": [0.750014, 0.258258, 0.0], "properties": {"magmom": 0.001}, "label": "Lu", "xyz": [-1.054230333156, -1.825980390234, -4.5619961556719995]}, {"species": [{"element": "Lu", "occu": 1}], "abc": [0.749997999999999, 0.741688, 0.741672999999999], "properties": {"magmom": -0.001}, "label": "Lu", "xyz": [-6.056421289686996, 0.0005977920819928428, -4.561898834903994]}, {"species": [{"element": "Lu", "occu": 1}], "abc": [0.749997999999999, 1.4e-05, 0.258327], "properties": {"magmom": 0.0}, "label": "Lu", "xyz": [-1.0549940938769997, 1.826614413072, -4.561898834903994]}, {"species": [{"element": "Lu", "occu": 1}], "abc": [0.250014, 0.741742, 0.0], "properties": {"magmom": 0.001}, "label": "Lu", "xyz": [-3.027851666844, -5.244392609766, -1.520722155672]}, {"species": [{"element": "Lu", "occu": 1}], "abc": [0.249998, 0.258312, 0.258327], "properties": {"magmom": -0.001}, "label": "Lu", "xyz": [-2.1093877103129994, 0.00035120791799991835, -1.520624834904]}, {"species": [{"element": "Lu", "occu": 1}], "abc": [0.249998, 0.999985999999999, 0.741672999999999], "properties": {"magmom": 0.0}, "label": "Lu", "xyz": [-7.110814906122991, -1.8256654130720005, -1.520624834904]}, {"species": [{"element": "Ir", "occu": 1}], "abc": [0.750004999999999, 0.609165, 0.0], "properties": {"magmom": 0.001}, "label": "Ir", "xyz": [-2.4866614815299997, -4.307023768545, -4.561941412739994]}, {"species": [{"element": "Ir", "occu": 1}], "abc": [0.749992, 0.390966, 0.390887], "properties": {"magmom": -0.001}, "label": "Ir", "xyz": [-3.1922310670609995, -0.00018760770399994797, -4.561862339616]}, {"species": [{"element": "Ir", "occu": 1}], "abc": [0.749992, 7.900000000000002e-05, 0.609113], "properties": {"magmom": 0.0}, "label": "Ir", "xyz": [-2.487773688629, 4.306675597919001, -4.561862339616]}, {"species": [{"element": "Ir", "occu": 1}], "abc": [0.250005, 0.390835, 0.0], "properties": {"magmom": 0.001}, "label": "Ir", "xyz": [-1.5954205184699999, -2.763349231455, -1.52066741274]}, {"species": [{"element": "Ir", "occu": 1}], "abc": [0.249993, 0.609034, 0.609113], "properties": {"magmom": -0.001}, "label": "Ir", "xyz": [-4.9735779329389995, 0.0011366077040007028, -1.520594422164]}, {"species": [{"element": "Ir", "occu": 1}], "abc": [0.249993, 0.999921, 0.390887], "properties": {"magmom": 0.0}, "label": "Ir", "xyz": [-5.678035311370999, -4.305726597919, -1.520594422164]}]}, "task_ids": null, "uncorrected_energy_per_atom": null, "energy_per_atom": -7.02494784, "formation_energy_per_atom": -0.8844803641666671, "energy_above_hull": 0.0, "is_stable": true, "equilibrium_reaction_energy_per_atom": null, "decomposes_to": null, "xas": null, "grain_boundaries": null, "band_gap": 0.0, "cbm": null, "vbm": null, "efermi": 4.71048771, "is_gap_direct": null, "is_metal": null, "es_source_calc_id": null, "bandstructure": null, "dos": null, "dos_energy_up": null, "dos_energy_down": null, "is_magnetic": null, "ordering": null, "total_magnetization": 0.004311, "total_magnetization_normalized_vol": null, "total_magnetization_normalized_formula_units": null, "num_magnetic_sites": null, "num_unique_magnetic_sites": null, "types_of_magnetic_species": null, "bulk_modulus": null, "shear_modulus": null, "universal_anisotropy": null, "homogeneous_poisson": null, "e_total": null, "e_ionic": null, "e_electronic": null, "n": null, "e_ij_max": null, "weighted_surface_energy_EV_PER_ANG2": null, "weighted_surface_energy": null, "weighted_work_function": null, "surface_anisotropy": null, "shape_factor": null, "has_reconstructed": null, "possible_species": null, "has_props": null, "theoretical": null, "database_IDs": null, "fields_not_requested": ["builder_meta", "nsites", "elements", "nelements", "composition", "composition_reduced", "chemsys", "symmetry", "property_name", "deprecated", "deprecation_reasons", "last_updated", "origins", "warnings", "task_ids", "uncorrected_energy_per_atom", "equilibrium_reaction_energy_per_atom", "decomposes_to", "xas", "grain_boundaries", "cbm", "vbm", "is_gap_direct", "is_metal", "es_source_calc_id", "bandstructure", "dos", "dos_energy_up", "dos_energy_down", "is_magnetic", "ordering", "total_magnetization_normalized_vol", "total_magnetization_normalized_formula_units", "num_magnetic_sites", "num_unique_magnetic_sites", "types_of_magnetic_species", "bulk_modulus", "shear_modulus", "universal_anisotropy", "homogeneous_poisson", "e_total", "e_ionic", "e_electronic", "n", "e_ij_max", "weighted_surface_energy_EV_PER_ANG2", "weighted_surface_energy", "weighted_work_function", "surface_anisotropy", "shape_factor", "has_reconstructed", "possible_species", "has_props", "theoretical", "database_IDs"]}