{"builder_meta": null, "nsites": null, "elements": null, "nelements": null, "composition": null, "composition_reduced": null, "formula_pretty": "Lu5In4", "formula_anonymous": "A4B5", "chemsys": null, "volume": 460.4126736854408, "density": 9.623265905308546, "density_atomic": 25.578481871413377, "symmetry": null, "property_name": null, "material_id": "mp-1210556", "deprecated": null, "deprecation_reasons": null, "last_updated": null, "origins": null, "warnings": null, "structure": {"@module": "pymatgen.core.structure", "@class": "Structure", "charge": 0, "lattice": {"matrix": [[0.0, 0.0, -6.50686755], [-4.51951171, -7.82803212, 0.0], [-4.51953028, 7.82804295, 0.0]], "pbc": [true, true, true], "a": 6.50686755, "b": 9.039030532561489, "c": 9.039049196618059, "alpha": 119.9999844435372, "beta": 90.0, "gamma": 90.0, "volume": 460.4126736854408}, "properties": {}, "sites": [{"species": [{"element": "Lu", "occu": 1}], "abc": [-2.799999999999998e-07, 0.6666686900000001, 0.33333471000000003], "properties": {"magmom": -0.0}, "label": "Lu", "xyz": [-4.519533266365379, -2.6093454921125283, 1.8219229139999987e-06]}, {"species": [{"element": "Lu", "occu": 1}], "abc": [2.799999999999998e-07, 0.33333131, 0.66666529], "properties": {"magmom": -0.0}, "label": "Lu", "xyz": [-4.519508723634621, 2.6093563221125287, -1.8219229139999987e-06]}, {"species": [{"element": "Lu", "occu": 1}], "abc": [0.49999972000000004, 0.33333131, 0.66666529], "properties": {"magmom": -0.0}, "label": "Lu", "xyz": [-4.519508723634621, 2.6093563221125287, -3.253431953077086]}, {"species": [{"element": "Lu", "occu": 1}], "abc": [0.50000028, 0.6666686900000001, 0.33333471000000003], "properties": {"magmom": -0.0}, "label": "Lu", "xyz": [-4.519533266365379, -2.6093454921125283, -3.253435596922914]}, {"species": [{"element": "Lu", "occu": 1}], "abc": [0.75, 0.71057657, 0.71057881], "properties": {"magmom": -0.0}, "label": "Lu", "xyz": [-6.422941577088, 2.523036046220284e-05, -4.8801506625]}, {"species": [{"element": "Lu", "occu": 1}], "abc": [0.25, 0.28942343, 0.28942119], "properties": {"magmom": -0.0}, "label": "Lu", "xyz": [-2.6161004129119982, -1.4400360460964379e-05, -1.6267168875]}, {"species": [{"element": "Lu", "occu": 1}], "abc": [0.75, 1.49e-06, 0.28942474], "properties": {"magmom": -0.0}, "label": "Lu", "xyz": [-1.308070610283575, 2.2656176317447247, -4.8801506625]}, {"species": [{"element": "Lu", "occu": 1}], "abc": [0.25, -1.49e-06, 0.71057526], "properties": {"magmom": -0.0}, "label": "Lu", "xyz": [-3.2114596697164246, 5.5624253182552765, -1.6267168875]}, {"species": [{"element": "Lu", "occu": 1}], "abc": [0.75, 0.28943075, 5.75e-06], "properties": {"magmom": -0.0}, "label": "Lu", "xyz": [-1.3081116511581925, -2.2656281962687275, -4.8801506625]}, {"species": [{"element": "Lu", "occu": 1}], "abc": [0.25, 0.71056925, 0.99999425], "properties": {"magmom": -0.0}, "label": "Lu", "xyz": [-7.730930338841807, 2.265639026268728, -1.6267168875]}, {"species": [{"element": "In", "occu": 1}], "abc": [-0.0, 0.0, 0.0], "properties": {"magmom": -0.0}, "label": "In", "xyz": [0.0, 0.0, 0.0]}, {"species": [{"element": "In", "occu": 1}], "abc": [0.5, 0.0, 0.0], "properties": {"magmom": -0.0}, "label": "In", "xyz": [0.0, 0.0, -3.253433775]}, {"species": [{"element": "In", "occu": 1}], "abc": [0.75, 0.37309554, 0.37309533], "properties": {"magmom": 0.0}, "label": "In", "xyz": [-3.372425303240366, 2.3967356792553574e-06, -4.8801506625]}, {"species": [{"element": "In", "occu": 1}], "abc": [0.25, 0.62690446, 0.62690467], "properties": {"magmom": 0.0}, "label": "In", "xyz": [-5.6666166867596335, 8.433264322427192e-06, -1.6267168875]}, {"species": [{"element": "In", "occu": 1}], "abc": [0.75, 1e-07, 0.6269043], "properties": {"magmom": 0.0}, "label": "In", "xyz": [-2.833313418463375, 4.9074330031364735, -4.8801506625]}, {"species": [{"element": "In", "occu": 1}], "abc": [0.25, -1e-07, 0.3730957], "properties": {"magmom": 0.0}, "label": "In", "xyz": [-1.6862168615366249, 2.920609946863527, -1.6267168875]}, {"species": [{"element": "In", "occu": 1}], "abc": [0.75, 0.62690375, -5e-08], "properties": {"magmom": 0.0}, "label": "In", "xyz": [-2.833298613191398, -4.907423082550597, -4.8801506625]}, {"species": [{"element": "In", "occu": 1}], "abc": [0.25, 0.37309625, 5e-08], "properties": {"magmom": 0.0}, "label": "In", "xyz": [-1.6862130968086013, -2.9206090374494025, -1.6267168875]}]}, "task_ids": null, "uncorrected_energy_per_atom": null, "energy_per_atom": -31.700266635, "formation_energy_per_atom": -0.509848586481477, "energy_above_hull": 0.0, "is_stable": true, "equilibrium_reaction_energy_per_atom": null, "decomposes_to": null, "xas": null, "grain_boundaries": null, "band_gap": 0.0, "cbm": null, "vbm": null, "efermi": 5.28662592, "is_gap_direct": null, "is_metal": null, "es_source_calc_id": null, "bandstructure": null, "dos": null, "dos_energy_up": null, "dos_energy_down": null, "is_magnetic": null, "ordering": null, "total_magnetization": 0.0001882, "total_magnetization_normalized_vol": null, "total_magnetization_normalized_formula_units": null, "num_magnetic_sites": null, "num_unique_magnetic_sites": null, "types_of_magnetic_species": null, "bulk_modulus": null, "shear_modulus": null, "universal_anisotropy": null, "homogeneous_poisson": null, "e_total": null, "e_ionic": null, "e_electronic": null, "n": null, "e_ij_max": null, "weighted_surface_energy_EV_PER_ANG2": null, "weighted_surface_energy": null, "weighted_work_function": null, "surface_anisotropy": null, "shape_factor": null, "has_reconstructed": null, "possible_species": null, "has_props": null, "theoretical": null, "database_IDs": null, "fields_not_requested": ["builder_meta", "nsites", "elements", "nelements", "composition", "composition_reduced", "chemsys", "symmetry", "property_name", "deprecated", "deprecation_reasons", "last_updated", "origins", "warnings", "task_ids", "uncorrected_energy_per_atom", "equilibrium_reaction_energy_per_atom", "decomposes_to", "xas", "grain_boundaries", "cbm", "vbm", "is_gap_direct", "is_metal", "es_source_calc_id", "bandstructure", "dos", "dos_energy_up", "dos_energy_down", "is_magnetic", "ordering", "total_magnetization_normalized_vol", "total_magnetization_normalized_formula_units", "num_magnetic_sites", "num_unique_magnetic_sites", "types_of_magnetic_species", "bulk_modulus", "shear_modulus", "universal_anisotropy", "homogeneous_poisson", "e_total", "e_ionic", "e_electronic", "n", "e_ij_max", "weighted_surface_energy_EV_PER_ANG2", "weighted_surface_energy", "weighted_work_function", "surface_anisotropy", "shape_factor", "has_reconstructed", "possible_species", "has_props", "theoretical", "database_IDs"]}