{"builder_meta": null, "nsites": null, "elements": null, "nelements": null, "composition": null, "composition_reduced": null, "formula_pretty": "Lu5Ir2", "formula_anonymous": "A2B5", "chemsys": null, "volume": 336.6087844012743, "density": 12.42430659424228, "density_atomic": 24.043484600091023, "symmetry": null, "property_name": null, "material_id": "mp-567963", "deprecated": null, "deprecation_reasons": null, "last_updated": null, "origins": null, "warnings": null, "structure": {"@module": "pymatgen.core.structure", "@class": "Structure", "charge": 0, "lattice": {"matrix": [[5.88018977, 0.00044429999999900005, -2.45066861], [-0.32750157, 6.99848944, -0.78734265], [-0.03471588, 0.00416291, 8.1934468]], "pbc": [true, true, true], "a": 6.370432368737187, "b": 7.050249652930952, "c": 8.193521403314579, "alpha": 96.37144669798053, "beta": 112.86751650595212, "gamma": 89.99125638335207, "volume": 336.6087844012743}, "properties": {}, "sites": [{"species": [{"element": "Lu", "occu": 1}], "abc": [0.570303999999999, 0.74999651, 2.909e-05], "properties": {"magmom": -0.0}, "label": "Lu", "xyz": [3.1078697021856048, 5.249096162438105, -1.9878920032641774]}, {"species": [{"element": "Lu", "occu": 1}], "abc": [0.21447844, 0.18041374000000002, 0.55804533], "properties": {"magmom": -0.0}, "label": "Lu", "xyz": [1.1827151109631466, 1.2650420394765078, 3.904651710765665]}, {"species": [{"element": "Lu", "occu": 1}], "abc": [0.96881015, 0.41888663, 0.18171549], "properties": {"magmom": -0.0}, "label": "Lu", "xyz": [5.553293090980176, 2.932760564192307, -1.2151637329172291]}, {"species": [{"element": "Lu", "occu": 1}], "abc": [0.03118985, 0.58111437, 0.81828451], "properties": {"magmom": -0.0}, "label": "Lu", "xyz": [-0.035321098481745195, 4.070343084297132, 6.17059848557458]}, {"species": [{"element": "Lu", "occu": 1}], "abc": [0.21294202, 0.91881884, 0.18163101], "properties": {"magmom": -0.0}, "label": "Lu", "xyz": [0.9449193946141178, 6.431194672700374, 0.24290843314574984]}, {"species": [{"element": "Lu", "occu": 1}], "abc": [0.7855215600000001, 0.81958626, 0.44195467], "properties": {"magmom": -0.0}, "label": "Lu", "xyz": [4.335257209036853, 5.738054610523491, 1.050783829234335]}, {"species": [{"element": "Lu", "occu": 1}], "abc": [0.34365272, 0.68059539, 0.55816866], "properties": {"magmom": 0.0}, "label": "Lu", "xyz": [1.7784698335965914, 4.765615940627578, 3.195284509551785]}, {"species": [{"element": "Lu", "occu": 1}], "abc": [0.65634728, 0.31940461000000003, 0.44183134], "properties": {"magmom": 0.0}, "label": "Lu", "xyz": [3.739502486403409, 2.2374807093724214, 1.7601510304482146]}, {"species": [{"element": "Lu", "occu": 1}], "abc": [0.78705798, 0.08118116, 0.81836899], "properties": {"magmom": -0.0}, "label": "Lu", "xyz": [4.573052925385883, 0.5719019772996246, 4.71252710685425]}, {"species": [{"element": "Lu", "occu": 1}], "abc": [0.429695999999999, 0.25000349, 0.99997091], "properties": {"magmom": -0.0}, "label": "Lu", "xyz": [2.4101026178143843, 1.7540004875618933, 6.943327543264183]}, {"species": [{"element": "Ir", "occu": 1}], "abc": [0.8290623300000001, 0.07159851, 0.2172322], "properties": {"magmom": -0.0}, "label": "Ir", "xyz": [4.844053800136368, 0.5023540866456546, -0.308249114516953]}, {"species": [{"element": "Ir", "occu": 1}], "abc": [0.61167306, 0.42841009, 0.782726399999999], "properties": {"magmom": 0.0}, "label": "Ir", "xyz": [3.429275657142523, 3.001753676752831, 4.5769136140835265]}, {"species": [{"element": "Ir", "occu": 1}], "abc": [0.38832694, 0.57158991, 0.217273599999999], "properties": {"magmom": 0.0}, "label": "Ir", "xyz": [2.0886966628574775, 4.001342973247168, 0.37852192591645695]}, {"species": [{"element": "Ir", "occu": 1}], "abc": [0.17093767, 0.92840149, 0.7827678], "properties": {"magmom": -0.0}, "label": "Ir", "xyz": [0.6739185198636328, 6.500742563354344, 5.263684654516952]}]}, "task_ids": null, "uncorrected_energy_per_atom": null, "energy_per_atom": -6.498384134285715, "formation_energy_per_atom": -0.7433404733333341, "energy_above_hull": 0.0, "is_stable": true, "equilibrium_reaction_energy_per_atom": null, "decomposes_to": null, "xas": null, "grain_boundaries": null, "band_gap": 0.0, "cbm": null, "vbm": null, "efermi": 4.02228178, "is_gap_direct": null, "is_metal": null, "es_source_calc_id": null, "bandstructure": null, "dos": null, "dos_energy_up": null, "dos_energy_down": null, "is_magnetic": null, "ordering": null, "total_magnetization": 0.0, "total_magnetization_normalized_vol": null, "total_magnetization_normalized_formula_units": null, "num_magnetic_sites": null, "num_unique_magnetic_sites": null, "types_of_magnetic_species": null, "bulk_modulus": null, "shear_modulus": null, "universal_anisotropy": null, "homogeneous_poisson": null, "e_total": null, "e_ionic": null, "e_electronic": null, "n": null, "e_ij_max": null, "weighted_surface_energy_EV_PER_ANG2": null, "weighted_surface_energy": null, "weighted_work_function": null, "surface_anisotropy": null, "shape_factor": null, "has_reconstructed": null, "possible_species": null, "has_props": null, "theoretical": null, "database_IDs": null, "fields_not_requested": ["builder_meta", "nsites", "elements", "nelements", "composition", "composition_reduced", "chemsys", "symmetry", "property_name", "deprecated", "deprecation_reasons", "last_updated", "origins", "warnings", "task_ids", "uncorrected_energy_per_atom", "equilibrium_reaction_energy_per_atom", "decomposes_to", "xas", "grain_boundaries", "cbm", "vbm", "is_gap_direct", "is_metal", "es_source_calc_id", "bandstructure", "dos", "dos_energy_up", "dos_energy_down", "is_magnetic", "ordering", "total_magnetization_normalized_vol", "total_magnetization_normalized_formula_units", "num_magnetic_sites", "num_unique_magnetic_sites", "types_of_magnetic_species", "bulk_modulus", "shear_modulus", "universal_anisotropy", "homogeneous_poisson", "e_total", "e_ionic", "e_electronic", "n", "e_ij_max", "weighted_surface_energy_EV_PER_ANG2", "weighted_surface_energy", "weighted_work_function", "surface_anisotropy", "shape_factor", "has_reconstructed", "possible_species", "has_props", "theoretical", "database_IDs"]}