{"builder_meta": null, "nsites": null, "elements": null, "nelements": null, "composition": null, "composition_reduced": null, "formula_pretty": "Lu5In3", "formula_anonymous": "A3B5", "chemsys": null, "volume": 442.2491972837162, "density": 9.156272212187899, "density_atomic": 27.640574830232264, "symmetry": null, "property_name": null, "material_id": "mp-1188644", "deprecated": null, "deprecation_reasons": null, "last_updated": null, "origins": null, "warnings": null, "structure": {"@module": "pymatgen.core.structure", "@class": "Structure", "charge": 0, "lattice": {"matrix": [[-0.000146, -0.000254, -6.50061], [-4.428235, -7.669928, -0.000399], [-4.438352, 7.67577, 0.0002]], "pbc": [true, true, true], "a": 6.500610006601842, "b": 8.856470002185407, "c": 8.866589739511127, "alpha": 119.96225823147107, "beta": 90.00258630956394, "gamma": 89.99483650679112, "volume": 442.2491972837162}, "properties": {}, "sites": [{"species": [{"element": "Lu", "occu": 1}], "abc": [0.499992, 0.333304999999999, 0.666655999999999], "properties": {"magmom": 0.0}, "label": "Lu", "xyz": [-4.434879856418991, 2.5605457751120007, -3.250252652615]}, {"species": [{"element": "Lu", "occu": 1}], "abc": [0.499992, 0.666648999999999, 0.333344], "properties": {"magmom": 0.0}, "label": "Lu", "xyz": [-4.4316494424349955, -2.5546049543599922, -3.2504523192709995]}, {"species": [{"element": "Lu", "occu": 1}], "abc": [2.2000000000000003e-05, 0.666717999999999, 0.333368999999999], "properties": {"magmom": 0.0}, "label": "Lu", "xyz": [-4.431992953829992, -2.5548152927619996, -0.0003423601019999998]}, {"species": [{"element": "Lu", "occu": 1}], "abc": [2.2000000000000003e-05, 0.333349, 0.666631], "properties": {"magmom": 0.0}, "label": "Lu", "xyz": [-4.4348907443389995, 2.56014339641, -0.00014269347099999999]}, {"species": [{"element": "Lu", "occu": 1}], "abc": [0.750029, 0.249092999999999, 0.0], "properties": {"magmom": 0.0}, "label": "Lu", "xyz": [-1.1031518450889957, -1.9107158826699924, -4.875745405797]}, {"species": [{"element": "Lu", "occu": 1}], "abc": [0.750026, 0.750846999999999, 0.750881999999999], "properties": {"magmom": 0.001}, "label": "Lu", "xyz": [-6.657715095304992, 0.004464593519999838, -4.875775927413]}, {"species": [{"element": "Lu", "occu": 1}], "abc": [0.750026, 0.999965, 0.249117999999999], "properties": {"magmom": 0.001}, "label": "Lu", "xyz": [-5.533862889106995, -5.757677588264007, -4.875975678294999]}, {"species": [{"element": "Lu", "occu": 1}], "abc": [0.250023, 0.750898, 0.0], "properties": {"magmom": -0.0}, "label": "Lu", "xyz": [-3.3251893083879995, -5.759397101186, -1.625601622332]}, {"species": [{"element": "Lu", "occu": 1}], "abc": [0.250017, 0.249151999999999, 0.249109], "properties": {"magmom": -0.001}, "label": "Lu", "xyz": [-2.2089735375699955, 0.0010619835560075064, -1.6253126002179998]}, {"species": [{"element": "Lu", "occu": 1}], "abc": [0.250017, 4.3e-05, 0.750891], "properties": {"magmom": -0.001}, "label": "Lu", "xyz": [-3.332945488219, 5.763273299848, -1.625112849327]}, {"species": [{"element": "In", "occu": 1}], "abc": [0.749946999999999, 0.607298, 0.0], "properties": {"magmom": 0.001}, "label": "In", "xyz": [-2.689367751292, -4.658122421082, -4.875355279571994]}, {"species": [{"element": "In", "occu": 1}], "abc": [0.749968, 0.392603, 0.39266], "properties": {"magmom": 0.001}, "label": "In", "xyz": [-3.481411137353, 0.002540613744000275, -4.875327597077]}, {"species": [{"element": "In", "occu": 1}], "abc": [0.749968, 0.999942999999999, 0.6073400000000001], "properties": {"magmom": 0.001}, "label": "In", "xyz": [-7.123680789612996, -3.007879154175991, -4.875526989737001]}, {"species": [{"element": "In", "occu": 1}], "abc": [0.249971, 0.392682, 0.0], "properties": {"magmom": -0.002}, "label": "In", "xyz": [-1.7389246720359999, -3.01190615953, -1.625120662428]}, {"species": [{"element": "In", "occu": 1}], "abc": [0.249991, 0.607372999999999, 0.607287999999999], "properties": {"magmom": -0.002}, "label": "In", "xyz": [-5.384984784716991, 0.002832334902000966, -1.625214878737]}, {"species": [{"element": "In", "occu": 1}], "abc": [0.249991, 8.5e-05, 0.392712], "properties": {"magmom": -0.002}, "label": "In", "xyz": [-1.743406989285, 3.013651546646, -1.625015486025]}]}, "task_ids": null, "uncorrected_energy_per_atom": null, "energy_per_atom": -32.72146773666667, "formation_energy_per_atom": -0.454571229583336, "energy_above_hull": 0.012234398333333, "is_stable": false, "equilibrium_reaction_energy_per_atom": null, "decomposes_to": null, "xas": null, "grain_boundaries": null, "band_gap": 0.0, "cbm": null, "vbm": null, "efermi": 4.36414575, "is_gap_direct": null, "is_metal": null, "es_source_calc_id": null, "bandstructure": null, "dos": null, "dos_energy_up": null, "dos_energy_down": null, "is_magnetic": null, "ordering": null, "total_magnetization": 0.0001048, "total_magnetization_normalized_vol": null, "total_magnetization_normalized_formula_units": null, "num_magnetic_sites": null, "num_unique_magnetic_sites": null, "types_of_magnetic_species": null, "bulk_modulus": null, "shear_modulus": null, "universal_anisotropy": null, "homogeneous_poisson": null, "e_total": null, "e_ionic": null, "e_electronic": null, "n": null, "e_ij_max": null, "weighted_surface_energy_EV_PER_ANG2": null, "weighted_surface_energy": null, "weighted_work_function": null, "surface_anisotropy": null, "shape_factor": null, "has_reconstructed": null, "possible_species": null, "has_props": null, "theoretical": null, "database_IDs": null, "fields_not_requested": ["builder_meta", "nsites", "elements", "nelements", "composition", "composition_reduced", "chemsys", "symmetry", "property_name", "deprecated", "deprecation_reasons", "last_updated", "origins", "warnings", "task_ids", "uncorrected_energy_per_atom", "equilibrium_reaction_energy_per_atom", "decomposes_to", "xas", "grain_boundaries", "cbm", "vbm", "is_gap_direct", "is_metal", "es_source_calc_id", "bandstructure", "dos", "dos_energy_up", "dos_energy_down", "is_magnetic", "ordering", "total_magnetization_normalized_vol", "total_magnetization_normalized_formula_units", "num_magnetic_sites", "num_unique_magnetic_sites", "types_of_magnetic_species", "bulk_modulus", "shear_modulus", "universal_anisotropy", "homogeneous_poisson", "e_total", "e_ionic", "e_electronic", "n", "e_ij_max", "weighted_surface_energy_EV_PER_ANG2", "weighted_surface_energy", "weighted_work_function", "surface_anisotropy", "shape_factor", "has_reconstructed", "possible_species", "has_props", "theoretical", "database_IDs"]}