{
  "builder_meta": null,
  "nsites": null,
  "elements": null,
  "nelements": null,
  "composition": null,
  "composition_reduced": null,
  "formula_pretty": "Lu5Pt3",
  "formula_anonymous": "A3B5",
  "chemsys": null,
  "volume": 351.3110863837075,
  "density": 13.80276113169217,
  "density_atomic": 21.95694289898172,
  "symmetry": null,
  "property_name": null,
  "material_id": "mp-1190342",
  "deprecated": null,
  "deprecation_reasons": null,
  "last_updated": null,
  "origins": null,
  "warnings": null,
  "structure": {
    "@module": "pymatgen.core.structure",
    "@class": "Structure",
    "charge": 0,
    "lattice": {
      "matrix": [
        [4.11954024, -7.13525475, -0.0],
        [4.11954024, 7.13525475, 0.0],
        [0.0, 0.0, 5.9759042]
      ],
      "pbc": [true, true, true],
      "a": 8.23908199597363,
      "b": 8.23908199597363,
      "c": 5.9759042,
      "alpha": 90.0,
      "beta": 90.0,
      "gamma": 120.00001217320147,
      "volume": 351.3110863837075
    },
    "properties": {},
    "sites": [
      {
        "species": [{ "element": "Lu", "occu": 1 }],
        "abc": [0.666667, 0.333333, 0.5],
        "properties": { "magmom": 0.0 },
        "label": "Lu",
        "xyz": [4.11954024, -2.3784230068365004, 2.9879521]
      },
      {
        "species": [{ "element": "Lu", "occu": 1 }],
        "abc": [0.333333, 0.666667, 0.5],
        "properties": { "magmom": 0.0 },
        "label": "Lu",
        "xyz": [4.11954024, 2.3784230068365004, 2.9879521]
      },
      {
        "species": [{ "element": "Lu", "occu": 1 }],
        "abc": [0.333333, 0.666667, -0.0],
        "properties": { "magmom": 0.0 },
        "label": "Lu",
        "xyz": [4.11954024, 2.3784230068365004, 0.0]
      },
      {
        "species": [{ "element": "Lu", "occu": 1 }],
        "abc": [0.666667, 0.333333, -0.0],
        "properties": { "magmom": 0.0 },
        "label": "Lu",
        "xyz": [4.11954024, -2.3784230068365004, 0.0]
      },
      {
        "species": [{ "element": "Lu", "occu": 1 }],
        "abc": [0.75312932, 0.75312932, 0.25],
        "properties": { "magmom": -0.0 },
        "label": "Lu",
        "xyz": [6.205093079327674, 0.0, 1.49397605]
      },
      {
        "species": [{ "element": "Lu", "occu": 1 }],
        "abc": [0.24687068, 0.0, 0.25],
        "properties": { "magmom": -0.0 },
        "label": "Lu",
        "xyz": [1.0169937003361633, -1.76148519210573, 1.49397605]
      },
      {
        "species": [{ "element": "Lu", "occu": 1 }],
        "abc": [0.0, 0.24687068, 0.25],
        "properties": { "magmom": -0.0 },
        "label": "Lu",
        "xyz": [1.0169937003361633, 1.76148519210573, 1.49397605]
      },
      {
        "species": [{ "element": "Lu", "occu": 1 }],
        "abc": [0.24687068, 0.24687068, 0.75],
        "properties": { "magmom": -0.0 },
        "label": "Lu",
        "xyz": [2.0339874006723266, 0.0, 4.48192815]
      },
      {
        "species": [{ "element": "Lu", "occu": 1 }],
        "abc": [0.75312932, 1.0, 0.75],
        "properties": { "magmom": -0.0 },
        "label": "Lu",
        "xyz": [7.222086779663837, 1.76148519210573, 4.48192815]
      },
      {
        "species": [{ "element": "Lu", "occu": 1 }],
        "abc": [1.0, 0.75312932, 0.75],
        "properties": { "magmom": -0.0 },
        "label": "Lu",
        "xyz": [7.222086779663837, -1.76148519210573, 4.48192815]
      },
      {
        "species": [{ "element": "Pt", "occu": 1 }],
        "abc": [0.39523167000000003, 0.39523167000000003, 0.25],
        "properties": { "magmom": -0.0 },
        "label": "Pt",
        "xyz": [3.256345537374802, 0.0, 1.49397605]
      },
      {
        "species": [{ "element": "Pt", "occu": 1 }],
        "abc": [0.60476833, 1.0, 0.25],
        "properties": { "magmom": -0.0 },
        "label": "Pt",
        "xyz": [6.610907711312599, 2.8200786507179325, 1.49397605]
      },
      {
        "species": [{ "element": "Pt", "occu": 1 }],
        "abc": [1.0, 0.60476833, 0.25],
        "properties": { "magmom": -0.0 },
        "label": "Pt",
        "xyz": [6.610907711312599, -2.8200786507179325, 1.49397605]
      },
      {
        "species": [{ "element": "Pt", "occu": 1 }],
        "abc": [0.60476833, 0.60476833, 0.75],
        "properties": { "magmom": -0.0 },
        "label": "Pt",
        "xyz": [4.982734942625198, 0.0, 4.48192815]
      },
      {
        "species": [{ "element": "Pt", "occu": 1 }],
        "abc": [0.39523167000000003, 0.0, 0.75],
        "properties": { "magmom": -0.0 },
        "label": "Pt",
        "xyz": [1.628172768687401, -2.8200786507179325, 4.48192815]
      },
      {
        "species": [{ "element": "Pt", "occu": 1 }],
        "abc": [0.0, 0.39523167000000003, 0.75],
        "properties": { "magmom": -0.0 },
        "label": "Pt",
        "xyz": [1.628172768687401, 2.8200786507179325, 4.48192815]
      }
    ]
  },
  "task_ids": null,
  "uncorrected_energy_per_atom": null,
  "energy_per_atom": -44.290384544375,
  "formation_energy_per_atom": -1.182565592291666,
  "energy_above_hull": 0.029063895937497003,
  "is_stable": false,
  "equilibrium_reaction_energy_per_atom": null,
  "decomposes_to": null,
  "xas": null,
  "grain_boundaries": null,
  "band_gap": 0.0,
  "cbm": null,
  "vbm": null,
  "efermi": 4.64214716,
  "is_gap_direct": null,
  "is_metal": null,
  "es_source_calc_id": null,
  "bandstructure": null,
  "dos": null,
  "dos_energy_up": null,
  "dos_energy_down": null,
  "is_magnetic": null,
  "ordering": null,
  "total_magnetization": 7e-7,
  "total_magnetization_normalized_vol": null,
  "total_magnetization_normalized_formula_units": null,
  "num_magnetic_sites": null,
  "num_unique_magnetic_sites": null,
  "types_of_magnetic_species": null,
  "bulk_modulus": null,
  "shear_modulus": null,
  "universal_anisotropy": null,
  "homogeneous_poisson": null,
  "e_total": null,
  "e_ionic": null,
  "e_electronic": null,
  "n": null,
  "e_ij_max": null,
  "weighted_surface_energy_EV_PER_ANG2": null,
  "weighted_surface_energy": null,
  "weighted_work_function": null,
  "surface_anisotropy": null,
  "shape_factor": null,
  "has_reconstructed": null,
  "possible_species": null,
  "has_props": null,
  "theoretical": null,
  "database_IDs": null,
  "fields_not_requested": [
    "builder_meta",
    "nsites",
    "elements",
    "nelements",
    "composition",
    "composition_reduced",
    "chemsys",
    "symmetry",
    "property_name",
    "deprecated",
    "deprecation_reasons",
    "last_updated",
    "origins",
    "warnings",
    "task_ids",
    "uncorrected_energy_per_atom",
    "equilibrium_reaction_energy_per_atom",
    "decomposes_to",
    "xas",
    "grain_boundaries",
    "cbm",
    "vbm",
    "is_gap_direct",
    "is_metal",
    "es_source_calc_id",
    "bandstructure",
    "dos",
    "dos_energy_up",
    "dos_energy_down",
    "is_magnetic",
    "ordering",
    "total_magnetization_normalized_vol",
    "total_magnetization_normalized_formula_units",
    "num_magnetic_sites",
    "num_unique_magnetic_sites",
    "types_of_magnetic_species",
    "bulk_modulus",
    "shear_modulus",
    "universal_anisotropy",
    "homogeneous_poisson",
    "e_total",
    "e_ionic",
    "e_electronic",
    "n",
    "e_ij_max",
    "weighted_surface_energy_EV_PER_ANG2",
    "weighted_surface_energy",
    "weighted_work_function",
    "surface_anisotropy",
    "shape_factor",
    "has_reconstructed",
    "possible_species",
    "has_props",
    "theoretical",
    "database_IDs"
  ]
}
