{"builder_meta": null, "nsites": null, "elements": null, "nelements": null, "composition": null, "composition_reduced": null, "formula_pretty": "Lu5Pb3", "formula_anonymous": "A3B5", "chemsys": null, "volume": 442.73750024699217, "density": 11.225110937028436, "density_atomic": 27.67109376543701, "symmetry": null, "property_name": null, "material_id": "mp-1105871", "deprecated": null, "deprecation_reasons": null, "last_updated": null, "origins": null, "warnings": null, "structure": {"@module": "pymatgen.core.structure", "@class": "Structure", "charge": 0, "lattice": {"matrix": [[0.0, 0.0, -6.502588], [-4.434212, -7.680281, 0.0], [-4.431709, 7.678835, 0.0]], "pbc": [true, true, true], "a": 6.502588, "b": 8.868424454202957, "c": 8.865920799212342, "alpha": 120.00933947635099, "beta": 90.0, "gamma": 90.0, "volume": 442.7375002469921}, "properties": {}, "sites": [{"species": [{"element": "Lu", "occu": 1}], "abc": [0.750015, 0.236389, 0.0], "properties": {"magmom": -0.009000000000000001}, "label": "Lu", "xyz": [-1.0481989404679999, -1.8155339453089998, -4.87703853882]}, {"species": [{"element": "Lu", "occu": 1}], "abc": [0.750000999999999, 0.763645, 0.763602], "properties": {"magmom": 0.011}, "label": "Lu", "xyz": [-6.770225678557999, -0.001434420575000317, -4.876947502587994]}, {"species": [{"element": "Lu", "occu": 1}], "abc": [0.750000999999999, 4.4000000000000006e-05, 0.236398], "properties": {"magmom": 0.01}, "label": "Lu", "xyz": [-1.04784224951, 1.814923303966, -4.876947502587994]}, {"species": [{"element": "Lu", "occu": 1}], "abc": [0.250015, 0.763610999999999, 0.0], "properties": {"magmom": -0.017}, "label": "Lu", "xyz": [-3.3860130595319955, -5.864747054690993, -1.62574453882]}, {"species": [{"element": "Lu", "occu": 1}], "abc": [0.250001, 0.236354999999999, 0.236398], "properties": {"magmom": 0.003}, "label": "Lu", "xyz": [-2.0956953214419953, -1.1579424992413934e-05, -1.625653502588]}, {"species": [{"element": "Lu", "occu": 1}], "abc": [0.250001, 0.999956, 0.763602], "properties": {"magmom": 0.003}, "label": "Lu", "xyz": [-7.818078750489999, -1.8163693039659998, -1.625653502588]}, {"species": [{"element": "Lu", "occu": 1}], "abc": [0.499994999999999, 0.33331000000000005, 0.666686999999999], "properties": {"magmom": 0.0}, "label": "Lu", "xyz": [-4.432529979802996, 2.5594650095349922, -3.2512614870599936]}, {"species": [{"element": "Lu", "occu": 1}], "abc": [0.499994999999999, 0.666623, 0.333312999999999], "properties": {"magmom": 0.0}, "label": "Lu", "xyz": [-4.433093927992995, -2.560396430708007, -3.2512614870599936]}, {"species": [{"element": "Lu", "occu": 1}], "abc": [0.999995, 0.66669, 0.333312999999999], "properties": {"magmom": 0.0}, "label": "Lu", "xyz": [-4.4333910201969955, -2.5609110095350074, -6.50255548706]}, {"species": [{"element": "Lu", "occu": 1}], "abc": [0.999995, 0.333377, 0.666686999999999], "properties": {"magmom": -0.0}, "label": "Lu", "xyz": [-4.4328270720069956, 2.5589504307079927, -6.50255548706]}, {"species": [{"element": "Pb", "occu": 1}], "abc": [0.749987, 0.6050500000000001, 0.0], "properties": {"magmom": 0.001}, "label": "Pb", "xyz": [-2.6829199706, -4.646954019050001, -4.876856466356]}, {"species": [{"element": "Pb", "occu": 1}], "abc": [0.750003, 0.394939, 0.394993999999999], "properties": {"magmom": -0.001}, "label": "Pb", "xyz": [-3.5017417178139953, -0.00014874586900726072, -4.876960507764]}, {"species": [{"element": "Pb", "occu": 1}], "abc": [0.750003, 0.999946, 0.605005999999999], "properties": {"magmom": -0.001}, "label": "Pb", "xyz": [-7.115183087805995, -3.0341250168160068, -4.876960507764]}, {"species": [{"element": "Pb", "occu": 1}], "abc": [0.249987, 0.39495, 0.0], "properties": {"magmom": 0.001}, "label": "Pb", "xyz": [-1.7512920293999998, -3.03332698095, -1.625562466356]}, {"species": [{"element": "Pb", "occu": 1}], "abc": [0.250003, 0.605061, 0.605005999999999], "properties": {"magmom": -0.0}, "label": "Pb", "xyz": [-5.3641792821859955, -0.0012972541310061203, -1.625666507764]}, {"species": [{"element": "Pb", "occu": 1}], "abc": [0.250003, 5.4000000000000005e-05, 0.394993999999999], "properties": {"magmom": -0.0}, "label": "Pb", "xyz": [-1.7507379121939957, 3.0326790168159925, -1.625666507764]}]}, "task_ids": null, "uncorrected_energy_per_atom": null, "energy_per_atom": -4.682093489375, "formation_energy_per_atom": -0.46379617979166604, "energy_above_hull": 0.0, "is_stable": true, "equilibrium_reaction_energy_per_atom": null, "decomposes_to": null, "xas": null, "grain_boundaries": null, "band_gap": 0.0, "cbm": null, "vbm": null, "efermi": 5.17744326, "is_gap_direct": null, "is_metal": null, "es_source_calc_id": null, "bandstructure": null, "dos": null, "dos_energy_up": null, "dos_energy_down": null, "is_magnetic": null, "ordering": null, "total_magnetization": 0.0010488, "total_magnetization_normalized_vol": null, "total_magnetization_normalized_formula_units": null, "num_magnetic_sites": null, "num_unique_magnetic_sites": null, "types_of_magnetic_species": null, "bulk_modulus": null, "shear_modulus": null, "universal_anisotropy": null, "homogeneous_poisson": null, "e_total": null, "e_ionic": null, "e_electronic": null, "n": null, "e_ij_max": null, "weighted_surface_energy_EV_PER_ANG2": null, "weighted_surface_energy": null, "weighted_work_function": null, "surface_anisotropy": null, "shape_factor": null, "has_reconstructed": null, "possible_species": null, "has_props": null, "theoretical": null, "database_IDs": null, "fields_not_requested": ["builder_meta", "nsites", "elements", "nelements", "composition", "composition_reduced", "chemsys", "symmetry", "property_name", "deprecated", "deprecation_reasons", "last_updated", "origins", "warnings", "task_ids", "uncorrected_energy_per_atom", "equilibrium_reaction_energy_per_atom", "decomposes_to", "xas", "grain_boundaries", "cbm", "vbm", "is_gap_direct", "is_metal", "es_source_calc_id", "bandstructure", "dos", "dos_energy_up", "dos_energy_down", "is_magnetic", "ordering", "total_magnetization_normalized_vol", "total_magnetization_normalized_formula_units", "num_magnetic_sites", "num_unique_magnetic_sites", "types_of_magnetic_species", "bulk_modulus", "shear_modulus", "universal_anisotropy", "homogeneous_poisson", "e_total", "e_ionic", "e_electronic", "n", "e_ij_max", "weighted_surface_energy_EV_PER_ANG2", "weighted_surface_energy", "weighted_work_function", "surface_anisotropy", "shape_factor", "has_reconstructed", "possible_species", "has_props", "theoretical", "database_IDs"]}