{
  "builder_meta": null,
  "nsites": null,
  "elements": null,
  "nelements": null,
  "composition": null,
  "composition_reduced": null,
  "formula_pretty": "Lu5Pt4",
  "formula_anonymous": "A4B5",
  "chemsys": null,
  "volume": 768.0545388983476,
  "density": 14.313963231546767,
  "density_atomic": 21.334848302731878,
  "symmetry": null,
  "property_name": null,
  "material_id": "mp-1202267",
  "deprecated": null,
  "deprecation_reasons": null,
  "last_updated": null,
  "origins": null,
  "warnings": null,
  "structure": {
    "@module": "pymatgen.core.structure",
    "@class": "Structure",
    "charge": 0,
    "lattice": {
      "matrix": [
        [-7.32423835, 0.0, -0.0],
        [0.0, 0.0, -7.3611301000000005],
        [0.0, -14.24574275, 0.0]
      ],
      "pbc": [true, true, true],
      "a": 7.32423835,
      "b": 7.3611301000000005,
      "c": 14.24574275,
      "alpha": 90.0,
      "beta": 90.0,
      "gamma": 90.0,
      "volume": 768.0545388983476
    },
    "properties": {},
    "sites": [
      {
        "species": [{ "element": "Lu", "occu": 1 }],
        "abc": [0.35172728000000003, 0.8331761, 0.8767496100000001],
        "properties": { "magmom": -0.0 },
        "label": "Lu",
        "xyz": [-2.576134432917188, -12.489949400222828, -6.13311766831061]
      },
      {
        "species": [{ "element": "Lu", "occu": 1 }],
        "abc": [0.85172728, 0.6668239, 0.62325039],
        "properties": { "magmom": -0.0 },
        "label": "Lu",
        "xyz": [-6.238253607917188, -8.878664724777172, -4.908577481689391]
      },
      {
        "species": [{ "element": "Lu", "occu": 1 }],
        "abc": [0.64827272, 0.1668239, 0.37674961],
        "properties": { "magmom": -0.0 },
        "label": "Lu",
        "xyz": [-4.748103917082812, -5.367078025222828, -1.2280124316893901]
      },
      {
        "species": [{ "element": "Lu", "occu": 1 }],
        "abc": [0.14827272, 0.3331761, 0.12325039],
        "properties": { "magmom": -0.0 },
        "label": "Lu",
        "xyz": [-1.085984742082812, -1.7557933497771725, -2.45255261831061]
      },
      {
        "species": [{ "element": "Lu", "occu": 1 }],
        "abc": [0.64827272, 0.1668239, 0.12325039],
        "properties": { "magmom": -0.0 },
        "label": "Lu",
        "xyz": [-4.748103917082812, -1.7557933497771725, -1.2280124316893901]
      },
      {
        "species": [{ "element": "Lu", "occu": 1 }],
        "abc": [0.14827272, 0.3331761, 0.37674961],
        "properties": { "magmom": -0.0 },
        "label": "Lu",
        "xyz": [-1.085984742082812, -5.367078025222828, -2.45255261831061]
      },
      {
        "species": [{ "element": "Lu", "occu": 1 }],
        "abc": [0.35172728000000003, 0.8331761, 0.62325039],
        "properties": { "magmom": -0.0 },
        "label": "Lu",
        "xyz": [-2.576134432917188, -8.878664724777172, -6.13311766831061]
      },
      {
        "species": [{ "element": "Lu", "occu": 1 }],
        "abc": [0.85172728, 0.6668239, 0.8767496100000001],
        "properties": { "magmom": -0.0 },
        "label": "Lu",
        "xyz": [-6.238253607917188, -12.489949400222828, -4.908577481689391]
      },
      {
        "species": [{ "element": "Lu", "occu": 1 }],
        "abc": [0.50510928, 0.32007079, 0.90836381],
        "properties": { "magmom": -0.0 },
        "label": "Lu",
        "xyz": [-3.699540759516888, -12.940317160669878, -2.3560827263997792]
      },
      {
        "species": [{ "element": "Lu", "occu": 1 }],
        "abc": [0.00510928, 0.17992921, 0.59163619],
        "properties": { "magmom": -0.0 },
        "label": "Lu",
        "xyz": [-0.037421584516888, -8.428296964330123, -1.3244823236002212]
      },
      {
        "species": [{ "element": "Lu", "occu": 1 }],
        "abc": [0.49489072, 0.6799292100000001, 0.40836381],
        "properties": { "magmom": -0.0 },
        "label": "Lu",
        "xyz": [-3.624697590483112, -5.817445785669877, -5.005047373600222]
      },
      {
        "species": [{ "element": "Lu", "occu": 1 }],
        "abc": [0.99489072, 0.82007079, 0.09163619],
        "properties": { "magmom": -0.0 },
        "label": "Lu",
        "xyz": [-7.2868167654831115, -1.3054255893301225, -6.0366477763997795]
      },
      {
        "species": [{ "element": "Lu", "occu": 1 }],
        "abc": [0.49489072, 0.6799292100000001, 0.09163619],
        "properties": { "magmom": -0.0 },
        "label": "Lu",
        "xyz": [-3.624697590483112, -1.3054255893301225, -5.005047373600222]
      },
      {
        "species": [{ "element": "Lu", "occu": 1 }],
        "abc": [0.99489072, 0.82007079, 0.40836381],
        "properties": { "magmom": -0.0 },
        "label": "Lu",
        "xyz": [-7.2868167654831115, -5.817445785669877, -6.0366477763997795]
      },
      {
        "species": [{ "element": "Lu", "occu": 1 }],
        "abc": [0.50510928, 0.32007079, 0.59163619],
        "properties": { "magmom": -0.0 },
        "label": "Lu",
        "xyz": [-3.699540759516888, -8.428296964330123, -2.3560827263997792]
      },
      {
        "species": [{ "element": "Lu", "occu": 1 }],
        "abc": [0.00510928, 0.17992921, 0.90836381],
        "properties": { "magmom": -0.0 },
        "label": "Lu",
        "xyz": [-0.037421584516888, -12.940317160669878, -1.3244823236002212]
      },
      {
        "species": [{ "element": "Lu", "occu": 1 }],
        "abc": [0.18967572, 0.49066824000000003, 0.75],
        "properties": { "magmom": -0.0 },
        "label": "Lu",
        "xyz": [-1.389230182487862, -10.6843070625, -3.6118727505780246]
      },
      {
        "species": [{ "element": "Lu", "occu": 1 }],
        "abc": [0.68967572, 0.00933176, 0.75],
        "properties": { "magmom": -0.0 },
        "label": "Lu",
        "xyz": [-5.051349357487862, -10.6843070625, -0.06869229942197601]
      },
      {
        "species": [{ "element": "Lu", "occu": 1 }],
        "abc": [0.81032428, 0.50933176, 0.25],
        "properties": { "magmom": -0.0 },
        "label": "Lu",
        "xyz": [-5.935008167512138, -3.5614356875, -3.7492573494219763]
      },
      {
        "species": [{ "element": "Lu", "occu": 1 }],
        "abc": [0.31032428, 0.99066824, 0.25],
        "properties": { "magmom": -0.0 },
        "label": "Lu",
        "xyz": [-2.272888992512138, -3.5614356875, -7.292437800578024]
      },
      {
        "species": [{ "element": "Pt", "occu": 1 }],
        "abc": [0.3108665, 0.03360759, 0.04038101],
        "properties": { "magmom": -0.0 },
        "label": "Pt",
        "xyz": [-2.276860341030275, -0.5752574804451775, -0.247389842337459]
      },
      {
        "species": [{ "element": "Pt", "occu": 1 }],
        "abc": [0.810866499999999, 0.46639241000000004, 0.45961899],
        "properties": { "magmom": -0.0 },
        "label": "Pt",
        "xyz": [-5.938979516030268, -6.547613894554822, -3.4331752076625413]
      },
      {
        "species": [{ "element": "Pt", "occu": 1 }],
        "abc": [0.6891335, 0.96639241, 0.54038101],
        "properties": { "magmom": -0.0 },
        "label": "Pt",
        "xyz": [-5.047378008969725, -7.698128855445178, -7.113740257662541]
      },
      {
        "species": [{ "element": "Pt", "occu": 1 }],
        "abc": [0.189133499999999, 0.53360759, 0.9596189900000001],
        "properties": { "magmom": -0.0 },
        "label": "Pt",
        "xyz": [-1.3852588339697178, -13.670485269554824, -3.927954892337459]
      },
      {
        "species": [{ "element": "Pt", "occu": 1 }],
        "abc": [0.6891335, 0.96639241, 0.9596189900000001],
        "properties": { "magmom": -0.0 },
        "label": "Pt",
        "xyz": [-5.047378008969725, -13.670485269554824, -7.113740257662541]
      },
      {
        "species": [{ "element": "Pt", "occu": 1 }],
        "abc": [0.189133499999999, 0.53360759, 0.54038101],
        "properties": { "magmom": -0.0 },
        "label": "Pt",
        "xyz": [-1.3852588339697178, -7.698128855445178, -3.927954892337459]
      },
      {
        "species": [{ "element": "Pt", "occu": 1 }],
        "abc": [0.3108665, 0.03360759, 0.45961899],
        "properties": { "magmom": -0.0 },
        "label": "Pt",
        "xyz": [-2.276860341030275, -6.547613894554822, -0.247389842337459]
      },
      {
        "species": [{ "element": "Pt", "occu": 1 }],
        "abc": [0.810866499999999, 0.46639241000000004, 0.04038101],
        "properties": { "magmom": -0.0 },
        "label": "Pt",
        "xyz": [-5.938979516030268, -0.5752574804451775, -3.4331752076625413]
      },
      {
        "species": [{ "element": "Pt", "occu": 1 }],
        "abc": [0.55526504, 0.60935839, 0.75],
        "properties": { "magmom": -0.0 },
        "label": "Pt",
        "xyz": [-4.0668935003822835, -10.6843070625, -4.485566386316539]
      },
      {
        "species": [{ "element": "Pt", "occu": 1 }],
        "abc": [0.05526504, 0.89064161, 0.75],
        "properties": { "magmom": -0.0 },
        "label": "Pt",
        "xyz": [-0.40477432538228403, -10.6843070625, -6.5561287636834615]
      },
      {
        "species": [{ "element": "Pt", "occu": 1 }],
        "abc": [0.44473496, 0.39064161000000003, 0.25],
        "properties": { "magmom": -0.0 },
        "label": "Pt",
        "xyz": [-3.257344849617716, -3.5614356875, -2.8755637136834613]
      },
      {
        "species": [{ "element": "Pt", "occu": 1 }],
        "abc": [0.94473496, 0.10935839, 0.25],
        "properties": { "magmom": -0.0 },
        "label": "Pt",
        "xyz": [-6.919464024617716, -3.5614356875, -0.805001336316539]
      },
      {
        "species": [{ "element": "Pt", "occu": 1 }],
        "abc": [0.3312311, 0.14567025, 0.75],
        "properties": { "magmom": 0.0 },
        "label": "Pt",
        "xyz": [-2.426015525332685, -10.6843070625, -1.072297661949525]
      },
      {
        "species": [{ "element": "Pt", "occu": 1 }],
        "abc": [0.8312311, 0.35432975, 0.75],
        "properties": { "magmom": 0.0 },
        "label": "Pt",
        "xyz": [-6.088134700332685, -10.6843070625, -2.608267388050475]
      },
      {
        "species": [{ "element": "Pt", "occu": 1 }],
        "abc": [0.6687689, 0.85432975, 0.25],
        "properties": { "magmom": 0.0 },
        "label": "Pt",
        "xyz": [-4.8982228246673145, -3.5614356875, -6.288832438050475]
      },
      {
        "species": [{ "element": "Pt", "occu": 1 }],
        "abc": [0.1687689, 0.64567025, 0.25],
        "properties": { "magmom": 0.0 },
        "label": "Pt",
        "xyz": [-1.236103649667315, -3.5614356875, -4.7528627119495255]
      }
    ]
  },
  "task_ids": null,
  "uncorrected_energy_per_atom": null,
  "energy_per_atom": -45.39249794916667,
  "formation_energy_per_atom": -1.353579225092592,
  "energy_above_hull": 0.0,
  "is_stable": true,
  "equilibrium_reaction_energy_per_atom": null,
  "decomposes_to": null,
  "xas": null,
  "grain_boundaries": null,
  "band_gap": 0.0,
  "cbm": null,
  "vbm": null,
  "efermi": 4.72690442,
  "is_gap_direct": null,
  "is_metal": null,
  "es_source_calc_id": null,
  "bandstructure": null,
  "dos": null,
  "dos_energy_up": null,
  "dos_energy_down": null,
  "is_magnetic": null,
  "ordering": null,
  "total_magnetization": 4.1e-5,
  "total_magnetization_normalized_vol": null,
  "total_magnetization_normalized_formula_units": null,
  "num_magnetic_sites": null,
  "num_unique_magnetic_sites": null,
  "types_of_magnetic_species": null,
  "bulk_modulus": null,
  "shear_modulus": null,
  "universal_anisotropy": null,
  "homogeneous_poisson": null,
  "e_total": null,
  "e_ionic": null,
  "e_electronic": null,
  "n": null,
  "e_ij_max": null,
  "weighted_surface_energy_EV_PER_ANG2": null,
  "weighted_surface_energy": null,
  "weighted_work_function": null,
  "surface_anisotropy": null,
  "shape_factor": null,
  "has_reconstructed": null,
  "possible_species": null,
  "has_props": null,
  "theoretical": null,
  "database_IDs": null,
  "fields_not_requested": [
    "builder_meta",
    "nsites",
    "elements",
    "nelements",
    "composition",
    "composition_reduced",
    "chemsys",
    "symmetry",
    "property_name",
    "deprecated",
    "deprecation_reasons",
    "last_updated",
    "origins",
    "warnings",
    "task_ids",
    "uncorrected_energy_per_atom",
    "equilibrium_reaction_energy_per_atom",
    "decomposes_to",
    "xas",
    "grain_boundaries",
    "cbm",
    "vbm",
    "is_gap_direct",
    "is_metal",
    "es_source_calc_id",
    "bandstructure",
    "dos",
    "dos_energy_up",
    "dos_energy_down",
    "is_magnetic",
    "ordering",
    "total_magnetization_normalized_vol",
    "total_magnetization_normalized_formula_units",
    "num_magnetic_sites",
    "num_unique_magnetic_sites",
    "types_of_magnetic_species",
    "bulk_modulus",
    "shear_modulus",
    "universal_anisotropy",
    "homogeneous_poisson",
    "e_total",
    "e_ionic",
    "e_electronic",
    "n",
    "e_ij_max",
    "weighted_surface_energy_EV_PER_ANG2",
    "weighted_surface_energy",
    "weighted_work_function",
    "surface_anisotropy",
    "shape_factor",
    "has_reconstructed",
    "possible_species",
    "has_props",
    "theoretical",
    "database_IDs"
  ]
}
