{
  "builder_meta": null,
  "nsites": null,
  "elements": null,
  "nelements": null,
  "composition": null,
  "composition_reduced": null,
  "formula_pretty": "Lu5Rh3",
  "formula_anonymous": "A3B5",
  "chemsys": null,
  "volume": 343.4369820987663,
  "density": 11.445089524562821,
  "density_atomic": 21.464811381172893,
  "symmetry": null,
  "property_name": null,
  "material_id": "mp-865778",
  "deprecated": null,
  "deprecation_reasons": null,
  "last_updated": null,
  "origins": null,
  "warnings": null,
  "structure": {
    "@module": "pymatgen.core.structure",
    "@class": "Structure",
    "charge": 0,
    "lattice": {
      "matrix": [
        [8.07101803, -0.00037089, 3.7590000000000004e-5],
        [-4.03583068, 6.98948411, 1.46e-5],
        [2.8840000000000005e-5, 2.8840000000000005e-5, 6.08814719]
      ],
      "pbc": [true, true, true],
      "a": 8.071018038609347,
      "b": 8.070986148035749,
      "c": 6.088147190136618,
      "alpha": 89.99979702824852,
      "beta": 89.999461748509,
      "gamma": 120.00540039134583,
      "volume": 343.4369820987663
    },
    "properties": {},
    "sites": [
      {
        "species": [{ "element": "Lu", "occu": 1 }],
        "abc": [0.33328331, 0.6667162600000001, 3.299999999999998e-7],
        "properties": { "magmom": 0.0 },
        "label": "Lu",
        "xyz": [-0.0008183328452605258, 4.6598790937113, 2.42712655916e-5]
      },
      {
        "species": [{ "element": "Lu", "occu": 1 }],
        "abc": [0.66671669, 0.33328374, 0.49999933],
        "properties": { "magmom": 0.0 },
        "label": "Lu",
        "xyz": [4.036020102835454, 2.3292485462788943, 3.044099443764364]
      },
      {
        "species": [{ "element": "Lu", "occu": 1 }],
        "abc": [0.66671669, 0.33328374, -3.299999999999998e-7],
        "properties": { "magmom": 0.0 },
        "label": "Lu",
        "xyz": [4.03600568284526, 2.3292341262887, 2.7918734408400006e-5]
      },
      {
        "species": [{ "element": "Lu", "occu": 1 }],
        "abc": [0.33328331, 0.6667162600000001, 0.49999967],
        "properties": { "magmom": 0.0 },
        "label": "Lu",
        "xyz": [-0.0008039128642949257, 4.659893513692266, 3.044093848088446]
      },
      {
        "species": [{ "element": "Lu", "occu": 1 }],
        "abc": [0.25654808, 4.3780000000000004e-5, 0.25],
        "properties": { "magmom": 0.0 },
        "label": "Lu",
        "xyz": [2.070434700574712, 0.00021805849694460003, 1.5220464417815152]
      },
      {
        "species": [{ "element": "Lu", "occu": 1 }],
        "abc": [0.74345092, 0.9999562200000001, 0.750000999999999],
        "properties": { "magmom": 0.0 },
        "label": "Lu",
        "xyz": [1.9647734184360974, 6.988924001902786, 4.566159026328079]
      },
      {
        "species": [{ "element": "Lu", "occu": 1 }],
        "abc": [4.4760000000000005e-5, 0.25654771, 0.25],
        "properties": { "magmom": 0.0 },
        "label": "Lu",
        "xyz": [-1.0350146501347202, 1.7931433359008517, 1.5220405447790943]
      },
      {
        "species": [{ "element": "Lu", "occu": 1 }],
        "abc": [0.7433648700000001, 0.7433647600000001, 0.25],
        "properties": { "magmom": 0.0 },
        "label": "Lu",
        "xyz": [2.999624173799769, 5.19546768135733, 1.5220755937109594]
      },
      {
        "species": [{ "element": "Lu", "occu": 1 }],
        "abc": [0.25663513, 0.25663524, 0.750000999999999],
        "properties": { "magmom": 0.0 },
        "label": "Lu",
        "xyz": [1.0355920162290706, 1.7936743786715106, 4.566129874436225]
      },
      {
        "species": [{ "element": "Lu", "occu": 1 }],
        "abc": [0.99995624, 0.74345229, 0.750000999999999],
        "properties": { "magmom": 0.0 },
        "label": "Lu",
        "xyz": [5.07023891118159, 5.195998723757098, 4.56616492340568]
      },
      {
        "species": [{ "element": "Rh", "occu": 1 }],
        "abc": [0.60643799, 9.199999999999997e-6, 0.25],
        "properties": { "magmom": 0.0 },
        "label": "Rh",
        "xyz": [4.894542031724703, -0.00015340853229910004, 1.522059593638364]
      },
      {
        "species": [{ "element": "Rh", "occu": 1 }],
        "abc": [0.39356101, 0.9999908, 0.750000999999999],
        "properties": { "magmom": 0.0 },
        "label": "Rh",
        "xyz": [-0.8593339127138941, 6.9892954689320295, 4.56614587447123]
      },
      {
        "species": [{ "element": "Rh", "occu": 1 }],
        "abc": [1.0300000000000001e-5, 0.6064428900000001, 0.25],
        "properties": { "magmom": 0.0 },
        "label": "Rh",
        "xyz": [-2.4474104796441565, 4.238730149457311, 1.522045651953371]
      },
      {
        "species": [{ "element": "Rh", "occu": 1 }],
        "abc": [0.39360542, 0.39360277, 0.25],
        "properties": { "magmom": 0.0 },
        "label": "Rh",
        "xyz": [1.5882895166267386, 2.750941532252761, 1.5220573397281798]
      },
      {
        "species": [{ "element": "Rh", "occu": 1 }],
        "abc": [0.60639558, 0.60639723, 0.750000999999999],
        "properties": { "magmom": 0.0 },
        "label": "Rh",
        "xyz": [2.4469347444201306, 4.238200527405189, 4.566148128456595]
      },
      {
        "species": [{ "element": "Rh", "occu": 1 }],
        "abc": [0.9999897, 0.39355711, 0.750000999999999],
        "properties": { "magmom": 0.0 },
        "label": "Rh",
        "xyz": [6.482626669672995, 2.7504119105715295, 4.566159816193814]
      }
    ]
  },
  "task_ids": null,
  "uncorrected_energy_per_atom": null,
  "energy_per_atom": -33.70730477,
  "formation_energy_per_atom": -0.8562939191666671,
  "energy_above_hull": 0.0,
  "is_stable": true,
  "equilibrium_reaction_energy_per_atom": null,
  "decomposes_to": null,
  "xas": null,
  "grain_boundaries": null,
  "band_gap": 0.0,
  "cbm": null,
  "vbm": null,
  "efermi": 4.17203328,
  "is_gap_direct": null,
  "is_metal": null,
  "es_source_calc_id": null,
  "bandstructure": null,
  "dos": null,
  "dos_energy_up": null,
  "dos_energy_down": null,
  "is_magnetic": null,
  "ordering": null,
  "total_magnetization": 0.0011445,
  "total_magnetization_normalized_vol": null,
  "total_magnetization_normalized_formula_units": null,
  "num_magnetic_sites": null,
  "num_unique_magnetic_sites": null,
  "types_of_magnetic_species": null,
  "bulk_modulus": null,
  "shear_modulus": null,
  "universal_anisotropy": null,
  "homogeneous_poisson": null,
  "e_total": null,
  "e_ionic": null,
  "e_electronic": null,
  "n": null,
  "e_ij_max": null,
  "weighted_surface_energy_EV_PER_ANG2": null,
  "weighted_surface_energy": null,
  "weighted_work_function": null,
  "surface_anisotropy": null,
  "shape_factor": null,
  "has_reconstructed": null,
  "possible_species": null,
  "has_props": null,
  "theoretical": null,
  "database_IDs": null,
  "fields_not_requested": [
    "builder_meta",
    "nsites",
    "elements",
    "nelements",
    "composition",
    "composition_reduced",
    "chemsys",
    "symmetry",
    "property_name",
    "deprecated",
    "deprecation_reasons",
    "last_updated",
    "origins",
    "warnings",
    "task_ids",
    "uncorrected_energy_per_atom",
    "equilibrium_reaction_energy_per_atom",
    "decomposes_to",
    "xas",
    "grain_boundaries",
    "cbm",
    "vbm",
    "is_gap_direct",
    "is_metal",
    "es_source_calc_id",
    "bandstructure",
    "dos",
    "dos_energy_up",
    "dos_energy_down",
    "is_magnetic",
    "ordering",
    "total_magnetization_normalized_vol",
    "total_magnetization_normalized_formula_units",
    "num_magnetic_sites",
    "num_unique_magnetic_sites",
    "types_of_magnetic_species",
    "bulk_modulus",
    "shear_modulus",
    "universal_anisotropy",
    "homogeneous_poisson",
    "e_total",
    "e_ionic",
    "e_electronic",
    "n",
    "e_ij_max",
    "weighted_surface_energy_EV_PER_ANG2",
    "weighted_surface_energy",
    "weighted_work_function",
    "surface_anisotropy",
    "shape_factor",
    "has_reconstructed",
    "possible_species",
    "has_props",
    "theoretical",
    "database_IDs"
  ]
}
