{"builder_meta": null, "nsites": null, "elements": null, "nelements": null, "composition": null, "composition_reduced": null, "formula_pretty": "Lu5Ru2", "formula_anonymous": "A2B5", "chemsys": null, "volume": 331.73764027898756, "density": 10.781767542251433, "density_atomic": 23.695545734213397, "symmetry": null, "property_name": null, "material_id": "mp-1210665", "deprecated": null, "deprecation_reasons": null, "last_updated": null, "origins": null, "warnings": null, "structure": {"@module": "pymatgen.core.structure", "@class": "Structure", "charge": 0, "lattice": {"matrix": [[0.0029731700000000002, 6.14443143, 0.00065123], [-0.01334889, 0.0007481300000000001, 7.15186058], [7.54943001, -3.06865635, -0.98348347]], "pbc": [true, true, true], "a": 6.144432183840278, "b": 7.151873076916331, "c": 8.208397225161997, "alpha": 96.98271215311821, "beta": 111.9261472661341, "gamma": 89.98798565830927, "volume": 331.73764027898756}, "properties": {}, "sites": [{"species": [{"element": "Lu", "occu": 1}], "abc": [0.52176291, 0.08604634, 0.81469477], "properties": {"magmom": -0.0}, "label": "Lu", "xyz": [6.150883812331609, 0.7059825177883159, -0.18550762463129544]}, {"species": [{"element": "Lu", "occu": 1}], "abc": [0.47823709000000003, 0.91395366, 0.18530523000000002], "properties": {"magmom": -0.0}, "label": "Lu", "xyz": [1.3881704776683903, 2.3705406922116845, 6.354535964631295]}, {"species": [{"element": "Lu", "occu": 1}], "abc": [0.70695104, 0.41415133, 0.18532652], "properties": {"magmom": -0.0}, "label": "Lu", "xyz": [1.3956830168129384, 3.775418626260297, 2.7801473899347267]}, {"species": [{"element": "Lu", "occu": 1}], "abc": [0.29304896, 0.58584867, 0.8146734800000001], "properties": {"magmom": -0.0}, "label": "Lu", "xyz": [6.1433712731870616, -0.698895416260298, 3.388880950065274]}, {"species": [{"element": "Lu", "occu": 1}], "abc": [0.29384841, 0.31693466, 0.43401818000000003], "properties": {"magmom": -0.0}, "label": "Lu", "xyz": [3.2732328083412146, 0.4739158703142692, 1.8400141584802625]}, {"species": [{"element": "Lu", "occu": 1}], "abc": [0.70615159, 0.68306534, 0.56598182], "properties": {"magmom": -0.0}, "label": "Lu", "xyz": [4.265821481658786, 2.6026073396857314, 4.329014181519738]}, {"species": [{"element": "Lu", "occu": 1}], "abc": [0.85943713, 0.18277405, 0.56574619], "properties": {"magmom": -0.0}, "label": "Lu", "xyz": [4.271176686832661, 3.5448086139992165, 0.7513321884036395]}, {"species": [{"element": "Lu", "occu": 1}], "abc": [0.14056287, 0.81722595, 0.43425381], "properties": {"magmom": -0.0}, "label": "Lu", "xyz": [3.267877603167341, -0.4682854039992159, 5.41769615159636]}, {"species": [{"element": "Lu", "occu": 1}], "abc": [0.08142897, 0.24990154, 0.9999002300000001], "properties": {"magmom": -0.0}, "label": "Lu", "xyz": [7.545582997370347, -2.567828508736313, 0.8039286539412281]}, {"species": [{"element": "Lu", "occu": 1}], "abc": [0.9185710300000001, 0.75009846, 9.977000000000004e-05], "properties": {"magmom": -0.0}, "label": "Lu", "xyz": [-0.006528707370346599, 5.6443517187363135, 5.365099686058771]}, {"species": [{"element": "Ru", "occu": 1}], "abc": [0.32439533, 0.57730125, 0.22169238], "properties": {"magmom": 0.0}, "label": "Ru", "xyz": [1.6669092581405072, 1.3133590281477714, 3.9109585174755224]}, {"species": [{"element": "Ru", "occu": 1}], "abc": [0.67560467, 0.42269875, 0.77830762], "properties": {"magmom": 0.0}, "label": "Ru", "xyz": [5.8721450318594925, 1.763164181852229, 2.2580698225244777]}, {"species": [{"element": "Ru", "occu": 1}], "abc": [0.10299181, 0.92258322, 0.77813471], "properties": {"magmom": 0.0}, "label": "Ru", "xyz": [5.8624642817367585, -1.7543116924159414, 5.832971009525651]}, {"species": [{"element": "Ru", "occu": 1}], "abc": [0.89700819, 0.07741678, 0.22186529], "properties": {"magmom": 0.0}, "label": "Ru", "xyz": [1.676590008263241, 4.830834902415941, 0.3360573304743498]}]}, "task_ids": null, "uncorrected_energy_per_atom": null, "energy_per_atom": -6.310929752142861, "formation_energy_per_atom": -0.431323702619051, "energy_above_hull": 0.0, "is_stable": true, "equilibrium_reaction_energy_per_atom": null, "decomposes_to": null, "xas": null, "grain_boundaries": null, "band_gap": 0.0, "cbm": null, "vbm": null, "efermi": 3.7652617, "is_gap_direct": null, "is_metal": null, "es_source_calc_id": null, "bandstructure": null, "dos": null, "dos_energy_up": null, "dos_energy_down": null, "is_magnetic": null, "ordering": null, "total_magnetization": 1.5e-06, "total_magnetization_normalized_vol": null, "total_magnetization_normalized_formula_units": null, "num_magnetic_sites": null, "num_unique_magnetic_sites": null, "types_of_magnetic_species": null, "bulk_modulus": null, "shear_modulus": null, "universal_anisotropy": null, "homogeneous_poisson": null, "e_total": null, "e_ionic": null, "e_electronic": null, "n": null, "e_ij_max": null, "weighted_surface_energy_EV_PER_ANG2": null, "weighted_surface_energy": null, "weighted_work_function": null, "surface_anisotropy": null, "shape_factor": null, "has_reconstructed": null, "possible_species": null, "has_props": null, "theoretical": null, "database_IDs": null, "fields_not_requested": ["builder_meta", "nsites", "elements", "nelements", "composition", "composition_reduced", "chemsys", "symmetry", "property_name", "deprecated", "deprecation_reasons", "last_updated", "origins", "warnings", "task_ids", "uncorrected_energy_per_atom", "equilibrium_reaction_energy_per_atom", "decomposes_to", "xas", "grain_boundaries", "cbm", "vbm", "is_gap_direct", "is_metal", "es_source_calc_id", "bandstructure", "dos", "dos_energy_up", "dos_energy_down", "is_magnetic", "ordering", "total_magnetization_normalized_vol", "total_magnetization_normalized_formula_units", "num_magnetic_sites", "num_unique_magnetic_sites", "types_of_magnetic_species", "bulk_modulus", "shear_modulus", "universal_anisotropy", "homogeneous_poisson", "e_total", "e_ionic", "e_electronic", "n", "e_ij_max", "weighted_surface_energy_EV_PER_ANG2", "weighted_surface_energy", "weighted_work_function", "surface_anisotropy", "shape_factor", "has_reconstructed", "possible_species", "has_props", "theoretical", "database_IDs"]}