{
  "builder_meta": null,
  "nsites": null,
  "elements": null,
  "nelements": null,
  "composition": null,
  "composition_reduced": null,
  "formula_pretty": "Lu5Si3",
  "formula_anonymous": "A3B5",
  "chemsys": null,
  "volume": 357.4882331408629,
  "density": 8.909993429442192,
  "density_atomic": 22.343014571303932,
  "symmetry": null,
  "property_name": null,
  "material_id": "mp-11908",
  "deprecated": null,
  "deprecation_reasons": null,
  "last_updated": null,
  "origins": null,
  "warnings": null,
  "structure": {
    "@module": "pymatgen.core.structure",
    "@class": "Structure",
    "charge": 0,
    "lattice": {
      "matrix": [
        [8.18945427, 0.0, 0.0],
        [-4.09472663, 7.09227595, 0.0],
        [-0.0, 0.0, 6.15490231]
      ],
      "pbc": [true, true, true],
      "a": 8.18945427,
      "b": 8.189454458349443,
      "c": 6.15490231,
      "alpha": 90.0,
      "beta": 90.0,
      "gamma": 119.99999515949693,
      "volume": 357.4882331408629
    },
    "properties": {},
    "sites": [
      {
        "species": [{ "element": "Lu", "occu": 1 }],
        "abc": [0.666667, 0.333333, -0.0],
        "properties": { "magmom": -0.0 },
        "label": "Lu",
        "xyz": [4.094731398060301, 2.36408961924135, 0.0]
      },
      {
        "species": [{ "element": "Lu", "occu": 1 }],
        "abc": [0.333333, 0.666667, 0.5],
        "properties": { "magmom": -0.0 },
        "label": "Lu",
        "xyz": [-3.7580603002851376e-6, 4.728186330758651, 3.077451155]
      },
      {
        "species": [{ "element": "Lu", "occu": 1 }],
        "abc": [0.333333, 0.666667, -0.0],
        "properties": { "magmom": -0.0 },
        "label": "Lu",
        "xyz": [-3.7580603002851376e-6, 4.728186330758651, 0.0]
      },
      {
        "species": [{ "element": "Lu", "occu": 1 }],
        "abc": [0.666667, 0.333333, 0.5],
        "properties": { "magmom": -0.0 },
        "label": "Lu",
        "xyz": [4.094731398060301, 2.36408961924135, 3.077451155]
      },
      {
        "species": [{ "element": "Lu", "occu": 1 }],
        "abc": [0.7582027100000001, 0.0, 0.75],
        "properties": { "magmom": 0.0 },
        "label": "Lu",
        "xyz": [6.209266420935073, 0.0, 4.6161767325]
      },
      {
        "species": [{ "element": "Lu", "occu": 1 }],
        "abc": [0.7582027100000001, 0.7582027100000001, 0.25],
        "properties": { "magmom": 0.0 },
        "label": "Lu",
        "xyz": [3.1046335933599054, 5.377382845357825, 1.5387255775]
      },
      {
        "species": [{ "element": "Lu", "occu": 1 }],
        "abc": [-0.0, 0.24179729, 0.25],
        "properties": { "magmom": 0.0 },
        "label": "Lu",
        "xyz": [-0.9900938024248328, 1.7148931046421756, 1.5387255775]
      },
      {
        "species": [{ "element": "Lu", "occu": 1 }],
        "abc": [0.0, 0.7582027100000001, 0.75],
        "properties": { "magmom": 0.0 },
        "label": "Lu",
        "xyz": [-3.1046328275751676, 5.377382845357825, 4.6161767325]
      },
      {
        "species": [{ "element": "Lu", "occu": 1 }],
        "abc": [0.24179729, 0.24179729, 0.75],
        "properties": { "magmom": 0.0 },
        "label": "Lu",
        "xyz": [0.9900940466400957, 1.7148931046421756, 4.6161767325]
      },
      {
        "species": [{ "element": "Lu", "occu": 1 }],
        "abc": [0.24179729, -0.0, 0.25],
        "properties": { "magmom": 0.0 },
        "label": "Lu",
        "xyz": [1.9801878490649285, 0.0, 1.5387255775]
      },
      {
        "species": [{ "element": "Si", "occu": 1 }],
        "abc": [0.39457536, -0.0, 0.75],
        "properties": { "magmom": 0.0 },
        "label": "Si",
        "xyz": [3.2313568667887873, 0.0, 4.6161767325]
      },
      {
        "species": [{ "element": "Si", "occu": 1 }],
        "abc": [0.39457536, 0.39457536, 0.25],
        "properties": { "magmom": 0.0 },
        "label": "Si",
        "xyz": [1.6156786326549504, 2.798437336190592, 1.5387255775]
      },
      {
        "species": [{ "element": "Si", "occu": 1 }],
        "abc": [0.0, 0.60542464, 0.25],
        "properties": { "magmom": 0.0 },
        "label": "Si",
        "xyz": [-2.479048395866163, 4.293838613809408, 1.5387255775]
      },
      {
        "species": [{ "element": "Si", "occu": 1 }],
        "abc": [-0.0, 0.39457536, 0.75],
        "properties": { "magmom": 0.0 },
        "label": "Si",
        "xyz": [-1.615678234133837, 2.798437336190592, 4.6161767325]
      },
      {
        "species": [{ "element": "Si", "occu": 1 }],
        "abc": [0.60542464, 0.60542464, 0.75],
        "properties": { "magmom": 0.0 },
        "label": "Si",
        "xyz": [2.4790490073450493, 4.293838613809408, 4.6161767325]
      },
      {
        "species": [{ "element": "Si", "occu": 1 }],
        "abc": [0.60542464, 0.0, 0.25],
        "properties": { "magmom": 0.0 },
        "label": "Si",
        "xyz": [4.958097403211212, 0.0, 1.5387255775]
      }
    ]
  },
  "task_ids": null,
  "uncorrected_energy_per_atom": null,
  "energy_per_atom": -27.8750669075,
  "formation_energy_per_atom": -0.784980069791664,
  "energy_above_hull": 0.0,
  "is_stable": true,
  "equilibrium_reaction_energy_per_atom": null,
  "decomposes_to": null,
  "xas": null,
  "grain_boundaries": null,
  "band_gap": 0.0,
  "cbm": null,
  "vbm": null,
  "efermi": 4.38861841,
  "is_gap_direct": null,
  "is_metal": null,
  "es_source_calc_id": null,
  "bandstructure": null,
  "dos": null,
  "dos_energy_up": null,
  "dos_energy_down": null,
  "is_magnetic": null,
  "ordering": null,
  "total_magnetization": 4.299999999999999e-6,
  "total_magnetization_normalized_vol": null,
  "total_magnetization_normalized_formula_units": null,
  "num_magnetic_sites": null,
  "num_unique_magnetic_sites": null,
  "types_of_magnetic_species": null,
  "bulk_modulus": null,
  "shear_modulus": null,
  "universal_anisotropy": null,
  "homogeneous_poisson": null,
  "e_total": null,
  "e_ionic": null,
  "e_electronic": null,
  "n": null,
  "e_ij_max": null,
  "weighted_surface_energy_EV_PER_ANG2": null,
  "weighted_surface_energy": null,
  "weighted_work_function": null,
  "surface_anisotropy": null,
  "shape_factor": null,
  "has_reconstructed": null,
  "possible_species": null,
  "has_props": null,
  "theoretical": null,
  "database_IDs": null,
  "fields_not_requested": [
    "builder_meta",
    "nsites",
    "elements",
    "nelements",
    "composition",
    "composition_reduced",
    "chemsys",
    "symmetry",
    "property_name",
    "deprecated",
    "deprecation_reasons",
    "last_updated",
    "origins",
    "warnings",
    "task_ids",
    "uncorrected_energy_per_atom",
    "equilibrium_reaction_energy_per_atom",
    "decomposes_to",
    "xas",
    "grain_boundaries",
    "cbm",
    "vbm",
    "is_gap_direct",
    "is_metal",
    "es_source_calc_id",
    "bandstructure",
    "dos",
    "dos_energy_up",
    "dos_energy_down",
    "is_magnetic",
    "ordering",
    "total_magnetization_normalized_vol",
    "total_magnetization_normalized_formula_units",
    "num_magnetic_sites",
    "num_unique_magnetic_sites",
    "types_of_magnetic_species",
    "bulk_modulus",
    "shear_modulus",
    "universal_anisotropy",
    "homogeneous_poisson",
    "e_total",
    "e_ionic",
    "e_electronic",
    "n",
    "e_ij_max",
    "weighted_surface_energy_EV_PER_ANG2",
    "weighted_surface_energy",
    "weighted_work_function",
    "surface_anisotropy",
    "shape_factor",
    "has_reconstructed",
    "possible_species",
    "has_props",
    "theoretical",
    "database_IDs"
  ]
}
