{"builder_meta": null, "nsites": null, "elements": null, "nelements": null, "composition": null, "composition_reduced": null, "formula_pretty": "Lu5Sn3", "formula_anonymous": "A3B5", "chemsys": null, "volume": 418.2498575177689, "density": 9.774374983644455, "density_atomic": 26.140616094860555, "symmetry": null, "property_name": null, "material_id": "mp-1106258", "deprecated": null, "deprecation_reasons": null, "last_updated": null, "origins": null, "warnings": null, "structure": {"@module": "pymatgen.core.structure", "@class": "Structure", "charge": 0, "lattice": {"matrix": [[7.309999999999999e-06, -4.8200000000000004e-06, -6.36830755], [-4.35418816, -7.54177008, 1.3e-07], [-4.35420727, 7.541781999999999, 9.44e-06]], "pbc": [true, true, true], "a": 6.368307550006019, "b": 8.708458558910836, "c": 8.708478436887464, "alpha": 120.00055510642024, "beta": 90.00013254837474, "gamma": 89.9999961832497, "volume": 418.2498575177688}, "properties": {}, "sites": [{"species": [{"element": "Lu", "occu": 1}], "abc": [0.49999942, 0.33333131, 0.66665127], "properties": {"magmom": 0.066}, "label": "Lu", "xyz": [-4.354121394752262, 2.51382803788073, -3.184143744860562]}, {"species": [{"element": "Lu", "occu": 1}], "abc": [0.50000667, 0.66666034, 0.33334613], "properties": {"magmom": 0.066}, "label": "Lu", "xyz": [-4.354219046793181, -2.513777572763116, -3.184193018158047]}, {"species": [{"element": "Lu", "occu": 1}], "abc": [-6e-06, 0.66667352, 0.3333557], "properties": {"magmom": 0.066}, "label": "Lu", "xyz": [-4.354321759849322, -2.5138023883779628, 4.14433906656e-05]}, {"species": [{"element": "Lu", "occu": 1}], "abc": [-1.739999999999999e-06, 0.333341699999999, 0.666654899999999], "properties": {"magmom": 0.066}, "label": "Lu", "xyz": [-4.354186095548106, 2.51377946556385, 1.7417411813999984e-05]}, {"species": [{"element": "Lu", "occu": 1}], "abc": [0.74999662, 0.23723747, 2.22e-06], "properties": {"magmom": 0.057}, "label": "Lu", "xyz": [-1.0329807668472024, -1.789177325328566, -4.776209106758653]}, {"species": [{"element": "Lu", "occu": 1}], "abc": [0.75000533, 0.76274698, 0.76273501], "properties": {"magmom": 0.057}, "label": "Lu", "xyz": [-6.642244712478316, -8.479821222984185e-05, -4.7762573062036395]}, {"species": [{"element": "Lu", "occu": 1}], "abc": [0.74999523, 3.759999999999998e-06, 0.23725326], "properties": {"magmom": 0.057}, "label": "Lu", "xyz": [-1.0330607588055505, 1.7892803936768102, -4.776198046001724]}, {"species": [{"element": "Lu", "occu": 1}], "abc": [0.25000381, 0.76276297, -9.1e-07], "properties": {"magmom": 0.057}, "label": "Lu", "xyz": [-3.3212077030039677, -5.7525910133179226, -1.5921010516011698]}, {"species": [{"element": "Lu", "occu": 1}], "abc": [0.24999254, 0.23724746, 0.23726469], "properties": {"magmom": 0.057}, "label": "Lu", "xyz": [-2.0661178919889025, 0.00013156792954016616, -1.5920271093048337]}, {"species": [{"element": "Lu", "occu": 1}], "abc": [0.2500042, 0.99997543, 0.76273902], "properties": {"magmom": 0.057}, "label": "Lu", "xyz": [-7.675203136062882, -1.7891745719957388, -1.5920963041385554]}, {"species": [{"element": "Sn", "occu": 1}], "abc": [0.74999, 0.60539736, 2.9420000000000003e-05], "properties": {"magmom": -0.014}, "label": "Sn", "xyz": [-2.6361366353582407, -4.565549431884349, -4.776166900445119]}, {"species": [{"element": "Sn", "occu": 1}], "abc": [0.7500076999999991, 0.39465343, 0.39462414], "properties": {"magmom": -0.014}, "label": "Sn", "xyz": [-3.4366651089585996, -0.00021980956300948762, -4.776275921911302]}, {"species": [{"element": "Sn", "occu": 1}], "abc": [0.75000658, 0.99996336, 0.605345799999999], "properties": {"magmom": -0.014}, "label": "Sn", "xyz": [-6.989824223221679, -2.9761113063603926, -4.77626672150409]}, {"species": [{"element": "Sn", "occu": 1}], "abc": [0.24999058000000002, 0.39464821, 3.336e-05], "properties": {"magmom": -0.014}, "label": "Sn", "xyz": [-1.7185159922705808, -2.9760956734106325, -1.5920168464236935]}, {"species": [{"element": "Sn", "occu": 1}], "abc": [0.25000778, 0.6053836300000001, 0.60535144], "properties": {"magmom": -0.014}, "label": "Sn", "xyz": [-5.271778047399918, -0.00023675882721185815, -1.5921206397152736]}, {"species": [{"element": "Sn", "occu": 1}], "abc": [0.25000628, 0.99997306, 0.39461455], "properties": {"magmom": -0.014}, "label": "Sn", "xyz": [-6.07230257308284, -4.565471199616214, -1.5921130253135642]}]}, "task_ids": null, "uncorrected_energy_per_atom": null, "energy_per_atom": -33.85534513, "formation_energy_per_atom": -0.7756010979166701, "energy_above_hull": 0.0, "is_stable": true, "equilibrium_reaction_energy_per_atom": null, "decomposes_to": null, "xas": null, "grain_boundaries": null, "band_gap": 0.0, "cbm": null, "vbm": null, "efermi": 5.05352746, "is_gap_direct": null, "is_metal": null, "es_source_calc_id": null, "bandstructure": null, "dos": null, "dos_energy_up": null, "dos_energy_down": null, "is_magnetic": null, "ordering": null, "total_magnetization": 0.877271199999999, "total_magnetization_normalized_vol": null, "total_magnetization_normalized_formula_units": null, "num_magnetic_sites": null, "num_unique_magnetic_sites": null, "types_of_magnetic_species": null, "bulk_modulus": null, "shear_modulus": null, "universal_anisotropy": null, "homogeneous_poisson": null, "e_total": null, "e_ionic": null, "e_electronic": null, "n": null, "e_ij_max": null, "weighted_surface_energy_EV_PER_ANG2": null, "weighted_surface_energy": null, "weighted_work_function": null, "surface_anisotropy": null, "shape_factor": null, "has_reconstructed": null, "possible_species": null, "has_props": null, "theoretical": null, "database_IDs": null, "fields_not_requested": ["builder_meta", "nsites", "elements", "nelements", "composition", "composition_reduced", "chemsys", "symmetry", "property_name", "deprecated", "deprecation_reasons", "last_updated", "origins", "warnings", "task_ids", "uncorrected_energy_per_atom", "equilibrium_reaction_energy_per_atom", "decomposes_to", "xas", "grain_boundaries", "cbm", "vbm", "is_gap_direct", "is_metal", "es_source_calc_id", "bandstructure", "dos", "dos_energy_up", "dos_energy_down", "is_magnetic", "ordering", "total_magnetization_normalized_vol", "total_magnetization_normalized_formula_units", "num_magnetic_sites", "num_unique_magnetic_sites", "types_of_magnetic_species", "bulk_modulus", "shear_modulus", "universal_anisotropy", "homogeneous_poisson", "e_total", "e_ionic", "e_electronic", "n", "e_ij_max", "weighted_surface_energy_EV_PER_ANG2", "weighted_surface_energy", "weighted_work_function", "surface_anisotropy", "shape_factor", "has_reconstructed", "possible_species", "has_props", "theoretical", "database_IDs"]}