{
  "builder_meta": null,
  "nsites": null,
  "elements": null,
  "nelements": null,
  "composition": null,
  "composition_reduced": null,
  "formula_pretty": "Lu5Sb3",
  "formula_anonymous": "A3B5",
  "chemsys": null,
  "volume": 829.0746834004365,
  "density": 9.935217879917111,
  "density_atomic": 25.90858385626364,
  "symmetry": null,
  "property_name": null,
  "material_id": "mp-543051",
  "deprecated": null,
  "deprecation_reasons": null,
  "last_updated": null,
  "origins": null,
  "warnings": null,
  "structure": {
    "@module": "pymatgen.core.structure",
    "@class": "Structure",
    "charge": 0,
    "lattice": {
      "matrix": [
        [7.9045021, 0.0, 0.0],
        [0.0, 9.07555544, 0.0],
        [0.0, 0.0, 11.55702148]
      ],
      "pbc": [true, true, true],
      "a": 7.9045021,
      "b": 9.07555544,
      "c": 11.55702148,
      "alpha": 90.0,
      "beta": 90.0,
      "gamma": 90.0,
      "volume": 829.0746834004365
    },
    "properties": {},
    "sites": [
      {
        "species": [{ "element": "Lu", "occu": 1 }],
        "abc": [0.19439193, 0.56279352, 0.43905467000000004],
        "properties": { "magmom": -0.0 },
        "label": "Lu",
        "xyz": [1.536571418908053, 5.107663792032749, 5.074164252084312]
      },
      {
        "species": [{ "element": "Lu", "occu": 1 }],
        "abc": [0.69439193, 0.9372064800000001, 0.06094533],
        "properties": { "magmom": -0.0 },
        "label": "Lu",
        "xyz": [5.488822468908053, 8.505669367967252, 0.7043464879156883]
      },
      {
        "species": [{ "element": "Lu", "occu": 1 }],
        "abc": [0.80560807, 0.06279352, 0.56094533],
        "properties": { "magmom": -0.0 },
        "label": "Lu",
        "xyz": [6.367930681091948, 0.5698860720327489, 6.482857227915688]
      },
      {
        "species": [{ "element": "Lu", "occu": 1 }],
        "abc": [0.30560807, 0.43720648, 0.93905467],
        "properties": { "magmom": -0.0 },
        "label": "Lu",
        "xyz": [2.415679631091947, 3.9678916479672517, 10.85267499208431]
      },
      {
        "species": [{ "element": "Lu", "occu": 1 }],
        "abc": [0.80560807, 0.43720648, 0.56094533],
        "properties": { "magmom": -0.0 },
        "label": "Lu",
        "xyz": [6.367930681091948, 3.9678916479672517, 6.482857227915688]
      },
      {
        "species": [{ "element": "Lu", "occu": 1 }],
        "abc": [0.30560807, 0.06279352, 0.93905467],
        "properties": { "magmom": -0.0 },
        "label": "Lu",
        "xyz": [2.415679631091947, 0.5698860720327489, 10.85267499208431]
      },
      {
        "species": [{ "element": "Lu", "occu": 1 }],
        "abc": [0.19439193, 0.9372064800000001, 0.43905467000000004],
        "properties": { "magmom": -0.0 },
        "label": "Lu",
        "xyz": [1.536571418908053, 8.505669367967252, 5.074164252084312]
      },
      {
        "species": [{ "element": "Lu", "occu": 1 }],
        "abc": [0.69439193, 0.56279352, 0.06094533],
        "properties": { "magmom": -0.0 },
        "label": "Lu",
        "xyz": [5.488822468908053, 5.107663792032749, 0.7043464879156883]
      },
      {
        "species": [{ "element": "Lu", "occu": 1 }],
        "abc": [0.02729124, 0.75, 0.98970821],
        "properties": { "magmom": -0.0 },
        "label": "Lu",
        "xyz": [0.21572366389160402, 6.80666658, 11.43807904190235]
      },
      {
        "species": [{ "element": "Lu", "occu": 1 }],
        "abc": [0.52729124, 0.75, 0.51029179],
        "properties": { "magmom": -0.0 },
        "label": "Lu",
        "xyz": [4.167974713891605, 6.80666658, 5.897453178097649]
      },
      {
        "species": [{ "element": "Lu", "occu": 1 }],
        "abc": [0.9727087600000001, 0.25, 0.01029179],
        "properties": { "magmom": -0.0 },
        "label": "Lu",
        "xyz": [7.688778436108397, 2.26888886, 0.11894243809764919]
      },
      {
        "species": [{ "element": "Lu", "occu": 1 }],
        "abc": [0.47270876, 0.25, 0.48970821000000003],
        "properties": { "magmom": -0.0 },
        "label": "Lu",
        "xyz": [3.736527386108396, 2.26888886, 5.659568301902351]
      },
      {
        "species": [{ "element": "Lu", "occu": 1 }],
        "abc": [0.18562374, 0.75, 0.7179267300000001],
        "properties": { "magmom": -0.0 },
        "label": "Lu",
        "xyz": [1.4672632426398542, 6.80666658, 8.29709463967616]
      },
      {
        "species": [{ "element": "Lu", "occu": 1 }],
        "abc": [0.68562374, 0.75, 0.78207327],
        "properties": { "magmom": -0.0 },
        "label": "Lu",
        "xyz": [5.419514292639854, 6.80666658, 9.03843758032384]
      },
      {
        "species": [{ "element": "Lu", "occu": 1 }],
        "abc": [0.81437626, 0.25, 0.28207327],
        "properties": { "magmom": -0.0 },
        "label": "Lu",
        "xyz": [6.437238857360146, 2.26888886, 3.2599268403238395]
      },
      {
        "species": [{ "element": "Lu", "occu": 1 }],
        "abc": [0.31437626, 0.25, 0.21792673],
        "properties": { "magmom": -0.0 },
        "label": "Lu",
        "xyz": [2.484987807360146, 2.26888886, 2.5185838996761603]
      },
      {
        "species": [{ "element": "Lu", "occu": 1 }],
        "abc": [0.85623799, 0.75, 0.28491552000000003],
        "properties": { "magmom": -0.0 },
        "label": "Lu",
        "xyz": [6.768134990054779, 6.80666658, 3.2927747846253697]
      },
      {
        "species": [{ "element": "Lu", "occu": 1 }],
        "abc": [0.35623799, 0.75, 0.21508448],
        "properties": { "magmom": -0.0 },
        "label": "Lu",
        "xyz": [2.8158839400547793, 6.80666658, 2.48573595537463]
      },
      {
        "species": [{ "element": "Lu", "occu": 1 }],
        "abc": [0.14376201, 0.25, 0.71508448],
        "properties": { "magmom": -0.0 },
        "label": "Lu",
        "xyz": [1.136367109945221, 2.26888886, 8.26424669537463]
      },
      {
        "species": [{ "element": "Lu", "occu": 1 }],
        "abc": [0.64376201, 0.25, 0.78491552],
        "properties": { "magmom": -0.0 },
        "label": "Lu",
        "xyz": [5.088618159945221, 2.26888886, 9.071285524625369]
      },
      {
        "species": [{ "element": "Sb", "occu": 1 }],
        "abc": [0.9339651800000001, 0.49682655000000003, 0.82678047],
        "properties": { "magmom": 0.0 },
        "label": "Sb",
        "xyz": [7.382529726636879, 4.508976898588933, 9.555119651034495]
      },
      {
        "species": [{ "element": "Sb", "occu": 1 }],
        "abc": [0.43396518, 0.00317345, 0.67321953],
        "properties": { "magmom": 0.0 },
        "label": "Sb",
        "xyz": [3.430278676636878, 0.028800821411068, 7.780412568965504]
      },
      {
        "species": [{ "element": "Sb", "occu": 1 }],
        "abc": [0.06603482000000001, 0.99682655, 0.17321953],
        "properties": { "magmom": 0.0 },
        "label": "Sb",
        "xyz": [0.5219723733631221, 9.046754618588933, 2.0019018289655044]
      },
      {
        "species": [{ "element": "Sb", "occu": 1 }],
        "abc": [0.56603482, 0.50317345, 0.32678047],
        "properties": { "magmom": 0.0 },
        "label": "Sb",
        "xyz": [4.474223423363123, 4.566578541411069, 3.7766089110344954]
      },
      {
        "species": [{ "element": "Sb", "occu": 1 }],
        "abc": [0.06603482000000001, 0.50317345, 0.17321953],
        "properties": { "magmom": 0.0 },
        "label": "Sb",
        "xyz": [0.5219723733631221, 4.566578541411069, 2.0019018289655044]
      },
      {
        "species": [{ "element": "Sb", "occu": 1 }],
        "abc": [0.56603482, 0.99682655, 0.32678047],
        "properties": { "magmom": 0.0 },
        "label": "Sb",
        "xyz": [4.474223423363123, 9.046754618588933, 3.7766089110344954]
      },
      {
        "species": [{ "element": "Sb", "occu": 1 }],
        "abc": [0.9339651800000001, 0.00317345, 0.82678047],
        "properties": { "magmom": 0.0 },
        "label": "Sb",
        "xyz": [7.382529726636879, 0.028800821411068, 9.555119651034495]
      },
      {
        "species": [{ "element": "Sb", "occu": 1 }],
        "abc": [0.43396518, 0.49682655000000003, 0.67321953],
        "properties": { "magmom": 0.0 },
        "label": "Sb",
        "xyz": [3.430278676636878, 4.508976898588933, 7.780412568965504]
      },
      {
        "species": [{ "element": "Sb", "occu": 1 }],
        "abc": [0.90962368, 0.75, 0.53998979],
        "properties": { "magmom": 0.0 },
        "label": "Sb",
        "xyz": [7.190122288769729, 6.80666658, 6.240673602010689]
      },
      {
        "species": [{ "element": "Sb", "occu": 1 }],
        "abc": [0.40962368, 0.75, 0.96001021],
        "properties": { "magmom": 0.0 },
        "label": "Sb",
        "xyz": [3.237871238769728, 6.80666658, 11.09485861798931]
      },
      {
        "species": [{ "element": "Sb", "occu": 1 }],
        "abc": [0.09037632, 0.25, 0.46001021000000003],
        "properties": { "magmom": 0.0 },
        "label": "Sb",
        "xyz": [0.7143798112302719, 2.26888886, 5.316347877989311]
      },
      {
        "species": [{ "element": "Sb", "occu": 1 }],
        "abc": [0.5903763200000001, 0.25, 0.039989790000000004],
        "properties": { "magmom": 0.0 },
        "label": "Sb",
        "xyz": [4.6666308612302725, 2.26888886, 0.46216286201068923]
      }
    ]
  },
  "task_ids": null,
  "uncorrected_energy_per_atom": null,
  "energy_per_atom": -34.3898843978125,
  "formation_energy_per_atom": -0.9500908844791661,
  "energy_above_hull": 0.0,
  "is_stable": true,
  "equilibrium_reaction_energy_per_atom": null,
  "decomposes_to": null,
  "xas": null,
  "grain_boundaries": null,
  "band_gap": 0.0,
  "cbm": null,
  "vbm": null,
  "efermi": 5.5514609,
  "is_gap_direct": null,
  "is_metal": null,
  "es_source_calc_id": null,
  "bandstructure": null,
  "dos": null,
  "dos_energy_up": null,
  "dos_energy_down": null,
  "is_magnetic": null,
  "ordering": null,
  "total_magnetization": 1.4400000000000001e-5,
  "total_magnetization_normalized_vol": null,
  "total_magnetization_normalized_formula_units": null,
  "num_magnetic_sites": null,
  "num_unique_magnetic_sites": null,
  "types_of_magnetic_species": null,
  "bulk_modulus": null,
  "shear_modulus": null,
  "universal_anisotropy": null,
  "homogeneous_poisson": null,
  "e_total": null,
  "e_ionic": null,
  "e_electronic": null,
  "n": null,
  "e_ij_max": null,
  "weighted_surface_energy_EV_PER_ANG2": null,
  "weighted_surface_energy": null,
  "weighted_work_function": null,
  "surface_anisotropy": null,
  "shape_factor": null,
  "has_reconstructed": null,
  "possible_species": null,
  "has_props": null,
  "theoretical": null,
  "database_IDs": null,
  "fields_not_requested": [
    "builder_meta",
    "nsites",
    "elements",
    "nelements",
    "composition",
    "composition_reduced",
    "chemsys",
    "symmetry",
    "property_name",
    "deprecated",
    "deprecation_reasons",
    "last_updated",
    "origins",
    "warnings",
    "task_ids",
    "uncorrected_energy_per_atom",
    "equilibrium_reaction_energy_per_atom",
    "decomposes_to",
    "xas",
    "grain_boundaries",
    "cbm",
    "vbm",
    "is_gap_direct",
    "is_metal",
    "es_source_calc_id",
    "bandstructure",
    "dos",
    "dos_energy_up",
    "dos_energy_down",
    "is_magnetic",
    "ordering",
    "total_magnetization_normalized_vol",
    "total_magnetization_normalized_formula_units",
    "num_magnetic_sites",
    "num_unique_magnetic_sites",
    "types_of_magnetic_species",
    "bulk_modulus",
    "shear_modulus",
    "universal_anisotropy",
    "homogeneous_poisson",
    "e_total",
    "e_ionic",
    "e_electronic",
    "n",
    "e_ij_max",
    "weighted_surface_energy_EV_PER_ANG2",
    "weighted_surface_energy",
    "weighted_work_function",
    "surface_anisotropy",
    "shape_factor",
    "has_reconstructed",
    "possible_species",
    "has_props",
    "theoretical",
    "database_IDs"
  ]
}
