{"builder_meta": null, "nsites": null, "elements": null, "nelements": null, "composition": null, "composition_reduced": null, "formula_pretty": "Lu5Tl3", "formula_anonymous": "A3B5", "chemsys": null, "volume": 441.6365075536764, "density": 11.189550749087864, "density_atomic": 27.602281722104774, "symmetry": null, "property_name": null, "material_id": "mp-1106322", "deprecated": null, "deprecation_reasons": null, "last_updated": null, "origins": null, "warnings": null, "structure": {"@module": "pymatgen.core.structure", "@class": "Structure", "charge": 0, "lattice": {"matrix": [[0.0, 0.0, -6.547407], [0.0, -8.812312, 0.0], [-7.654305, 4.406156, 0.0]], "pbc": [true, true, true], "a": 6.547407, "b": 8.812312, "c": 8.831907819342376, "alpha": 119.92663135247386, "beta": 90.0, "gamma": 90.0, "volume": 441.6365075536764}, "properties": {}, "sites": [{"species": [{"element": "Lu", "occu": 1}], "abc": [0.5, 0.333246999999999, 0.666495], "properties": {"magmom": -0.007}, "label": "Lu", "xyz": [-5.101556010974999, 4.406156008496254e-06, -3.2737035]}, {"species": [{"element": "Lu", "occu": 1}], "abc": [0.5, 0.666752999999999, 0.333505], "properties": {"magmom": -0.007}, "label": "Lu", "xyz": [-2.552748989025, -4.406160406155991, -3.2737035]}, {"species": [{"element": "Lu", "occu": 1}], "abc": [0.0, 0.666752999999999, 0.333505], "properties": {"magmom": -0.007}, "label": "Lu", "xyz": [-2.552748989025, -4.406160406155991, 0.0]}, {"species": [{"element": "Lu", "occu": 1}], "abc": [0.0, 0.333246999999999, 0.666495], "properties": {"magmom": -0.007}, "label": "Lu", "xyz": [-5.101556010974999, 4.406156008496254e-06, 0.0]}, {"species": [{"element": "Lu", "occu": 1}], "abc": [0.75, 0.247667, 0.0], "properties": {"magmom": 0.009000000000000001}, "label": "Lu", "xyz": [0.0, -2.182518876104, -4.91055525]}, {"species": [{"element": "Lu", "occu": 1}], "abc": [0.75, 0.752444999999999, 0.752274999999999], "properties": {"magmom": 0.01}, "label": "Lu", "xyz": [-5.758142293874992, -3.3161390979399954, -4.91055525]}, {"species": [{"element": "Lu", "occu": 1}], "abc": [0.75, 0.00017, 0.247725], "properties": {"magmom": 0.01}, "label": "Lu", "xyz": [-1.896162706125, 1.0900169020600001, -4.91055525]}, {"species": [{"element": "Lu", "occu": 1}], "abc": [0.25, 0.752332999999999, 0.0], "properties": {"magmom": 0.009000000000000001}, "label": "Lu", "xyz": [0.0, -6.6297931238959915, -1.63685175]}, {"species": [{"element": "Lu", "occu": 1}], "abc": [0.25, 0.247555, 0.247725], "properties": {"magmom": 0.01}, "label": "Lu", "xyz": [-1.896162706125, -1.0900169020600001, -1.63685175]}, {"species": [{"element": "Lu", "occu": 1}], "abc": [0.25, 0.9998300000000001, 0.752274999999999], "properties": {"magmom": 0.01}, "label": "Lu", "xyz": [-5.758142293874992, -5.496172902060006, -1.63685175]}, {"species": [{"element": "Tl", "occu": 1}], "abc": [0.75, 0.607733, 0.0], "properties": {"magmom": 0.001}, "label": "Tl", "xyz": [0.0, -5.355532808696, -4.91055525]}, {"species": [{"element": "Tl", "occu": 1}], "abc": [0.75, 0.391879, 0.392], "properties": {"magmom": 0.001}, "label": "Tl", "xyz": [-3.0004875600000003, -1.726146862248, -4.91055525]}, {"species": [{"element": "Tl", "occu": 1}], "abc": [0.75, 0.999877999999999, 0.608], "properties": {"magmom": 0.001}, "label": "Tl", "xyz": [-4.65381744, -6.132294049935991, -4.91055525]}, {"species": [{"element": "Tl", "occu": 1}], "abc": [0.25, 0.392267, 0.0], "properties": {"magmom": 0.001}, "label": "Tl", "xyz": [0.0, -3.456779191304, -1.63685175]}, {"species": [{"element": "Tl", "occu": 1}], "abc": [0.25, 0.608121, 0.608], "properties": {"magmom": 0.001}, "label": "Tl", "xyz": [-4.65381744, -2.680009137752, -1.63685175]}, {"species": [{"element": "Tl", "occu": 1}], "abc": [0.25, 0.000122, 0.392], "properties": {"magmom": 0.001}, "label": "Tl", "xyz": [-3.0004875600000003, 1.726138049936, -1.63685175]}]}, "task_ids": null, "uncorrected_energy_per_atom": null, "energy_per_atom": -3.97420811125, "formation_energy_per_atom": -0.25885140916666904, "energy_above_hull": 0.0, "is_stable": true, "equilibrium_reaction_energy_per_atom": null, "decomposes_to": null, "xas": null, "grain_boundaries": null, "band_gap": 0.0, "cbm": null, "vbm": null, "efermi": 4.47552087, "is_gap_direct": null, "is_metal": null, "es_source_calc_id": null, "bandstructure": null, "dos": null, "dos_energy_up": null, "dos_energy_down": null, "is_magnetic": null, "ordering": null, "total_magnetization": 0.0863071, "total_magnetization_normalized_vol": null, "total_magnetization_normalized_formula_units": null, "num_magnetic_sites": null, "num_unique_magnetic_sites": null, "types_of_magnetic_species": null, "bulk_modulus": null, "shear_modulus": null, "universal_anisotropy": null, "homogeneous_poisson": null, "e_total": null, "e_ionic": null, "e_electronic": null, "n": null, "e_ij_max": null, "weighted_surface_energy_EV_PER_ANG2": null, "weighted_surface_energy": null, "weighted_work_function": null, "surface_anisotropy": null, "shape_factor": null, "has_reconstructed": null, "possible_species": null, "has_props": null, "theoretical": null, "database_IDs": null, "fields_not_requested": ["builder_meta", "nsites", "elements", "nelements", "composition", "composition_reduced", "chemsys", "symmetry", "property_name", "deprecated", "deprecation_reasons", "last_updated", "origins", "warnings", "task_ids", "uncorrected_energy_per_atom", "equilibrium_reaction_energy_per_atom", "decomposes_to", "xas", "grain_boundaries", "cbm", "vbm", "is_gap_direct", "is_metal", "es_source_calc_id", "bandstructure", "dos", "dos_energy_up", "dos_energy_down", "is_magnetic", "ordering", "total_magnetization_normalized_vol", "total_magnetization_normalized_formula_units", "num_magnetic_sites", "num_unique_magnetic_sites", "types_of_magnetic_species", "bulk_modulus", "shear_modulus", "universal_anisotropy", "homogeneous_poisson", "e_total", "e_ionic", "e_electronic", "n", "e_ij_max", "weighted_surface_energy_EV_PER_ANG2", "weighted_surface_energy", "weighted_work_function", "surface_anisotropy", "shape_factor", "has_reconstructed", "possible_species", "has_props", "theoretical", "database_IDs"]}