{"builder_meta": null, "nsites": null, "elements": null, "nelements": null, "composition": null, "composition_reduced": null, "formula_pretty": "Lu7Sb3", "formula_anonymous": "A3B7", "chemsys": null, "volume": 1079.6332989651576, "density": 9.782352896447568, "density_atomic": 26.99083247412894, "symmetry": null, "property_name": null, "material_id": "mp-569251", "deprecated": null, "deprecation_reasons": null, "last_updated": null, "origins": null, "warnings": null, "structure": {"@module": "pymatgen.core.structure", "@class": "Structure", "charge": 0, "lattice": {"matrix": [[8.14447126, -0.00050462, 3.25342447], [4.07180497, 11.09474491, 1.6264085], [-0.04484532, -0.00037465, 11.92983735]], "pbc": [true, true, true], "a": 8.770244189394164, "b": 11.929717722585051, "c": 11.929921644358924, "alpha": 82.2402627222408, "beta": 68.44044035380466, "gamma": 68.43951543228985, "volume": 1079.6332989651578}, "properties": {}, "sites": [{"species": [{"element": "Lu", "occu": 1}], "abc": [0.52933069, 0.82832485, 0.5001066], "properties": {"magmom": 0.004}, "label": "Lu", "xyz": [7.661468392234361, 9.189598437573537, 9.035522392030717]}, {"species": [{"element": "Lu", "occu": 1}], "abc": [0.75000353, 0.99995416, 4.1900000000000016e-05], "properties": {"magmom": 0.107}, "label": "Lu", "xyz": [10.179998634424814, 11.093857844414183, 4.0669136427077035]}, {"species": [{"element": "Lu", "occu": 1}], "abc": [0.98251721, 0.6813661400000001, 0.3532085], "properties": {"magmom": 0.017}, "label": "Lu", "xyz": [10.76063346633288, 7.558955386212313, 8.518445170555793]}, {"species": [{"element": "Lu", "occu": 1}], "abc": [0.12413062, 0.99282054, 0.75854604], "properties": {"magmom": 0.038}, "label": "Lu", "xyz": [5.019532636267532, 11.0147438046411, 11.067912241501457]}, {"species": [{"element": "Lu", "occu": 1}], "abc": [0.14214439, 0.82829717, 0.50006138], "properties": {"magmom": 0.004}, "label": "Lu", "xyz": [4.507930019962425, 9.189486733926806, 7.775256522929711]}, {"species": [{"element": "Lu", "occu": 1}], "abc": [0.62415829, 0.75850825, 0.9928125800000001], "properties": {"magmom": 0.038}, "label": "Lu", "xyz": [8.127413918881622, 8.41476862589111, 15.108388717393346]}, {"species": [{"element": "Lu", "occu": 1}], "abc": [0.33564115, 0.64694074, 0.68150124], "properties": {"magmom": 0.017}, "label": "Lu", "xyz": [5.33727407908763, 7.177217786509955, 10.274371996104543]}, {"species": [{"element": "Lu", "occu": 1}], "abc": [0.48248152, 0.353244799999999, 0.68140428], "properties": {"magmom": 0.017}, "label": "Lu", "xyz": [5.3373430124017975, 3.918662188845832, 10.27327975878545]}, {"species": [{"element": "Lu", "occu": 1}], "abc": [0.35786731, 0.49993691, 0.17167412], "properties": {"magmom": 0.004}, "label": "Lu", "xyz": [4.9425868351658355, 5.546427582832598, 4.025440232059193]}, {"species": [{"element": "Lu", "occu": 1}], "abc": [0.38303317000000003, 0.99255801, 0.24133446], "properties": {"magmom": 0.038}, "label": "Lu", "xyz": [7.150282561737276, 11.011894227173544, 5.7395551270568355]}, {"species": [{"element": "Lu", "occu": 1}], "abc": [0.97068904, 0.49989258000000003, 0.17164713], "properties": {"magmom": 0.004}, "label": "Lu", "xyz": [9.933516509915181, 5.545626520801148, 6.018815359190045]}, {"species": [{"element": "Lu", "occu": 1}], "abc": [0.61696683, 0.00744199, 0.75866554], "properties": {"magmom": 0.038}, "label": "Lu", "xyz": [5.021148348262723, 0.08197141282645529, 11.070115192943163]}, {"species": [{"element": "Lu", "occu": 1}], "abc": [0.01748279, 0.31863386, 0.6467915], "properties": {"magmom": 0.017}, "label": "Lu", "xyz": [1.4107974436671193, 3.5349102537876873, 8.291225149444205]}, {"species": [{"element": "Lu", "occu": 1}], "abc": [0.11697727000000001, 0.75862319, 0.00743708], "properties": {"magmom": 0.038}, "label": "Lu", "xyz": [4.041350170755049, 8.416668960488453, 1.70313107192385]}, {"species": [{"element": "Lu", "occu": 1}], "abc": [0.02931096, 0.50010742, 0.82835287], "properties": {"magmom": 0.004}, "label": "Lu", "xyz": [2.237914400084818, 5.548239119198851, 10.790854960809956]}, {"species": [{"element": "Lu", "occu": 1}], "abc": [0.8356342, 0.68146487, 0.64698012], "properties": {"magmom": 0.017}, "label": "Lu", "xyz": [9.551576739804458, 7.560014828944349, 11.545380611551751]}, {"species": [{"element": "Lu", "occu": 1}], "abc": [0.85785561, 0.17170283, 0.49993862], "properties": {"magmom": 0.004}, "label": "Lu", "xyz": [7.663500890037574, 1.904378906073194, 9.03441379707029]}, {"species": [{"element": "Lu", "occu": 1}], "abc": [0.6421326900000001, 0.50006309, 0.8283258800000001], "properties": {"magmom": 0.004}, "label": "Lu", "xyz": [7.228844074834165, 5.547438057167403, 12.784230087940808]}, {"species": [{"element": "Lu", "occu": 1}], "abc": [0.87586938, 0.00717946, 0.24145396], "properties": {"magmom": 0.038}, "label": "Lu", "xyz": [7.151898273732468, 0.079121835358899, 5.7417580784985445]}, {"species": [{"element": "Lu", "occu": 1}], "abc": [0.24999647, 4.584e-05, 0.9999581], "properties": {"magmom": 0.107}, "label": "Lu", "xyz": [1.9914322755751852, 7.79558581799996e-06, 12.742756677292295]}, {"species": [{"element": "Lu", "occu": 1}], "abc": [0.51751848, 0.6467552, 0.31859572], "properties": {"magmom": 0.017}, "label": "Lu", "xyz": [6.834087897598199, 7.175203451154155, 6.536390561214548]}, {"species": [{"element": "Lu", "occu": 1}], "abc": [0.37584171, 0.24149175, 0.00718742], "properties": {"magmom": 0.038}, "label": "Lu", "xyz": [4.044016991118378, 2.6790970141088897, 1.7012816026066557]}, {"species": [{"element": "Lu", "occu": 1}], "abc": [0.47066931, 0.17167515, 0.4998934], "properties": {"magmom": 0.004}, "label": "Lu", "xyz": [4.509962517765638, 1.9042672024264642, 7.77414792796928]}, {"species": [{"element": "Lu", "occu": 1}], "abc": [0.6643588500000001, 0.35305926, 0.31849876], "properties": {"magmom": 0.017}, "label": "Lu", "xyz": [6.83415683091237, 3.9166478534900455, 6.535298323895455]}, {"species": [{"element": "Lu", "occu": 1}], "abc": [0.25000147, 0.50013223, 0.49986581], "properties": {"magmom": 0.002}, "label": "Lu", "xyz": [4.050154044937426, 5.54852608265194, 7.59009802015593]}, {"species": [{"element": "Lu", "occu": 1}], "abc": [0.88302273, 0.24137681, 0.99256292], "properties": {"magmom": 0.038}, "label": "Lu", "xyz": [8.130080739244951, 2.6771966795115465, 15.10653924807615]}, {"species": [{"element": "Lu", "occu": 1}], "abc": [0.1643658, 0.31853513, 0.35301988], "properties": {"magmom": 0.017}, "label": "Lu", "xyz": [2.6198541701955422, 3.53385081105565, 5.264289708448249]}, {"species": [{"element": "Lu", "occu": 1}], "abc": [0.74999853, 0.49986777, 0.50013419], "properties": {"magmom": 0.002}, "label": "Lu", "xyz": [8.121276865062574, 5.545339557348059, 9.21957229984407]}, {"species": [{"element": "Sb", "occu": 1}], "abc": [0.55376632, 0.19660939, 0.19664149], "properties": {"magmom": -0.005}, "label": "Sb", "xyz": [5.301870518802305, 2.1809779156660776, 4.467305071187317]}, {"species": [{"element": "Sb", "occu": 1}], "abc": [0.71997279, 0.49993824000000003, 0.06015107], "properties": {"magmom": -0.001}, "label": "Sb", "xyz": [7.896751212479576, 5.546301395286693, 3.873073377259676]}, {"species": [{"element": "Sb", "occu": 1}], "abc": [0.44623368, 0.80339061, 0.80335851], "properties": {"magmom": -0.005}, "label": "Sb", "xyz": [6.869560391197695, 8.912887724333922, 12.342365248812683]}, {"species": [{"element": "Sb", "occu": 1}], "abc": [0.28002721, 0.50006176, 0.93984893], "properties": {"magmom": -0.001}, "label": "Sb", "xyz": [4.2746796975204235, 5.547564244713307, 12.936596942740323]}, {"species": [{"element": "Sb", "occu": 1}], "abc": [0.21997233, 0.06015071, 0.49992487], "properties": {"magmom": -0.001}, "label": "Sb", "xyz": [2.0140609888361563, 0.667058484315676, 6.777515373489845]}, {"species": [{"element": "Sb", "occu": 1}], "abc": [0.75001542, 0.80324616, 0.19673612000000001], "properties": {"magmom": -0.005}, "label": "Sb", "xyz": [9.370318044911285, 8.911359065168446, 6.093554814991769]}, {"species": [{"element": "Sb", "occu": 1}], "abc": [0.7800276700000001, 0.9398492900000001, 0.50007513], "properties": {"magmom": -0.001}, "label": "Sb", "xyz": [10.157369921163843, 10.426807155684324, 10.032154946510156]}, {"species": [{"element": "Sb", "occu": 1}], "abc": [0.25000585000000003, 0.80301321, 0.19695212], "properties": {"magmom": -0.005}, "label": "Sb", "xyz": [5.297046258764446, 8.909026778246476, 4.469009417727117]}, {"species": [{"element": "Sb", "occu": 1}], "abc": [0.05375221, 0.19667715, 0.19659117], "properties": {"magmom": -0.005}, "label": "Sb", "xyz": [1.2297981324340956, 2.1819820315537553, 2.840056826392553]}, {"species": [{"element": "Sb", "occu": 1}], "abc": [0.74999415, 0.19698679, 0.80304788], "properties": {"magmom": -0.005}, "label": "Sb", "xyz": [6.874384651235554, 2.1848388617535237, 12.340660902272884]}, {"species": [{"element": "Sb", "occu": 1}], "abc": [0.94624779, 0.80332285, 0.80340883], "properties": {"magmom": -0.005}, "label": "Sb", "xyz": [10.941632777565903, 8.911883608446242, 13.969613493607447]}, {"species": [{"element": "Sb", "occu": 1}], "abc": [0.24998458, 0.19675384, 0.80326388], "properties": {"magmom": -0.005}, "label": "Sb", "xyz": [2.8011128650887143, 2.1825065748315526, 10.716115505008231]}]}, "task_ids": null, "uncorrected_energy_per_atom": null, "energy_per_atom": -35.136061651249996, "formation_energy_per_atom": -0.768250803916657, "energy_above_hull": 0.0, "is_stable": true, "equilibrium_reaction_energy_per_atom": null, "decomposes_to": null, "xas": null, "grain_boundaries": null, "band_gap": 0.0, "cbm": null, "vbm": null, "efermi": 4.77735987, "is_gap_direct": null, "is_metal": null, "es_source_calc_id": null, "bandstructure": null, "dos": null, "dos_energy_up": null, "dos_energy_down": null, "is_magnetic": null, "ordering": null, "total_magnetization": 1.0112005, "total_magnetization_normalized_vol": null, "total_magnetization_normalized_formula_units": null, "num_magnetic_sites": null, "num_unique_magnetic_sites": null, "types_of_magnetic_species": null, "bulk_modulus": null, "shear_modulus": null, "universal_anisotropy": null, "homogeneous_poisson": null, "e_total": null, "e_ionic": null, "e_electronic": null, "n": null, "e_ij_max": null, "weighted_surface_energy_EV_PER_ANG2": null, "weighted_surface_energy": null, "weighted_work_function": null, "surface_anisotropy": null, "shape_factor": null, "has_reconstructed": null, "possible_species": null, "has_props": null, "theoretical": null, "database_IDs": null, "fields_not_requested": ["builder_meta", "nsites", "elements", "nelements", "composition", "composition_reduced", "chemsys", "symmetry", "property_name", "deprecated", "deprecation_reasons", "last_updated", "origins", "warnings", "task_ids", "uncorrected_energy_per_atom", "equilibrium_reaction_energy_per_atom", "decomposes_to", "xas", "grain_boundaries", "cbm", "vbm", "is_gap_direct", "is_metal", "es_source_calc_id", "bandstructure", "dos", "dos_energy_up", "dos_energy_down", "is_magnetic", "ordering", "total_magnetization_normalized_vol", "total_magnetization_normalized_formula_units", "num_magnetic_sites", "num_unique_magnetic_sites", "types_of_magnetic_species", "bulk_modulus", "shear_modulus", "universal_anisotropy", "homogeneous_poisson", "e_total", "e_ionic", "e_electronic", "n", "e_ij_max", "weighted_surface_energy_EV_PER_ANG2", "weighted_surface_energy", "weighted_work_function", "surface_anisotropy", "shape_factor", "has_reconstructed", "possible_species", "has_props", "theoretical", "database_IDs"]}