{
  "builder_meta": null,
  "nsites": null,
  "elements": null,
  "nelements": null,
  "composition": null,
  "composition_reduced": null,
  "formula_pretty": "Lu7Te",
  "formula_anonymous": "AB7",
  "chemsys": null,
  "volume": 452.3477872309137,
  "density": 9.928915849045211,
  "density_atomic": 28.271736701932106,
  "symmetry": null,
  "property_name": null,
  "material_id": "mp-542388",
  "deprecated": null,
  "deprecation_reasons": null,
  "last_updated": null,
  "origins": null,
  "warnings": null,
  "structure": {
    "@module": "pymatgen.core.structure",
    "@class": "Structure",
    "charge": 0,
    "lattice": {
      "matrix": [
        [3.74663417, 1e-8, 0.0],
        [-1.8733165600000001, 6.11419724, 0.0],
        [0.0, 0.0, 19.74657302]
      ],
      "pbc": [true, true, true],
      "a": 3.74663417,
      "b": 6.394741810549809,
      "c": 19.74657302,
      "alpha": 90.0,
      "beta": 90.0,
      "gamma": 107.03443484428462,
      "volume": 452.3477872309137
    },
    "properties": {},
    "sites": [
      {
        "species": [{ "element": "Lu", "occu": 1 }],
        "abc": [0.01766395, 0.03532689, 0.8917367900000001],
        "properties": { "magmom": 0.0 },
        "label": "Lu",
        "xyz": [1.9105968731003564e-6, 0.2159955735124231, 17.608745638355405]
      },
      {
        "species": [{ "element": "Lu", "occu": 1 }],
        "abc": [0.98233605, 0.96467311, 0.10826321],
        "properties": { "magmom": 0.0 },
        "label": "Lu",
        "xyz": [1.8733156994031268, 5.898201676487577, 2.1378273816445943]
      },
      {
        "species": [{ "element": "Lu", "occu": 1 }],
        "abc": [0.98233605, 0.96467311, 0.39173679],
        "properties": { "magmom": 0.0 },
        "label": "Lu",
        "xyz": [1.8733156994031268, 5.898201676487577, 7.735459128355406]
      },
      {
        "species": [{ "element": "Lu", "occu": 1 }],
        "abc": [0.01766395, 0.03532689, 0.60826321],
        "properties": { "magmom": 0.0 },
        "label": "Lu",
        "xyz": [1.9105968731003564e-6, 0.2159955735124231, 12.011113891644595]
      },
      {
        "species": [{ "element": "Lu", "occu": 1 }],
        "abc": [0.24596091, 0.49191982, 0.35497855],
        "properties": { "magmom": 0.0 },
        "label": "Lu",
        "xyz": [4.004892075526456e-6, 3.007694808204906, 7.009609858108721]
      },
      {
        "species": [{ "element": "Lu", "occu": 1 }],
        "abc": [0.75403909, 0.50808018, 0.64502145],
        "properties": { "magmom": 0.0 },
        "label": "Lu",
        "xyz": [1.8733136051079247, 3.106502441795094, 12.736963161891278]
      },
      {
        "species": [{ "element": "Lu", "occu": 1 }],
        "abc": [0.75403909, 0.50808018, 0.85497855],
        "properties": { "magmom": 0.0 },
        "label": "Lu",
        "xyz": [1.8733136051079247, 3.106502441795094, 16.88289636810872]
      },
      {
        "species": [{ "element": "Lu", "occu": 1 }],
        "abc": [0.24596091, 0.49191982, 0.14502145],
        "properties": { "magmom": 0.0 },
        "label": "Lu",
        "xyz": [4.004892075526456e-6, 3.007694808204906, 2.863676651891279]
      },
      {
        "species": [{ "element": "Lu", "occu": 1 }],
        "abc": [0.35654705000000003, 0.7130941, 0.98815047],
        "properties": { "magmom": -0.0 },
        "label": "Lu",
        "xyz": [3.7437440281173906e-7, 4.359997981645755, 19.51258541060232]
      },
      {
        "species": [{ "element": "Lu", "occu": 1 }],
        "abc": [0.64345295, 0.2869059, 0.01184953],
        "properties": { "magmom": -0.0 },
        "label": "Lu",
        "xyz": [1.8733172356255978, 1.7541992683542456, 0.2339876093976806]
      },
      {
        "species": [{ "element": "Lu", "occu": 1 }],
        "abc": [0.64345295, 0.2869059, 0.48815047],
        "properties": { "magmom": -0.0 },
        "label": "Lu",
        "xyz": [1.8733172356255978, 1.7541992683542456, 9.63929890060232]
      },
      {
        "species": [{ "element": "Lu", "occu": 1 }],
        "abc": [0.35654705000000003, 0.7130941, 0.51184953],
        "properties": { "magmom": -0.0 },
        "label": "Lu",
        "xyz": [3.7437440281173906e-7, 4.359997981645755, 10.10727411939768]
      },
      {
        "species": [{ "element": "Lu", "occu": 1 }],
        "abc": [0.43796514000000003, 0.87592727, 0.75],
        "properties": { "magmom": 0.0 },
        "label": "Lu",
        "xyz": [6.098546242672143e-6, 5.355592101054387, 14.809929765]
      },
      {
        "species": [{ "element": "Lu", "occu": 1 }],
        "abc": [0.56203486, 0.12407273, 0.25],
        "properties": { "magmom": 0.0 },
        "label": "Lu",
        "xyz": [1.8733115114537577, 0.7586051489456139, 4.936643255]
      },
      {
        "species": [{ "element": "Te", "occu": 1 }],
        "abc": [0.14785598, 0.29571196, 0.75],
        "properties": { "magmom": -0.0 },
        "label": "Te",
        "xyz": [1.5524877894357303e-7, 1.8080412511455501, 14.809929765]
      },
      {
        "species": [{ "element": "Te", "occu": 1 }],
        "abc": [0.85214402, 0.70428804, 0.25],
        "properties": { "magmom": -0.0 },
        "label": "Te",
        "xyz": [1.873317454751221, 4.30615599885445, 4.936643255]
      }
    ]
  },
  "task_ids": null,
  "uncorrected_energy_per_atom": null,
  "energy_per_atom": -4.704683291875,
  "formation_energy_per_atom": -0.35529353354166704,
  "energy_above_hull": 0.007582340208331001,
  "is_stable": false,
  "equilibrium_reaction_energy_per_atom": null,
  "decomposes_to": null,
  "xas": null,
  "grain_boundaries": null,
  "band_gap": 0.0,
  "cbm": null,
  "vbm": null,
  "efermi": 3.67497988,
  "is_gap_direct": null,
  "is_metal": null,
  "es_source_calc_id": null,
  "bandstructure": null,
  "dos": null,
  "dos_energy_up": null,
  "dos_energy_down": null,
  "is_magnetic": null,
  "ordering": null,
  "total_magnetization": 3.7500000000000003e-5,
  "total_magnetization_normalized_vol": null,
  "total_magnetization_normalized_formula_units": null,
  "num_magnetic_sites": null,
  "num_unique_magnetic_sites": null,
  "types_of_magnetic_species": null,
  "bulk_modulus": null,
  "shear_modulus": null,
  "universal_anisotropy": null,
  "homogeneous_poisson": null,
  "e_total": null,
  "e_ionic": null,
  "e_electronic": null,
  "n": null,
  "e_ij_max": null,
  "weighted_surface_energy_EV_PER_ANG2": null,
  "weighted_surface_energy": null,
  "weighted_work_function": null,
  "surface_anisotropy": null,
  "shape_factor": null,
  "has_reconstructed": null,
  "possible_species": null,
  "has_props": null,
  "theoretical": null,
  "database_IDs": null,
  "fields_not_requested": [
    "builder_meta",
    "nsites",
    "elements",
    "nelements",
    "composition",
    "composition_reduced",
    "chemsys",
    "symmetry",
    "property_name",
    "deprecated",
    "deprecation_reasons",
    "last_updated",
    "origins",
    "warnings",
    "task_ids",
    "uncorrected_energy_per_atom",
    "equilibrium_reaction_energy_per_atom",
    "decomposes_to",
    "xas",
    "grain_boundaries",
    "cbm",
    "vbm",
    "is_gap_direct",
    "is_metal",
    "es_source_calc_id",
    "bandstructure",
    "dos",
    "dos_energy_up",
    "dos_energy_down",
    "is_magnetic",
    "ordering",
    "total_magnetization_normalized_vol",
    "total_magnetization_normalized_formula_units",
    "num_magnetic_sites",
    "num_unique_magnetic_sites",
    "types_of_magnetic_species",
    "bulk_modulus",
    "shear_modulus",
    "universal_anisotropy",
    "homogeneous_poisson",
    "e_total",
    "e_ionic",
    "e_electronic",
    "n",
    "e_ij_max",
    "weighted_surface_energy_EV_PER_ANG2",
    "weighted_surface_energy",
    "weighted_work_function",
    "surface_anisotropy",
    "shape_factor",
    "has_reconstructed",
    "possible_species",
    "has_props",
    "theoretical",
    "database_IDs"
  ]
}
