{"builder_meta": null, "nsites": null, "elements": null, "nelements": null, "composition": null, "composition_reduced": null, "formula_pretty": "Lu8Te", "formula_anonymous": "AB8", "chemsys": null, "volume": 257.130261391747, "density": 9.86348740944414, "density_atomic": 28.570029043527445, "symmetry": null, "property_name": null, "material_id": "mp-11584", "deprecated": null, "deprecation_reasons": null, "last_updated": null, "origins": null, "warnings": null, "structure": {"@module": "pymatgen.core.structure", "@class": "Structure", "charge": 0, "lattice": {"matrix": [[8.96265292, 1e-08, 0.0], [-4.4813259500000004, 7.76188295, -0.0], [0.0, 0.0, 3.69614945]], "pbc": [true, true, true], "a": 8.96265292, "b": 8.962650790901323, "c": 3.69614945, "alpha": 90.0, "beta": 90.0, "gamma": 120.00000402958153, "volume": 257.130261391747}, "properties": {}, "sites": [{"species": [{"element": "Lu", "occu": 1}], "abc": [0.72326539, 0.7232633900000001, 0.0], "properties": {"magmom": -0.0}, "label": "Lu", "xyz": [3.2411976613264675, 5.613885782432855, 0.0]}, {"species": [{"element": "Lu", "occu": 1}], "abc": [0.0, 0.27673761, -0.0], "properties": {"magmom": -0.0}, "label": "Lu", "xyz": [-1.2401514330339798, 2.14800493668275, 0.0]}, {"species": [{"element": "Lu", "occu": 1}], "abc": [0.61111195, -0.0, 0.5], "properties": {"magmom": -0.0}, "label": "Lu", "xyz": [5.477184303114393, 6.111119499999999e-09, 1.848074725]}, {"species": [{"element": "Lu", "occu": 1}], "abc": [0.38888705, 0.38888805, 0.5], "properties": {"magmom": -0.0}, "label": "Lu", "xyz": [1.7427255441227887, 3.018503528642618, 1.848074725]}, {"species": [{"element": "Lu", "occu": 1}], "abc": [0.0, 0.61111295, 0.5], "properties": {"magmom": -0.0}, "label": "Lu", "xyz": [-2.7385963212160527, 4.743387187129203, 1.848074725]}, {"species": [{"element": "Lu", "occu": 1}], "abc": [0.333331999999999, 0.666666, 0.0], "properties": {"magmom": 0.0}, "label": "Lu", "xyz": [-8.622653269174663e-06, 5.1745834620780204, 0.0]}, {"species": [{"element": "Lu", "occu": 1}], "abc": [0.666667999999999, 0.333333999999999, 0.0], "properties": {"magmom": 0.0}, "label": "Lu", "xyz": [4.481335592653256, 2.587299497921973, 0.0]}, {"species": [{"element": "Lu", "occu": 1}], "abc": [0.27673461, 0.999999, 0.0], "properties": {"magmom": -0.0}, "label": "Lu", "xyz": [-2.001045208292489, 7.761875190884396, 0.0]}, {"species": [{"element": "Te", "occu": 1}], "abc": [0.0, 0.999999, 0.5], "properties": {"magmom": 0.0}, "label": "Te", "xyz": [-4.48132146867405, 7.76187518811705, 1.848074725]}]}, "task_ids": null, "uncorrected_energy_per_atom": null, "energy_per_atom": -4.695171933333332, "formation_energy_per_atom": -0.32663798666666505, "energy_above_hull": 0.0, "is_stable": true, "equilibrium_reaction_energy_per_atom": null, "decomposes_to": null, "xas": null, "grain_boundaries": null, "band_gap": 0.0, "cbm": null, "vbm": null, "efermi": 3.455044039999999, "is_gap_direct": null, "is_metal": null, "es_source_calc_id": null, "bandstructure": null, "dos": null, "dos_energy_up": null, "dos_energy_down": null, "is_magnetic": null, "ordering": null, "total_magnetization": 8.5e-06, "total_magnetization_normalized_vol": null, "total_magnetization_normalized_formula_units": null, "num_magnetic_sites": null, "num_unique_magnetic_sites": null, "types_of_magnetic_species": null, "bulk_modulus": null, "shear_modulus": null, "universal_anisotropy": null, "homogeneous_poisson": null, "e_total": null, "e_ionic": null, "e_electronic": null, "n": null, "e_ij_max": null, "weighted_surface_energy_EV_PER_ANG2": null, "weighted_surface_energy": null, "weighted_work_function": null, "surface_anisotropy": null, "shape_factor": null, "has_reconstructed": null, "possible_species": null, "has_props": null, "theoretical": null, "database_IDs": null, "fields_not_requested": ["builder_meta", "nsites", "elements", "nelements", "composition", "composition_reduced", "chemsys", "symmetry", "property_name", "deprecated", "deprecation_reasons", "last_updated", "origins", "warnings", "task_ids", "uncorrected_energy_per_atom", "equilibrium_reaction_energy_per_atom", "decomposes_to", "xas", "grain_boundaries", "cbm", "vbm", "is_gap_direct", "is_metal", "es_source_calc_id", "bandstructure", "dos", "dos_energy_up", "dos_energy_down", "is_magnetic", "ordering", "total_magnetization_normalized_vol", "total_magnetization_normalized_formula_units", "num_magnetic_sites", "num_unique_magnetic_sites", "types_of_magnetic_species", "bulk_modulus", "shear_modulus", "universal_anisotropy", "homogeneous_poisson", "e_total", "e_ionic", "e_electronic", "n", "e_ij_max", "weighted_surface_energy_EV_PER_ANG2", "weighted_surface_energy", "weighted_work_function", "surface_anisotropy", "shape_factor", "has_reconstructed", "possible_species", "has_props", "theoretical", "database_IDs"]}