{"builder_meta": null, "nsites": null, "elements": null, "nelements": null, "composition": null, "composition_reduced": null, "formula_pretty": "LuAg4", "formula_anonymous": "AB4", "chemsys": null, "volume": 92.75551926319459, "density": 10.856679876737806, "density_atomic": 18.551103852638917, "symmetry": null, "property_name": null, "material_id": "mp-568953", "deprecated": null, "deprecation_reasons": null, "last_updated": null, "origins": null, "warnings": null, "structure": {"@module": "pymatgen.core.structure", "@class": "Structure", "charge": 0, "lattice": {"matrix": [[3.81445803, 0.0, 1.68156158], [1.90725583, 4.71706092, 0.8407211], [0.00445141, 6.473e-05, 5.15704266]], "pbc": [true, true, true], "a": 4.168661584965081, "b": 5.157043774493818, "c": 5.157044581570033, "alpha": 80.59834293731495, "beta": 66.16079139225621, "gamma": 66.16076675063042, "volume": 92.75551926319459}, "properties": {}, "sites": [{"species": [{"element": "Lu", "occu": 1}], "abc": [-0.0, 0.0, 0.0], "properties": {"magmom": 0.0}, "label": "Lu", "xyz": [0.0, 0.0, 0.0]}, {"species": [{"element": "Ag", "occu": 1}], "abc": [0.59819069, 0.59896533, 0.20465229000000001], "properties": {"magmom": -0.0}, "label": "Ag", "xyz": [3.425064389802343, 2.8253691977206348, 2.5648578629138443]}, {"species": [{"element": "Ag", "occu": 1}], "abc": [0.80284298, 0.79534771, 0.59896533], "properties": {"magmom": -0.0}, "label": "Ag", "xyz": [4.582008648924394, 3.751742371678304, 5.107585270245367]}, {"species": [{"element": "Ag", "occu": 1}], "abc": [0.19715702000000002, 0.20465229000000001, 0.40103467], "properties": {"magmom": -0.0}, "label": "Ag", "xyz": [1.1441566210756062, 0.9653832783216959, 2.5717400697546324]}, {"species": [{"element": "Ag", "occu": 1}], "abc": [0.40180931000000003, 0.40103467, 0.79534771], "properties": {"magmom": -0.0}, "label": "Ag", "xyz": [2.3011008801976565, 1.8917564522793644, 5.114467477086156]}]}, "task_ids": null, "uncorrected_energy_per_atom": null, "energy_per_atom": -24.929720064, "formation_energy_per_atom": -0.22904231133333303, "energy_above_hull": 0.0, "is_stable": true, "equilibrium_reaction_energy_per_atom": null, "decomposes_to": null, "xas": null, "grain_boundaries": null, "band_gap": 0.0, "cbm": null, "vbm": null, "efermi": 3.5263754, "is_gap_direct": null, "is_metal": null, "es_source_calc_id": null, "bandstructure": null, "dos": null, "dos_energy_up": null, "dos_energy_down": null, "is_magnetic": null, "ordering": null, "total_magnetization": 5e-07, "total_magnetization_normalized_vol": null, "total_magnetization_normalized_formula_units": null, "num_magnetic_sites": null, "num_unique_magnetic_sites": null, "types_of_magnetic_species": null, "bulk_modulus": null, "shear_modulus": null, "universal_anisotropy": null, "homogeneous_poisson": null, "e_total": null, "e_ionic": null, "e_electronic": null, "n": null, "e_ij_max": null, "weighted_surface_energy_EV_PER_ANG2": null, "weighted_surface_energy": null, "weighted_work_function": null, "surface_anisotropy": null, "shape_factor": null, "has_reconstructed": null, "possible_species": null, "has_props": null, "theoretical": null, "database_IDs": null, "fields_not_requested": ["builder_meta", "nsites", "elements", "nelements", "composition", "composition_reduced", "chemsys", "symmetry", "property_name", "deprecated", "deprecation_reasons", "last_updated", "origins", "warnings", "task_ids", "uncorrected_energy_per_atom", "equilibrium_reaction_energy_per_atom", "decomposes_to", "xas", "grain_boundaries", "cbm", "vbm", "is_gap_direct", "is_metal", "es_source_calc_id", "bandstructure", "dos", "dos_energy_up", "dos_energy_down", "is_magnetic", "ordering", "total_magnetization_normalized_vol", "total_magnetization_normalized_formula_units", "num_magnetic_sites", "num_unique_magnetic_sites", "types_of_magnetic_species", "bulk_modulus", "shear_modulus", "universal_anisotropy", "homogeneous_poisson", "e_total", "e_ionic", "e_electronic", "n", "e_ij_max", "weighted_surface_energy_EV_PER_ANG2", "weighted_surface_energy", "weighted_work_function", "surface_anisotropy", "shape_factor", "has_reconstructed", "possible_species", "has_props", "theoretical", "database_IDs"]}