{
  "builder_meta": null,
  "nsites": null,
  "elements": null,
  "nelements": null,
  "composition": null,
  "composition_reduced": null,
  "formula_pretty": "LuAl",
  "formula_anonymous": "AB",
  "chemsys": null,
  "volume": 349.64495681147133,
  "density": 7.672776197802168,
  "density_atomic": 21.852809800716958,
  "symmetry": null,
  "property_name": null,
  "material_id": "mp-16507",
  "deprecated": null,
  "deprecation_reasons": null,
  "last_updated": null,
  "origins": null,
  "warnings": null,
  "structure": {
    "@module": "pymatgen.core.structure",
    "@class": "Structure",
    "charge": 0,
    "lattice": {
      "matrix": [
        [5.49251222, 1.11e-6, -3.0000000000000004e-8],
        [1.11e-6, 5.7179340100000005, -1.4350000000000002e-5],
        [-1.08e-6, -2.9370000000000005e-5, 11.13312532]
      ],
      "pbc": [true, true, true],
      "a": 5.492512220000112,
      "b": 5.717934010018115,
      "c": 11.133125320038792,
      "alpha": 90.00029494268576,
      "beta": 90.00000587111657,
      "gamma": 89.99997729830129,
      "volume": 349.64495681147133
    },
    "properties": {},
    "sites": [
      {
        "species": [{ "element": "Lu", "occu": 1 }],
        "abc": [0.2500002, 0.39549437, 0.33070574],
        "properties": { "magmom": -0.0 },
        "label": "Lu",
        "xyz": [1.3731292353389957, 2.2614012736591618, 3.6817827646191215]
      },
      {
        "species": [{ "element": "Lu", "occu": 1 }],
        "abc": [0.7499998, 0.60450563, 0.66929426],
        "properties": { "magmom": -0.0 },
        "label": "Lu",
        "xyz": [4.119383014661004, 3.4565044763408386, 7.451328175380878]
      },
      {
        "species": [{ "element": "Lu", "occu": 1 }],
        "abc": [0.749999699999999, 0.39550729, 0.16918212],
        "properties": { "magmom": -0.0 },
        "label": "Lu",
        "xyz": [4.119382773542731, 2.2614804483147357, 1.8835200458336756]
      },
      {
        "species": [{ "element": "Lu", "occu": 1 }],
        "abc": [0.2500003, 0.60449271, 0.83081788],
        "properties": { "magmom": -0.0 },
        "label": "Lu",
        "xyz": [1.3731294764572637, 3.456425301685265, 9.249590894166323]
      },
      {
        "species": [{ "element": "Lu", "occu": 1 }],
        "abc": [0.24999985, 0.15868857, 0.017393199999999002],
        "properties": { "magmom": 0.0 },
        "label": "Lu",
        "xyz": [1.3731273884828237, 0.9073705380628152, 0.1936383906348379]
      },
      {
        "species": [{ "element": "Lu", "occu": 1 }],
        "abc": [0.75000015, 0.84131143, 0.9826068],
        "properties": { "magmom": 0.0 },
        "label": "Lu",
        "xyz": [4.119384861517176, 4.810535211937185, 10.93947254936515]
      },
      {
        "species": [{ "element": "Lu", "occu": 1 }],
        "abc": [0.75000045, 0.15871918000000002, 0.48260013],
        "properties": { "magmom": -0.0 },
        "label": "Lu",
        "xyz": [4.119386291600648, 0.9075324558959933, 5.372845426618046]
      },
      {
        "species": [{ "element": "Lu", "occu": 1 }],
        "abc": [0.24999955000000001, 0.84128082, 0.51739987],
        "properties": { "magmom": -0.0 },
        "label": "Lu",
        "xyz": [1.3731259583993516, 4.810373294104007, 5.760265513381954]
      },
      {
        "species": [{ "element": "Al", "occu": 1 }],
        "abc": [-1.649999999999999e-6, 0.92938226, 0.24996401000000001],
        "properties": { "magmom": 0.0 },
        "label": "Al",
        "xyz": [-8.300991985199995e-6, 5.314139091299858, 2.7828673121843517]
      },
      {
        "species": [{ "element": "Al", "occu": 1 }],
        "abc": [0.49999796, 0.07061803, 0.7500359600000001],
        "properties": { "magmom": -0.0 },
        "label": "Al",
        "xyz": [2.7462441736222476, 0.40376776189779073, 8.35024330881784]
      },
      {
        "species": [{ "element": "Al", "occu": 1 }],
        "abc": [1.649999999999999e-6, 0.07061774, 0.75003599],
        "properties": { "magmom": 0.0 },
        "label": "Al",
        "xyz": [8.330991985199993e-6, 0.4037655487001426, 8.350243657815648]
      },
      {
        "species": [{ "element": "Al", "occu": 1 }],
        "abc": [0.50000204, 0.92938197, 0.24996404],
        "properties": { "magmom": -0.0 },
        "label": "Al",
        "xyz": [2.7462680763777527, 5.31413798810221, 2.782867631182162]
      },
      {
        "species": [{ "element": "Al", "occu": 1 }],
        "abc": [0.25000036000000003, 0.65656277, 0.09638804000000001],
        "properties": { "magmom": 0.0 },
        "label": "Al",
        "xyz": [1.3731306569899908, 3.7541800388664726, 1.0730906994934126]
      },
      {
        "species": [{ "element": "Al", "occu": 1 }],
        "abc": [0.74999964, 0.34343723, 0.90361196],
        "properties": { "magmom": 0.0 },
        "label": "Al",
        "xyz": [4.119381593010009, 1.9637257111335276, 10.060020240506587]
      },
      {
        "species": [{ "element": "Al", "occu": 1 }],
        "abc": [0.7500009400000001, 0.65654425, 0.40357228],
        "properties": { "magmom": 0.0 },
        "label": "Al",
        "xyz": [4.119389620867542, 3.7540656757281226, 4.493011325008114]
      },
      {
        "species": [{ "element": "Al", "occu": 1 }],
        "abc": [0.24999906, 0.34345575, 0.59642772],
        "properties": { "magmom": 0.0 },
        "label": "Al",
        "xyz": [1.373122629132458, 1.963840074271878, 6.640099614991886]
      }
    ]
  },
  "task_ids": null,
  "uncorrected_energy_per_atom": null,
  "energy_per_atom": -22.86378979375,
  "formation_energy_per_atom": -0.457800537083333,
  "energy_above_hull": 0.0,
  "is_stable": true,
  "equilibrium_reaction_energy_per_atom": null,
  "decomposes_to": null,
  "xas": null,
  "grain_boundaries": null,
  "band_gap": 0.0,
  "cbm": null,
  "vbm": null,
  "efermi": 4.62367518,
  "is_gap_direct": null,
  "is_metal": null,
  "es_source_calc_id": null,
  "bandstructure": null,
  "dos": null,
  "dos_energy_up": null,
  "dos_energy_down": null,
  "is_magnetic": null,
  "ordering": null,
  "total_magnetization": 8.5e-6,
  "total_magnetization_normalized_vol": null,
  "total_magnetization_normalized_formula_units": null,
  "num_magnetic_sites": null,
  "num_unique_magnetic_sites": null,
  "types_of_magnetic_species": null,
  "bulk_modulus": null,
  "shear_modulus": null,
  "universal_anisotropy": null,
  "homogeneous_poisson": null,
  "e_total": null,
  "e_ionic": null,
  "e_electronic": null,
  "n": null,
  "e_ij_max": null,
  "weighted_surface_energy_EV_PER_ANG2": null,
  "weighted_surface_energy": null,
  "weighted_work_function": null,
  "surface_anisotropy": null,
  "shape_factor": null,
  "has_reconstructed": null,
  "possible_species": null,
  "has_props": null,
  "theoretical": null,
  "database_IDs": null,
  "fields_not_requested": [
    "builder_meta",
    "nsites",
    "elements",
    "nelements",
    "composition",
    "composition_reduced",
    "chemsys",
    "symmetry",
    "property_name",
    "deprecated",
    "deprecation_reasons",
    "last_updated",
    "origins",
    "warnings",
    "task_ids",
    "uncorrected_energy_per_atom",
    "equilibrium_reaction_energy_per_atom",
    "decomposes_to",
    "xas",
    "grain_boundaries",
    "cbm",
    "vbm",
    "is_gap_direct",
    "is_metal",
    "es_source_calc_id",
    "bandstructure",
    "dos",
    "dos_energy_up",
    "dos_energy_down",
    "is_magnetic",
    "ordering",
    "total_magnetization_normalized_vol",
    "total_magnetization_normalized_formula_units",
    "num_magnetic_sites",
    "num_unique_magnetic_sites",
    "types_of_magnetic_species",
    "bulk_modulus",
    "shear_modulus",
    "universal_anisotropy",
    "homogeneous_poisson",
    "e_total",
    "e_ionic",
    "e_electronic",
    "n",
    "e_ij_max",
    "weighted_surface_energy_EV_PER_ANG2",
    "weighted_surface_energy",
    "weighted_work_function",
    "surface_anisotropy",
    "shape_factor",
    "has_reconstructed",
    "possible_species",
    "has_props",
    "theoretical",
    "database_IDs"
  ]
}
