{
  "builder_meta": null,
  "nsites": null,
  "elements": null,
  "nelements": null,
  "composition": null,
  "composition_reduced": null,
  "formula_pretty": "LuAu3",
  "formula_anonymous": "AB3",
  "chemsys": null,
  "volume": 151.31293769664617,
  "density": 16.80955516614735,
  "density_atomic": 18.91411721208077,
  "symmetry": null,
  "property_name": null,
  "material_id": "mp-1025526",
  "deprecated": null,
  "deprecation_reasons": null,
  "last_updated": null,
  "origins": null,
  "warnings": null,
  "structure": {
    "@module": "pymatgen.core.structure",
    "@class": "Structure",
    "charge": 0,
    "lattice": {
      "matrix": [
        [0.0, -4.93174915, 0.0],
        [-6.03500805, 0.0, 0.0],
        [0.0, 0.0, -5.08390271]
      ],
      "pbc": [true, true, true],
      "a": 4.93174915,
      "b": 6.03500805,
      "c": 5.08390271,
      "alpha": 90.0,
      "beta": 90.0,
      "gamma": 90.0,
      "volume": 151.31293769664617
    },
    "properties": {},
    "sites": [
      {
        "species": [{ "element": "Lu", "occu": 1 }],
        "abc": [-0.0, -0.0, 0.345063199999999],
        "properties": { "magmom": -0.0 },
        "label": "Lu",
        "xyz": [0.0, 0.0, -1.7542677376012672]
      },
      {
        "species": [{ "element": "Lu", "occu": 1 }],
        "abc": [0.5, 0.5, 0.6549368],
        "properties": { "magmom": -0.0 },
        "label": "Lu",
        "xyz": [-3.017504025, -2.465874575, -3.329634972398728]
      },
      {
        "species": [{ "element": "Au", "occu": 1 }],
        "abc": [0.5, -0.0, 0.66270882],
        "properties": { "magmom": 0.0 },
        "label": "Au",
        "xyz": [0.0, -2.465874575, -3.369147165938902]
      },
      {
        "species": [{ "element": "Au", "occu": 1 }],
        "abc": [0.0, 0.5, 0.33729118],
        "properties": { "magmom": 0.0 },
        "label": "Au",
        "xyz": [-3.017504025, 0.0, -1.714755544061098]
      },
      {
        "species": [{ "element": "Au", "occu": 1 }],
        "abc": [0.0, 0.74583029, 0.83835489],
        "properties": { "magmom": -0.0 },
        "label": "Au",
        "xyz": [-4.501091804083835, 0.0, -4.262114697212752]
      },
      {
        "species": [{ "element": "Au", "occu": 1 }],
        "abc": [-0.0, 0.25416971, 0.83835489],
        "properties": { "magmom": -0.0 },
        "label": "Au",
        "xyz": [-1.5339162459161655, 0.0, -4.262114697212752]
      },
      {
        "species": [{ "element": "Au", "occu": 1 }],
        "abc": [0.5, 0.75416971, 0.16164511],
        "properties": { "magmom": -0.0 },
        "label": "Au",
        "xyz": [-4.551420270916165, -2.465874575, -0.8217880127872482]
      },
      {
        "species": [{ "element": "Au", "occu": 1 }],
        "abc": [0.5, 0.24583029, 0.16164511],
        "properties": { "magmom": -0.0 },
        "label": "Au",
        "xyz": [-1.4835877790838345, -2.465874575, -0.8217880127872482]
      }
    ]
  },
  "task_ids": null,
  "uncorrected_energy_per_atom": null,
  "energy_per_atom": -48.246735835,
  "formation_energy_per_atom": -0.788045676666669,
  "energy_above_hull": 0.0,
  "is_stable": true,
  "equilibrium_reaction_energy_per_atom": null,
  "decomposes_to": null,
  "xas": null,
  "grain_boundaries": null,
  "band_gap": 0.0,
  "cbm": null,
  "vbm": null,
  "efermi": 4.99577175,
  "is_gap_direct": null,
  "is_metal": null,
  "es_source_calc_id": null,
  "bandstructure": null,
  "dos": null,
  "dos_energy_up": null,
  "dos_energy_down": null,
  "is_magnetic": null,
  "ordering": null,
  "total_magnetization": 0.0,
  "total_magnetization_normalized_vol": null,
  "total_magnetization_normalized_formula_units": null,
  "num_magnetic_sites": null,
  "num_unique_magnetic_sites": null,
  "types_of_magnetic_species": null,
  "bulk_modulus": null,
  "shear_modulus": null,
  "universal_anisotropy": null,
  "homogeneous_poisson": null,
  "e_total": null,
  "e_ionic": null,
  "e_electronic": null,
  "n": null,
  "e_ij_max": null,
  "weighted_surface_energy_EV_PER_ANG2": null,
  "weighted_surface_energy": null,
  "weighted_work_function": null,
  "surface_anisotropy": null,
  "shape_factor": null,
  "has_reconstructed": null,
  "possible_species": null,
  "has_props": null,
  "theoretical": null,
  "database_IDs": null,
  "fields_not_requested": [
    "builder_meta",
    "nsites",
    "elements",
    "nelements",
    "composition",
    "composition_reduced",
    "chemsys",
    "symmetry",
    "property_name",
    "deprecated",
    "deprecation_reasons",
    "last_updated",
    "origins",
    "warnings",
    "task_ids",
    "uncorrected_energy_per_atom",
    "equilibrium_reaction_energy_per_atom",
    "decomposes_to",
    "xas",
    "grain_boundaries",
    "cbm",
    "vbm",
    "is_gap_direct",
    "is_metal",
    "es_source_calc_id",
    "bandstructure",
    "dos",
    "dos_energy_up",
    "dos_energy_down",
    "is_magnetic",
    "ordering",
    "total_magnetization_normalized_vol",
    "total_magnetization_normalized_formula_units",
    "num_magnetic_sites",
    "num_unique_magnetic_sites",
    "types_of_magnetic_species",
    "bulk_modulus",
    "shear_modulus",
    "universal_anisotropy",
    "homogeneous_poisson",
    "e_total",
    "e_ionic",
    "e_electronic",
    "n",
    "e_ij_max",
    "weighted_surface_energy_EV_PER_ANG2",
    "weighted_surface_energy",
    "weighted_work_function",
    "surface_anisotropy",
    "shape_factor",
    "has_reconstructed",
    "possible_species",
    "has_props",
    "theoretical",
    "database_IDs"
  ]
}
