{"builder_meta": null, "nsites": null, "elements": null, "nelements": null, "composition": null, "composition_reduced": null, "formula_pretty": "LuAu4", "formula_anonymous": "AB4", "chemsys": null, "volume": 92.37116735070349, "density": 17.308672340907506, "density_atomic": 18.474233470140696, "symmetry": null, "property_name": null, "material_id": "mp-1068773", "deprecated": null, "deprecation_reasons": null, "last_updated": null, "origins": null, "warnings": null, "structure": {"@module": "pymatgen.core.structure", "@class": "Structure", "charge": 0, "lattice": {"matrix": [[-2e-08, 0.0, 4.13264519], [-3.34296834, 3.3430744900000002, 2.06632413], [-3.3430745, -3.34296833, 2.06632413]], "pbc": [true, true, true], "a": 4.13264519, "b": 5.1595813568691185, "c": 5.1595813568693245, "alpha": 80.77066577013954, "beta": 66.3916291376966, "gamma": 66.39162913770183, "volume": 92.37116735070347}, "properties": {}, "sites": [{"species": [{"element": "Lu", "occu": 1}], "abc": [0.0, 0.0, -0.0], "properties": {"magmom": -0.0}, "label": "Lu", "xyz": [0.0, 0.0, 0.0]}, {"species": [{"element": "Au", "occu": 1}], "abc": [0.6011744, 0.59897424, 0.19867597], "properties": {"magmom": 0.0}, "label": "Au", "xyz": [-2.6665405018888144, 1.3382480262691074, 4.132644368733703]}, {"species": [{"element": "Au", "occu": 1}], "abc": [0.3988256, 0.40102576, 0.80132403], "properties": {"magmom": 0.0}, "label": "Au", "xyz": [-4.019502358111185, -1.3381418662691076, 4.132649081266297]}, {"species": [{"element": "Au", "occu": 1}], "abc": [0.20014864000000002, 0.19867597, 0.40102576], "properties": {"magmom": 0.0}, "label": "Au", "xyz": [-2.0048264737308825, -0.6764278481111755, 2.0663214698827863]}, {"species": [{"element": "Au", "occu": 1}], "abc": [0.79985136, 0.80132403, 0.59897424], "properties": {"magmom": 0.0}, "label": "Au", "xyz": [-4.681216386269117, 0.6765340081111755, 6.1989719801172125]}]}, "task_ids": null, "uncorrected_energy_per_atom": null, "energy_per_atom": -48.741290140000004, "formation_energy_per_atom": -0.657345983333334, "energy_above_hull": 0.0, "is_stable": true, "equilibrium_reaction_energy_per_atom": null, "decomposes_to": null, "xas": null, "grain_boundaries": null, "band_gap": 0.0, "cbm": null, "vbm": null, "efermi": 5.58398657, "is_gap_direct": null, "is_metal": null, "es_source_calc_id": null, "bandstructure": null, "dos": null, "dos_energy_up": null, "dos_energy_down": null, "is_magnetic": null, "ordering": null, "total_magnetization": 2e-07, "total_magnetization_normalized_vol": null, "total_magnetization_normalized_formula_units": null, "num_magnetic_sites": null, "num_unique_magnetic_sites": null, "types_of_magnetic_species": null, "bulk_modulus": null, "shear_modulus": null, "universal_anisotropy": null, "homogeneous_poisson": null, "e_total": null, "e_ionic": null, "e_electronic": null, "n": null, "e_ij_max": null, "weighted_surface_energy_EV_PER_ANG2": null, "weighted_surface_energy": null, "weighted_work_function": null, "surface_anisotropy": null, "shape_factor": null, "has_reconstructed": null, "possible_species": null, "has_props": null, "theoretical": null, "database_IDs": null, "fields_not_requested": ["builder_meta", "nsites", "elements", "nelements", "composition", "composition_reduced", "chemsys", "symmetry", "property_name", "deprecated", "deprecation_reasons", "last_updated", "origins", "warnings", "task_ids", "uncorrected_energy_per_atom", "equilibrium_reaction_energy_per_atom", "decomposes_to", "xas", "grain_boundaries", "cbm", "vbm", "is_gap_direct", "is_metal", "es_source_calc_id", "bandstructure", "dos", "dos_energy_up", "dos_energy_down", "is_magnetic", "ordering", "total_magnetization_normalized_vol", "total_magnetization_normalized_formula_units", "num_magnetic_sites", "num_unique_magnetic_sites", "types_of_magnetic_species", "bulk_modulus", "shear_modulus", "universal_anisotropy", "homogeneous_poisson", "e_total", "e_ionic", "e_electronic", "n", "e_ij_max", "weighted_surface_energy_EV_PER_ANG2", "weighted_surface_energy", "weighted_work_function", "surface_anisotropy", "shape_factor", "has_reconstructed", "possible_species", "has_props", "theoretical", "database_IDs"]}