{
  "builder_meta": null,
  "nsites": null,
  "elements": null,
  "nelements": null,
  "composition": null,
  "composition_reduced": null,
  "formula_pretty": "LuB4",
  "formula_anonymous": "AB4",
  "chemsys": null,
  "volume": 194.54182599949704,
  "density": 7.450282496326304,
  "density_atomic": 9.727091299974852,
  "symmetry": null,
  "property_name": null,
  "material_id": "mp-571495",
  "deprecated": null,
  "deprecation_reasons": null,
  "last_updated": null,
  "origins": null,
  "warnings": null,
  "structure": {
    "@module": "pymatgen.core.structure",
    "@class": "Structure",
    "charge": 0,
    "lattice": {
      "matrix": [
        [3.9583842, 0.0, 0.0],
        [-0.0, 7.01047624, 0.0],
        [0.0, 0.0, 7.01047624]
      ],
      "pbc": [true, true, true],
      "a": 3.9583842,
      "b": 7.01047624,
      "c": 7.01047624,
      "alpha": 90.0,
      "beta": 90.0,
      "gamma": 90.0,
      "volume": 194.54182599949704
    },
    "properties": {},
    "sites": [
      {
        "species": [{ "element": "Lu", "occu": 1 }],
        "abc": [0.0, 0.31926684, 0.81926684],
        "properties": { "magmom": -0.0 },
        "label": "Lu",
        "xyz": [0.0, 2.2382125960398818, 5.743450716039882]
      },
      {
        "species": [{ "element": "Lu", "occu": 1 }],
        "abc": [0.0, 0.81926684, 0.6807331600000001],
        "properties": { "magmom": -0.0 },
        "label": "Lu",
        "xyz": [0.0, 5.743450716039882, 4.772263643960119]
      },
      {
        "species": [{ "element": "Lu", "occu": 1 }],
        "abc": [0.0, 0.6807331600000001, 0.18073316],
        "properties": { "magmom": -0.0 },
        "label": "Lu",
        "xyz": [0.0, 4.772263643960119, 1.2670255239601185]
      },
      {
        "species": [{ "element": "Lu", "occu": 1 }],
        "abc": [0.0, 0.18073316, 0.31926684],
        "properties": { "magmom": -0.0 },
        "label": "Lu",
        "xyz": [0.0, 1.2670255239601185, 2.2382125960398818]
      },
      {
        "species": [{ "element": "B", "occu": 1 }],
        "abc": [0.5, 0.82310786, 0.96163372],
        "properties": { "magmom": 0.0 },
        "label": "B",
        "xyz": [1.9791921, 5.770378095487247, 6.741510345642813]
      },
      {
        "species": [{ "element": "B", "occu": 1 }],
        "abc": [0.5, 0.41332236, 0.08667764],
        "properties": { "magmom": -0.0 },
        "label": "B",
        "xyz": [1.9791921, 2.8975865842407265, 0.6076515357592736]
      },
      {
        "species": [{ "element": "B", "occu": 1 }],
        "abc": [0.5, 0.53836628, 0.67689214],
        "properties": { "magmom": 0.0 },
        "label": "B",
        "xyz": [1.9791921, 3.774204014357187, 4.745336264512753]
      },
      {
        "species": [{ "element": "B", "occu": 1 }],
        "abc": [0.5, 0.91332236, 0.41332236],
        "properties": { "magmom": -0.0 },
        "label": "B",
        "xyz": [1.9791921, 6.402824704240726, 2.8975865842407265]
      },
      {
        "species": [{ "element": "B", "occu": 1 }],
        "abc": [0.5, 0.32310786, 0.53836628],
        "properties": { "magmom": 0.0 },
        "label": "B",
        "xyz": [1.9791921, 2.2651399754872465, 3.774204014357187]
      },
      {
        "species": [{ "element": "B", "occu": 1 }],
        "abc": [0.5, 0.08667764, 0.58667764],
        "properties": { "magmom": -0.0 },
        "label": "B",
        "xyz": [1.9791921, 0.6076515357592736, 4.112889655759274]
      },
      {
        "species": [{ "element": "B", "occu": 1 }],
        "abc": [0.5, 0.67689214, 0.46163372],
        "properties": { "magmom": 0.0 },
        "label": "B",
        "xyz": [1.9791921, 4.745336264512753, 3.236272225642813]
      },
      {
        "species": [{ "element": "B", "occu": 1 }],
        "abc": [0.5, 0.03836628, 0.82310786],
        "properties": { "magmom": 0.0 },
        "label": "B",
        "xyz": [1.9791921, 0.2689658943571872, 5.770378095487247]
      },
      {
        "species": [{ "element": "B", "occu": 1 }],
        "abc": [0.20193604, -0.0, -0.0],
        "properties": { "magmom": -0.0 },
        "label": "B",
        "xyz": [0.799340430146568, 0.0, 0.0]
      },
      {
        "species": [{ "element": "B", "occu": 1 }],
        "abc": [0.20193604, 0.5, 0.5],
        "properties": { "magmom": -0.0 },
        "label": "B",
        "xyz": [0.799340430146568, 3.50523812, 3.50523812]
      },
      {
        "species": [{ "element": "B", "occu": 1 }],
        "abc": [0.79806396, -0.0, -0.0],
        "properties": { "magmom": -0.0 },
        "label": "B",
        "xyz": [3.1590437698534317, 0.0, 0.0]
      },
      {
        "species": [{ "element": "B", "occu": 1 }],
        "abc": [0.5, 0.96163372, 0.17689214],
        "properties": { "magmom": 0.0 },
        "label": "B",
        "xyz": [1.9791921, 6.741510345642813, 1.2400981445127537]
      },
      {
        "species": [{ "element": "B", "occu": 1 }],
        "abc": [0.5, 0.17689214, 0.03836628],
        "properties": { "magmom": 0.0 },
        "label": "B",
        "xyz": [1.9791921, 1.2400981445127537, 0.2689658943571872]
      },
      {
        "species": [{ "element": "B", "occu": 1 }],
        "abc": [0.5, 0.58667764, 0.91332236],
        "properties": { "magmom": -0.0 },
        "label": "B",
        "xyz": [1.9791921, 4.112889655759274, 6.402824704240726]
      },
      {
        "species": [{ "element": "B", "occu": 1 }],
        "abc": [0.79806396, 0.5, 0.5],
        "properties": { "magmom": -0.0 },
        "label": "B",
        "xyz": [3.1590437698534317, 3.50523812, 3.50523812]
      },
      {
        "species": [{ "element": "B", "occu": 1 }],
        "abc": [0.5, 0.46163372, 0.32310786],
        "properties": { "magmom": 0.0 },
        "label": "B",
        "xyz": [1.9791921, 3.236272225642813, 2.2651399754872465]
      }
    ]
  },
  "task_ids": null,
  "uncorrected_energy_per_atom": null,
  "energy_per_atom": -14.113377611499999,
  "formation_energy_per_atom": -0.620318216833331,
  "energy_above_hull": 0.0,
  "is_stable": true,
  "equilibrium_reaction_energy_per_atom": null,
  "decomposes_to": null,
  "xas": null,
  "grain_boundaries": null,
  "band_gap": 0.0,
  "cbm": null,
  "vbm": null,
  "efermi": 5.86642379,
  "is_gap_direct": null,
  "is_metal": null,
  "es_source_calc_id": null,
  "bandstructure": null,
  "dos": null,
  "dos_energy_up": null,
  "dos_energy_down": null,
  "is_magnetic": null,
  "ordering": null,
  "total_magnetization": 0.0,
  "total_magnetization_normalized_vol": null,
  "total_magnetization_normalized_formula_units": null,
  "num_magnetic_sites": null,
  "num_unique_magnetic_sites": null,
  "types_of_magnetic_species": null,
  "bulk_modulus": null,
  "shear_modulus": null,
  "universal_anisotropy": null,
  "homogeneous_poisson": null,
  "e_total": null,
  "e_ionic": null,
  "e_electronic": null,
  "n": null,
  "e_ij_max": null,
  "weighted_surface_energy_EV_PER_ANG2": null,
  "weighted_surface_energy": null,
  "weighted_work_function": null,
  "surface_anisotropy": null,
  "shape_factor": null,
  "has_reconstructed": null,
  "possible_species": null,
  "has_props": null,
  "theoretical": null,
  "database_IDs": null,
  "fields_not_requested": [
    "builder_meta",
    "nsites",
    "elements",
    "nelements",
    "composition",
    "composition_reduced",
    "chemsys",
    "symmetry",
    "property_name",
    "deprecated",
    "deprecation_reasons",
    "last_updated",
    "origins",
    "warnings",
    "task_ids",
    "uncorrected_energy_per_atom",
    "equilibrium_reaction_energy_per_atom",
    "decomposes_to",
    "xas",
    "grain_boundaries",
    "cbm",
    "vbm",
    "is_gap_direct",
    "is_metal",
    "es_source_calc_id",
    "bandstructure",
    "dos",
    "dos_energy_up",
    "dos_energy_down",
    "is_magnetic",
    "ordering",
    "total_magnetization_normalized_vol",
    "total_magnetization_normalized_formula_units",
    "num_magnetic_sites",
    "num_unique_magnetic_sites",
    "types_of_magnetic_species",
    "bulk_modulus",
    "shear_modulus",
    "universal_anisotropy",
    "homogeneous_poisson",
    "e_total",
    "e_ionic",
    "e_electronic",
    "n",
    "e_ij_max",
    "weighted_surface_energy_EV_PER_ANG2",
    "weighted_surface_energy",
    "weighted_work_function",
    "surface_anisotropy",
    "shape_factor",
    "has_reconstructed",
    "possible_species",
    "has_props",
    "theoretical",
    "database_IDs"
  ]
}
