{
  "builder_meta": null,
  "nsites": null,
  "elements": null,
  "nelements": null,
  "composition": null,
  "composition_reduced": null,
  "formula_pretty": "LuBi3",
  "formula_anonymous": "AB3",
  "chemsys": null,
  "volume": 240.30412705562387,
  "density": 11.082621927826121,
  "density_atomic": 30.038015881952983,
  "symmetry": null,
  "property_name": null,
  "material_id": "mp-1185520",
  "deprecated": null,
  "deprecation_reasons": null,
  "last_updated": null,
  "origins": null,
  "warnings": null,
  "structure": {
    "@module": "pymatgen.core.structure",
    "@class": "Structure",
    "charge": 0,
    "lattice": {
      "matrix": [
        [3.4115320000000002, -5.9089469999999995, 0.0],
        [3.4115320000000002, 5.9089469999999995, 0.0],
        [0.0, 0.0, 5.960349]
      ],
      "pbc": [true, true, true],
      "a": 6.823064211615848,
      "b": 6.823064211615848,
      "c": 5.960349,
      "alpha": 90.0,
      "beta": 90.0,
      "gamma": 120.00000205192143,
      "volume": 240.30412705562387
    },
    "properties": {},
    "sites": [
      {
        "species": [{ "element": "Lu", "occu": 1 }],
        "abc": [0.333333, 0.666667, 0.75],
        "properties": { "magmom": 0.006 },
        "label": "Lu",
        "xyz": [3.4115320000000002, 1.969652939298, 4.47026175]
      },
      {
        "species": [{ "element": "Lu", "occu": 1 }],
        "abc": [0.666667, 0.333333, 0.25],
        "properties": { "magmom": 0.006 },
        "label": "Lu",
        "xyz": [3.4115320000000002, -1.969652939298, 1.49008725]
      },
      {
        "species": [{ "element": "Bi", "occu": 1 }],
        "abc": [0.172917, 0.345834, 0.25],
        "properties": { "magmom": 0.0 },
        "label": "Bi",
        "xyz": [1.7697356365319998, 1.0217573883989999, 1.49008725]
      },
      {
        "species": [{ "element": "Bi", "occu": 1 }],
        "abc": [0.654166, 0.827083, 0.25],
        "properties": { "magmom": 0.001 },
        "label": "Bi",
        "xyz": [5.053328363468, 1.0217573883989997, 1.49008725]
      },
      {
        "species": [{ "element": "Bi", "occu": 1 }],
        "abc": [0.172917, 0.827083, 0.25],
        "properties": { "magmom": 0.001 },
        "label": "Bi",
        "xyz": [3.4115320000000002, 3.8654322232019993, 1.49008725]
      },
      {
        "species": [{ "element": "Bi", "occu": 1 }],
        "abc": [0.827083, 0.654166, 0.75],
        "properties": { "magmom": 0.0 },
        "label": "Bi",
        "xyz": [5.053328363468, -1.0217573883989997, 4.47026175]
      },
      {
        "species": [{ "element": "Bi", "occu": 1 }],
        "abc": [0.345834, 0.172917, 0.75],
        "properties": { "magmom": 0.001 },
        "label": "Bi",
        "xyz": [1.7697356365319998, -1.0217573883989999, 4.47026175]
      },
      {
        "species": [{ "element": "Bi", "occu": 1 }],
        "abc": [0.827083, 0.172917, 0.75],
        "properties": { "magmom": 0.001 },
        "label": "Bi",
        "xyz": [3.4115320000000002, -3.8654322232019993, 4.47026175]
      }
    ]
  },
  "task_ids": null,
  "uncorrected_energy_per_atom": null,
  "energy_per_atom": -53.725191255,
  "formation_energy_per_atom": -0.328515900416668,
  "energy_above_hull": 0.131692325000003,
  "is_stable": false,
  "equilibrium_reaction_energy_per_atom": null,
  "decomposes_to": null,
  "xas": null,
  "grain_boundaries": null,
  "band_gap": 0.0,
  "cbm": null,
  "vbm": null,
  "efermi": 6.20641101,
  "is_gap_direct": null,
  "is_metal": null,
  "es_source_calc_id": null,
  "bandstructure": null,
  "dos": null,
  "dos_energy_up": null,
  "dos_energy_down": null,
  "is_magnetic": null,
  "ordering": null,
  "total_magnetization": 0.1381768,
  "total_magnetization_normalized_vol": null,
  "total_magnetization_normalized_formula_units": null,
  "num_magnetic_sites": null,
  "num_unique_magnetic_sites": null,
  "types_of_magnetic_species": null,
  "bulk_modulus": null,
  "shear_modulus": null,
  "universal_anisotropy": null,
  "homogeneous_poisson": null,
  "e_total": null,
  "e_ionic": null,
  "e_electronic": null,
  "n": null,
  "e_ij_max": null,
  "weighted_surface_energy_EV_PER_ANG2": null,
  "weighted_surface_energy": null,
  "weighted_work_function": null,
  "surface_anisotropy": null,
  "shape_factor": null,
  "has_reconstructed": null,
  "possible_species": null,
  "has_props": null,
  "theoretical": null,
  "database_IDs": null,
  "fields_not_requested": [
    "builder_meta",
    "nsites",
    "elements",
    "nelements",
    "composition",
    "composition_reduced",
    "chemsys",
    "symmetry",
    "property_name",
    "deprecated",
    "deprecation_reasons",
    "last_updated",
    "origins",
    "warnings",
    "task_ids",
    "uncorrected_energy_per_atom",
    "equilibrium_reaction_energy_per_atom",
    "decomposes_to",
    "xas",
    "grain_boundaries",
    "cbm",
    "vbm",
    "is_gap_direct",
    "is_metal",
    "es_source_calc_id",
    "bandstructure",
    "dos",
    "dos_energy_up",
    "dos_energy_down",
    "is_magnetic",
    "ordering",
    "total_magnetization_normalized_vol",
    "total_magnetization_normalized_formula_units",
    "num_magnetic_sites",
    "num_unique_magnetic_sites",
    "types_of_magnetic_species",
    "bulk_modulus",
    "shear_modulus",
    "universal_anisotropy",
    "homogeneous_poisson",
    "e_total",
    "e_ionic",
    "e_electronic",
    "n",
    "e_ij_max",
    "weighted_surface_energy_EV_PER_ANG2",
    "weighted_surface_energy",
    "weighted_work_function",
    "surface_anisotropy",
    "shape_factor",
    "has_reconstructed",
    "possible_species",
    "has_props",
    "theoretical",
    "database_IDs"
  ]
}
