{
  "builder_meta": null,
  "nsites": null,
  "elements": null,
  "nelements": null,
  "composition": null,
  "composition_reduced": null,
  "formula_pretty": "LuBr3",
  "formula_anonymous": "AB3",
  "chemsys": null,
  "volume": 323.51116454860494,
  "density": 4.25698247885455,
  "density_atomic": 40.43889556857562,
  "symmetry": null,
  "property_name": null,
  "material_id": "mp-866214",
  "deprecated": null,
  "deprecation_reasons": null,
  "last_updated": null,
  "origins": null,
  "warnings": null,
  "structure": {
    "@module": "pymatgen.core.structure",
    "@class": "Structure",
    "charge": 0,
    "lattice": {
      "matrix": [
        [10.14080839, -2e-8, 0.0],
        [-5.07040324, 8.78220079, 0.0],
        [0.0, 0.0, 3.6325645]
      ],
      "pbc": [true, true, true],
      "a": 10.14080839,
      "b": 10.140810605276044,
      "c": 3.6325645,
      "alpha": 90.0,
      "beta": 90.0,
      "gamma": 119.99998665618428,
      "volume": 323.51116454860494
    },
    "properties": {},
    "sites": [
      {
        "species": [{ "element": "Lu", "occu": 1 }],
        "abc": [0.333333, 0.666666, 0.750000999999999],
        "properties": { "magmom": -0.0 },
        "label": "Lu",
        "xyz": [6.3666602967416e-7, 5.8547946651994796, 2.7244270075644965]
      },
      {
        "species": [{ "element": "Lu", "occu": 1 }],
        "abc": [0.666667999999999, 0.333333, 0.25],
        "properties": { "magmom": -0.0 },
        "label": "Lu",
        "xyz": [5.070419724545591, 2.9273973225997096, 0.908141125]
      },
      {
        "species": [{ "element": "Br", "occu": 1 }],
        "abc": [0.21558183, 0.43116467, 0.25],
        "properties": { "magmom": 0.0 },
        "label": "Br",
        "xyz": [-4.709345977182977e-6, 3.786574701182453, 0.908141125]
      },
      {
        "species": [{ "element": "Br", "occu": 1 }],
        "abc": [0.56883533, 0.78441817, 0.25],
        "properties": { "magmom": 0.0 },
        "label": "Br",
        "xyz": [1.791133656309547, 6.888917860887648, 0.908141125]
      },
      {
        "species": [{ "element": "Br", "occu": 1 }],
        "abc": [0.21558283, 0.78441817, 0.25],
        "properties": { "magmom": 0.0 },
        "label": "Br",
        "xyz": [-1.7911322594789274, 6.8889178679526974, 0.908141125]
      },
      {
        "species": [{ "element": "Br", "occu": 1 }],
        "abc": [0.78441817, 0.56883633, 0.750000999999999],
        "properties": { "magmom": 0.0 },
        "label": "Br",
        "xyz": [5.070404788942738, 4.995634851018337, 2.7244270075644965]
      },
      {
        "species": [{ "element": "Br", "occu": 1 }],
        "abc": [0.43116367, 0.21558183, 0.750000999999999],
        "properties": { "magmom": 0.0 },
        "label": "Br",
        "xyz": [3.279261352882062, 1.8932829091123722, 2.7244270075644965]
      },
      {
        "species": [{ "element": "Br", "occu": 1 }],
        "abc": [0.78441817, 0.21558183, 0.750000999999999],
        "properties": { "magmom": 0.0 },
        "label": "Br",
        "xyz": [6.861547550287318, 1.8932829020472821, 2.7244270075644965]
      }
    ]
  },
  "task_ids": null,
  "uncorrected_energy_per_atom": null,
  "energy_per_atom": -4.572871288750001,
  "formation_energy_per_atom": -2.214739524166667,
  "energy_above_hull": 0.0,
  "is_stable": true,
  "equilibrium_reaction_energy_per_atom": null,
  "decomposes_to": null,
  "xas": null,
  "grain_boundaries": null,
  "band_gap": 3.0669,
  "cbm": null,
  "vbm": null,
  "efermi": -2.02505193,
  "is_gap_direct": null,
  "is_metal": null,
  "es_source_calc_id": null,
  "bandstructure": null,
  "dos": null,
  "dos_energy_up": null,
  "dos_energy_down": null,
  "is_magnetic": null,
  "ordering": null,
  "total_magnetization": 0.0,
  "total_magnetization_normalized_vol": null,
  "total_magnetization_normalized_formula_units": null,
  "num_magnetic_sites": null,
  "num_unique_magnetic_sites": null,
  "types_of_magnetic_species": null,
  "bulk_modulus": null,
  "shear_modulus": null,
  "universal_anisotropy": null,
  "homogeneous_poisson": null,
  "e_total": null,
  "e_ionic": null,
  "e_electronic": null,
  "n": null,
  "e_ij_max": null,
  "weighted_surface_energy_EV_PER_ANG2": null,
  "weighted_surface_energy": null,
  "weighted_work_function": null,
  "surface_anisotropy": null,
  "shape_factor": null,
  "has_reconstructed": null,
  "possible_species": null,
  "has_props": null,
  "theoretical": null,
  "database_IDs": null,
  "fields_not_requested": [
    "builder_meta",
    "nsites",
    "elements",
    "nelements",
    "composition",
    "composition_reduced",
    "chemsys",
    "symmetry",
    "property_name",
    "deprecated",
    "deprecation_reasons",
    "last_updated",
    "origins",
    "warnings",
    "task_ids",
    "uncorrected_energy_per_atom",
    "equilibrium_reaction_energy_per_atom",
    "decomposes_to",
    "xas",
    "grain_boundaries",
    "cbm",
    "vbm",
    "is_gap_direct",
    "is_metal",
    "es_source_calc_id",
    "bandstructure",
    "dos",
    "dos_energy_up",
    "dos_energy_down",
    "is_magnetic",
    "ordering",
    "total_magnetization_normalized_vol",
    "total_magnetization_normalized_formula_units",
    "num_magnetic_sites",
    "num_unique_magnetic_sites",
    "types_of_magnetic_species",
    "bulk_modulus",
    "shear_modulus",
    "universal_anisotropy",
    "homogeneous_poisson",
    "e_total",
    "e_ionic",
    "e_electronic",
    "n",
    "e_ij_max",
    "weighted_surface_energy_EV_PER_ANG2",
    "weighted_surface_energy",
    "weighted_work_function",
    "surface_anisotropy",
    "shape_factor",
    "has_reconstructed",
    "possible_species",
    "has_props",
    "theoretical",
    "database_IDs"
  ]
}
