{
  "builder_meta": null,
  "nsites": null,
  "elements": null,
  "nelements": null,
  "composition": null,
  "composition_reduced": null,
  "formula_pretty": "LuBr",
  "formula_anonymous": "AB",
  "chemsys": null,
  "volume": 111.22098741844867,
  "density": 7.610492628537964,
  "density_atomic": 27.805246854612168,
  "symmetry": null,
  "property_name": null,
  "material_id": "mp-973976",
  "deprecated": null,
  "deprecation_reasons": null,
  "last_updated": null,
  "origins": null,
  "warnings": null,
  "structure": {
    "@module": "pymatgen.core.structure",
    "@class": "Structure",
    "charge": 0,
    "lattice": {
      "matrix": [
        [1.803437, -3.123645, 0.0],
        [1.803437, 3.123645, 0.0],
        [0.0, 0.0, 9.871749]
      ],
      "pbc": [true, true, true],
      "a": 3.606874422404251,
      "b": 3.606874422404251,
      "c": 9.871749,
      "alpha": 90.0,
      "beta": 90.0,
      "gamma": 120.00000774799355,
      "volume": 111.22098741844867
    },
    "properties": {},
    "sites": [
      {
        "species": [{ "element": "Lu", "occu": 1 }],
        "abc": [0.666667, 0.333333, 0.8309900000000001],
        "properties": { "magmom": -0.0 },
        "label": "Lu",
        "xyz": [1.803437, -1.04121708243, 8.20332470151]
      },
      {
        "species": [{ "element": "Lu", "occu": 1 }],
        "abc": [0.333333, 0.666667, 0.33099],
        "properties": { "magmom": -0.0 },
        "label": "Lu",
        "xyz": [1.803437, 1.04121708243, 3.26745020151]
      },
      {
        "species": [{ "element": "Br", "occu": 1 }],
        "abc": [0.666667, 0.333333, 0.544011],
        "properties": { "magmom": -0.0 },
        "label": "Br",
        "xyz": [1.803437, -1.04121708243, 5.370340045239]
      },
      {
        "species": [{ "element": "Br", "occu": 1 }],
        "abc": [0.333333, 0.666667, 0.044010999999999],
        "properties": { "magmom": -0.0 },
        "label": "Br",
        "xyz": [1.803437, 1.04121708243, 0.4344655452389901]
      }
    ]
  },
  "task_ids": null,
  "uncorrected_energy_per_atom": null,
  "energy_per_atom": -4.2744291675,
  "formation_energy_per_atom": -1.195112173333333,
  "energy_above_hull": 0.28138084277777703,
  "is_stable": false,
  "equilibrium_reaction_energy_per_atom": null,
  "decomposes_to": null,
  "xas": null,
  "grain_boundaries": null,
  "band_gap": 0.0,
  "cbm": null,
  "vbm": null,
  "efermi": 4.33607781,
  "is_gap_direct": null,
  "is_metal": null,
  "es_source_calc_id": null,
  "bandstructure": null,
  "dos": null,
  "dos_energy_up": null,
  "dos_energy_down": null,
  "is_magnetic": null,
  "ordering": null,
  "total_magnetization": 0.0002967,
  "total_magnetization_normalized_vol": null,
  "total_magnetization_normalized_formula_units": null,
  "num_magnetic_sites": null,
  "num_unique_magnetic_sites": null,
  "types_of_magnetic_species": null,
  "bulk_modulus": null,
  "shear_modulus": null,
  "universal_anisotropy": null,
  "homogeneous_poisson": null,
  "e_total": null,
  "e_ionic": null,
  "e_electronic": null,
  "n": null,
  "e_ij_max": null,
  "weighted_surface_energy_EV_PER_ANG2": null,
  "weighted_surface_energy": null,
  "weighted_work_function": null,
  "surface_anisotropy": null,
  "shape_factor": null,
  "has_reconstructed": null,
  "possible_species": null,
  "has_props": null,
  "theoretical": null,
  "database_IDs": null,
  "fields_not_requested": [
    "builder_meta",
    "nsites",
    "elements",
    "nelements",
    "composition",
    "composition_reduced",
    "chemsys",
    "symmetry",
    "property_name",
    "deprecated",
    "deprecation_reasons",
    "last_updated",
    "origins",
    "warnings",
    "task_ids",
    "uncorrected_energy_per_atom",
    "equilibrium_reaction_energy_per_atom",
    "decomposes_to",
    "xas",
    "grain_boundaries",
    "cbm",
    "vbm",
    "is_gap_direct",
    "is_metal",
    "es_source_calc_id",
    "bandstructure",
    "dos",
    "dos_energy_up",
    "dos_energy_down",
    "is_magnetic",
    "ordering",
    "total_magnetization_normalized_vol",
    "total_magnetization_normalized_formula_units",
    "num_magnetic_sites",
    "num_unique_magnetic_sites",
    "types_of_magnetic_species",
    "bulk_modulus",
    "shear_modulus",
    "universal_anisotropy",
    "homogeneous_poisson",
    "e_total",
    "e_ionic",
    "e_electronic",
    "n",
    "e_ij_max",
    "weighted_surface_energy_EV_PER_ANG2",
    "weighted_surface_energy",
    "weighted_work_function",
    "surface_anisotropy",
    "shape_factor",
    "has_reconstructed",
    "possible_species",
    "has_props",
    "theoretical",
    "database_IDs"
  ]
}
