{"builder_meta": null, "nsites": null, "elements": null, "nelements": null, "composition": null, "composition_reduced": null, "formula_pretty": "LuC2", "formula_anonymous": "AB2", "chemsys": null, "volume": 38.51530551217299, "density": 8.579135167337402, "density_atomic": 12.838435170724331, "symmetry": null, "property_name": null, "material_id": "mp-8371", "deprecated": null, "deprecation_reasons": null, "last_updated": null, "origins": null, "warnings": null, "structure": {"@module": "pymatgen.core.structure", "@class": "Structure", "charge": 0, "lattice": {"matrix": [[-1.782956, 1.782956, 3.02895], [1.782956, -1.782956, 3.02895], [1.782956, 1.782956, -3.02895]], "pbc": [true, true, true], "a": 3.9411168846371454, "b": 3.9411168846371454, "c": 3.9411168846371454, "alpha": 126.2046320291787, "beta": 126.2046320291787, "gamma": 79.55207395036255, "volume": 38.51530551217299}, "properties": {}, "sites": [{"species": [{"element": "Lu", "occu": 1}], "abc": [0.0, 0.0, 0.0], "properties": {"magmom": 0.0}, "label": "Lu", "xyz": [0.0, 0.0, 0.0]}, {"species": [{"element": "C", "occu": 1}], "abc": [0.607937, 0.607937, 0.0], "properties": {"magmom": -0.0}, "label": "C", "xyz": [0.0, 0.0, 3.6828215522999996]}, {"species": [{"element": "C", "occu": 1}], "abc": [0.392063, 0.392063, 0.0], "properties": {"magmom": -0.0}, "label": "C", "xyz": [0.0, 0.0, 2.3750784477]}]}, "task_ids": null, "uncorrected_energy_per_atom": null, "energy_per_atom": -7.848635493333333, "formation_energy_per_atom": -0.188962680555556, "energy_above_hull": 0.108263720625001, "is_stable": false, "equilibrium_reaction_energy_per_atom": null, "decomposes_to": null, "xas": null, "grain_boundaries": null, "band_gap": 0.0, "cbm": null, "vbm": null, "efermi": 4.48816351, "is_gap_direct": null, "is_metal": null, "es_source_calc_id": null, "bandstructure": null, "dos": null, "dos_energy_up": null, "dos_energy_down": null, "is_magnetic": null, "ordering": null, "total_magnetization": 0.0003771, "total_magnetization_normalized_vol": null, "total_magnetization_normalized_formula_units": null, "num_magnetic_sites": null, "num_unique_magnetic_sites": null, "types_of_magnetic_species": null, "bulk_modulus": null, "shear_modulus": null, "universal_anisotropy": null, "homogeneous_poisson": null, "e_total": null, "e_ionic": null, "e_electronic": null, "n": null, "e_ij_max": null, "weighted_surface_energy_EV_PER_ANG2": null, "weighted_surface_energy": null, "weighted_work_function": null, "surface_anisotropy": null, "shape_factor": null, "has_reconstructed": null, "possible_species": null, "has_props": null, "theoretical": null, "database_IDs": null, "fields_not_requested": ["builder_meta", "nsites", "elements", "nelements", "composition", "composition_reduced", "chemsys", "symmetry", "property_name", "deprecated", "deprecation_reasons", "last_updated", "origins", "warnings", "task_ids", "uncorrected_energy_per_atom", "equilibrium_reaction_energy_per_atom", "decomposes_to", "xas", "grain_boundaries", "cbm", "vbm", "is_gap_direct", "is_metal", "es_source_calc_id", "bandstructure", "dos", "dos_energy_up", "dos_energy_down", "is_magnetic", "ordering", "total_magnetization_normalized_vol", "total_magnetization_normalized_formula_units", "num_magnetic_sites", "num_unique_magnetic_sites", "types_of_magnetic_species", "bulk_modulus", "shear_modulus", "universal_anisotropy", "homogeneous_poisson", "e_total", "e_ionic", "e_electronic", "n", "e_ij_max", "weighted_surface_energy_EV_PER_ANG2", "weighted_surface_energy", "weighted_work_function", "surface_anisotropy", "shape_factor", "has_reconstructed", "possible_species", "has_props", "theoretical", "database_IDs"]}