{
  "builder_meta": null,
  "nsites": null,
  "elements": null,
  "nelements": null,
  "composition": null,
  "composition_reduced": null,
  "formula_pretty": "LuCd3",
  "formula_anonymous": "AB3",
  "chemsys": null,
  "volume": 179.472518202642,
  "density": 9.478087435672917,
  "density_atomic": 22.43406477533025,
  "symmetry": null,
  "property_name": null,
  "material_id": "mp-11306",
  "deprecated": null,
  "deprecation_reasons": null,
  "last_updated": null,
  "origins": null,
  "warnings": null,
  "structure": {
    "@module": "pymatgen.core.structure",
    "@class": "Structure",
    "charge": 0,
    "lattice": {
      "matrix": [
        [4.77431506, -0.0, -0.0],
        [-0.0, 5.91085741, -2.34216693],
        [0.0, 0.00431767, 6.35798575]
      ],
      "pbc": [true, true, true],
      "a": 4.77431506,
      "b": 6.357985628273906,
      "c": 6.357987216051735,
      "alpha": 111.57695122258103,
      "beta": 90.0,
      "gamma": 90.0,
      "volume": 179.47251820264196
    },
    "properties": {},
    "sites": [
      {
        "species": [{ "element": "Lu", "occu": 1 }],
        "abc": [0.75, 0.37150683, 0.62849317],
        "properties": { "magmom": 0.0 },
        "label": "Lu",
        "xyz": [3.5807362950000003, 2.1986375250764243, 3.125819607337196]
      },
      {
        "species": [{ "element": "Lu", "occu": 1 }],
        "abc": [0.25, 0.62849317, 0.37150683],
        "properties": { "magmom": 0.0 },
        "label": "Lu",
        "xyz": [1.193578765, 3.716537554923576, 0.8899992126628042]
      },
      {
        "species": [{ "element": "Cd", "occu": 1 }],
        "abc": [0.75, 0.82111772, 0.17888228],
        "properties": { "magmom": 0.0 },
        "label": "Cd",
        "xyz": [3.5807362950000003, 4.854282114398194, -0.7858637822534895]
      },
      {
        "species": [{ "element": "Cd", "occu": 1 }],
        "abc": [0.25, 0.17888228, 0.82111772],
        "properties": { "magmom": 0.0 },
        "label": "Cd",
        "xyz": [1.193578765, 1.0608929656018073, 4.80168260225349]
      },
      {
        "species": [{ "element": "Cd", "occu": 1 }],
        "abc": [0.75, 0.31119956, 0.11680837000000001],
        "properties": { "magmom": -0.0 },
        "label": "Cd",
        "xyz": [3.5807362950000003, 1.8399605652096374, 0.013784633878176855]
      },
      {
        "species": [{ "element": "Cd", "occu": 1 }],
        "abc": [0.25, 0.6888004400000001, 0.88319163],
        "properties": { "magmom": -0.0 },
        "label": "Cd",
        "xyz": [1.193578765, 4.075214514790363, 4.002034186121823]
      },
      {
        "species": [{ "element": "Cd", "occu": 1 }],
        "abc": [0.25, 0.11680837000000001, 0.31119956],
        "properties": { "magmom": -0.0 },
        "label": "Cd",
        "xyz": [1.193578765, 0.691781276368747, 1.7050176665250658]
      },
      {
        "species": [{ "element": "Cd", "occu": 1 }],
        "abc": [0.75, 0.88319163, 0.6888004400000001],
        "properties": { "magmom": -0.0 },
        "label": "Cd",
        "xyz": [3.5807362950000003, 5.223393803631254, 2.310801153474935]
      }
    ]
  },
  "task_ids": null,
  "uncorrected_energy_per_atom": null,
  "energy_per_atom": -24.86610636875,
  "formation_energy_per_atom": -0.26739555541666604,
  "energy_above_hull": 0.0,
  "is_stable": true,
  "equilibrium_reaction_energy_per_atom": null,
  "decomposes_to": null,
  "xas": null,
  "grain_boundaries": null,
  "band_gap": 0.0,
  "cbm": null,
  "vbm": null,
  "efermi": 3.05062981,
  "is_gap_direct": null,
  "is_metal": null,
  "es_source_calc_id": null,
  "bandstructure": null,
  "dos": null,
  "dos_energy_up": null,
  "dos_energy_down": null,
  "is_magnetic": null,
  "ordering": null,
  "total_magnetization": 3e-6,
  "total_magnetization_normalized_vol": null,
  "total_magnetization_normalized_formula_units": null,
  "num_magnetic_sites": null,
  "num_unique_magnetic_sites": null,
  "types_of_magnetic_species": null,
  "bulk_modulus": null,
  "shear_modulus": null,
  "universal_anisotropy": null,
  "homogeneous_poisson": null,
  "e_total": null,
  "e_ionic": null,
  "e_electronic": null,
  "n": null,
  "e_ij_max": null,
  "weighted_surface_energy_EV_PER_ANG2": null,
  "weighted_surface_energy": null,
  "weighted_work_function": null,
  "surface_anisotropy": null,
  "shape_factor": null,
  "has_reconstructed": null,
  "possible_species": null,
  "has_props": null,
  "theoretical": null,
  "database_IDs": null,
  "fields_not_requested": [
    "builder_meta",
    "nsites",
    "elements",
    "nelements",
    "composition",
    "composition_reduced",
    "chemsys",
    "symmetry",
    "property_name",
    "deprecated",
    "deprecation_reasons",
    "last_updated",
    "origins",
    "warnings",
    "task_ids",
    "uncorrected_energy_per_atom",
    "equilibrium_reaction_energy_per_atom",
    "decomposes_to",
    "xas",
    "grain_boundaries",
    "cbm",
    "vbm",
    "is_gap_direct",
    "is_metal",
    "es_source_calc_id",
    "bandstructure",
    "dos",
    "dos_energy_up",
    "dos_energy_down",
    "is_magnetic",
    "ordering",
    "total_magnetization_normalized_vol",
    "total_magnetization_normalized_formula_units",
    "num_magnetic_sites",
    "num_unique_magnetic_sites",
    "types_of_magnetic_species",
    "bulk_modulus",
    "shear_modulus",
    "universal_anisotropy",
    "homogeneous_poisson",
    "e_total",
    "e_ionic",
    "e_electronic",
    "n",
    "e_ij_max",
    "weighted_surface_energy_EV_PER_ANG2",
    "weighted_surface_energy",
    "weighted_work_function",
    "surface_anisotropy",
    "shape_factor",
    "has_reconstructed",
    "possible_species",
    "has_props",
    "theoretical",
    "database_IDs"
  ]
}
