{"builder_meta": null, "nsites": null, "elements": null, "nelements": null, "composition": null, "composition_reduced": null, "formula_pretty": "LuCl3", "formula_anonymous": "AB3", "chemsys": null, "volume": 269.3588552909042, "density": 3.468627849236977, "density_atomic": 33.66985691136303, "symmetry": null, "property_name": null, "material_id": "mp-865324", "deprecated": null, "deprecation_reasons": null, "last_updated": null, "origins": null, "warnings": null, "structure": {"@module": "pymatgen.core.structure", "@class": "Structure", "charge": 0, "lattice": {"matrix": [[9.46366212, 3.509999999999997e-06, -1.95e-06], [-4.73182846, 8.19635916, -9.699999999999996e-07], [-9.3e-07, -9.3e-07, 3.47256959]], "pbc": [true, true, true], "a": 9.463662120000853, "b": 9.464169485727885, "c": 3.472569590000249, "alpha": 90.00001148950555, "beta": 90.00002715044273, "gamma": 119.99818721507826, "volume": 269.35885529090416}, "properties": {}, "sites": [{"species": [{"element": "Lu", "occu": 1}], "abc": [0.66660903, 0.33321506, 0.249998], "properties": {"magmom": 0.0}, "label": "Lu", "xyz": [4.731845889354197, 2.731152416580505, 0.8681338292546034]}, {"species": [{"element": "Lu", "occu": 1}], "abc": [0.33339297, 0.66678594, 0.75], "properties": {"magmom": 0.0}, "label": "Lu", "xyz": [1.0361434439130243e-06, 5.465217519787536, 2.604425895601347]}, {"species": [{"element": "Cl", "occu": 1}], "abc": [0.78393281, 0.21591127000000002, 0.75], "properties": {"magmom": 0.0}, "label": "Cl", "xyz": [6.397219448901413, 1.7696883697158965, 2.604425454397089]}, {"species": [{"element": "Cl", "occu": 1}], "abc": [0.43198146, 0.21591027000000002, 0.75], "properties": {"magmom": 0.0}, "label": "Cl", "xyz": [3.066475521652011, 1.7696789380074978, 2.6044261407031915]}, {"species": [{"element": "Cl", "occu": 1}], "abc": [0.7839758800000001, 0.5679527600000001, 0.749999], "properties": {"magmom": 0.0}, "label": "Cl", "xyz": [4.731827107347048, 4.655146861129551, 2.6044216402632667]}, {"species": [{"element": "Cl", "occu": 1}], "abc": [0.21606919, 0.7840907300000001, 0.249999], "properties": {"magmom": 0.0}, "label": "Cl", "xyz": [-1.6653772552331632, 6.4266897630103745, 0.8681377430274814]}, {"species": [{"element": "Cl", "occu": 1}], "abc": [0.56802054, 0.78408973, 0.25], "properties": {"magmom": 0.0}, "label": "Cl", "xyz": [1.6653761356722299, 6.426682801999522, 0.8681405292929089]}, {"species": [{"element": "Cl", "occu": 1}], "abc": [0.21602412000000001, 0.43204924, 0.249999], "properties": {"magmom": 0.0}, "label": "Cl", "xyz": [-3.841002105490429e-06, 3.5412312715906293, 0.8681380845956133]}]}, "task_ids": null, "uncorrected_energy_per_atom": null, "energy_per_atom": -16.5529196225, "formation_energy_per_atom": -2.418620403541664, "energy_above_hull": 0.0, "is_stable": true, "equilibrium_reaction_energy_per_atom": null, "decomposes_to": null, "xas": null, "grain_boundaries": null, "band_gap": 3.8453, "cbm": null, "vbm": null, "efermi": -2.48362066, "is_gap_direct": null, "is_metal": null, "es_source_calc_id": null, "bandstructure": null, "dos": null, "dos_energy_up": null, "dos_energy_down": null, "is_magnetic": null, "ordering": null, "total_magnetization": 0.0, "total_magnetization_normalized_vol": null, "total_magnetization_normalized_formula_units": null, "num_magnetic_sites": null, "num_unique_magnetic_sites": null, "types_of_magnetic_species": null, "bulk_modulus": null, "shear_modulus": null, "universal_anisotropy": null, "homogeneous_poisson": null, "e_total": null, "e_ionic": null, "e_electronic": null, "n": null, "e_ij_max": null, "weighted_surface_energy_EV_PER_ANG2": null, "weighted_surface_energy": null, "weighted_work_function": null, "surface_anisotropy": null, "shape_factor": null, "has_reconstructed": null, "possible_species": null, "has_props": null, "theoretical": null, "database_IDs": null, "fields_not_requested": ["builder_meta", "nsites", "elements", "nelements", "composition", "composition_reduced", "chemsys", "symmetry", "property_name", "deprecated", "deprecation_reasons", "last_updated", "origins", "warnings", "task_ids", "uncorrected_energy_per_atom", "equilibrium_reaction_energy_per_atom", "decomposes_to", "xas", "grain_boundaries", "cbm", "vbm", "is_gap_direct", "is_metal", "es_source_calc_id", "bandstructure", "dos", "dos_energy_up", "dos_energy_down", "is_magnetic", "ordering", "total_magnetization_normalized_vol", "total_magnetization_normalized_formula_units", "num_magnetic_sites", "num_unique_magnetic_sites", "types_of_magnetic_species", "bulk_modulus", "shear_modulus", "universal_anisotropy", "homogeneous_poisson", "e_total", "e_ionic", "e_electronic", "n", "e_ij_max", "weighted_surface_energy_EV_PER_ANG2", "weighted_surface_energy", "weighted_work_function", "surface_anisotropy", "shape_factor", "has_reconstructed", "possible_species", "has_props", "theoretical", "database_IDs"]}