{"builder_meta": null, "nsites": null, "elements": null, "nelements": null, "composition": null, "composition_reduced": null, "formula_pretty": "LuCo3", "formula_anonymous": "AB3", "chemsys": null, "volume": 168.89800402883313, "density": 10.375294132260771, "density_atomic": 14.074833669069427, "symmetry": null, "property_name": null, "material_id": "mp-1101900", "deprecated": null, "deprecation_reasons": null, "last_updated": null, "origins": null, "warnings": null, "structure": {"@module": "pymatgen.core.structure", "@class": "Structure", "charge": 0, "lattice": {"matrix": [[-2.460214, -4.261215, 0.0], [-4.920428, 0.0, 0.0], [-2.460214, -1.420405, -8.05542]], "pbc": [true, true, true], "a": 4.920427440987317, "b": 4.920428, "c": 8.541662289403684, "alpha": 73.26023542148023, "beta": 73.26023607409381, "gamma": 59.999996241791735, "volume": 168.89800402883313}, "properties": {}, "sites": [{"species": [{"element": "Lu", "occu": 1}], "abc": [0.860263999999999, 0.860263999999999, 0.419207], "properties": {"magmom": 0.057}, "label": "Lu", "xyz": [-7.380639539785993, -4.261213579594996, -3.3768884519399998]}, {"species": [{"element": "Lu", "occu": 1}], "abc": [0.139736, 0.139736, 0.580793], "properties": {"magmom": 0.057}, "label": "Lu", "xyz": [-2.460216460214, -1.420406420405, -4.67853154806]}, {"species": [{"element": "Lu", "occu": 1}], "abc": [0.0, 0.0, 0.0], "properties": {"magmom": 0.035}, "label": "Lu", "xyz": [0.0, 0.0, 0.0]}, {"species": [{"element": "Co", "occu": 1}], "abc": [0.416593, 0.416593, 0.245722], "properties": {"magmom": -0.463}, "label": "Co", "xyz": [-3.679252497214, -2.124217097905, -1.97939391324]}, {"species": [{"element": "Co", "occu": 1}], "abc": [0.921091999999999, 0.416593, 0.245722], "properties": {"magmom": -0.463}, "label": "Co", "xyz": [-4.920427999999997, -4.273995804189996, -1.97939391324]}, {"species": [{"element": "Co", "occu": 1}], "abc": [0.416593, 0.921091999999999, 0.245722], "properties": {"magmom": -0.463}, "label": "Co", "xyz": [-6.161603502785995, -2.124217097905, -1.97939391324]}, {"species": [{"element": "Co", "occu": 1}], "abc": [0.583407, 0.583407, 0.754278], "properties": {"magmom": -0.463}, "label": "Co", "xyz": [-6.161603502786001, -3.557402902095, -6.07602608676]}, {"species": [{"element": "Co", "occu": 1}], "abc": [0.078907999999999, 0.583407, 0.754278], "properties": {"magmom": -0.463}, "label": "Co", "xyz": [-4.920427999999998, -1.4076241958099955, -6.07602608676]}, {"species": [{"element": "Co", "occu": 1}], "abc": [0.583407, 0.078907999999999, 0.754278], "properties": {"magmom": -0.463}, "label": "Co", "xyz": [-3.6792524972139953, -3.557402902095, -6.07602608676]}, {"species": [{"element": "Co", "occu": 1}], "abc": [0.665419, 0.665419, 0.003744], "properties": {"magmom": 0.9480000000000001}, "label": "Co", "xyz": [-4.920430460214, -2.840811420405, -0.030159492479999998]}, {"species": [{"element": "Co", "occu": 1}], "abc": [0.334580999999999, 0.334580999999999, 0.996255999999999], "properties": {"magmom": 0.9480000000000001}, "label": "Co", "xyz": [-4.920425539785991, -2.840808579594994, -8.025260507519992]}, {"species": [{"element": "Co", "occu": 1}], "abc": [0.5, 0.5, 0.5], "properties": {"magmom": 0.184}, "label": "Co", "xyz": [-4.920428, -2.84081, -4.02771]}]}, "task_ids": null, "uncorrected_energy_per_atom": null, "energy_per_atom": -6.636795759999999, "formation_energy_per_atom": -0.156311356666666, "energy_above_hull": 0.044197805833333006, "is_stable": false, "equilibrium_reaction_energy_per_atom": null, "decomposes_to": null, "xas": null, "grain_boundaries": null, "band_gap": 0.0, "cbm": null, "vbm": null, "efermi": 4.4031372, "is_gap_direct": null, "is_metal": null, "es_source_calc_id": null, "bandstructure": null, "dos": null, "dos_energy_up": null, "dos_energy_down": null, "is_magnetic": null, "ordering": null, "total_magnetization": 0.420350499999999, "total_magnetization_normalized_vol": null, "total_magnetization_normalized_formula_units": null, "num_magnetic_sites": null, "num_unique_magnetic_sites": null, "types_of_magnetic_species": null, "bulk_modulus": null, "shear_modulus": null, "universal_anisotropy": null, "homogeneous_poisson": null, "e_total": null, "e_ionic": null, "e_electronic": null, "n": null, "e_ij_max": null, "weighted_surface_energy_EV_PER_ANG2": null, "weighted_surface_energy": null, "weighted_work_function": null, "surface_anisotropy": null, "shape_factor": null, "has_reconstructed": null, "possible_species": null, "has_props": null, "theoretical": null, "database_IDs": null, "fields_not_requested": ["builder_meta", "nsites", "elements", "nelements", "composition", "composition_reduced", "chemsys", "symmetry", "property_name", "deprecated", "deprecation_reasons", "last_updated", "origins", "warnings", "task_ids", "uncorrected_energy_per_atom", "equilibrium_reaction_energy_per_atom", "decomposes_to", "xas", "grain_boundaries", "cbm", "vbm", "is_gap_direct", "is_metal", "es_source_calc_id", "bandstructure", "dos", "dos_energy_up", "dos_energy_down", "is_magnetic", "ordering", "total_magnetization_normalized_vol", "total_magnetization_normalized_formula_units", "num_magnetic_sites", "num_unique_magnetic_sites", "types_of_magnetic_species", "bulk_modulus", "shear_modulus", "universal_anisotropy", "homogeneous_poisson", "e_total", "e_ionic", "e_electronic", "n", "e_ij_max", "weighted_surface_energy_EV_PER_ANG2", "weighted_surface_energy", "weighted_work_function", "surface_anisotropy", "shape_factor", "has_reconstructed", "possible_species", "has_props", "theoretical", "database_IDs"]}