{
  "builder_meta": null,
  "nsites": null,
  "elements": null,
  "nelements": null,
  "composition": null,
  "composition_reduced": null,
  "formula_pretty": "LuCo2",
  "formula_anonymous": "AB2",
  "chemsys": null,
  "volume": 87.55690043962464,
  "density": 11.107320648821231,
  "density_atomic": 14.59281673993744,
  "symmetry": null,
  "property_name": null,
  "material_id": "mp-2206",
  "deprecated": null,
  "deprecation_reasons": null,
  "last_updated": null,
  "origins": null,
  "warnings": null,
  "structure": {
    "@module": "pymatgen.core.structure",
    "@class": "Structure",
    "charge": 0,
    "lattice": {
      "matrix": [
        [4.31647156, 1.3260000000000002e-5, 2.49213124],
        [1.43879832, 4.06970105, 2.49219826],
        [-6.67e-6, 7.951000000000004e-5, 4.98427449]
      ],
      "pbc": [true, true, true],
      "a": 4.9842396457081195,
      "b": 4.984341421808196,
      "c": 4.984274490638641,
      "alpha": 59.998798161265114,
      "beta": 59.99992512685247,
      "gamma": 60.0002794320972,
      "volume": 87.55690043962464
    },
    "properties": {},
    "sites": [
      {
        "species": [{ "element": "Lu", "occu": 1 }],
        "abc": [0.87500604, 0.87500045, 0.8749909],
        "properties": { "magmom": 0.498 },
        "label": "Lu",
        "xyz": [5.035882027758164, 3.561071423222022, 8.722499308314049]
      },
      {
        "species": [{ "element": "Lu", "occu": 1 }],
        "abc": [0.12499396, 0.12499955, 0.125009099999999],
        "properties": { "magmom": 0.498 },
        "label": "Lu",
        "xyz": [0.7193811822418366, 0.5087223967779781, 1.2461046816859476]
      },
      {
        "species": [{ "element": "Co", "occu": 1 }],
        "abc": [0.5, 0.5, 0.5],
        "properties": { "magmom": -1.449 },
        "label": "Co",
        "xyz": [2.877631605, 2.03489691, 4.984301994999999]
      },
      {
        "species": [{ "element": "Co", "occu": 1 }],
        "abc": [0.5, 0.5, 0.0],
        "properties": { "magmom": -1.449 },
        "label": "Co",
        "xyz": [2.87763494, 2.034857155, 2.4921647499999997]
      },
      {
        "species": [{ "element": "Co", "occu": 1 }],
        "abc": [-0.0, 0.5, 0.5],
        "properties": { "magmom": -1.449 },
        "label": "Co",
        "xyz": [0.719395825, 2.03489028, 3.7382363749999996]
      },
      {
        "species": [{ "element": "Co", "occu": 1 }],
        "abc": [0.5, -0.0, 0.5],
        "properties": { "magmom": -1.448 },
        "label": "Co",
        "xyz": [2.158232445, 4.6385000000000024e-5, 3.738202865]
      }
    ]
  },
  "task_ids": null,
  "uncorrected_energy_per_atom": null,
  "energy_per_atom": -6.508149461666666,
  "formation_energy_per_atom": -0.24530916388888901,
  "energy_above_hull": 0.0,
  "is_stable": true,
  "equilibrium_reaction_energy_per_atom": null,
  "decomposes_to": null,
  "xas": null,
  "grain_boundaries": null,
  "band_gap": 0.0,
  "cbm": null,
  "vbm": null,
  "efermi": 4.56346379,
  "is_gap_direct": null,
  "is_metal": null,
  "es_source_calc_id": null,
  "bandstructure": null,
  "dos": null,
  "dos_energy_up": null,
  "dos_energy_down": null,
  "is_magnetic": null,
  "ordering": null,
  "total_magnetization": 4.4319283,
  "total_magnetization_normalized_vol": null,
  "total_magnetization_normalized_formula_units": null,
  "num_magnetic_sites": null,
  "num_unique_magnetic_sites": null,
  "types_of_magnetic_species": null,
  "bulk_modulus": null,
  "shear_modulus": null,
  "universal_anisotropy": null,
  "homogeneous_poisson": null,
  "e_total": null,
  "e_ionic": null,
  "e_electronic": null,
  "n": null,
  "e_ij_max": null,
  "weighted_surface_energy_EV_PER_ANG2": null,
  "weighted_surface_energy": null,
  "weighted_work_function": null,
  "surface_anisotropy": null,
  "shape_factor": null,
  "has_reconstructed": null,
  "possible_species": null,
  "has_props": null,
  "theoretical": null,
  "database_IDs": null,
  "fields_not_requested": [
    "builder_meta",
    "nsites",
    "elements",
    "nelements",
    "composition",
    "composition_reduced",
    "chemsys",
    "symmetry",
    "property_name",
    "deprecated",
    "deprecation_reasons",
    "last_updated",
    "origins",
    "warnings",
    "task_ids",
    "uncorrected_energy_per_atom",
    "equilibrium_reaction_energy_per_atom",
    "decomposes_to",
    "xas",
    "grain_boundaries",
    "cbm",
    "vbm",
    "is_gap_direct",
    "is_metal",
    "es_source_calc_id",
    "bandstructure",
    "dos",
    "dos_energy_up",
    "dos_energy_down",
    "is_magnetic",
    "ordering",
    "total_magnetization_normalized_vol",
    "total_magnetization_normalized_formula_units",
    "num_magnetic_sites",
    "num_unique_magnetic_sites",
    "types_of_magnetic_species",
    "bulk_modulus",
    "shear_modulus",
    "universal_anisotropy",
    "homogeneous_poisson",
    "e_total",
    "e_ionic",
    "e_electronic",
    "n",
    "e_ij_max",
    "weighted_surface_energy_EV_PER_ANG2",
    "weighted_surface_energy",
    "weighted_work_function",
    "surface_anisotropy",
    "shape_factor",
    "has_reconstructed",
    "possible_species",
    "has_props",
    "theoretical",
    "database_IDs"
  ]
}
