{
  "builder_meta": null,
  "nsites": null,
  "elements": null,
  "nelements": null,
  "composition": null,
  "composition_reduced": null,
  "formula_pretty": "LuCu5",
  "formula_anonymous": "AB5",
  "chemsys": null,
  "volume": 81.79852462237203,
  "density": 10.001923876666803,
  "density_atomic": 13.633087437062004,
  "symmetry": null,
  "property_name": null,
  "material_id": "mp-580136",
  "deprecated": null,
  "deprecation_reasons": null,
  "last_updated": null,
  "origins": null,
  "warnings": null,
  "structure": {
    "@module": "pymatgen.core.structure",
    "@class": "Structure",
    "charge": 0,
    "lattice": {
      "matrix": [
        [4.21964883, -0.00011729, 2.43594174],
        [1.40639012, 3.97837708, 2.43602585],
        [-0.00028373, -9.818e-5, 4.8723758]
      ],
      "pbc": [true, true, true],
      "a": 4.872293959004479,
      "b": 4.872334071281562,
      "c": 4.8723758092503155,
      "alpha": 60.00411766968159,
      "beta": 60.0061232923477,
      "gamma": 60.00473506118195,
      "volume": 81.79852462237203
    },
    "properties": {},
    "sites": [
      {
        "species": [{ "element": "Lu", "occu": 1 }],
        "abc": [2.059999999999999e-6, 2.041e-5, 8.099999999999999e-6],
        "properties": { "magmom": 0.0 },
        "label": "Lu",
        "xyz": [
          3.739460072599999e-5, 8.119763932740001e-5, 9.420357156289999e-5
        ]
      },
      {
        "species": [{ "element": "Cu", "occu": 1 }],
        "abc": [0.62421876, 0.62418841, 0.12741352],
        "properties": { "magmom": -0.0 },
        "label": "Cu",
        "xyz": [3.51180022210253, 2.483171139867889, 3.661906185846257]
      },
      {
        "species": [{ "element": "Cu", "occu": 1 }],
        "abc": [0.12740629, 0.62421236, 0.6242113300000001],
        "properties": { "magmom": -0.0 },
        "label": "Cu",
        "xyz": [1.415318790938363, 2.4832759175245758, 4.8723439229768655]
      },
      {
        "species": [{ "element": "Cu", "occu": 1 }],
        "abc": [0.24998835, 0.24993696, 0.25000854],
        "properties": { "magmom": 0.0 },
        "label": "Cu",
        "xyz": [1.4063009848349115, 0.9942896061368481, 2.435945511798477]
      },
      {
        "species": [{ "element": "Cu", "occu": 1 }],
        "abc": [0.62420136, 0.12742488, 0.62417384],
        "properties": { "magmom": -0.0 },
        "label": "Cu",
        "xyz": [2.8129425338389713, 0.5068097280486248, 4.872137961610987]
      },
      {
        "species": [{ "element": "Cu", "occu": 1 }],
        "abc": [0.6241791800000001, 0.62421497, 0.62418467],
        "properties": { "magmom": -0.0 },
        "label": "Cu",
        "xyz": [3.511529613245037, 2.483228037213965, 6.0823302015169345]
      }
    ]
  },
  "task_ids": null,
  "uncorrected_energy_per_atom": null,
  "energy_per_atom": -15.58786213,
  "formation_energy_per_atom": -0.202218766111111,
  "energy_above_hull": 0.0,
  "is_stable": true,
  "equilibrium_reaction_energy_per_atom": null,
  "decomposes_to": null,
  "xas": null,
  "grain_boundaries": null,
  "band_gap": 0.0,
  "cbm": null,
  "vbm": null,
  "efermi": 5.81229427,
  "is_gap_direct": null,
  "is_metal": null,
  "es_source_calc_id": null,
  "bandstructure": null,
  "dos": null,
  "dos_energy_up": null,
  "dos_energy_down": null,
  "is_magnetic": null,
  "ordering": null,
  "total_magnetization": 2.899999999999999e-6,
  "total_magnetization_normalized_vol": null,
  "total_magnetization_normalized_formula_units": null,
  "num_magnetic_sites": null,
  "num_unique_magnetic_sites": null,
  "types_of_magnetic_species": null,
  "bulk_modulus": null,
  "shear_modulus": null,
  "universal_anisotropy": null,
  "homogeneous_poisson": null,
  "e_total": null,
  "e_ionic": null,
  "e_electronic": null,
  "n": null,
  "e_ij_max": null,
  "weighted_surface_energy_EV_PER_ANG2": null,
  "weighted_surface_energy": null,
  "weighted_work_function": null,
  "surface_anisotropy": null,
  "shape_factor": null,
  "has_reconstructed": null,
  "possible_species": null,
  "has_props": null,
  "theoretical": null,
  "database_IDs": null,
  "fields_not_requested": [
    "builder_meta",
    "nsites",
    "elements",
    "nelements",
    "composition",
    "composition_reduced",
    "chemsys",
    "symmetry",
    "property_name",
    "deprecated",
    "deprecation_reasons",
    "last_updated",
    "origins",
    "warnings",
    "task_ids",
    "uncorrected_energy_per_atom",
    "equilibrium_reaction_energy_per_atom",
    "decomposes_to",
    "xas",
    "grain_boundaries",
    "cbm",
    "vbm",
    "is_gap_direct",
    "is_metal",
    "es_source_calc_id",
    "bandstructure",
    "dos",
    "dos_energy_up",
    "dos_energy_down",
    "is_magnetic",
    "ordering",
    "total_magnetization_normalized_vol",
    "total_magnetization_normalized_formula_units",
    "num_magnetic_sites",
    "num_unique_magnetic_sites",
    "types_of_magnetic_species",
    "bulk_modulus",
    "shear_modulus",
    "universal_anisotropy",
    "homogeneous_poisson",
    "e_total",
    "e_ionic",
    "e_electronic",
    "n",
    "e_ij_max",
    "weighted_surface_energy_EV_PER_ANG2",
    "weighted_surface_energy",
    "weighted_work_function",
    "surface_anisotropy",
    "shape_factor",
    "has_reconstructed",
    "possible_species",
    "has_props",
    "theoretical",
    "database_IDs"
  ]
}
