{"builder_meta": null, "nsites": null, "elements": null, "nelements": null, "composition": null, "composition_reduced": null, "formula_pretty": "LuCu2", "formula_anonymous": "AB2", "chemsys": null, "volume": 99.10089096977995, "density": 10.122628868615976, "density_atomic": 16.516815161629992, "symmetry": null, "property_name": null, "material_id": "mp-1025122", "deprecated": null, "deprecation_reasons": null, "last_updated": null, "origins": null, "warnings": null, "structure": {"@module": "pymatgen.core.structure", "@class": "Structure", "charge": 0, "lattice": {"matrix": [[-4.22036238, -0.0, -0.0], [-2.11018018, -3.27895202, 3.58065731], [-2.11018018, 3.27895202, 3.58065731]], "pbc": [true, true, true], "a": 4.22036238, "b": 5.293910984629733, "c": 5.293910984629733, "alpha": 76.54200594102255, "beta": 66.5089914377914, "gamma": 66.5089914377914, "volume": 99.10089096977995}, "properties": {}, "sites": [{"species": [{"element": "Lu", "occu": 1}], "abc": [0.45235689, 0.29764311, 0.79764311], "properties": {"magmom": -0.0}, "label": "Lu", "xyz": [-4.2203612737609175, 1.63947601, 3.921844610185268]}, {"species": [{"element": "Lu", "occu": 1}], "abc": [0.54764311, 0.70235689, 0.20235689], "properties": {"magmom": -0.0}, "label": "Lu", "xyz": [-4.2203614662390825, -1.63947601, 3.239470009814732]}, {"species": [{"element": "Cu", "occu": 1}], "abc": [0.83650314, 0.11101823, 0.21597449], "properties": {"magmom": 0.0}, "label": "Cu", "xyz": [-4.220359939556163, 0.34414654073864515, 1.170848873184783]}, {"species": [{"element": "Cu", "occu": 1}], "abc": [0.16349686, 0.88898177, 0.78402551], "properties": {"magmom": 0.0}, "label": "Cu", "xyz": [-4.220362800443837, -0.34414654073864526, 5.990465746815216]}, {"species": [{"element": "Cu", "occu": 1}], "abc": [0.83650314, 0.71597449, 0.61101823], "properties": {"magmom": 0.0}, "label": "Cu", "xyz": [-6.330540119556163, -0.34414654073864526, 4.751506183184784]}, {"species": [{"element": "Cu", "occu": 1}], "abc": [0.16349686, 0.28402551, 0.38898177], "properties": {"magmom": 0.0}, "label": "Cu", "xyz": [-2.1101826204438368, 0.34414654073864537, 2.409808436815217]}]}, "task_ids": null, "uncorrected_energy_per_atom": null, "energy_per_atom": -20.22563775, "formation_energy_per_atom": -0.301147022222219, "energy_above_hull": 0.0, "is_stable": true, "equilibrium_reaction_energy_per_atom": null, "decomposes_to": null, "xas": null, "grain_boundaries": null, "band_gap": 0.0, "cbm": null, "vbm": null, "efermi": 5.11128656, "is_gap_direct": null, "is_metal": null, "es_source_calc_id": null, "bandstructure": null, "dos": null, "dos_energy_up": null, "dos_energy_down": null, "is_magnetic": null, "ordering": null, "total_magnetization": 1.7e-06, "total_magnetization_normalized_vol": null, "total_magnetization_normalized_formula_units": null, "num_magnetic_sites": null, "num_unique_magnetic_sites": null, "types_of_magnetic_species": null, "bulk_modulus": null, "shear_modulus": null, "universal_anisotropy": null, "homogeneous_poisson": null, "e_total": null, "e_ionic": null, "e_electronic": null, "n": null, "e_ij_max": null, "weighted_surface_energy_EV_PER_ANG2": null, "weighted_surface_energy": null, "weighted_work_function": null, "surface_anisotropy": null, "shape_factor": null, "has_reconstructed": null, "possible_species": null, "has_props": null, "theoretical": null, "database_IDs": null, "fields_not_requested": ["builder_meta", "nsites", "elements", "nelements", "composition", "composition_reduced", "chemsys", "symmetry", "property_name", "deprecated", "deprecation_reasons", "last_updated", "origins", "warnings", "task_ids", "uncorrected_energy_per_atom", "equilibrium_reaction_energy_per_atom", "decomposes_to", "xas", "grain_boundaries", "cbm", "vbm", "is_gap_direct", "is_metal", "es_source_calc_id", "bandstructure", "dos", "dos_energy_up", "dos_energy_down", "is_magnetic", "ordering", "total_magnetization_normalized_vol", "total_magnetization_normalized_formula_units", "num_magnetic_sites", "num_unique_magnetic_sites", "types_of_magnetic_species", "bulk_modulus", "shear_modulus", "universal_anisotropy", "homogeneous_poisson", "e_total", "e_ionic", "e_electronic", "n", "e_ij_max", "weighted_surface_energy_EV_PER_ANG2", "weighted_surface_energy", "weighted_work_function", "surface_anisotropy", "shape_factor", "has_reconstructed", "possible_species", "has_props", "theoretical", "database_IDs"]}