{
  "builder_meta": null,
  "nsites": null,
  "elements": null,
  "nelements": null,
  "composition": null,
  "composition_reduced": null,
  "formula_pretty": "LuF3",
  "formula_anonymous": "AB3",
  "chemsys": null,
  "volume": 253.16934832653607,
  "density": 9.128648003284791,
  "density_atomic": 10.548722846939002,
  "symmetry": null,
  "property_name": null,
  "material_id": "mp-1210818",
  "deprecated": null,
  "deprecation_reasons": null,
  "last_updated": null,
  "origins": null,
  "warnings": null,
  "structure": {
    "@module": "pymatgen.core.structure",
    "@class": "Structure",
    "charge": 0,
    "lattice": {
      "matrix": [
        [-3.28774157, -5.6945377, -0.0],
        [-3.28774157, 5.6945377, 0.0],
        [0.0, -0.0, -6.76121868]
      ],
      "pbc": [true, true, true],
      "a": 6.575485096008306,
      "b": 6.575485096008306,
      "c": 6.76121868,
      "alpha": 90.0,
      "beta": 90.0,
      "gamma": 120.00001968044329,
      "volume": 253.16934832653607
    },
    "properties": {},
    "sites": [
      {
        "species": [{ "element": "Lu", "occu": 1 }],
        "abc": [0.6531517, 0.6531517, 0.75],
        "properties": { "magmom": -0.0 },
        "label": "Lu",
        "xyz": [-4.294787991212338, 0.0, -5.07091401]
      },
      {
        "species": [{ "element": "Lu", "occu": 1 }],
        "abc": [0.3468483, 0.3468483, 0.25],
        "properties": { "magmom": -0.0 },
        "label": "Lu",
        "xyz": [-2.280695148787662, 0.0, -1.69030467]
      },
      {
        "species": [{ "element": "Lu", "occu": 1 }],
        "abc": [0.0, 0.3468483, 0.75],
        "properties": { "magmom": -0.0 },
        "label": "Lu",
        "xyz": [-1.140347574393831, 1.97514072053091, -5.07091401]
      },
      {
        "species": [{ "element": "Lu", "occu": 1 }],
        "abc": [-0.0, 0.6531517, 0.25],
        "properties": { "magmom": -0.0 },
        "label": "Lu",
        "xyz": [-2.147393995606169, 3.71939697946909, -1.69030467]
      },
      {
        "species": [{ "element": "Lu", "occu": 1 }],
        "abc": [0.3468483, 0.0, 0.75],
        "properties": { "magmom": -0.0 },
        "label": "Lu",
        "xyz": [-1.140347574393831, -1.97514072053091, -5.07091401]
      },
      {
        "species": [{ "element": "Lu", "occu": 1 }],
        "abc": [0.6531517, -0.0, 0.25],
        "properties": { "magmom": -0.0 },
        "label": "Lu",
        "xyz": [-2.147393995606169, -3.71939697946909, -1.69030467]
      },
      {
        "species": [{ "element": "F", "occu": 1 }],
        "abc": [-0.0, -0.0, 0.75],
        "properties": { "magmom": -0.0 },
        "label": "F",
        "xyz": [0.0, 0.0, -5.07091401]
      },
      {
        "species": [{ "element": "F", "occu": 1 }],
        "abc": [-0.0, -0.0, 0.25],
        "properties": { "magmom": -0.0 },
        "label": "F",
        "xyz": [0.0, 0.0, -1.69030467]
      },
      {
        "species": [{ "element": "F", "occu": 1 }],
        "abc": [0.666667, 0.333333, 0.81689758],
        "properties": { "magmom": 0.0 },
        "label": "F",
        "xyz": [-3.2877415700000006, -1.8981830296917999, -5.5232231775427945]
      },
      {
        "species": [{ "element": "F", "occu": 1 }],
        "abc": [0.333333, 0.666667, 0.18310242000000002],
        "properties": { "magmom": 0.0 },
        "label": "F",
        "xyz": [-3.2877415700000006, 1.8981830296917999, -1.2379955024572056]
      },
      {
        "species": [{ "element": "F", "occu": 1 }],
        "abc": [0.333333, 0.666667, 0.68310242],
        "properties": { "magmom": 0.0 },
        "label": "F",
        "xyz": [-3.2877415700000006, 1.8981830296917999, -4.618604842457206]
      },
      {
        "species": [{ "element": "F", "occu": 1 }],
        "abc": [0.666667, 0.333333, 0.31689758],
        "properties": { "magmom": 0.0 },
        "label": "F",
        "xyz": [-3.2877415700000006, -1.8981830296917999, -2.1426138375427946]
      },
      {
        "species": [{ "element": "F", "occu": 1 }],
        "abc": [0.6244164, 0.9290803, 0.92247974],
        "properties": { "magmom": 0.0 },
        "label": "F",
        "xyz": [-5.107495679447819, 1.7349200643790295, -6.237087250009543]
      },
      {
        "species": [{ "element": "F", "occu": 1 }],
        "abc": [0.375583599999999, 0.0709197, 0.07752026000000001],
        "properties": { "magmom": 0.0 },
        "label": "F",
        "xyz": [-1.4679874605521777, -1.7349200643790241, -0.5241314299904568]
      },
      {
        "species": [{ "element": "F", "occu": 1 }],
        "abc": [0.30466591, 0.375583599999999, 0.92247974],
        "properties": { "magmom": 0.0 },
        "label": "F",
        "xyz": [-2.2364845919991274, 0.40384345930190735, -6.237087250009543]
      },
      {
        "species": [{ "element": "F", "occu": 1 }],
        "abc": [0.69533409, 0.0709197, 0.57752026],
        "properties": { "magmom": 0.0 },
        "label": "F",
        "xyz": [-2.5192444385530504, -3.5557512842775028, -3.9047407699904566]
      },
      {
        "species": [{ "element": "F", "occu": 1 }],
        "abc": [0.69533409, 0.6244164, 0.07752026000000001],
        "properties": { "magmom": 0.0 },
        "label": "F",
        "xyz": [-4.33899854800087, -0.4038434593019131, -0.5241314299904568]
      },
      {
        "species": [{ "element": "F", "occu": 1 }],
        "abc": [0.30466591, 0.9290803, 0.42247974],
        "properties": { "magmom": 0.0 },
        "label": "F",
        "xyz": [-4.05623870144695, 3.5557512842775023, -2.856477910009543]
      },
      {
        "species": [{ "element": "F", "occu": 1 }],
        "abc": [0.0709197, 0.69533409, 0.92247974],
        "properties": { "magmom": 0.0 },
        "label": "F",
        "xyz": [-2.5192444385530504, 3.5557512842775028, -6.237087250009543]
      },
      {
        "species": [{ "element": "F", "occu": 1 }],
        "abc": [0.9290803, 0.6244164, 0.57752026],
        "properties": { "magmom": 0.0 },
        "label": "F",
        "xyz": [-5.107495679447819, -1.7349200643790295, -3.9047407699904566]
      },
      {
        "species": [{ "element": "F", "occu": 1 }],
        "abc": [0.9290803, 0.30466591, 0.07752026000000001],
        "properties": { "magmom": 0.0 },
        "label": "F",
        "xyz": [-4.05623870144695, -3.5557512842775023, -0.5241314299904568]
      },
      {
        "species": [{ "element": "F", "occu": 1 }],
        "abc": [0.0709197, 0.375583599999999, 0.42247974],
        "properties": { "magmom": 0.0 },
        "label": "F",
        "xyz": [-1.4679874605521777, 1.7349200643790241, -2.856477910009543]
      },
      {
        "species": [{ "element": "F", "occu": 1 }],
        "abc": [0.375583599999999, 0.30466591, 0.57752026],
        "properties": { "magmom": 0.0 },
        "label": "F",
        "xyz": [-2.2364845919991274, -0.40384345930190735, -3.9047407699904566]
      },
      {
        "species": [{ "element": "F", "occu": 1 }],
        "abc": [0.6244164, 0.69533409, 0.42247974],
        "properties": { "magmom": 0.0 },
        "label": "F",
        "xyz": [-4.33899854800087, 0.4038434593019131, -2.856477910009543]
      }
    ]
  },
  "task_ids": null,
  "uncorrected_energy_per_atom": null,
  "energy_per_atom": -16.313652297083333,
  "formation_energy_per_atom": -4.449161288749998,
  "energy_above_hull": 0.0,
  "is_stable": true,
  "equilibrium_reaction_energy_per_atom": null,
  "decomposes_to": null,
  "xas": null,
  "grain_boundaries": null,
  "band_gap": 7.6899000000000015,
  "cbm": null,
  "vbm": null,
  "efermi": 0.12896802000000002,
  "is_gap_direct": null,
  "is_metal": null,
  "es_source_calc_id": null,
  "bandstructure": null,
  "dos": null,
  "dos_energy_up": null,
  "dos_energy_down": null,
  "is_magnetic": null,
  "ordering": null,
  "total_magnetization": 0.0,
  "total_magnetization_normalized_vol": null,
  "total_magnetization_normalized_formula_units": null,
  "num_magnetic_sites": null,
  "num_unique_magnetic_sites": null,
  "types_of_magnetic_species": null,
  "bulk_modulus": null,
  "shear_modulus": null,
  "universal_anisotropy": null,
  "homogeneous_poisson": null,
  "e_total": null,
  "e_ionic": null,
  "e_electronic": null,
  "n": null,
  "e_ij_max": null,
  "weighted_surface_energy_EV_PER_ANG2": null,
  "weighted_surface_energy": null,
  "weighted_work_function": null,
  "surface_anisotropy": null,
  "shape_factor": null,
  "has_reconstructed": null,
  "possible_species": null,
  "has_props": null,
  "theoretical": null,
  "database_IDs": null,
  "fields_not_requested": [
    "builder_meta",
    "nsites",
    "elements",
    "nelements",
    "composition",
    "composition_reduced",
    "chemsys",
    "symmetry",
    "property_name",
    "deprecated",
    "deprecation_reasons",
    "last_updated",
    "origins",
    "warnings",
    "task_ids",
    "uncorrected_energy_per_atom",
    "equilibrium_reaction_energy_per_atom",
    "decomposes_to",
    "xas",
    "grain_boundaries",
    "cbm",
    "vbm",
    "is_gap_direct",
    "is_metal",
    "es_source_calc_id",
    "bandstructure",
    "dos",
    "dos_energy_up",
    "dos_energy_down",
    "is_magnetic",
    "ordering",
    "total_magnetization_normalized_vol",
    "total_magnetization_normalized_formula_units",
    "num_magnetic_sites",
    "num_unique_magnetic_sites",
    "types_of_magnetic_species",
    "bulk_modulus",
    "shear_modulus",
    "universal_anisotropy",
    "homogeneous_poisson",
    "e_total",
    "e_ionic",
    "e_electronic",
    "n",
    "e_ij_max",
    "weighted_surface_energy_EV_PER_ANG2",
    "weighted_surface_energy",
    "weighted_work_function",
    "surface_anisotropy",
    "shape_factor",
    "has_reconstructed",
    "possible_species",
    "has_props",
    "theoretical",
    "database_IDs"
  ]
}
