{
  "builder_meta": null,
  "nsites": null,
  "elements": null,
  "nelements": null,
  "composition": null,
  "composition_reduced": null,
  "formula_pretty": "LuFe2",
  "formula_anonymous": "AB2",
  "chemsys": null,
  "volume": 93.45647202014473,
  "density": 10.186670584178533,
  "density_atomic": 15.576078670024122,
  "symmetry": null,
  "property_name": null,
  "material_id": "mp-2463",
  "deprecated": null,
  "deprecation_reasons": null,
  "last_updated": null,
  "origins": null,
  "warnings": null,
  "structure": {
    "@module": "pymatgen.core.structure",
    "@class": "Structure",
    "charge": 0,
    "lattice": {
      "matrix": [
        [4.41135172, -1.517e-5, 2.546900319999999],
        [1.470435409999999, 4.15904416, 2.5469014100000003],
        [-9.689999999999999e-6, -5.379999999999998e-6, 5.09381271]
      ],
      "pbc": [true, true, true],
      "a": 5.093792814572771,
      "b": 5.093774181495678,
      "c": 5.093812710012058,
      "alpha": 59.999907402310434,
      "beta": 60.00005817469704,
      "gamma": 60.000169471400625,
      "volume": 93.45647202014473
    },
    "properties": {},
    "sites": [
      {
        "species": [{ "element": "Lu", "occu": 1 }],
        "abc": [0.875, 0.875, 0.875],
        "properties": { "magmom": -0.864 },
        "label": "Lu",
        "xyz": [5.1465552599999995, 3.6391456587499995, 8.914162635]
      },
      {
        "species": [{ "element": "Lu", "occu": 1 }],
        "abc": [0.125001, 0.125, 0.125],
        "properties": { "magmom": -0.864 },
        "label": "Lu",
        "xyz": [0.7352265913517199, 0.5198779512348299, 1.2734543519003199]
      },
      {
        "species": [{ "element": "Fe", "occu": 1 }],
        "abc": [0.5, 0.5, 0.5],
        "properties": { "magmom": 2.441 },
        "label": "Fe",
        "xyz": [2.94088872, 2.0795118049999997, 5.0938072199999995]
      },
      {
        "species": [{ "element": "Fe", "occu": 1 }],
        "abc": [0.5, 0.5, 0.0],
        "properties": { "magmom": 2.441 },
        "label": "Fe",
        "xyz": [2.9408935649999997, 2.0795144949999997, 2.5469008649999996]
      },
      {
        "species": [{ "element": "Fe", "occu": 1 }],
        "abc": [-0.0, 0.499998999999999, 0.5],
        "properties": { "magmom": 2.441 },
        "label": "Fe",
        "xyz": [0.7352113895645881, 2.0795152309558356, 3.8203545130985876]
      },
      {
        "species": [{ "element": "Fe", "occu": 1 }],
        "abc": [0.499998999999999, 1e-6, 0.5],
        "properties": { "magmom": 2.441 },
        "label": "Fe",
        "xyz": [2.2056680740836856, -6.1159406699999844e-6, 3.820356515001087]
      }
    ]
  },
  "task_ids": null,
  "uncorrected_energy_per_atom": null,
  "energy_per_atom": -7.328716801666663,
  "formation_energy_per_atom": -0.174806843888885,
  "energy_above_hull": 0.0,
  "is_stable": true,
  "equilibrium_reaction_energy_per_atom": null,
  "decomposes_to": null,
  "xas": null,
  "grain_boundaries": null,
  "band_gap": 0.0,
  "cbm": null,
  "vbm": null,
  "efermi": 4.39205142,
  "is_gap_direct": null,
  "is_metal": null,
  "es_source_calc_id": null,
  "bandstructure": null,
  "dos": null,
  "dos_energy_up": null,
  "dos_energy_down": null,
  "is_magnetic": null,
  "ordering": null,
  "total_magnetization": 7.3041076,
  "total_magnetization_normalized_vol": null,
  "total_magnetization_normalized_formula_units": null,
  "num_magnetic_sites": null,
  "num_unique_magnetic_sites": null,
  "types_of_magnetic_species": null,
  "bulk_modulus": null,
  "shear_modulus": null,
  "universal_anisotropy": null,
  "homogeneous_poisson": null,
  "e_total": null,
  "e_ionic": null,
  "e_electronic": null,
  "n": null,
  "e_ij_max": null,
  "weighted_surface_energy_EV_PER_ANG2": null,
  "weighted_surface_energy": null,
  "weighted_work_function": null,
  "surface_anisotropy": null,
  "shape_factor": null,
  "has_reconstructed": null,
  "possible_species": null,
  "has_props": null,
  "theoretical": null,
  "database_IDs": null,
  "fields_not_requested": [
    "builder_meta",
    "nsites",
    "elements",
    "nelements",
    "composition",
    "composition_reduced",
    "chemsys",
    "symmetry",
    "property_name",
    "deprecated",
    "deprecation_reasons",
    "last_updated",
    "origins",
    "warnings",
    "task_ids",
    "uncorrected_energy_per_atom",
    "equilibrium_reaction_energy_per_atom",
    "decomposes_to",
    "xas",
    "grain_boundaries",
    "cbm",
    "vbm",
    "is_gap_direct",
    "is_metal",
    "es_source_calc_id",
    "bandstructure",
    "dos",
    "dos_energy_up",
    "dos_energy_down",
    "is_magnetic",
    "ordering",
    "total_magnetization_normalized_vol",
    "total_magnetization_normalized_formula_units",
    "num_magnetic_sites",
    "num_unique_magnetic_sites",
    "types_of_magnetic_species",
    "bulk_modulus",
    "shear_modulus",
    "universal_anisotropy",
    "homogeneous_poisson",
    "e_total",
    "e_ionic",
    "e_electronic",
    "n",
    "e_ij_max",
    "weighted_surface_energy_EV_PER_ANG2",
    "weighted_surface_energy",
    "weighted_work_function",
    "surface_anisotropy",
    "shape_factor",
    "has_reconstructed",
    "possible_species",
    "has_props",
    "theoretical",
    "database_IDs"
  ]
}
