{
  "builder_meta": null,
  "nsites": null,
  "elements": null,
  "nelements": null,
  "composition": null,
  "composition_reduced": null,
  "formula_pretty": "LuGa2",
  "formula_anonymous": "AB2",
  "chemsys": null,
  "volume": 113.72135348752364,
  "density": 9.182005903652644,
  "density_atomic": 18.953558914587273,
  "symmetry": null,
  "property_name": null,
  "material_id": "mp-1077210",
  "deprecated": null,
  "deprecation_reasons": null,
  "last_updated": null,
  "origins": null,
  "warnings": null,
  "structure": {
    "@module": "pymatgen.core.structure",
    "@class": "Structure",
    "charge": 0,
    "lattice": {
      "matrix": [
        [-4.14649067, -0.0, 0.0],
        [-2.0732458400000002, -3.40071146, 4.03238088],
        [-2.0732458400000002, 3.40071146, 4.03238088]
      ],
      "pbc": [true, true, true],
      "a": 4.14649067,
      "b": 5.667740494115994,
      "c": 5.667740494115994,
      "alpha": 73.7414927089434,
      "beta": 68.54332371700434,
      "gamma": 68.54332371700434,
      "volume": 113.72135348752364
    },
    "properties": {},
    "sites": [
      {
        "species": [{ "element": "Lu", "occu": 1 }],
        "abc": [0.56144528, 0.6885547200000001, 0.18855472],
        "properties": { "magmom": -0.0 },
        "label": "Lu",
        "xyz": [-4.146491112940268, -1.7003557300000005, 3.5368393355235073]
      },
      {
        "species": [{ "element": "Lu", "occu": 1 }],
        "abc": [0.43855372000000004, 0.31144628, 0.81144528],
        "properties": { "magmom": -0.0 },
        "label": "Lu",
        "xyz": [-4.146489163814904, 1.70035232928854, 4.527926456857373]
      },
      {
        "species": [{ "element": "Ga", "occu": 1 }],
        "abc": [0.15943052, 0.290306299999999, 0.39083165000000003],
        "properties": { "magmom": -0.0 },
        "label": "Ga",
        "xyz": [-2.0732435849968747, 0.34185770976551455, 2.746607646222392]
      },
      {
        "species": [{ "element": "Ga", "occu": 1 }],
        "abc": [0.84056948, 0.7096937, 0.60916835],
        "properties": { "magmom": -0.0 },
        "label": "Ga",
        "xyz": [-6.219738765003124, -0.3418577097655109, 5.318154113777604]
      },
      {
        "species": [{ "element": "Ga", "occu": 1 }],
        "abc": [0.84056948, 0.10916835, 0.209693699999999],
        "properties": { "magmom": -0.0 },
        "label": "Ga",
        "xyz": [-4.1464929250031215, 0.3418577097655076, 1.2857732337776]
      },
      {
        "species": [{ "element": "Ga", "occu": 1 }],
        "abc": [0.15943052, 0.89083165, 0.7903063],
        "properties": { "magmom": -0.0 },
        "label": "Ga",
        "xyz": [-4.146489424996877, -0.3418577097655109, 6.7789885262223954]
      }
    ]
  },
  "task_ids": null,
  "uncorrected_energy_per_atom": null,
  "energy_per_atom": -20.97046325166667,
  "formation_energy_per_atom": -0.64865255722222,
  "energy_above_hull": 0.0,
  "is_stable": true,
  "equilibrium_reaction_energy_per_atom": null,
  "decomposes_to": null,
  "xas": null,
  "grain_boundaries": null,
  "band_gap": 0.0,
  "cbm": null,
  "vbm": null,
  "efermi": 4.10087165,
  "is_gap_direct": null,
  "is_metal": null,
  "es_source_calc_id": null,
  "bandstructure": null,
  "dos": null,
  "dos_energy_up": null,
  "dos_energy_down": null,
  "is_magnetic": null,
  "ordering": null,
  "total_magnetization": 1.5e-6,
  "total_magnetization_normalized_vol": null,
  "total_magnetization_normalized_formula_units": null,
  "num_magnetic_sites": null,
  "num_unique_magnetic_sites": null,
  "types_of_magnetic_species": null,
  "bulk_modulus": null,
  "shear_modulus": null,
  "universal_anisotropy": null,
  "homogeneous_poisson": null,
  "e_total": null,
  "e_ionic": null,
  "e_electronic": null,
  "n": null,
  "e_ij_max": null,
  "weighted_surface_energy_EV_PER_ANG2": null,
  "weighted_surface_energy": null,
  "weighted_work_function": null,
  "surface_anisotropy": null,
  "shape_factor": null,
  "has_reconstructed": null,
  "possible_species": null,
  "has_props": null,
  "theoretical": null,
  "database_IDs": null,
  "fields_not_requested": [
    "builder_meta",
    "nsites",
    "elements",
    "nelements",
    "composition",
    "composition_reduced",
    "chemsys",
    "symmetry",
    "property_name",
    "deprecated",
    "deprecation_reasons",
    "last_updated",
    "origins",
    "warnings",
    "task_ids",
    "uncorrected_energy_per_atom",
    "equilibrium_reaction_energy_per_atom",
    "decomposes_to",
    "xas",
    "grain_boundaries",
    "cbm",
    "vbm",
    "is_gap_direct",
    "is_metal",
    "es_source_calc_id",
    "bandstructure",
    "dos",
    "dos_energy_up",
    "dos_energy_down",
    "is_magnetic",
    "ordering",
    "total_magnetization_normalized_vol",
    "total_magnetization_normalized_formula_units",
    "num_magnetic_sites",
    "num_unique_magnetic_sites",
    "types_of_magnetic_species",
    "bulk_modulus",
    "shear_modulus",
    "universal_anisotropy",
    "homogeneous_poisson",
    "e_total",
    "e_ionic",
    "e_electronic",
    "n",
    "e_ij_max",
    "weighted_surface_energy_EV_PER_ANG2",
    "weighted_surface_energy",
    "weighted_work_function",
    "surface_anisotropy",
    "shape_factor",
    "has_reconstructed",
    "possible_species",
    "has_props",
    "theoretical",
    "database_IDs"
  ]
}
