{"builder_meta": null, "nsites": null, "elements": null, "nelements": null, "composition": null, "composition_reduced": null, "formula_pretty": "LuH3", "formula_anonymous": "AB3", "chemsys": null, "volume": 205.1742201125912, "density": 8.643211898960123, "density_atomic": 8.548925838024633, "symmetry": null, "property_name": null, "material_id": "mp-1191245", "deprecated": null, "deprecation_reasons": null, "last_updated": null, "origins": null, "warnings": null, "structure": {"@module": "pymatgen.core.structure", "@class": "Structure", "charge": 0, "lattice": {"matrix": [[-3.04742416, -5.27828297, -3.57e-06], [-3.04742272, 5.27828238, 4.54e-06], [2.18e-06, -6.48e-06, -6.37774788]], "pbc": [true, true, true], "a": 6.094839220386086, "b": 6.094837989430997, "c": 6.377747880003665, "alpha": 90.00010288656394, "beta": 89.99992581662674, "gamma": 119.99991017386937, "volume": 205.17422011259117}, "properties": {}, "sites": [{"species": [{"element": "Lu", "occu": 1}], "abc": [0.33761215, 0.33761239, 0.74999885], "properties": {"magmom": -0.0}, "label": "Lu", "xyz": [-2.0576934554615516, -3.7923959455446323e-06, -4.783303248105064]}, {"species": [{"element": "Lu", "occu": 1}], "abc": [0.66238628, -2.799999999999998e-07, 0.7499999900000001], "properties": {"magmom": -0.0}, "label": "Lu", "xyz": [-2.018569464646185, -3.4962685592046534, -4.783313210942812]}, {"species": [{"element": "Lu", "occu": 1}], "abc": [-8.4e-07, 0.66238532, 0.74999995], "properties": {"magmom": 0.0}, "label": "Lu", "xyz": [-2.018563878726285, 3.496256337084681, -4.783307583880254]}, {"species": [{"element": "Lu", "occu": 1}], "abc": [0.33761372, 2.799999999999998e-07, 0.25000001], "properties": {"magmom": -0.0}, "label": "Lu", "xyz": [-1.0288525153538148, -1.7820208907953468, -1.594438239057188]}, {"species": [{"element": "Lu", "occu": 1}], "abc": [8.4e-07, 0.33761468, 0.25000005000000003], "properties": {"magmom": 0.0}, "label": "Lu", "xyz": [-1.0288566612737151, 1.7820195629153197, -1.594435756119746]}, {"species": [{"element": "Lu", "occu": 1}], "abc": [0.66238685, 0.66238761, 0.25000115], "properties": {"magmom": -0.0}, "label": "Lu", "xyz": [-4.037148197114288, 2.0006789156113698e-06, -1.594443661891367]}, {"species": [{"element": "H", "occu": 1}], "abc": [0.68001598, 0.64634213, 0.58945451], "properties": {"magmom": -0.0}, "label": "H", "xyz": [-4.041973533482438, -0.17774430999641602, -3.7593917447727176]}, {"species": [{"element": "H", "occu": 1}], "abc": [0.35365813, 0.03367433, 0.58945454], "properties": {"magmom": -0.0}, "label": "H", "xyz": [-1.1803649630543012, -1.6889688817491602, -3.759393552519441]}, {"species": [{"element": "H", "occu": 1}], "abc": [0.96632596, 0.31998417, 0.58945456], "properties": {"magmom": 0.0}, "label": "H", "xyz": [-3.919930821626595, -3.4115788714125257, -3.7593945674518783]}, {"species": [{"element": "H", "occu": 1}], "abc": [0.68001668, 0.03367113, 0.08945588], "properties": {"magmom": -0.0}, "label": "H", "xyz": [-2.174909231391244, -3.411595308840353, -0.5705293238161518]}, {"species": [{"element": "H", "occu": 1}], "abc": [0.96632914, 0.64634541, 0.08945557], "properties": {"magmom": -0.0}, "label": "H", "xyz": [-4.9145022601365955, -1.6889656337519636, -0.5705255873085601]}, {"species": [{"element": "H", "occu": 1}], "abc": [0.3536553, 0.31998364, 0.08945557], "properties": {"magmom": 0.0}, "label": "H", "xyz": [-2.0528629250832067, -0.1777293180120713, -0.5705248817453871]}, {"species": [{"element": "H", "occu": 1}], "abc": [0.31998402, 0.35365787, 0.41054549], "properties": {"magmom": -0.0}, "label": "H", "xyz": [-2.052871166517561, 0.17773723999641605, -2.6183551652272827]}, {"species": [{"element": "H", "occu": 1}], "abc": [0.64634187, 0.96632567, 0.41054546000000003], "properties": {"magmom": -0.0}, "label": "H", "xyz": [-4.914479736945699, 1.68896181174916, -2.6183533574805593]}, {"species": [{"element": "H", "occu": 1}], "abc": [0.03367404, 0.68001583, 0.41054544], "properties": {"magmom": 0.0}, "label": "H", "xyz": [-2.1749138783734048, 3.411571801412525, -2.618352342548122]}, {"species": [{"element": "H", "occu": 1}], "abc": [0.31998332, 0.96632887, 0.9105441200000001], "properties": {"magmom": -0.0}, "label": "H", "xyz": [-3.919935468608756, 3.4115882388403524, -5.807217586183849]}, {"species": [{"element": "H", "occu": 1}], "abc": [0.033670860000000004, 0.35365459, 0.9105444300000001], "properties": {"magmom": -0.0}, "label": "H", "xyz": [-1.180342439863405, 1.6889585637519635, -5.807221322691441]}, {"species": [{"element": "H", "occu": 1}], "abc": [0.6463447, 0.68001636, 0.9105444300000001], "properties": {"magmom": 0.0}, "label": "H", "xyz": [-4.041981774916794, 0.17772224801207134, -5.807222028254614]}, {"species": [{"element": "H", "occu": 1}], "abc": [1e-07, -9e-08, 0.74999657], "properties": {"magmom": -0.0}, "label": "H", "xyz": [1.6045181513999998e-06, -5.8628514848e-06, -4.783289034325537]}, {"species": [{"element": "H", "occu": 1}], "abc": [-1e-07, 9e-08, 0.25000343], "properties": {"magmom": -0.0}, "label": "H", "xyz": [5.754818486000001e-07, -6.171485152000003e-07, -1.594458845674463]}, {"species": [{"element": "H", "occu": 1}], "abc": [0.33333268, 0.66666652, 0.68852986], "properties": {"magmom": -0.0}, "label": "H", "xyz": [-3.047419261065788, 1.7594254759899652, -4.391268018263364]}, {"species": [{"element": "H", "occu": 1}], "abc": [0.33333352, 0.6666668, 0.18852826], "properties": {"magmom": 0.0}, "label": "H", "xyz": [-3.0474237641839323, 1.7594257601617047, -1.202383873868483]}, {"species": [{"element": "H", "occu": 1}], "abc": [0.6666673200000001, 0.33333348, 0.31147014], "properties": {"magmom": -0.0}, "label": "H", "xyz": [-3.0474254389342117, -1.7594325459899656, -1.9864788917366365]}, {"species": [{"element": "H", "occu": 1}], "abc": [0.6666664800000001, 0.3333332, 0.81147174], "properties": {"magmom": 0.0}, "label": "H", "xyz": [-3.0474209358160675, -1.7594328301617053, -5.175363036131517]}]}, "task_ids": null, "uncorrected_energy_per_atom": null, "energy_per_atom": -12.823868815833334, "formation_energy_per_atom": -0.712564469062499, "energy_above_hull": 0.0, "is_stable": true, "equilibrium_reaction_energy_per_atom": null, "decomposes_to": null, "xas": null, "grain_boundaries": null, "band_gap": 0.015600000000000001, "cbm": null, "vbm": null, "efermi": 2.6852967100000003, "is_gap_direct": null, "is_metal": null, "es_source_calc_id": null, "bandstructure": null, "dos": null, "dos_energy_up": null, "dos_energy_down": null, "is_magnetic": null, "ordering": null, "total_magnetization": 0.0, "total_magnetization_normalized_vol": null, "total_magnetization_normalized_formula_units": null, "num_magnetic_sites": null, "num_unique_magnetic_sites": null, "types_of_magnetic_species": null, "bulk_modulus": null, "shear_modulus": null, "universal_anisotropy": null, "homogeneous_poisson": null, "e_total": null, "e_ionic": null, "e_electronic": null, "n": null, "e_ij_max": null, "weighted_surface_energy_EV_PER_ANG2": null, "weighted_surface_energy": null, "weighted_work_function": null, "surface_anisotropy": null, "shape_factor": null, "has_reconstructed": null, "possible_species": null, "has_props": null, "theoretical": null, "database_IDs": null, "fields_not_requested": ["builder_meta", "nsites", "elements", "nelements", "composition", "composition_reduced", "chemsys", "symmetry", "property_name", "deprecated", "deprecation_reasons", "last_updated", "origins", "warnings", "task_ids", "uncorrected_energy_per_atom", "equilibrium_reaction_energy_per_atom", "decomposes_to", "xas", "grain_boundaries", "cbm", "vbm", "is_gap_direct", "is_metal", "es_source_calc_id", "bandstructure", "dos", "dos_energy_up", "dos_energy_down", "is_magnetic", "ordering", "total_magnetization_normalized_vol", "total_magnetization_normalized_formula_units", "num_magnetic_sites", "num_unique_magnetic_sites", "types_of_magnetic_species", "bulk_modulus", "shear_modulus", "universal_anisotropy", "homogeneous_poisson", "e_total", "e_ionic", "e_electronic", "n", "e_ij_max", "weighted_surface_energy_EV_PER_ANG2", "weighted_surface_energy", "weighted_work_function", "surface_anisotropy", "shape_factor", "has_reconstructed", "possible_species", "has_props", "theoretical", "database_IDs"]}