{"builder_meta": null, "nsites": null, "elements": null, "nelements": null, "composition": null, "composition_reduced": null, "formula_pretty": "LuI3", "formula_anonymous": "AB3", "chemsys": null, "volume": 419.6881369597765, "density": 4.3972128258547425, "density_atomic": 52.46101711997206, "symmetry": null, "property_name": null, "material_id": "mp-865521", "deprecated": null, "deprecation_reasons": null, "last_updated": null, "origins": null, "warnings": null, "structure": {"@module": "pymatgen.core.structure", "@class": "Structure", "charge": 0, "lattice": {"matrix": [[11.12540759, 8.051000000000001e-05, -0.00011245], [-5.56263373, 9.63471244, 1.1230000000000001e-05], [-4.042e-05, -1.872e-05, 3.9153464]], "pbc": [true, true, true], "a": 11.125407590859602, "b": 11.125222596233774, "c": 3.915346400253389, "alpha": 89.99988365772928, "beta": 90.00117061060926, "gamma": 119.99971877098828, "volume": 419.6881369597765}, "properties": {}, "sites": [{"species": [{"element": "Lu", "occu": 1}], "abc": [0.33333758, 0.66666538, 0.75000365], "properties": {"magmom": -0.0}, "label": "Lu", "xyz": [7.079800543212657e-05, 6.423142026943564, 2.9364940938557065]}, {"species": [{"element": "Lu", "occu": 1}], "abc": [0.6666635, 0.33332692, 0.25001354], "properties": {"magmom": -0.0}, "label": "Lu", "xyz": [5.562717489019666, 3.211558015535801, 0.9788183907409924]}, {"species": [{"element": "I", "occu": 1}], "abc": [0.21568357, 0.43135142, 0.24999056], "properties": {"magmom": 0.0}, "label": "I", "xyz": [0.00010756372246467909, 4.155959577146601, 0.978780229588984]}, {"species": [{"element": "I", "occu": 1}], "abc": [0.56864809, 0.78433911, 0.25000982], "properties": {"magmom": 0.0}, "label": "I", "xyz": [1.9634404820838987, 7.556922881969424, 0.9788199123521327]}, {"species": [{"element": "I", "occu": 1}], "abc": [0.21567431, 0.78432027, 0.24999164000000001], "properties": {"magmom": 0.0}, "label": "I", "xyz": [-1.963431888244783, 7.556712946408356, 0.9787884230445686]}, {"species": [{"element": "I", "occu": 1}], "abc": [0.78432537, 0.56863984, 0.75000576], "properties": {"magmom": 0.0}, "label": "I", "xyz": [5.562773954988936, 5.478730446255321, 2.9364505408328103]}, {"species": [{"element": "I", "occu": 1}], "abc": [0.43134589, 0.21568275, 0.7499890100000001], "properties": {"magmom": 0.0}, "label": "I", "xyz": [3.5991043838363637, 2.0780619623817467, 2.936420687615016]}, {"species": [{"element": "I", "occu": 1}], "abc": [0.7843216900000001, 0.21566632, 0.74999903], "properties": {"magmom": 0.0}, "label": "I", "xyz": [7.526195421909861, 2.0779320819504408, 2.9364202270727247]}]}, "task_ids": null, "uncorrected_energy_per_atom": null, "energy_per_atom": -3.86627545, "formation_energy_per_atom": -1.592844125416666, "energy_above_hull": 0.0, "is_stable": true, "equilibrium_reaction_energy_per_atom": null, "decomposes_to": null, "xas": null, "grain_boundaries": null, "band_gap": 2.1804, "cbm": null, "vbm": null, "efermi": -0.08117032, "is_gap_direct": null, "is_metal": null, "es_source_calc_id": null, "bandstructure": null, "dos": null, "dos_energy_up": null, "dos_energy_down": null, "is_magnetic": null, "ordering": null, "total_magnetization": 0.0, "total_magnetization_normalized_vol": null, "total_magnetization_normalized_formula_units": null, "num_magnetic_sites": null, "num_unique_magnetic_sites": null, "types_of_magnetic_species": null, "bulk_modulus": null, "shear_modulus": null, "universal_anisotropy": null, "homogeneous_poisson": null, "e_total": null, "e_ionic": null, "e_electronic": null, "n": null, "e_ij_max": null, "weighted_surface_energy_EV_PER_ANG2": null, "weighted_surface_energy": null, "weighted_work_function": null, "surface_anisotropy": null, "shape_factor": null, "has_reconstructed": null, "possible_species": null, "has_props": null, "theoretical": null, "database_IDs": null, "fields_not_requested": ["builder_meta", "nsites", "elements", "nelements", "composition", "composition_reduced", "chemsys", "symmetry", "property_name", "deprecated", "deprecation_reasons", "last_updated", "origins", "warnings", "task_ids", "uncorrected_energy_per_atom", "equilibrium_reaction_energy_per_atom", "decomposes_to", "xas", "grain_boundaries", "cbm", "vbm", "is_gap_direct", "is_metal", "es_source_calc_id", "bandstructure", "dos", "dos_energy_up", "dos_energy_down", "is_magnetic", "ordering", "total_magnetization_normalized_vol", "total_magnetization_normalized_formula_units", "num_magnetic_sites", "num_unique_magnetic_sites", "types_of_magnetic_species", "bulk_modulus", "shear_modulus", "universal_anisotropy", "homogeneous_poisson", "e_total", "e_ionic", "e_electronic", "n", "e_ij_max", "weighted_surface_energy_EV_PER_ANG2", "weighted_surface_energy", "weighted_work_function", "surface_anisotropy", "shape_factor", "has_reconstructed", "possible_species", "has_props", "theoretical", "database_IDs"]}