{
  "builder_meta": null,
  "nsites": null,
  "elements": null,
  "nelements": null,
  "composition": null,
  "composition_reduced": null,
  "formula_pretty": "LuIn2",
  "formula_anonymous": "AB2",
  "chemsys": null,
  "volume": 144.58595587149892,
  "density": 9.293559445852072,
  "density_atomic": 24.097659311916487,
  "symmetry": null,
  "property_name": null,
  "material_id": "mp-1206287",
  "deprecated": null,
  "deprecation_reasons": null,
  "last_updated": null,
  "origins": null,
  "warnings": null,
  "structure": {
    "@module": "pymatgen.core.structure",
    "@class": "Structure",
    "charge": 0,
    "lattice": {
      "matrix": [
        [4.54565468, -0.0, 0.0],
        [0.0, 0.0, 4.55053449],
        [-2.27282683, -6.9898404, 0.0]
      ],
      "pbc": [true, true, true],
      "a": 4.54565468,
      "b": 4.55053449,
      "c": 7.3500755517640775,
      "alpha": 90.0,
      "beta": 108.0125292929892,
      "gamma": 90.0,
      "volume": 144.58595587149892
    },
    "properties": {},
    "sites": [
      {
        "species": [{ "element": "Lu", "occu": 1 }],
        "abc": [0.8444902, 0.5, 0.68898139],
        "properties": { "magmom": -0.0 },
        "label": "Lu",
        "xyz": [2.2728254412814417, -4.815869954670156, 2.275267245]
      },
      {
        "species": [{ "element": "Lu", "occu": 1 }],
        "abc": [0.1555098, 0.5, 0.31101861000000003],
        "properties": { "magmom": -0.0 },
        "label": "Lu",
        "xyz": [2.4087185576116e-6, -2.1739704453298443, 2.275267245]
      },
      {
        "species": [{ "element": "In", "occu": 1 }],
        "abc": [0.67584801, -0.0, 0.35169801],
        "properties": { "magmom": -0.0 },
        "label": "In",
        "xyz": [2.272822996439579, -2.4583129588976043, 0.0]
      },
      {
        "species": [{ "element": "In", "occu": 1 }],
        "abc": [0.32415199, -0.0, 0.64830199],
        "properties": { "magmom": -0.0 },
        "label": "In",
        "xyz": [4.8535604215693695e-6, -4.531527441102396, 0.0]
      },
      {
        "species": [{ "element": "In", "occu": 1 }],
        "abc": [0.5, 0.5, 0.0],
        "properties": { "magmom": -0.0 },
        "label": "In",
        "xyz": [2.27282734, 0.0, 2.275267245]
      },
      {
        "species": [{ "element": "In", "occu": 1 }],
        "abc": [0.0, -0.0, 0.0],
        "properties": { "magmom": -0.0 },
        "label": "In",
        "xyz": [0.0, 0.0, 0.0]
      }
    ]
  },
  "task_ids": null,
  "uncorrected_energy_per_atom": null,
  "energy_per_atom": -28.23290132,
  "formation_energy_per_atom": -0.48721433888888505,
  "energy_above_hull": 0.0,
  "is_stable": true,
  "equilibrium_reaction_energy_per_atom": null,
  "decomposes_to": null,
  "xas": null,
  "grain_boundaries": null,
  "band_gap": 0.0,
  "cbm": null,
  "vbm": null,
  "efermi": 6.44276083,
  "is_gap_direct": null,
  "is_metal": null,
  "es_source_calc_id": null,
  "bandstructure": null,
  "dos": null,
  "dos_energy_up": null,
  "dos_energy_down": null,
  "is_magnetic": null,
  "ordering": null,
  "total_magnetization": 0.0,
  "total_magnetization_normalized_vol": null,
  "total_magnetization_normalized_formula_units": null,
  "num_magnetic_sites": null,
  "num_unique_magnetic_sites": null,
  "types_of_magnetic_species": null,
  "bulk_modulus": null,
  "shear_modulus": null,
  "universal_anisotropy": null,
  "homogeneous_poisson": null,
  "e_total": null,
  "e_ionic": null,
  "e_electronic": null,
  "n": null,
  "e_ij_max": null,
  "weighted_surface_energy_EV_PER_ANG2": null,
  "weighted_surface_energy": null,
  "weighted_work_function": null,
  "surface_anisotropy": null,
  "shape_factor": null,
  "has_reconstructed": null,
  "possible_species": null,
  "has_props": null,
  "theoretical": null,
  "database_IDs": null,
  "fields_not_requested": [
    "builder_meta",
    "nsites",
    "elements",
    "nelements",
    "composition",
    "composition_reduced",
    "chemsys",
    "symmetry",
    "property_name",
    "deprecated",
    "deprecation_reasons",
    "last_updated",
    "origins",
    "warnings",
    "task_ids",
    "uncorrected_energy_per_atom",
    "equilibrium_reaction_energy_per_atom",
    "decomposes_to",
    "xas",
    "grain_boundaries",
    "cbm",
    "vbm",
    "is_gap_direct",
    "is_metal",
    "es_source_calc_id",
    "bandstructure",
    "dos",
    "dos_energy_up",
    "dos_energy_down",
    "is_magnetic",
    "ordering",
    "total_magnetization_normalized_vol",
    "total_magnetization_normalized_formula_units",
    "num_magnetic_sites",
    "num_unique_magnetic_sites",
    "types_of_magnetic_species",
    "bulk_modulus",
    "shear_modulus",
    "universal_anisotropy",
    "homogeneous_poisson",
    "e_total",
    "e_ionic",
    "e_electronic",
    "n",
    "e_ij_max",
    "weighted_surface_energy_EV_PER_ANG2",
    "weighted_surface_energy",
    "weighted_work_function",
    "surface_anisotropy",
    "shape_factor",
    "has_reconstructed",
    "possible_species",
    "has_props",
    "theoretical",
    "database_IDs"
  ]
}
