{"builder_meta": null, "nsites": null, "elements": null, "nelements": null, "composition": null, "composition_reduced": null, "formula_pretty": "LuMn2", "formula_anonymous": "AB2", "chemsys": null, "volume": 181.94394350745358, "density": 10.398655095143257, "density_atomic": 15.161995292287799, "symmetry": null, "property_name": null, "material_id": "mp-1102182", "deprecated": null, "deprecation_reasons": null, "last_updated": null, "origins": null, "warnings": null, "structure": {"@module": "pymatgen.core.structure", "@class": "Structure", "charge": 0, "lattice": {"matrix": [[-2.497336, -4.315249, 0.0], [-2.497336, 4.315249, 0.0], [0.0, 0.0, -8.4416]], "pbc": [true, true, true], "a": 4.985785898822471, "b": 4.985785898822471, "c": 8.4416, "alpha": 90.0, "beta": 90.0, "gamma": 119.882049775983, "volume": 181.94394350745358}, "properties": {}, "sites": [{"species": [{"element": "Lu", "occu": 1}], "abc": [0.666627, 0.333373, 0.064094], "properties": {"magmom": -0.033}, "label": "Lu", "xyz": [-2.497336, -1.438073990246, -0.5410559103999999]}, {"species": [{"element": "Lu", "occu": 1}], "abc": [0.333373, 0.666627, 0.9359059999999991], "properties": {"magmom": -0.033}, "label": "Lu", "xyz": [-2.497336, 1.438073990246, -7.900544089599992]}, {"species": [{"element": "Lu", "occu": 1}], "abc": [0.333373, 0.666627, 0.564094], "properties": {"magmom": -0.033}, "label": "Lu", "xyz": [-2.497336, 1.438073990246, -4.7618559104]}, {"species": [{"element": "Lu", "occu": 1}], "abc": [0.666627, 0.333373, 0.435905999999999], "properties": {"magmom": -0.033}, "label": "Lu", "xyz": [-2.497336, -1.438073990246, -3.6797440895999913]}, {"species": [{"element": "Mn", "occu": 1}], "abc": [0.0, 0.0, 0.0], "properties": {"magmom": -0.39}, "label": "Mn", "xyz": [0.0, 0.0, 0.0]}, {"species": [{"element": "Mn", "occu": 1}], "abc": [0.0, 0.0, 0.5], "properties": {"magmom": -0.39}, "label": "Mn", "xyz": [0.0, 0.0, -4.2208]}, {"species": [{"element": "Mn", "occu": 1}], "abc": [0.169195999999999, 0.34203, 0.25], "properties": {"magmom": 0.418}, "label": "Mn", "xyz": [-1.2767030939359973, 0.7458217456660043, -2.1104]}, {"species": [{"element": "Mn", "occu": 1}], "abc": [0.17071, 0.8292900000000001, 0.25], "properties": {"magmom": 0.069}, "label": "Mn", "xyz": [-2.497336, 2.84193668642, -2.1104]}, {"species": [{"element": "Mn", "occu": 1}], "abc": [0.65797, 0.830804, 0.25], "properties": {"magmom": 0.418}, "label": "Mn", "xyz": [-3.7179689060639998, 0.7458217456659995, -2.1104]}, {"species": [{"element": "Mn", "occu": 1}], "abc": [0.830804, 0.65797, 0.75], "properties": {"magmom": 0.418}, "label": "Mn", "xyz": [-3.7179689060639998, -0.7458217456659995, -6.331199999999999]}, {"species": [{"element": "Mn", "occu": 1}], "abc": [0.8292900000000001, 0.17071, 0.75], "properties": {"magmom": 0.069}, "label": "Mn", "xyz": [-2.497336, -2.84193668642, -6.331199999999999]}, {"species": [{"element": "Mn", "occu": 1}], "abc": [0.34203, 0.169195999999999, 0.75], "properties": {"magmom": 0.418}, "label": "Mn", "xyz": [-1.2767030939359973, -0.7458217456660043, -6.331199999999999]}]}, "task_ids": null, "uncorrected_energy_per_atom": null, "energy_per_atom": -7.610305191666666, "formation_energy_per_atom": 0.004934154157087, "energy_above_hull": 0.040309977705313006, "is_stable": false, "equilibrium_reaction_energy_per_atom": null, "decomposes_to": null, "xas": null, "grain_boundaries": null, "band_gap": 0.0, "cbm": null, "vbm": null, "efermi": 4.71325453, "is_gap_direct": null, "is_metal": null, "es_source_calc_id": null, "bandstructure": null, "dos": null, "dos_energy_up": null, "dos_energy_down": null, "is_magnetic": null, "ordering": null, "total_magnetization": 0.939246799999999, "total_magnetization_normalized_vol": null, "total_magnetization_normalized_formula_units": null, "num_magnetic_sites": null, "num_unique_magnetic_sites": null, "types_of_magnetic_species": null, "bulk_modulus": null, "shear_modulus": null, "universal_anisotropy": null, "homogeneous_poisson": null, "e_total": null, "e_ionic": null, "e_electronic": null, "n": null, "e_ij_max": null, "weighted_surface_energy_EV_PER_ANG2": null, "weighted_surface_energy": null, "weighted_work_function": null, "surface_anisotropy": null, "shape_factor": null, "has_reconstructed": null, "possible_species": null, "has_props": null, "theoretical": null, "database_IDs": null, "fields_not_requested": ["builder_meta", "nsites", "elements", "nelements", "composition", "composition_reduced", "chemsys", "symmetry", "property_name", "deprecated", "deprecation_reasons", "last_updated", "origins", "warnings", "task_ids", "uncorrected_energy_per_atom", "equilibrium_reaction_energy_per_atom", "decomposes_to", "xas", "grain_boundaries", "cbm", "vbm", "is_gap_direct", "is_metal", "es_source_calc_id", "bandstructure", "dos", "dos_energy_up", "dos_energy_down", "is_magnetic", "ordering", "total_magnetization_normalized_vol", "total_magnetization_normalized_formula_units", "num_magnetic_sites", "num_unique_magnetic_sites", "types_of_magnetic_species", "bulk_modulus", "shear_modulus", "universal_anisotropy", "homogeneous_poisson", "e_total", "e_ionic", "e_electronic", "n", "e_ij_max", "weighted_surface_energy_EV_PER_ANG2", "weighted_surface_energy", "weighted_work_function", "surface_anisotropy", "shape_factor", "has_reconstructed", "possible_species", "has_props", "theoretical", "database_IDs"]}