{"builder_meta": null, "nsites": null, "elements": null, "nelements": null, "composition": null, "composition_reduced": null, "formula_pretty": "LuMn5", "formula_anonymous": "AB5", "chemsys": null, "volume": 161.77786574147638, "density": 9.23084731362005, "density_atomic": 13.481488811789697, "symmetry": null, "property_name": null, "material_id": "mp-30770", "deprecated": null, "deprecation_reasons": null, "last_updated": null, "origins": null, "warnings": null, "structure": {"@module": "pymatgen.core.structure", "@class": "Structure", "charge": 0, "lattice": {"matrix": [[2.422525, -4.195936, 0.0], [2.422525, 4.195936, 0.0], [0.0, 0.0, 7.957781]], "pbc": [true, true, true], "a": 4.845049668653665, "b": 4.845049668653665, "c": 7.957781, "alpha": 90.0, "beta": 90.0, "gamma": 119.99999547544427, "volume": 161.77786574147638}, "properties": {}, "sites": [{"species": [{"element": "Lu", "occu": 1}], "abc": [0.666667, 0.333333, 0.757648], "properties": {"magmom": 0.001}, "label": "Lu", "xyz": [2.422525, -1.3986481306240002, 6.029196859088]}, {"species": [{"element": "Lu", "occu": 1}], "abc": [0.333333, 0.666667, 0.257648], "properties": {"magmom": 0.0}, "label": "Lu", "xyz": [2.422525, 1.3986481306240002, 2.0503063590879997]}, {"species": [{"element": "Mn", "occu": 1}], "abc": [0.828746, 0.171254, 0.448972], "properties": {"magmom": -0.229}, "label": "Mn", "xyz": [2.422525, -2.758794352512, 3.5728208511319997]}, {"species": [{"element": "Mn", "occu": 1}], "abc": [0.657493, 0.828746, 0.948971999999999], "properties": {"magmom": -0.28600000000000003}, "label": "Mn", "xyz": [3.6004511334749996, 0.7185666278080003, 7.551711351131992]}, {"species": [{"element": "Mn", "occu": 1}], "abc": [0.0, 0.0, 0.202559], "properties": {"magmom": 1.287}, "label": "Mn", "xyz": [0.0, 0.0, 1.611920161579]}, {"species": [{"element": "Mn", "occu": 1}], "abc": [0.0, 0.0, 0.702558999999999], "properties": {"magmom": 1.2810000000000001}, "label": "Mn", "xyz": [0.0, 0.0, 5.590810661578992]}, {"species": [{"element": "Mn", "occu": 1}], "abc": [0.333333, 0.666667, 0.628877999999999], "properties": {"magmom": 0.007}, "label": "Mn", "xyz": [2.422525, 1.3986481306240002, 5.004473399717992]}, {"species": [{"element": "Mn", "occu": 1}], "abc": [0.666667, 0.333333, 0.128878], "properties": {"magmom": 0.004}, "label": "Mn", "xyz": [2.422525, -1.3986481306240002, 1.0255828997179999]}, {"species": [{"element": "Mn", "occu": 1}], "abc": [0.171254, 0.828746, 0.948971999999999], "properties": {"magmom": -0.229}, "label": "Mn", "xyz": [2.422525, 2.758794352512, 7.551711351131992]}, {"species": [{"element": "Mn", "occu": 1}], "abc": [0.342507, 0.171254, 0.448972], "properties": {"magmom": -0.261}, "label": "Mn", "xyz": [1.244598866525, -0.718566627808, 3.5728208511319997]}, {"species": [{"element": "Mn", "occu": 1}], "abc": [0.828746, 0.657493, 0.448972], "properties": {"magmom": -0.248}, "label": "Mn", "xyz": [3.6004511334749996, -0.7185666278080003, 3.5728208511319997]}, {"species": [{"element": "Mn", "occu": 1}], "abc": [0.171254, 0.342507, 0.948971999999999], "properties": {"magmom": -0.24}, "label": "Mn", "xyz": [1.244598866525, 0.718566627808, 7.551711351131992]}]}, "task_ids": null, "uncorrected_energy_per_atom": null, "energy_per_atom": -8.212011025833332, "formation_energy_per_atom": 0.176616293113026, "energy_above_hull": 0.21051812401340902, "is_stable": false, "equilibrium_reaction_energy_per_atom": null, "decomposes_to": null, "xas": null, "grain_boundaries": null, "band_gap": 0.0, "cbm": null, "vbm": null, "efermi": 5.16553195, "is_gap_direct": null, "is_metal": null, "es_source_calc_id": null, "bandstructure": null, "dos": null, "dos_energy_up": null, "dos_energy_down": null, "is_magnetic": null, "ordering": null, "total_magnetization": 1.1539255, "total_magnetization_normalized_vol": null, "total_magnetization_normalized_formula_units": null, "num_magnetic_sites": null, "num_unique_magnetic_sites": null, "types_of_magnetic_species": null, "bulk_modulus": null, "shear_modulus": null, "universal_anisotropy": null, "homogeneous_poisson": null, "e_total": null, "e_ionic": null, "e_electronic": null, "n": null, "e_ij_max": null, "weighted_surface_energy_EV_PER_ANG2": null, "weighted_surface_energy": null, "weighted_work_function": null, "surface_anisotropy": null, "shape_factor": null, "has_reconstructed": null, "possible_species": null, "has_props": null, "theoretical": null, "database_IDs": null, "fields_not_requested": ["builder_meta", "nsites", "elements", "nelements", "composition", "composition_reduced", "chemsys", "symmetry", "property_name", "deprecated", "deprecation_reasons", "last_updated", "origins", "warnings", "task_ids", "uncorrected_energy_per_atom", "equilibrium_reaction_energy_per_atom", "decomposes_to", "xas", "grain_boundaries", "cbm", "vbm", "is_gap_direct", "is_metal", "es_source_calc_id", "bandstructure", "dos", "dos_energy_up", "dos_energy_down", "is_magnetic", "ordering", "total_magnetization_normalized_vol", "total_magnetization_normalized_formula_units", "num_magnetic_sites", "num_unique_magnetic_sites", "types_of_magnetic_species", "bulk_modulus", "shear_modulus", "universal_anisotropy", "homogeneous_poisson", "e_total", "e_ionic", "e_electronic", "n", "e_ij_max", "weighted_surface_energy_EV_PER_ANG2", "weighted_surface_energy", "weighted_work_function", "surface_anisotropy", "shape_factor", "has_reconstructed", "possible_species", "has_props", "theoretical", "database_IDs"]}