{"builder_meta": null, "nsites": null, "elements": null, "nelements": null, "composition": null, "composition_reduced": null, "formula_pretty": "LuNi2", "formula_anonymous": "AB2", "chemsys": null, "volume": 85.2413107960215, "density": 11.390366986041732, "density_atomic": 14.20688513267025, "symmetry": null, "property_name": null, "material_id": "mp-2130", "deprecated": null, "deprecation_reasons": null, "last_updated": null, "origins": null, "warnings": null, "structure": {"@module": "pymatgen.core.structure", "@class": "Structure", "charge": 0, "lattice": {"matrix": [[4.27810588, -5.1760000000000006e-05, 2.4698624], [1.42598728, 4.03343476, 2.46986082], [-8.228e-05, -5.9180000000000006e-05, 4.93986859]], "pbc": [true, true, true], "a": 4.93987957323895, "b": 4.939863171796272, "c": 4.939868591039731, "alpha": 60.001913020326164, "beta": 60.00199075879736, "gamma": 60.00171459664423, "volume": 85.2413107960215}, "properties": {}, "sites": [{"species": [{"element": "Lu", "occu": 1}], "abc": [0.87499668, 0.87500333, 0.874997399999999], "properties": {"magmom": -0.0}, "label": "Lu", "xyz": [4.991000065440048, 3.5291717741634616, 8.644630014785022]}, {"species": [{"element": "Lu", "occu": 1}], "abc": [0.12500218, 0.12499617, 0.12500239999999901], "properties": {"magmom": -0.0}, "label": "Lu", "xyz": [0.7130052245420639, 0.5041500291900004, 1.2349567566677024]}, {"species": [{"element": "Ni", "occu": 1}], "abc": [0.49999909000000003, -3.799999999999998e-07, 0.50000091], "properties": {"magmom": 0.0}, "label": "Ni", "xyz": [2.139007364973608, -5.700271196100001e-05, 3.704866804158521]}, {"species": [{"element": "Ni", "occu": 1}], "abc": [4.299999999999998e-07, 0.49999887, 0.49999965], "properties": {"magmom": 0.0}, "label": "Ni", "xyz": [0.7129527282486999, 2.016683232217177, 3.7048612471440983]}, {"species": [{"element": "Ni", "occu": 1}], "abc": [0.50000087, 0.49999971, 0.49999899000000003], "properties": {"magmom": 0.0}, "label": "Ni", "xyz": [2.8520087484989074, 2.01666074031866, 4.939792348253374]}, {"species": [{"element": "Ni", "occu": 1}], "abc": [0.49999976, 0.5000013, 6.499999999999999e-07], "properties": {"magmom": 0.0}, "label": "Ni", "xyz": [2.8520474069845707, 2.016696743439143, 2.4698674389666735]}]}, "task_ids": null, "uncorrected_energy_per_atom": null, "energy_per_atom": -21.175611118333332, "formation_energy_per_atom": -0.49450628388888807, "energy_above_hull": 0.0, "is_stable": true, "equilibrium_reaction_energy_per_atom": null, "decomposes_to": null, "xas": null, "grain_boundaries": null, "band_gap": 0.0, "cbm": null, "vbm": null, "efermi": 5.97278512, "is_gap_direct": null, "is_metal": null, "es_source_calc_id": null, "bandstructure": null, "dos": null, "dos_energy_up": null, "dos_energy_down": null, "is_magnetic": null, "ordering": null, "total_magnetization": 1.2100000000000001e-05, "total_magnetization_normalized_vol": null, "total_magnetization_normalized_formula_units": null, "num_magnetic_sites": null, "num_unique_magnetic_sites": null, "types_of_magnetic_species": null, "bulk_modulus": null, "shear_modulus": null, "universal_anisotropy": null, "homogeneous_poisson": null, "e_total": null, "e_ionic": null, "e_electronic": null, "n": null, "e_ij_max": null, "weighted_surface_energy_EV_PER_ANG2": null, "weighted_surface_energy": null, "weighted_work_function": null, "surface_anisotropy": null, "shape_factor": null, "has_reconstructed": null, "possible_species": null, "has_props": null, "theoretical": null, "database_IDs": null, "fields_not_requested": ["builder_meta", "nsites", "elements", "nelements", "composition", "composition_reduced", "chemsys", "symmetry", "property_name", "deprecated", "deprecation_reasons", "last_updated", "origins", "warnings", "task_ids", "uncorrected_energy_per_atom", "equilibrium_reaction_energy_per_atom", "decomposes_to", "xas", "grain_boundaries", "cbm", "vbm", "is_gap_direct", "is_metal", "es_source_calc_id", "bandstructure", "dos", "dos_energy_up", "dos_energy_down", "is_magnetic", "ordering", "total_magnetization_normalized_vol", "total_magnetization_normalized_formula_units", "num_magnetic_sites", "num_unique_magnetic_sites", "types_of_magnetic_species", "bulk_modulus", "shear_modulus", "universal_anisotropy", "homogeneous_poisson", "e_total", "e_ionic", "e_electronic", "n", "e_ij_max", "weighted_surface_energy_EV_PER_ANG2", "weighted_surface_energy", "weighted_work_function", "surface_anisotropy", "shape_factor", "has_reconstructed", "possible_species", "has_props", "theoretical", "database_IDs"]}