{
  "builder_meta": null,
  "nsites": null,
  "elements": null,
  "nelements": null,
  "composition": null,
  "composition_reduced": null,
  "formula_pretty": "LuNi",
  "formula_anonymous": "AB",
  "chemsys": null,
  "volume": 146.4420136647913,
  "density": 10.598112189457527,
  "density_atomic": 18.30525170809891,
  "symmetry": null,
  "property_name": null,
  "material_id": "mp-1078899",
  "deprecated": null,
  "deprecation_reasons": null,
  "last_updated": null,
  "origins": null,
  "warnings": null,
  "structure": {
    "@module": "pymatgen.core.structure",
    "@class": "Structure",
    "charge": 0,
    "lattice": {
      "matrix": [
        [4.01461822, 4.4e-7, -4e-8],
        [5.8e-7, 5.29661673, -1.4410000000000001e-5],
        [-7e-8, -1.8670000000000003e-5, 6.88688598]
      ],
      "pbc": [true, true, true],
      "a": 4.014618220000024,
      "b": 5.296616730019634,
      "c": 6.886885980025307,
      "alpha": 90.00031120512706,
      "beta": 90.00000115325692,
      "gamma": 89.99998744630253,
      "volume": 146.4420136647913
    },
    "properties": {},
    "sites": [
      {
        "species": [{ "element": "Lu", "occu": 1 }],
        "abc": [0.24999977, 0.3679132, 0.67983006],
        "properties": { "magmom": 0.0 },
        "label": "Lu",
        "xyz": [1.0036537974393613, 1.9486826278805147, 4.681906797367356]
      },
      {
        "species": [{ "element": "Lu", "occu": 1 }],
        "abc": [0.24999983, 0.13208519999999901, 0.17984066],
        "properties": { "magmom": -0.0 },
        "label": "Lu",
        "xyz": [1.0036539365354724, 0.6996014324801938, 1.2385402066402218]
      },
      {
        "species": [{ "element": "Lu", "occu": 1 }],
        "abc": [0.7499999900000001, 0.63208867, 0.32017053],
        "properties": { "magmom": 0.0 },
        "label": "Lu",
        "xyz": [3.0109639690533094, 3.34792577678165, 2.204968795868435]
      },
      {
        "species": [{ "element": "Lu", "occu": 1 }],
        "abc": [0.75000003, 0.86791439, 0.8201601],
        "properties": { "magmom": 0.0 },
        "label": "Lu",
        "xyz": [3.0109642314176863, 4.596994895892691, 5.648336557399037]
      },
      {
        "species": [{ "element": "Ni", "occu": 1 }],
        "abc": [0.2500014, 0.87397597, 0.535539],
        "properties": { "magmom": -0.0 },
        "label": "Ni",
        "xyz": [1.0036606448838405, 4.629105855807464, 3.688183426849436]
      },
      {
        "species": [{ "element": "Ni", "occu": 1 }],
        "abc": [0.24999989, 0.62601584, 0.03553565],
        "properties": { "magmom": -0.0 },
        "label": "Ni",
        "xyz": [1.0036544739936875, 3.3157654179383695, 0.24472093888693702]
      },
      {
        "species": [{ "element": "Ni", "occu": 1 }],
        "abc": [0.74999897, 0.12604667, 0.46446248],
        "properties": { "magmom": -0.0 },
        "label": "Ni",
        "xyz": [3.010959570537928, 0.6676125595678344, 3.1986982954155567]
      },
      {
        "species": [{ "element": "Ni", "occu": 1 }],
        "abc": [0.75000013, 0.37396007000000003, 0.9644615200000001],
        "properties": { "magmom": 0.0 },
        "label": "Ni",
        "xyz": [3.0109643362849026, 1.9807054866174503, 6.642131101572876]
      }
    ]
  },
  "task_ids": null,
  "uncorrected_energy_per_atom": null,
  "energy_per_atom": -25.5285702925,
  "formation_energy_per_atom": -0.49777162083332904,
  "energy_above_hull": 0.0,
  "is_stable": true,
  "equilibrium_reaction_energy_per_atom": null,
  "decomposes_to": null,
  "xas": null,
  "grain_boundaries": null,
  "band_gap": 0.0,
  "cbm": null,
  "vbm": null,
  "efermi": 4.68115845,
  "is_gap_direct": null,
  "is_metal": null,
  "es_source_calc_id": null,
  "bandstructure": null,
  "dos": null,
  "dos_energy_up": null,
  "dos_energy_down": null,
  "is_magnetic": null,
  "ordering": null,
  "total_magnetization": 1e-7,
  "total_magnetization_normalized_vol": null,
  "total_magnetization_normalized_formula_units": null,
  "num_magnetic_sites": null,
  "num_unique_magnetic_sites": null,
  "types_of_magnetic_species": null,
  "bulk_modulus": null,
  "shear_modulus": null,
  "universal_anisotropy": null,
  "homogeneous_poisson": null,
  "e_total": null,
  "e_ionic": null,
  "e_electronic": null,
  "n": null,
  "e_ij_max": null,
  "weighted_surface_energy_EV_PER_ANG2": null,
  "weighted_surface_energy": null,
  "weighted_work_function": null,
  "surface_anisotropy": null,
  "shape_factor": null,
  "has_reconstructed": null,
  "possible_species": null,
  "has_props": null,
  "theoretical": null,
  "database_IDs": null,
  "fields_not_requested": [
    "builder_meta",
    "nsites",
    "elements",
    "nelements",
    "composition",
    "composition_reduced",
    "chemsys",
    "symmetry",
    "property_name",
    "deprecated",
    "deprecation_reasons",
    "last_updated",
    "origins",
    "warnings",
    "task_ids",
    "uncorrected_energy_per_atom",
    "equilibrium_reaction_energy_per_atom",
    "decomposes_to",
    "xas",
    "grain_boundaries",
    "cbm",
    "vbm",
    "is_gap_direct",
    "is_metal",
    "es_source_calc_id",
    "bandstructure",
    "dos",
    "dos_energy_up",
    "dos_energy_down",
    "is_magnetic",
    "ordering",
    "total_magnetization_normalized_vol",
    "total_magnetization_normalized_formula_units",
    "num_magnetic_sites",
    "num_unique_magnetic_sites",
    "types_of_magnetic_species",
    "bulk_modulus",
    "shear_modulus",
    "universal_anisotropy",
    "homogeneous_poisson",
    "e_total",
    "e_ionic",
    "e_electronic",
    "n",
    "e_ij_max",
    "weighted_surface_energy_EV_PER_ANG2",
    "weighted_surface_energy",
    "weighted_work_function",
    "surface_anisotropy",
    "shape_factor",
    "has_reconstructed",
    "possible_species",
    "has_props",
    "theoretical",
    "database_IDs"
  ]
}
