{"builder_meta": null, "nsites": null, "elements": null, "nelements": null, "composition": null, "composition_reduced": null, "formula_pretty": "LuNi5", "formula_anonymous": "AB5", "chemsys": null, "volume": 77.0785390170734, "density": 10.09169305805608, "density_atomic": 12.846423169512233, "symmetry": null, "property_name": null, "material_id": "mp-11491", "deprecated": null, "deprecation_reasons": null, "last_updated": null, "origins": null, "warnings": null, "structure": {"@module": "pymatgen.core.structure", "@class": "Structure", "charge": 0, "lattice": {"matrix": [[4.7751500799999995, 0.0001853, 0.0], [-2.3874149, 4.13547462, 0.0], [0.0, 0.0, 3.90311511]], "pbc": [true, true, true], "a": 4.775150083595289, "b": 4.775133530845619, "c": 3.90311511, "alpha": 90.0, "beta": 90.0, "gamma": 119.99567256077786, "volume": 77.07853901707338}, "properties": {}, "sites": [{"species": [{"element": "Lu", "occu": 1}], "abc": [0.0, 0.0, 0.0], "properties": {"magmom": -0.127}, "label": "Lu", "xyz": [0.0, 0.0, 0.0]}, {"species": [{"element": "Ni", "occu": 1}], "abc": [0.0, 0.5, 0.5], "properties": {"magmom": 0.481}, "label": "Ni", "xyz": [-1.19370745, 2.06773731, 1.951557555]}, {"species": [{"element": "Ni", "occu": 1}], "abc": [0.33331028, 0.66667221, -0.0], "properties": {"magmom": 0.37}, "label": "Ni", "xyz": [-1.655736310679501e-05, 2.7570677667091945, 0.0]}, {"species": [{"element": "Ni", "occu": 1}], "abc": [0.66668972, 0.33332779, -0.0], "properties": {"magmom": 0.37}, "label": "Ni", "xyz": [2.3877517373631063, 1.3785921532908059, 0.0]}, {"species": [{"element": "Ni", "occu": 1}], "abc": [0.5, 0.0, 0.5], "properties": {"magmom": 0.481}, "label": "Ni", "xyz": [2.3875750399999998, 9.265e-05, 1.951557555]}, {"species": [{"element": "Ni", "occu": 1}], "abc": [0.5, 0.5, 0.5], "properties": {"magmom": 0.481}, "label": "Ni", "xyz": [1.1938675899999998, 2.06782996, 1.951557555]}]}, "task_ids": null, "uncorrected_energy_per_atom": null, "energy_per_atom": -16.654208151666666, "formation_energy_per_atom": -0.322797154444441, "energy_above_hull": 0.0, "is_stable": true, "equilibrium_reaction_energy_per_atom": null, "decomposes_to": null, "xas": null, "grain_boundaries": null, "band_gap": 0.0, "cbm": null, "vbm": null, "efermi": 6.44359677, "is_gap_direct": null, "is_metal": null, "es_source_calc_id": null, "bandstructure": null, "dos": null, "dos_energy_up": null, "dos_energy_down": null, "is_magnetic": null, "ordering": null, "total_magnetization": 1.8367173, "total_magnetization_normalized_vol": null, "total_magnetization_normalized_formula_units": null, "num_magnetic_sites": null, "num_unique_magnetic_sites": null, "types_of_magnetic_species": null, "bulk_modulus": null, "shear_modulus": null, "universal_anisotropy": null, "homogeneous_poisson": null, "e_total": null, "e_ionic": null, "e_electronic": null, "n": null, "e_ij_max": null, "weighted_surface_energy_EV_PER_ANG2": null, "weighted_surface_energy": null, "weighted_work_function": null, "surface_anisotropy": null, "shape_factor": null, "has_reconstructed": null, "possible_species": null, "has_props": null, "theoretical": null, "database_IDs": null, "fields_not_requested": ["builder_meta", "nsites", "elements", "nelements", "composition", "composition_reduced", "chemsys", "symmetry", "property_name", "deprecated", "deprecation_reasons", "last_updated", "origins", "warnings", "task_ids", "uncorrected_energy_per_atom", "equilibrium_reaction_energy_per_atom", "decomposes_to", "xas", "grain_boundaries", "cbm", "vbm", "is_gap_direct", "is_metal", "es_source_calc_id", "bandstructure", "dos", "dos_energy_up", "dos_energy_down", "is_magnetic", "ordering", "total_magnetization_normalized_vol", "total_magnetization_normalized_formula_units", "num_magnetic_sites", "num_unique_magnetic_sites", "types_of_magnetic_species", "bulk_modulus", "shear_modulus", "universal_anisotropy", "homogeneous_poisson", "e_total", "e_ionic", "e_electronic", "n", "e_ij_max", "weighted_surface_energy_EV_PER_ANG2", "weighted_surface_energy", "weighted_work_function", "surface_anisotropy", "shape_factor", "has_reconstructed", "possible_species", "has_props", "theoretical", "database_IDs"]}