{
  "builder_meta": null,
  "nsites": null,
  "elements": null,
  "nelements": null,
  "composition": null,
  "composition_reduced": null,
  "formula_pretty": "LuO2",
  "formula_anonymous": "AB2",
  "chemsys": null,
  "volume": 83.7196289257532,
  "density": 8.210136637249322,
  "density_atomic": 13.953271487625534,
  "symmetry": null,
  "property_name": null,
  "material_id": "mp-1206244",
  "deprecated": null,
  "deprecation_reasons": null,
  "last_updated": null,
  "origins": null,
  "warnings": null,
  "structure": {
    "@module": "pymatgen.core.structure",
    "@class": "Structure",
    "charge": 0,
    "lattice": {
      "matrix": [
        [3.545131, 0.0, 0.0],
        [0.0, 4.128944, 0.0],
        [0.0, 1.880071, 5.719473]
      ],
      "pbc": [true, true, true],
      "a": 3.545131,
      "b": 4.128944,
      "c": 6.020551333787463,
      "alpha": 71.8035804537392,
      "beta": 90.0,
      "gamma": 90.0,
      "volume": 83.7196289257532
    },
    "properties": {},
    "sites": [
      {
        "species": [{ "element": "Lu", "occu": 1 }],
        "abc": [0.25, 0.169203, 0.184598999999999],
        "properties": { "magmom": -0.004 },
        "label": "Lu",
        "xyz": [0.88628275, 1.0456889381609982, 1.0558089963269943]
      },
      {
        "species": [{ "element": "Lu", "occu": 1 }],
        "abc": [0.75, 0.830797, 0.815400999999999],
        "properties": { "magmom": -0.004 },
        "label": "Lu",
        "xyz": [2.65884825, 4.963326061838998, 4.663664003672994]
      },
      {
        "species": [{ "element": "O", "occu": 1 }],
        "abc": [0.25, 0.8153859999999991, 0.553895],
        "properties": { "magmom": 0.786 },
        "label": "O",
        "xyz": [0.88628275, 4.408045058928996, 3.167987497335]
      },
      {
        "species": [{ "element": "O", "occu": 1 }],
        "abc": [0.75, 0.184614, 0.446105],
        "properties": { "magmom": 0.786 },
        "label": "O",
        "xyz": [2.65884825, 1.6009699410709999, 2.551485502665]
      },
      {
        "species": [{ "element": "O", "occu": 1 }],
        "abc": [0.25, 0.731358, 0.048304],
        "properties": { "magmom": 0.052000000000000005 },
        "label": "O",
        "xyz": [0.88628275, 3.1105511755359996, 0.276273423792]
      },
      {
        "species": [{ "element": "O", "occu": 1 }],
        "abc": [0.75, 0.268642, 0.951696],
        "properties": { "magmom": 0.052000000000000005 },
        "label": "O",
        "xyz": [2.65884825, 2.8984638244639997, 5.443199576207999]
      }
    ]
  },
  "task_ids": null,
  "uncorrected_energy_per_atom": null,
  "energy_per_atom": -8.04994187,
  "formation_energy_per_atom": -3.244072048888888,
  "energy_above_hull": 0.19241426020833202,
  "is_stable": false,
  "equilibrium_reaction_energy_per_atom": null,
  "decomposes_to": null,
  "xas": null,
  "grain_boundaries": null,
  "band_gap": 0.0,
  "cbm": null,
  "vbm": null,
  "efermi": 0.64179577,
  "is_gap_direct": null,
  "is_metal": null,
  "es_source_calc_id": null,
  "bandstructure": null,
  "dos": null,
  "dos_energy_up": null,
  "dos_energy_down": null,
  "is_magnetic": null,
  "ordering": null,
  "total_magnetization": 1.997838799999999,
  "total_magnetization_normalized_vol": null,
  "total_magnetization_normalized_formula_units": null,
  "num_magnetic_sites": null,
  "num_unique_magnetic_sites": null,
  "types_of_magnetic_species": null,
  "bulk_modulus": null,
  "shear_modulus": null,
  "universal_anisotropy": null,
  "homogeneous_poisson": null,
  "e_total": null,
  "e_ionic": null,
  "e_electronic": null,
  "n": null,
  "e_ij_max": null,
  "weighted_surface_energy_EV_PER_ANG2": null,
  "weighted_surface_energy": null,
  "weighted_work_function": null,
  "surface_anisotropy": null,
  "shape_factor": null,
  "has_reconstructed": null,
  "possible_species": null,
  "has_props": null,
  "theoretical": null,
  "database_IDs": null,
  "fields_not_requested": [
    "builder_meta",
    "nsites",
    "elements",
    "nelements",
    "composition",
    "composition_reduced",
    "chemsys",
    "symmetry",
    "property_name",
    "deprecated",
    "deprecation_reasons",
    "last_updated",
    "origins",
    "warnings",
    "task_ids",
    "uncorrected_energy_per_atom",
    "equilibrium_reaction_energy_per_atom",
    "decomposes_to",
    "xas",
    "grain_boundaries",
    "cbm",
    "vbm",
    "is_gap_direct",
    "is_metal",
    "es_source_calc_id",
    "bandstructure",
    "dos",
    "dos_energy_up",
    "dos_energy_down",
    "is_magnetic",
    "ordering",
    "total_magnetization_normalized_vol",
    "total_magnetization_normalized_formula_units",
    "num_magnetic_sites",
    "num_unique_magnetic_sites",
    "types_of_magnetic_species",
    "bulk_modulus",
    "shear_modulus",
    "universal_anisotropy",
    "homogeneous_poisson",
    "e_total",
    "e_ionic",
    "e_electronic",
    "n",
    "e_ij_max",
    "weighted_surface_energy_EV_PER_ANG2",
    "weighted_surface_energy",
    "weighted_work_function",
    "surface_anisotropy",
    "shape_factor",
    "has_reconstructed",
    "possible_species",
    "has_props",
    "theoretical",
    "database_IDs"
  ]
}
