{
  "builder_meta": null,
  "nsites": null,
  "elements": null,
  "nelements": null,
  "composition": null,
  "composition_reduced": null,
  "formula_pretty": "LuO3",
  "formula_anonymous": "AB3",
  "chemsys": null,
  "volume": 82.13017595121251,
  "density": 9.015990062220641,
  "density_atomic": 10.266271993901563,
  "symmetry": null,
  "property_name": null,
  "material_id": "mp-973457",
  "deprecated": null,
  "deprecation_reasons": null,
  "last_updated": null,
  "origins": null,
  "warnings": null,
  "structure": {
    "@module": "pymatgen.core.structure",
    "@class": "Structure",
    "charge": 0,
    "lattice": {
      "matrix": [
        [2.273859, -3.93844, 0.0],
        [2.273859, 3.93844, 0.0],
        [0.0, 0.0, 4.585482]
      ],
      "pbc": [true, true, true],
      "a": 4.547718591280797,
      "b": 4.547718591280797,
      "c": 4.585482,
      "alpha": 90.0,
      "beta": 90.0,
      "gamma": 120.00000860185631,
      "volume": 82.13017595121251
    },
    "properties": {},
    "sites": [
      {
        "species": [{ "element": "Lu", "occu": 1 }],
        "abc": [0.333333, 0.666667, 0.75],
        "properties": { "magmom": -0.001 },
        "label": "Lu",
        "xyz": [2.273859, 1.31281595896, 3.4391115]
      },
      {
        "species": [{ "element": "Lu", "occu": 1 }],
        "abc": [0.666667, 0.333333, 0.25],
        "properties": { "magmom": -0.002 },
        "label": "Lu",
        "xyz": [2.273859, -1.31281595896, 1.1463705]
      },
      {
        "species": [{ "element": "O", "occu": 1 }],
        "abc": [0.177628999999999, 0.355257, 0.25],
        "properties": { "magmom": 0.008 },
        "label": "O",
        "xyz": [1.2117076270739977, 0.6995772203200039, 1.1463705]
      },
      {
        "species": [{ "element": "O", "occu": 1 }],
        "abc": [0.644743, 0.822371, 0.25],
        "properties": { "magmom": 0.008 },
        "label": "O",
        "xyz": [3.336010372926, 0.6995772203200001, 1.1463705]
      },
      {
        "species": [{ "element": "O", "occu": 1 }],
        "abc": [0.177628999999999, 0.822371, 0.25],
        "properties": { "magmom": 0.008 },
        "label": "O",
        "xyz": [2.2738589999999976, 2.539277682480004, 1.1463705]
      },
      {
        "species": [{ "element": "O", "occu": 1 }],
        "abc": [0.822371, 0.644743, 0.75],
        "properties": { "magmom": 0.005 },
        "label": "O",
        "xyz": [3.336010372926, -0.6995772203200001, 3.4391115]
      },
      {
        "species": [{ "element": "O", "occu": 1 }],
        "abc": [0.355257, 0.177628999999999, 0.75],
        "properties": { "magmom": 0.005 },
        "label": "O",
        "xyz": [1.2117076270739977, -0.6995772203200039, 3.4391115]
      },
      {
        "species": [{ "element": "O", "occu": 1 }],
        "abc": [0.822371, 0.177628999999999, 0.75],
        "properties": { "magmom": 0.005 },
        "label": "O",
        "xyz": [2.2738589999999976, -2.539277682480004, 3.4391115]
      }
    ]
  },
  "task_ids": null,
  "uncorrected_energy_per_atom": null,
  "energy_per_atom": -6.8531545637499995,
  "formation_energy_per_atom": -2.011761946666666,
  "energy_above_hull": 0.5656027851562491,
  "is_stable": false,
  "equilibrium_reaction_energy_per_atom": null,
  "decomposes_to": null,
  "xas": null,
  "grain_boundaries": null,
  "band_gap": 0.0,
  "cbm": null,
  "vbm": null,
  "efermi": 2.76916745,
  "is_gap_direct": null,
  "is_metal": null,
  "es_source_calc_id": null,
  "bandstructure": null,
  "dos": null,
  "dos_energy_up": null,
  "dos_energy_down": null,
  "is_magnetic": null,
  "ordering": null,
  "total_magnetization": 0.0520222,
  "total_magnetization_normalized_vol": null,
  "total_magnetization_normalized_formula_units": null,
  "num_magnetic_sites": null,
  "num_unique_magnetic_sites": null,
  "types_of_magnetic_species": null,
  "bulk_modulus": null,
  "shear_modulus": null,
  "universal_anisotropy": null,
  "homogeneous_poisson": null,
  "e_total": null,
  "e_ionic": null,
  "e_electronic": null,
  "n": null,
  "e_ij_max": null,
  "weighted_surface_energy_EV_PER_ANG2": null,
  "weighted_surface_energy": null,
  "weighted_work_function": null,
  "surface_anisotropy": null,
  "shape_factor": null,
  "has_reconstructed": null,
  "possible_species": null,
  "has_props": null,
  "theoretical": null,
  "database_IDs": null,
  "fields_not_requested": [
    "builder_meta",
    "nsites",
    "elements",
    "nelements",
    "composition",
    "composition_reduced",
    "chemsys",
    "symmetry",
    "property_name",
    "deprecated",
    "deprecation_reasons",
    "last_updated",
    "origins",
    "warnings",
    "task_ids",
    "uncorrected_energy_per_atom",
    "equilibrium_reaction_energy_per_atom",
    "decomposes_to",
    "xas",
    "grain_boundaries",
    "cbm",
    "vbm",
    "is_gap_direct",
    "is_metal",
    "es_source_calc_id",
    "bandstructure",
    "dos",
    "dos_energy_up",
    "dos_energy_down",
    "is_magnetic",
    "ordering",
    "total_magnetization_normalized_vol",
    "total_magnetization_normalized_formula_units",
    "num_magnetic_sites",
    "num_unique_magnetic_sites",
    "types_of_magnetic_species",
    "bulk_modulus",
    "shear_modulus",
    "universal_anisotropy",
    "homogeneous_poisson",
    "e_total",
    "e_ionic",
    "e_electronic",
    "n",
    "e_ij_max",
    "weighted_surface_energy_EV_PER_ANG2",
    "weighted_surface_energy",
    "weighted_work_function",
    "surface_anisotropy",
    "shape_factor",
    "has_reconstructed",
    "possible_species",
    "has_props",
    "theoretical",
    "database_IDs"
  ]
}
