{
  "builder_meta": null,
  "nsites": null,
  "elements": null,
  "nelements": null,
  "composition": null,
  "composition_reduced": null,
  "formula_pretty": "LuP5",
  "formula_anonymous": "AB5",
  "chemsys": null,
  "volume": 234.94654621583987,
  "density": 4.6623817790919215,
  "density_atomic": 19.57887885131999,
  "symmetry": null,
  "property_name": null,
  "material_id": "mp-9853",
  "deprecated": null,
  "deprecation_reasons": null,
  "last_updated": null,
  "origins": null,
  "warnings": null,
  "structure": {
    "@module": "pymatgen.core.structure",
    "@class": "Structure",
    "charge": 0,
    "lattice": {
      "matrix": [
        [4.90577929, 0.00559107, 0.0],
        [-1.14995094, 5.15988688, 0.0],
        [0.0, 0.0, 9.27920104]
      ],
      "pbc": [true, true, true],
      "a": 4.905782476043618,
      "b": 5.286475175275395,
      "c": 9.27920104,
      "alpha": 90.0,
      "beta": 90.0,
      "gamma": 102.49852216166816,
      "volume": 234.94654621583987
    },
    "properties": {},
    "sites": [
      {
        "species": [{ "element": "Lu", "occu": 1 }],
        "abc": [-5.4720000000000025e-5, 0.34721058, 0.25],
        "properties": { "magmom": -0.0 },
        "label": "Lu",
        "xyz": [-0.399543577091694, 1.7915670103958399, 2.31980026]
      },
      {
        "species": [{ "element": "Lu", "occu": 1 }],
        "abc": [5.4720000000000025e-5, 0.6527894200000001, 0.75],
        "properties": { "magmom": -0.0 },
        "label": "Lu",
        "xyz": [-0.7504073629083061, 3.3683198696041603, 6.95940078]
      },
      {
        "species": [{ "element": "P", "occu": 1 }],
        "abc": [0.2736385, 0.88975846, 0.25],
        "properties": { "magmom": 0.0 },
        "label": "P",
        "xyz": [0.3192315087967126, 4.5925829361312, 2.31980026]
      },
      {
        "species": [{ "element": "P", "occu": 1 }],
        "abc": [0.7263615, 0.11024154, 0.75],
        "properties": { "magmom": 0.0 },
        "label": "P",
        "xyz": [3.4365968412032872, 0.5728950138688002, 6.95940078]
      },
      {
        "species": [{ "element": "P", "occu": 1 }],
        "abc": [0.61563041, 0.95647368, 0.40667948],
        "properties": { "magmom": -0.0 },
        "label": "P",
        "xyz": [1.9202491082709494, 4.938738025213757, 3.773660653762659]
      },
      {
        "species": [{ "element": "P", "occu": 1 }],
        "abc": [0.38436959, 0.04352632, 0.90667948],
        "properties": { "magmom": -0.0 },
        "label": "P",
        "xyz": [1.8355792417290502, 0.2267399247862429, 8.41326117376266]
      },
      {
        "species": [{ "element": "P", "occu": 1 }],
        "abc": [0.38436959, 0.04352632, 0.59332052],
        "properties": { "magmom": -0.0 },
        "label": "P",
        "xyz": [1.8355792417290502, 0.2267399247862429, 5.5055403862373415]
      },
      {
        "species": [{ "element": "P", "occu": 1 }],
        "abc": [0.61563041, 0.95647368, 0.09332052],
        "properties": { "magmom": -0.0 },
        "label": "P",
        "xyz": [1.9202491082709494, 4.938738025213757, 0.8659398662373409]
      },
      {
        "species": [{ "element": "P", "occu": 1 }],
        "abc": [0.71574298, 0.59601936, 0.47185241],
        "properties": { "magmom": 0.0 },
        "label": "P",
        "xyz": [2.8258840649566856, 3.0793942449931855, 4.378413373598507]
      },
      {
        "species": [{ "element": "P", "occu": 1 }],
        "abc": [0.28425702, 0.40398064, 0.97185241],
        "properties": { "magmom": 0.0 },
        "label": "P",
        "xyz": [0.9299442850433143, 2.0860837050068146, 9.018013893598507]
      },
      {
        "species": [{ "element": "P", "occu": 1 }],
        "abc": [0.28425702, 0.40398064, 0.52814759],
        "properties": { "magmom": 0.0 },
        "label": "P",
        "xyz": [0.9299442850433143, 2.0860837050068146, 4.900787666401493]
      },
      {
        "species": [{ "element": "P", "occu": 1 }],
        "abc": [0.71574298, 0.59601936, 0.02814759],
        "properties": { "magmom": 0.0 },
        "label": "P",
        "xyz": [2.8258840649566856, 3.0793942449931855, 0.2611871464014936]
      }
    ]
  },
  "task_ids": null,
  "uncorrected_energy_per_atom": null,
  "energy_per_atom": -14.446222633333333,
  "formation_energy_per_atom": -0.597845676091267,
  "energy_above_hull": 0.008187023015873,
  "is_stable": false,
  "equilibrium_reaction_energy_per_atom": null,
  "decomposes_to": null,
  "xas": null,
  "grain_boundaries": null,
  "band_gap": 0.13670000000000002,
  "cbm": null,
  "vbm": null,
  "efermi": 5.6267488199999995,
  "is_gap_direct": null,
  "is_metal": null,
  "es_source_calc_id": null,
  "bandstructure": null,
  "dos": null,
  "dos_energy_up": null,
  "dos_energy_down": null,
  "is_magnetic": null,
  "ordering": null,
  "total_magnetization": 0.0,
  "total_magnetization_normalized_vol": null,
  "total_magnetization_normalized_formula_units": null,
  "num_magnetic_sites": null,
  "num_unique_magnetic_sites": null,
  "types_of_magnetic_species": null,
  "bulk_modulus": null,
  "shear_modulus": null,
  "universal_anisotropy": null,
  "homogeneous_poisson": null,
  "e_total": null,
  "e_ionic": null,
  "e_electronic": null,
  "n": null,
  "e_ij_max": null,
  "weighted_surface_energy_EV_PER_ANG2": null,
  "weighted_surface_energy": null,
  "weighted_work_function": null,
  "surface_anisotropy": null,
  "shape_factor": null,
  "has_reconstructed": null,
  "possible_species": null,
  "has_props": null,
  "theoretical": null,
  "database_IDs": null,
  "fields_not_requested": [
    "builder_meta",
    "nsites",
    "elements",
    "nelements",
    "composition",
    "composition_reduced",
    "chemsys",
    "symmetry",
    "property_name",
    "deprecated",
    "deprecation_reasons",
    "last_updated",
    "origins",
    "warnings",
    "task_ids",
    "uncorrected_energy_per_atom",
    "equilibrium_reaction_energy_per_atom",
    "decomposes_to",
    "xas",
    "grain_boundaries",
    "cbm",
    "vbm",
    "is_gap_direct",
    "is_metal",
    "es_source_calc_id",
    "bandstructure",
    "dos",
    "dos_energy_up",
    "dos_energy_down",
    "is_magnetic",
    "ordering",
    "total_magnetization_normalized_vol",
    "total_magnetization_normalized_formula_units",
    "num_magnetic_sites",
    "num_unique_magnetic_sites",
    "types_of_magnetic_species",
    "bulk_modulus",
    "shear_modulus",
    "universal_anisotropy",
    "homogeneous_poisson",
    "e_total",
    "e_ionic",
    "e_electronic",
    "n",
    "e_ij_max",
    "weighted_surface_energy_EV_PER_ANG2",
    "weighted_surface_energy",
    "weighted_work_function",
    "surface_anisotropy",
    "shape_factor",
    "has_reconstructed",
    "possible_species",
    "has_props",
    "theoretical",
    "database_IDs"
  ]
}
