{
  "builder_meta": null,
  "nsites": null,
  "elements": null,
  "nelements": null,
  "composition": null,
  "composition_reduced": null,
  "formula_pretty": "LuPt",
  "formula_anonymous": "AB",
  "chemsys": null,
  "volume": 163.8935582579841,
  "density": 14.997151777427153,
  "density_atomic": 20.486694782248012,
  "symmetry": null,
  "property_name": null,
  "material_id": "mp-1025438",
  "deprecated": null,
  "deprecation_reasons": null,
  "last_updated": null,
  "origins": null,
  "warnings": null,
  "structure": {
    "@module": "pymatgen.core.structure",
    "@class": "Structure",
    "charge": 0,
    "lattice": {
      "matrix": [
        [0.0, -4.44971655, -0.0],
        [-6.77033704, 0.0, 0.0],
        [0.0, -0.0, -5.44025489]
      ],
      "pbc": [true, true, true],
      "a": 4.44971655,
      "b": 6.77033704,
      "c": 5.44025489,
      "alpha": 90.0,
      "beta": 90.0,
      "gamma": 90.0,
      "volume": 163.8935582579841
    },
    "properties": {},
    "sites": [
      {
        "species": [{ "element": "Lu", "occu": 1 }],
        "abc": [0.75, 0.81827653, 0.35781809000000003],
        "properties": { "magmom": -0.0 },
        "label": "Lu",
        "xyz": [-5.5400079000216715, -3.3372874125, -1.9466216138529604]
      },
      {
        "species": [{ "element": "Lu", "occu": 1 }],
        "abc": [0.25, 0.18172347, 0.64218191],
        "properties": { "magmom": -0.0 },
        "label": "Lu",
        "xyz": [-1.230329139978329, -1.1124291375, -3.4936332761470403]
      },
      {
        "species": [{ "element": "Lu", "occu": 1 }],
        "abc": [0.25, 0.68172347, 0.85781809],
        "properties": { "magmom": -0.0 },
        "label": "Lu",
        "xyz": [-4.615497659978329, -1.1124291375, -4.66674905885296]
      },
      {
        "species": [{ "element": "Lu", "occu": 1 }],
        "abc": [0.75, 0.31827653, 0.14218191],
        "properties": { "magmom": -0.0 },
        "label": "Lu",
        "xyz": [-2.1548393800216714, -3.3372874125, -0.7735058311470399]
      },
      {
        "species": [{ "element": "Pt", "occu": 1 }],
        "abc": [0.75, 0.95664695, 0.84239607],
        "properties": { "magmom": 0.0 },
        "label": "Pt",
        "xyz": [-6.476822279788029, -3.3372874125, -4.582849339134283]
      },
      {
        "species": [{ "element": "Pt", "occu": 1 }],
        "abc": [0.25, 0.043353050000000004, 0.15760393],
        "properties": { "magmom": 0.0 },
        "label": "Pt",
        "xyz": [-0.29351476021197204, -1.1124291375, -0.8574055508657178]
      },
      {
        "species": [{ "element": "Pt", "occu": 1 }],
        "abc": [0.25, 0.54335305, 0.34239607],
        "properties": { "magmom": 0.0 },
        "label": "Pt",
        "xyz": [-3.678683280211972, -1.1124291375, -1.8627218941342825]
      },
      {
        "species": [{ "element": "Pt", "occu": 1 }],
        "abc": [0.75, 0.45664695, 0.6576039300000001],
        "properties": { "magmom": 0.0 },
        "label": "Pt",
        "xyz": [-3.091653759788028, -3.3372874125, -3.577532995865718]
      }
    ]
  },
  "task_ids": null,
  "uncorrected_energy_per_atom": null,
  "energy_per_atom": -46.2435878525,
  "formation_energy_per_atom": -1.459789310833329,
  "energy_above_hull": 0.0,
  "is_stable": true,
  "equilibrium_reaction_energy_per_atom": null,
  "decomposes_to": null,
  "xas": null,
  "grain_boundaries": null,
  "band_gap": 0.0,
  "cbm": null,
  "vbm": null,
  "efermi": 4.88455939,
  "is_gap_direct": null,
  "is_metal": null,
  "es_source_calc_id": null,
  "bandstructure": null,
  "dos": null,
  "dos_energy_up": null,
  "dos_energy_down": null,
  "is_magnetic": null,
  "ordering": null,
  "total_magnetization": 0.0,
  "total_magnetization_normalized_vol": null,
  "total_magnetization_normalized_formula_units": null,
  "num_magnetic_sites": null,
  "num_unique_magnetic_sites": null,
  "types_of_magnetic_species": null,
  "bulk_modulus": null,
  "shear_modulus": null,
  "universal_anisotropy": null,
  "homogeneous_poisson": null,
  "e_total": null,
  "e_ionic": null,
  "e_electronic": null,
  "n": null,
  "e_ij_max": null,
  "weighted_surface_energy_EV_PER_ANG2": null,
  "weighted_surface_energy": null,
  "weighted_work_function": null,
  "surface_anisotropy": null,
  "shape_factor": null,
  "has_reconstructed": null,
  "possible_species": null,
  "has_props": null,
  "theoretical": null,
  "database_IDs": null,
  "fields_not_requested": [
    "builder_meta",
    "nsites",
    "elements",
    "nelements",
    "composition",
    "composition_reduced",
    "chemsys",
    "symmetry",
    "property_name",
    "deprecated",
    "deprecation_reasons",
    "last_updated",
    "origins",
    "warnings",
    "task_ids",
    "uncorrected_energy_per_atom",
    "equilibrium_reaction_energy_per_atom",
    "decomposes_to",
    "xas",
    "grain_boundaries",
    "cbm",
    "vbm",
    "is_gap_direct",
    "is_metal",
    "es_source_calc_id",
    "bandstructure",
    "dos",
    "dos_energy_up",
    "dos_energy_down",
    "is_magnetic",
    "ordering",
    "total_magnetization_normalized_vol",
    "total_magnetization_normalized_formula_units",
    "num_magnetic_sites",
    "num_unique_magnetic_sites",
    "types_of_magnetic_species",
    "bulk_modulus",
    "shear_modulus",
    "universal_anisotropy",
    "homogeneous_poisson",
    "e_total",
    "e_ionic",
    "e_electronic",
    "n",
    "e_ij_max",
    "weighted_surface_energy_EV_PER_ANG2",
    "weighted_surface_energy",
    "weighted_work_function",
    "surface_anisotropy",
    "shape_factor",
    "has_reconstructed",
    "possible_species",
    "has_props",
    "theoretical",
    "database_IDs"
  ]
}
