{
  "builder_meta": null,
  "nsites": null,
  "elements": null,
  "nelements": null,
  "composition": null,
  "composition_reduced": null,
  "formula_pretty": "LuRe2",
  "formula_anonymous": "AB2",
  "chemsys": null,
  "volume": 219.82506366026942,
  "density": 16.539470425798495,
  "density_atomic": 18.318755305022453,
  "symmetry": null,
  "property_name": null,
  "material_id": "mp-1103739",
  "deprecated": null,
  "deprecation_reasons": null,
  "last_updated": null,
  "origins": null,
  "warnings": null,
  "structure": {
    "@module": "pymatgen.core.structure",
    "@class": "Structure",
    "charge": 0,
    "lattice": {
      "matrix": [
        [-2.698592, -4.670426, 0.0],
        [-2.698592, 4.670426, 0.0],
        [0.0, 0.0, -8.720743]
      ],
      "pbc": [true, true, true],
      "a": 5.394003875039394,
      "b": 5.394003875039394,
      "c": 8.720743,
      "alpha": 90.0,
      "beta": 90.0,
      "gamma": 119.96099074815166,
      "volume": 219.82506366026942
    },
    "properties": {},
    "sites": [
      {
        "species": [{ "element": "Lu", "occu": 1 }],
        "abc": [0.66661, 0.33339, 0.562959],
        "properties": { "magmom": -0.0 },
        "label": "Lu",
        "xyz": [-2.698592, -1.5562793517200002, -4.909420758537]
      },
      {
        "species": [{ "element": "Lu", "occu": 1 }],
        "abc": [0.33339, 0.66661, 0.437040999999999],
        "properties": { "magmom": -0.0 },
        "label": "Lu",
        "xyz": [-2.698592, 1.5562793517200002, -3.8113222414629915]
      },
      {
        "species": [{ "element": "Lu", "occu": 1 }],
        "abc": [0.33339, 0.66661, 0.062959],
        "properties": { "magmom": -0.0 },
        "label": "Lu",
        "xyz": [-2.698592, 1.5562793517200002, -0.549049258537]
      },
      {
        "species": [{ "element": "Lu", "occu": 1 }],
        "abc": [0.66661, 0.33339, 0.937041],
        "properties": { "magmom": -0.0 },
        "label": "Lu",
        "xyz": [-2.698592, -1.5562793517200002, -8.171693741463]
      },
      {
        "species": [{ "element": "Re", "occu": 1 }],
        "abc": [0.0, 0.0, 0.5],
        "properties": { "magmom": 0.0 },
        "label": "Re",
        "xyz": [0.0, 0.0, -4.3603715]
      },
      {
        "species": [{ "element": "Re", "occu": 1 }],
        "abc": [0.0, 0.0, 0.0],
        "properties": { "magmom": 0.0 },
        "label": "Re",
        "xyz": [0.0, 0.0, 0.0]
      },
      {
        "species": [{ "element": "Re", "occu": 1 }],
        "abc": [0.171921, 0.344107, 0.75],
        "properties": { "magmom": 0.0 },
        "label": "Re",
        "xyz": [-1.392549032576, 0.8041819712360001, -6.540557250000001]
      },
      {
        "species": [{ "element": "Re", "occu": 1 }],
        "abc": [0.172325, 0.827674999999999, 0.75],
        "properties": { "magmom": 0.0 },
        "label": "Re",
        "xyz": [-2.6985919999999974, 3.0607636790999955, -6.540557250000001]
      },
      {
        "species": [{ "element": "Re", "occu": 1 }],
        "abc": [0.655893, 0.828079, 0.75],
        "properties": { "magmom": 0.0 },
        "label": "Re",
        "xyz": [-4.004634967424, 0.8041819712360003, -6.540557250000001]
      },
      {
        "species": [{ "element": "Re", "occu": 1 }],
        "abc": [0.828079, 0.655893, 0.25],
        "properties": { "magmom": 0.0 },
        "label": "Re",
        "xyz": [-4.004634967424, -0.8041819712360003, -2.18018575]
      },
      {
        "species": [{ "element": "Re", "occu": 1 }],
        "abc": [0.827674999999999, 0.172325, 0.25],
        "properties": { "magmom": 0.0 },
        "label": "Re",
        "xyz": [-2.6985919999999974, -3.0607636790999955, -2.18018575]
      },
      {
        "species": [{ "element": "Re", "occu": 1 }],
        "abc": [0.344107, 0.171921, 0.25],
        "properties": { "magmom": 0.0 },
        "label": "Re",
        "xyz": [-1.392549032576, -0.8041819712360001, -2.18018575]
      }
    ]
  },
  "task_ids": null,
  "uncorrected_energy_per_atom": null,
  "energy_per_atom": -10.124893274166666,
  "formation_energy_per_atom": -0.318921318055557,
  "energy_above_hull": 0.0,
  "is_stable": true,
  "equilibrium_reaction_energy_per_atom": null,
  "decomposes_to": null,
  "xas": null,
  "grain_boundaries": null,
  "band_gap": 0.0,
  "cbm": null,
  "vbm": null,
  "efermi": 5.44385273,
  "is_gap_direct": null,
  "is_metal": null,
  "es_source_calc_id": null,
  "bandstructure": null,
  "dos": null,
  "dos_energy_up": null,
  "dos_energy_down": null,
  "is_magnetic": null,
  "ordering": null,
  "total_magnetization": 0.0074554,
  "total_magnetization_normalized_vol": null,
  "total_magnetization_normalized_formula_units": null,
  "num_magnetic_sites": null,
  "num_unique_magnetic_sites": null,
  "types_of_magnetic_species": null,
  "bulk_modulus": null,
  "shear_modulus": null,
  "universal_anisotropy": null,
  "homogeneous_poisson": null,
  "e_total": null,
  "e_ionic": null,
  "e_electronic": null,
  "n": null,
  "e_ij_max": null,
  "weighted_surface_energy_EV_PER_ANG2": null,
  "weighted_surface_energy": null,
  "weighted_work_function": null,
  "surface_anisotropy": null,
  "shape_factor": null,
  "has_reconstructed": null,
  "possible_species": null,
  "has_props": null,
  "theoretical": null,
  "database_IDs": null,
  "fields_not_requested": [
    "builder_meta",
    "nsites",
    "elements",
    "nelements",
    "composition",
    "composition_reduced",
    "chemsys",
    "symmetry",
    "property_name",
    "deprecated",
    "deprecation_reasons",
    "last_updated",
    "origins",
    "warnings",
    "task_ids",
    "uncorrected_energy_per_atom",
    "equilibrium_reaction_energy_per_atom",
    "decomposes_to",
    "xas",
    "grain_boundaries",
    "cbm",
    "vbm",
    "is_gap_direct",
    "is_metal",
    "es_source_calc_id",
    "bandstructure",
    "dos",
    "dos_energy_up",
    "dos_energy_down",
    "is_magnetic",
    "ordering",
    "total_magnetization_normalized_vol",
    "total_magnetization_normalized_formula_units",
    "num_magnetic_sites",
    "num_unique_magnetic_sites",
    "types_of_magnetic_species",
    "bulk_modulus",
    "shear_modulus",
    "universal_anisotropy",
    "homogeneous_poisson",
    "e_total",
    "e_ionic",
    "e_electronic",
    "n",
    "e_ij_max",
    "weighted_surface_energy_EV_PER_ANG2",
    "weighted_surface_energy",
    "weighted_work_function",
    "surface_anisotropy",
    "shape_factor",
    "has_reconstructed",
    "possible_species",
    "has_props",
    "theoretical",
    "database_IDs"
  ]
}
