{"builder_meta": null, "nsites": null, "elements": null, "nelements": null, "composition": null, "composition_reduced": null, "formula_pretty": "LuRh3", "formula_anonymous": "AB3", "chemsys": null, "volume": 62.38420366657932, "density": 12.874658974770258, "density_atomic": 15.59605091664483, "symmetry": null, "property_name": null, "material_id": "mp-865802", "deprecated": null, "deprecation_reasons": null, "last_updated": null, "origins": null, "warnings": null, "structure": {"@module": "pymatgen.core.structure", "@class": "Structure", "charge": 0, "lattice": {"matrix": [[3.96508493, -0.00014243, 9.499000000000001e-05], [-0.00014139, 3.96640822, 0.00016832000000000001], [9.396000000000003e-05, 0.0001673, 3.9666577800000002]], "pbc": [true, true, true], "a": 3.9650849336959366, "b": 3.9664082260915006, "c": 3.966657784640906, "alpha": 89.99515208383508, "beta": 89.99727028326852, "gamma": 90.00410048075494, "volume": 62.384203666579324}, "properties": {}, "sites": [{"species": [{"element": "Lu", "occu": 1}], "abc": [0.99999727, 9.199999999999999e-07, 1.33e-06], "properties": {"magmom": -0.0}, "label": "Lu", "xyz": [3.9650741053130294, -0.0001387802930947, 0.00010026555037910002]}, {"species": [{"element": "Rh", "occu": 1}], "abc": [4.17e-06, 0.49999824000000004, 0.49999861], "properties": {"magmom": 0.0}, "label": "Rh", "xyz": [-7.180477599899993e-06, 1.9832807782950528, 1.983407536445551]}, {"species": [{"element": "Rh", "occu": 1}], "abc": [0.49999751000000003, 0.99999724, 0.4999994], "properties": {"magmom": 0.0}, "label": "Rh", "xyz": [1.982438182272385, 3.9664097079675833, 1.9835423243042438]}, {"species": [{"element": "Rh", "occu": 1}], "abc": [0.49999905, 0.5000006, -3.4e-07], "properties": {"magmom": -0.0}, "label": "Rh", "xyz": [1.9824680030525361, 1.9831352749233584, 0.0001303063471063]}]}, "task_ids": null, "uncorrected_energy_per_atom": null, "energy_per_atom": -28.2675707025, "formation_energy_per_atom": -0.6454291841666621, "energy_above_hull": 0.0, "is_stable": true, "equilibrium_reaction_energy_per_atom": null, "decomposes_to": null, "xas": null, "grain_boundaries": null, "band_gap": 0.0, "cbm": null, "vbm": null, "efermi": 5.79179884, "is_gap_direct": null, "is_metal": null, "es_source_calc_id": null, "bandstructure": null, "dos": null, "dos_energy_up": null, "dos_energy_down": null, "is_magnetic": null, "ordering": null, "total_magnetization": 2e-07, "total_magnetization_normalized_vol": null, "total_magnetization_normalized_formula_units": null, "num_magnetic_sites": null, "num_unique_magnetic_sites": null, "types_of_magnetic_species": null, "bulk_modulus": null, "shear_modulus": null, "universal_anisotropy": null, "homogeneous_poisson": null, "e_total": null, "e_ionic": null, "e_electronic": null, "n": null, "e_ij_max": null, "weighted_surface_energy_EV_PER_ANG2": null, "weighted_surface_energy": null, "weighted_work_function": null, "surface_anisotropy": null, "shape_factor": null, "has_reconstructed": null, "possible_species": null, "has_props": null, "theoretical": null, "database_IDs": null, "fields_not_requested": ["builder_meta", "nsites", "elements", "nelements", "composition", "composition_reduced", "chemsys", "symmetry", "property_name", "deprecated", "deprecation_reasons", "last_updated", "origins", "warnings", "task_ids", "uncorrected_energy_per_atom", "equilibrium_reaction_energy_per_atom", "decomposes_to", "xas", "grain_boundaries", "cbm", "vbm", "is_gap_direct", "is_metal", "es_source_calc_id", "bandstructure", "dos", "dos_energy_up", "dos_energy_down", "is_magnetic", "ordering", "total_magnetization_normalized_vol", "total_magnetization_normalized_formula_units", "num_magnetic_sites", "num_unique_magnetic_sites", "types_of_magnetic_species", "bulk_modulus", "shear_modulus", "universal_anisotropy", "homogeneous_poisson", "e_total", "e_ionic", "e_electronic", "n", "e_ij_max", "weighted_surface_energy_EV_PER_ANG2", "weighted_surface_energy", "weighted_work_function", "surface_anisotropy", "shape_factor", "has_reconstructed", "possible_species", "has_props", "theoretical", "database_IDs"]}