{"builder_meta": null, "nsites": null, "elements": null, "nelements": null, "composition": null, "composition_reduced": null, "formula_pretty": "LuRu2", "formula_anonymous": "AB2", "chemsys": null, "volume": 203.8337718270931, "density": 12.288462312702844, "density_atomic": 16.98614765225776, "symmetry": null, "property_name": null, "material_id": "mp-568630", "deprecated": null, "deprecation_reasons": null, "last_updated": null, "origins": null, "warnings": null, "structure": {"@module": "pymatgen.core.structure", "@class": "Structure", "charge": 0, "lattice": {"matrix": [[5.17159066, -0.0, 0.0], [-2.5857958400000003, 4.47872742, -0.0], [-0.0, -0.0, 8.80029776]], "pbc": [true, true, true], "a": 5.17159066, "b": 5.171589642346071, "c": 8.80029776, "alpha": 90.0, "beta": 90.0, "gamma": 120.00001303372049, "volume": 203.8337718270931}, "properties": {}, "sites": [{"species": [{"element": "Lu", "occu": 1}], "abc": [0.333333, 0.666667, 0.43271531], "properties": {"magmom": -0.0}, "label": "Lu", "xyz": [-2.9257955003192393e-06, 2.98581977290914, 3.8080235733107055]}, {"species": [{"element": "Lu", "occu": 1}], "abc": [0.666667, 0.333333, 0.56728469], "properties": {"magmom": -0.0}, "label": "Lu", "xyz": [2.5857977457955, 1.49290764709086, 4.992274186689294]}, {"species": [{"element": "Lu", "occu": 1}], "abc": [0.666667, 0.333333, 0.93271531], "properties": {"magmom": -0.0}, "label": "Lu", "xyz": [2.5857977457955, 1.49290764709086, 8.208172453310704]}, {"species": [{"element": "Lu", "occu": 1}], "abc": [0.333333, 0.666667, 0.06728469000000001], "properties": {"magmom": -0.0}, "label": "Lu", "xyz": [-2.9257955003192393e-06, 2.98581977290914, 0.5921253066892944]}, {"species": [{"element": "Ru", "occu": 1}], "abc": [0.1715175, 0.343032, 0.75], "properties": {"magmom": 0.0}, "label": "Ru", "xyz": [7.58243966980654e-06, 1.53634682433744, 6.60022332]}, {"species": [{"element": "Ru", "occu": 1}], "abc": [0.1715175, 0.8284825, 0.75], "properties": {"magmom": 0.0}, "label": "Ru", "xyz": [-1.2552683009862506, 3.71054728974015, 6.60022332]}, {"species": [{"element": "Ru", "occu": 1}], "abc": [0.343032, 0.1715175, 0.25], "properties": {"magmom": 0.0}, "label": "Ru", "xyz": [1.3305118492939199, 0.76818013025985, 2.20007444]}, {"species": [{"element": "Ru", "occu": 1}], "abc": [0.8284825, 0.656968, 0.25], "properties": {"magmom": 0.0}, "label": "Ru", "xyz": [2.5857872375603295, 2.94238059566256, 2.20007444]}, {"species": [{"element": "Ru", "occu": 1}], "abc": [0.656968, 0.8284825, 0.75], "properties": {"magmom": 0.0}, "label": "Ru", "xyz": [1.2552829707060793, 3.71054728974015, 6.60022332]}, {"species": [{"element": "Ru", "occu": 1}], "abc": [0.0, 0.0, 0.0], "properties": {"magmom": 0.0}, "label": "Ru", "xyz": [0.0, 0.0, 0.0]}, {"species": [{"element": "Ru", "occu": 1}], "abc": [0.8284825, 0.1715175, 0.25], "properties": {"magmom": 0.0}, "label": "Ru", "xyz": [3.84106312098625, 0.76818013025985, 2.20007444]}, {"species": [{"element": "Ru", "occu": 1}], "abc": [0.0, 0.0, 0.5], "properties": {"magmom": 0.0}, "label": "Ru", "xyz": [0.0, 0.0, 4.40014888]}]}, "task_ids": null, "uncorrected_energy_per_atom": null, "energy_per_atom": -8.092302473333334, "formation_energy_per_atom": -0.402138295555555, "energy_above_hull": 0.0, "is_stable": true, "equilibrium_reaction_energy_per_atom": null, "decomposes_to": null, "xas": null, "grain_boundaries": null, "band_gap": 0.0, "cbm": null, "vbm": null, "efermi": 5.8005575799999995, "is_gap_direct": null, "is_metal": null, "es_source_calc_id": null, "bandstructure": null, "dos": null, "dos_energy_up": null, "dos_energy_down": null, "is_magnetic": null, "ordering": null, "total_magnetization": 0.0006374, "total_magnetization_normalized_vol": null, "total_magnetization_normalized_formula_units": null, "num_magnetic_sites": null, "num_unique_magnetic_sites": null, "types_of_magnetic_species": null, "bulk_modulus": null, "shear_modulus": null, "universal_anisotropy": null, "homogeneous_poisson": null, "e_total": null, "e_ionic": null, "e_electronic": null, "n": null, "e_ij_max": null, "weighted_surface_energy_EV_PER_ANG2": null, "weighted_surface_energy": null, "weighted_work_function": null, "surface_anisotropy": null, "shape_factor": null, "has_reconstructed": null, "possible_species": null, "has_props": null, "theoretical": null, "database_IDs": null, "fields_not_requested": ["builder_meta", "nsites", "elements", "nelements", "composition", "composition_reduced", "chemsys", "symmetry", "property_name", "deprecated", "deprecation_reasons", "last_updated", "origins", "warnings", "task_ids", "uncorrected_energy_per_atom", "equilibrium_reaction_energy_per_atom", "decomposes_to", "xas", "grain_boundaries", "cbm", "vbm", "is_gap_direct", "is_metal", "es_source_calc_id", "bandstructure", "dos", "dos_energy_up", "dos_energy_down", "is_magnetic", "ordering", "total_magnetization_normalized_vol", "total_magnetization_normalized_formula_units", "num_magnetic_sites", "num_unique_magnetic_sites", "types_of_magnetic_species", "bulk_modulus", "shear_modulus", "universal_anisotropy", "homogeneous_poisson", "e_total", "e_ionic", "e_electronic", "n", "e_ij_max", "weighted_surface_energy_EV_PER_ANG2", "weighted_surface_energy", "weighted_work_function", "surface_anisotropy", "shape_factor", "has_reconstructed", "possible_species", "has_props", "theoretical", "database_IDs"]}