{"builder_meta": null, "nsites": null, "elements": null, "nelements": null, "composition": null, "composition_reduced": null, "formula_pretty": "LuS2", "formula_anonymous": "AB2", "chemsys": null, "volume": 111.18893134272274, "density": 7.141536561460002, "density_atomic": 18.531488557120458, "symmetry": null, "property_name": null, "material_id": "mp-1018792", "deprecated": null, "deprecation_reasons": null, "last_updated": null, "origins": null, "warnings": null, "structure": {"@module": "pymatgen.core.structure", "@class": "Structure", "charge": 0, "lattice": {"matrix": [[3.78383089, 8.99e-05, -3.275e-05], [8.99e-05, 3.78374851, -1.2990000000000001e-05], [-6.64e-05, -2.667e-05, 7.7661822]], "pbc": [true, true, true], "a": 3.7838308912096963, "b": 3.783748511090288, "c": 7.76618220032965, "alpha": 90.00039347454677, "beta": 90.00098578652143, "gamma": 89.99727738896345, "volume": 111.18893134272274}, "properties": {}, "sites": [{"species": [{"element": "Lu", "occu": 1}], "abc": [0.74998389, 0.74993029, 0.7267494600000001], "properties": {"magmom": -0.0}, "label": "Lu", "xyz": [2.8378313725532887, 2.837595658534981, 5.6440344165447485]}, {"species": [{"element": "Lu", "occu": 1}], "abc": [0.24998011, 0.24993169, 0.27321784], "properties": {"magmom": -0.0}, "label": "Lu", "xyz": [0.9458867892979529, 0.9456938461313782, 2.1218480922691922]}, {"species": [{"element": "S", "occu": 1}], "abc": [0.75003898, 0.75001027, 0.36929289], "properties": {"magmom": 0.0}, "label": "S", "xyz": [2.838063566103469, 2.8379078210601234, 2.867961562494556]}, {"species": [{"element": "S", "occu": 1}], "abc": [0.24996544, 0.25001472, 0.63073818], "properties": {"magmom": 0.0}, "label": "S", "xyz": [0.9458075486126176, 0.9459984743838628, 4.898416192317024]}, {"species": [{"element": "S", "occu": 1}], "abc": [0.7500579900000001, 0.25005736, 2.62e-06], "properties": {"magmom": -0.0}, "label": "S", "xyz": [2.8381150718360075, 0.9462215934579592, -7.465246914900002e-06]}, {"species": [{"element": "S", "occu": 1}], "abc": [0.2499726, 0.75005467, -0.0], "properties": {"magmom": -0.0}, "label": "S", "xyz": [0.945921475448447, 2.838040712567782, -1.79298128133e-05]}]}, "task_ids": null, "uncorrected_energy_per_atom": null, "energy_per_atom": -19.87733388166667, "formation_energy_per_atom": -1.8273744324305552, "energy_above_hull": 0.133847340364585, "is_stable": false, "equilibrium_reaction_energy_per_atom": null, "decomposes_to": null, "xas": null, "grain_boundaries": null, "band_gap": 0.0, "cbm": null, "vbm": null, "efermi": 6.39918354, "is_gap_direct": null, "is_metal": null, "es_source_calc_id": null, "bandstructure": null, "dos": null, "dos_energy_up": null, "dos_energy_down": null, "is_magnetic": null, "ordering": null, "total_magnetization": 4.999999999999999e-06, "total_magnetization_normalized_vol": null, "total_magnetization_normalized_formula_units": null, "num_magnetic_sites": null, "num_unique_magnetic_sites": null, "types_of_magnetic_species": null, "bulk_modulus": null, "shear_modulus": null, "universal_anisotropy": null, "homogeneous_poisson": null, "e_total": null, "e_ionic": null, "e_electronic": null, "n": null, "e_ij_max": null, "weighted_surface_energy_EV_PER_ANG2": null, "weighted_surface_energy": null, "weighted_work_function": null, "surface_anisotropy": null, "shape_factor": null, "has_reconstructed": null, "possible_species": null, "has_props": null, "theoretical": null, "database_IDs": null, "fields_not_requested": ["builder_meta", "nsites", "elements", "nelements", "composition", "composition_reduced", "chemsys", "symmetry", "property_name", "deprecated", "deprecation_reasons", "last_updated", "origins", "warnings", "task_ids", "uncorrected_energy_per_atom", "equilibrium_reaction_energy_per_atom", "decomposes_to", "xas", "grain_boundaries", "cbm", "vbm", "is_gap_direct", "is_metal", "es_source_calc_id", "bandstructure", "dos", "dos_energy_up", "dos_energy_down", "is_magnetic", "ordering", "total_magnetization_normalized_vol", "total_magnetization_normalized_formula_units", "num_magnetic_sites", "num_unique_magnetic_sites", "types_of_magnetic_species", "bulk_modulus", "shear_modulus", "universal_anisotropy", "homogeneous_poisson", "e_total", "e_ionic", "e_electronic", "n", "e_ij_max", "weighted_surface_energy_EV_PER_ANG2", "weighted_surface_energy", "weighted_work_function", "surface_anisotropy", "shape_factor", "has_reconstructed", "possible_species", "has_props", "theoretical", "database_IDs"]}