{
  "builder_meta": null,
  "nsites": null,
  "elements": null,
  "nelements": null,
  "composition": null,
  "composition_reduced": null,
  "formula_pretty": "LuSb3",
  "formula_anonymous": "AB3",
  "chemsys": null,
  "volume": 214.37762163533262,
  "density": 8.369355367133101,
  "density_atomic": 26.797202704416577,
  "symmetry": null,
  "property_name": null,
  "material_id": "mp-973615",
  "deprecated": null,
  "deprecation_reasons": null,
  "last_updated": null,
  "origins": null,
  "warnings": null,
  "structure": {
    "@module": "pymatgen.core.structure",
    "@class": "Structure",
    "charge": 0,
    "lattice": {
      "matrix": [
        [3.267967999999999, -5.660287, 0.0],
        [3.267967999999999, 5.660287, 0.0],
        [0.0, 0.0, 5.79473]
      ],
      "pbc": [true, true, true],
      "a": 6.5359363347108115,
      "b": 6.5359363347108115,
      "c": 5.79473,
      "alpha": 90.0,
      "beta": 90.0,
      "gamma": 120.00000338808213,
      "volume": 214.37762163533253
    },
    "properties": {},
    "sites": [
      {
        "species": [{ "element": "Lu", "occu": 1 }],
        "abc": [0.666667, 0.333333, 0.25],
        "properties": { "magmom": 0.002 },
        "label": "Lu",
        "xyz": [3.267967999999999, -1.8867661068580004, 1.4486825]
      },
      {
        "species": [{ "element": "Lu", "occu": 1 }],
        "abc": [0.333333, 0.666667, 0.75],
        "properties": { "magmom": 0.002 },
        "label": "Lu",
        "xyz": [3.267967999999999, 1.8867661068580004, 4.3460475]
      },
      {
        "species": [{ "element": "Sb", "occu": 1 }],
        "abc": [0.824388999999999, 0.175611, 0.75],
        "properties": { "magmom": 0.004 },
        "label": "Sb",
        "xyz": [3.2679679999999953, -3.6722696792859946, 4.3460475]
      },
      {
        "species": [{ "element": "Sb", "occu": 1 }],
        "abc": [0.351222, 0.175611, 0.75],
        "properties": { "magmom": 0.003 },
        "label": "Sb",
        "xyz": [1.7216733853439992, -0.994008660357, 4.3460475]
      },
      {
        "species": [{ "element": "Sb", "occu": 1 }],
        "abc": [0.824388999999999, 0.648778, 0.75],
        "properties": { "magmom": 0.004 },
        "label": "Sb",
        "xyz": [4.814262614655995, -0.9940086603569949, 4.3460475]
      },
      {
        "species": [{ "element": "Sb", "occu": 1 }],
        "abc": [0.175611, 0.824388999999999, 0.25],
        "properties": { "magmom": 0.004 },
        "label": "Sb",
        "xyz": [3.2679679999999953, 3.6722696792859946, 1.4486825]
      },
      {
        "species": [{ "element": "Sb", "occu": 1 }],
        "abc": [0.648778, 0.824388999999999, 0.25],
        "properties": { "magmom": 0.003 },
        "label": "Sb",
        "xyz": [4.814262614655995, 0.9940086603569949, 1.4486825]
      },
      {
        "species": [{ "element": "Sb", "occu": 1 }],
        "abc": [0.175611, 0.351222, 0.25],
        "properties": { "magmom": 0.003 },
        "label": "Sb",
        "xyz": [1.7216733853439992, 0.994008660357, 1.4486825]
      }
    ]
  },
  "task_ids": null,
  "uncorrected_energy_per_atom": null,
  "energy_per_atom": -29.30693998375,
  "formation_energy_per_atom": -0.507233140416666,
  "energy_above_hull": 0.10937462125000101,
  "is_stable": false,
  "equilibrium_reaction_energy_per_atom": null,
  "decomposes_to": null,
  "xas": null,
  "grain_boundaries": null,
  "band_gap": 0.0,
  "cbm": null,
  "vbm": null,
  "efermi": 7.40525059,
  "is_gap_direct": null,
  "is_metal": null,
  "es_source_calc_id": null,
  "bandstructure": null,
  "dos": null,
  "dos_energy_up": null,
  "dos_energy_down": null,
  "is_magnetic": null,
  "ordering": null,
  "total_magnetization": 0.0561987,
  "total_magnetization_normalized_vol": null,
  "total_magnetization_normalized_formula_units": null,
  "num_magnetic_sites": null,
  "num_unique_magnetic_sites": null,
  "types_of_magnetic_species": null,
  "bulk_modulus": null,
  "shear_modulus": null,
  "universal_anisotropy": null,
  "homogeneous_poisson": null,
  "e_total": null,
  "e_ionic": null,
  "e_electronic": null,
  "n": null,
  "e_ij_max": null,
  "weighted_surface_energy_EV_PER_ANG2": null,
  "weighted_surface_energy": null,
  "weighted_work_function": null,
  "surface_anisotropy": null,
  "shape_factor": null,
  "has_reconstructed": null,
  "possible_species": null,
  "has_props": null,
  "theoretical": null,
  "database_IDs": null,
  "fields_not_requested": [
    "builder_meta",
    "nsites",
    "elements",
    "nelements",
    "composition",
    "composition_reduced",
    "chemsys",
    "symmetry",
    "property_name",
    "deprecated",
    "deprecation_reasons",
    "last_updated",
    "origins",
    "warnings",
    "task_ids",
    "uncorrected_energy_per_atom",
    "equilibrium_reaction_energy_per_atom",
    "decomposes_to",
    "xas",
    "grain_boundaries",
    "cbm",
    "vbm",
    "is_gap_direct",
    "is_metal",
    "es_source_calc_id",
    "bandstructure",
    "dos",
    "dos_energy_up",
    "dos_energy_down",
    "is_magnetic",
    "ordering",
    "total_magnetization_normalized_vol",
    "total_magnetization_normalized_formula_units",
    "num_magnetic_sites",
    "num_unique_magnetic_sites",
    "types_of_magnetic_species",
    "bulk_modulus",
    "shear_modulus",
    "universal_anisotropy",
    "homogeneous_poisson",
    "e_total",
    "e_ionic",
    "e_electronic",
    "n",
    "e_ij_max",
    "weighted_surface_energy_EV_PER_ANG2",
    "weighted_surface_energy",
    "weighted_work_function",
    "surface_anisotropy",
    "shape_factor",
    "has_reconstructed",
    "possible_species",
    "has_props",
    "theoretical",
    "database_IDs"
  ]
}
