{
  "builder_meta": null,
  "nsites": null,
  "elements": null,
  "nelements": null,
  "composition": null,
  "composition_reduced": null,
  "formula_pretty": "LuSn2",
  "formula_anonymous": "AB2",
  "chemsys": null,
  "volume": 150.54884550782882,
  "density": 9.097176690370091,
  "density_atomic": 25.091474251304803,
  "symmetry": null,
  "property_name": null,
  "material_id": "mp-1072259",
  "deprecated": null,
  "deprecation_reasons": null,
  "last_updated": null,
  "origins": null,
  "warnings": null,
  "structure": {
    "@module": "pymatgen.core.structure",
    "@class": "Structure",
    "charge": 0,
    "lattice": {
      "matrix": [
        [0.0, -0.0, -4.27992853],
        [-4.32534535, 0.0, 0.0],
        [2.16267268, 8.13242607, 0.0]
      ],
      "pbc": [true, true, true],
      "a": 4.27992853,
      "b": 4.32534535,
      "c": 8.415076167500448,
      "alpha": 104.89211357693944,
      "beta": 90.0,
      "gamma": 90.0,
      "volume": 150.54884550782882
    },
    "properties": {},
    "sites": [
      {
        "species": [{ "element": "Lu", "occu": 1 }],
        "abc": [0.75, 0.10004023000000001, 0.20008046000000002],
        "properties": { "magmom": 0.0 },
        "label": "Lu",
        "xyz": [1.0004023165421927e-9, 1.627139549001592, -3.2099463975000004]
      },
      {
        "species": [{ "element": "Lu", "occu": 1 }],
        "abc": [0.25, 0.89995977, 0.79991954],
        "properties": { "magmom": 0.0 },
        "label": "Lu",
        "xyz": [-2.1626726710004025, 6.505286520998407, -1.0699821325]
      },
      {
        "species": [{ "element": "Sn", "occu": 1 }],
        "abc": [0.75, 0.43745307, 0.8749061300000001],
        "properties": { "magmom": 0.0 },
        "label": "Sn",
        "xyz": [-1.7252195894101874e-8, 7.115109420414809, -3.2099463975000004]
      },
      {
        "species": [{ "element": "Sn", "occu": 1 }],
        "abc": [0.25, 0.56254693, 0.12509387],
        "properties": { "magmom": 0.0 },
        "label": "Sn",
        "xyz": [-2.162672652747804, 1.0173166495851909, -1.0699821325]
      },
      {
        "species": [{ "element": "Sn", "occu": 1 }],
        "abc": [0.75, 0.74845054, 0.49690308],
        "properties": { "magmom": -0.0 },
        "label": "Sn",
        "xyz": [-2.1626683471701345, 4.041027562055295, -3.2099463975000004]
      },
      {
        "species": [{ "element": "Sn", "occu": 1 }],
        "abc": [0.25, 0.25154946, 0.5030969200000001],
        "properties": { "magmom": -0.0 },
        "label": "Sn",
        "xyz": [-4.322829865399669e-6, 4.091398507944705, -1.0699821325]
      }
    ]
  },
  "task_ids": null,
  "uncorrected_energy_per_atom": null,
  "energy_per_atom": -29.717083921666667,
  "formation_energy_per_atom": -0.526334673888887,
  "energy_above_hull": 0.0,
  "is_stable": true,
  "equilibrium_reaction_energy_per_atom": null,
  "decomposes_to": null,
  "xas": null,
  "grain_boundaries": null,
  "band_gap": 0.0,
  "cbm": null,
  "vbm": null,
  "efermi": 6.78504794,
  "is_gap_direct": null,
  "is_metal": null,
  "es_source_calc_id": null,
  "bandstructure": null,
  "dos": null,
  "dos_energy_up": null,
  "dos_energy_down": null,
  "is_magnetic": null,
  "ordering": null,
  "total_magnetization": 0.0,
  "total_magnetization_normalized_vol": null,
  "total_magnetization_normalized_formula_units": null,
  "num_magnetic_sites": null,
  "num_unique_magnetic_sites": null,
  "types_of_magnetic_species": null,
  "bulk_modulus": null,
  "shear_modulus": null,
  "universal_anisotropy": null,
  "homogeneous_poisson": null,
  "e_total": null,
  "e_ionic": null,
  "e_electronic": null,
  "n": null,
  "e_ij_max": null,
  "weighted_surface_energy_EV_PER_ANG2": null,
  "weighted_surface_energy": null,
  "weighted_work_function": null,
  "surface_anisotropy": null,
  "shape_factor": null,
  "has_reconstructed": null,
  "possible_species": null,
  "has_props": null,
  "theoretical": null,
  "database_IDs": null,
  "fields_not_requested": [
    "builder_meta",
    "nsites",
    "elements",
    "nelements",
    "composition",
    "composition_reduced",
    "chemsys",
    "symmetry",
    "property_name",
    "deprecated",
    "deprecation_reasons",
    "last_updated",
    "origins",
    "warnings",
    "task_ids",
    "uncorrected_energy_per_atom",
    "equilibrium_reaction_energy_per_atom",
    "decomposes_to",
    "xas",
    "grain_boundaries",
    "cbm",
    "vbm",
    "is_gap_direct",
    "is_metal",
    "es_source_calc_id",
    "bandstructure",
    "dos",
    "dos_energy_up",
    "dos_energy_down",
    "is_magnetic",
    "ordering",
    "total_magnetization_normalized_vol",
    "total_magnetization_normalized_formula_units",
    "num_magnetic_sites",
    "num_unique_magnetic_sites",
    "types_of_magnetic_species",
    "bulk_modulus",
    "shear_modulus",
    "universal_anisotropy",
    "homogeneous_poisson",
    "e_total",
    "e_ionic",
    "e_electronic",
    "n",
    "e_ij_max",
    "weighted_surface_energy_EV_PER_ANG2",
    "weighted_surface_energy",
    "weighted_work_function",
    "surface_anisotropy",
    "shape_factor",
    "has_reconstructed",
    "possible_species",
    "has_props",
    "theoretical",
    "database_IDs"
  ]
}
