{"builder_meta": null, "nsites": null, "elements": null, "nelements": null, "composition": null, "composition_reduced": null, "formula_pretty": "LuTa3", "formula_anonymous": "AB3", "chemsys": null, "volume": 168.27643448176514, "density": 14.166601685042377, "density_atomic": 21.034554310220642, "symmetry": null, "property_name": null, "material_id": "mp-1185523", "deprecated": null, "deprecation_reasons": null, "last_updated": null, "origins": null, "warnings": null, "structure": {"@module": "pymatgen.core.structure", "@class": "Structure", "charge": 0, "lattice": {"matrix": [[6.23925857, 0.0, -0.0], [-3.11962878, 5.40335657, -0.0], [0.0, 0.0, 4.99144959]], "pbc": [true, true, true], "a": 6.23925857, "b": 6.23925844532557, "c": 4.99144959, "alpha": 90.0, "beta": 90.0, "gamma": 119.99999530611953, "volume": 168.27643448176514}, "properties": {}, "sites": [{"species": [{"element": "Lu", "occu": 1}], "abc": [0.333331999999999, 0.666665, 0.750000999999999], "properties": {"magmom": 0.0}, "label": "Lu", "xyz": [-2.782963465897126e-06, 3.6022287077390494, 3.7435921839495854]}, {"species": [{"element": "Lu", "occu": 1}], "abc": [0.666667, 0.333331999999999, 0.25], "properties": {"magmom": 0.0}, "label": "Lu", "xyz": [3.119635692591233, 1.8011116521912347, 1.2478623975]}, {"species": [{"element": "Ta", "occu": 1}], "abc": [0.14948701, 0.29897303000000003, 0.25], "properties": {"magmom": -0.0}, "label": "Ta", "xyz": [3.239414372080418e-06, 1.615457885903307, 1.2478623975]}, {"species": [{"element": "Ta", "occu": 1}], "abc": [0.70102697, 0.85051299, 0.25], "properties": {"magmom": -0.0}, "label": "Ta", "xyz": [1.7206037290057807, 4.595624952386844, 1.2478623975]}, {"species": [{"element": "Ta", "occu": 1}], "abc": [0.14948701, 0.85051299, 0.25], "properties": {"magmom": 0.0}, "label": "Ta", "xyz": [-1.7205966931216765, 4.595624952386844, 1.2478623975]}, {"species": [{"element": "Ta", "occu": 1}], "abc": [0.85051299, 0.70102697, 0.750000999999999], "properties": {"magmom": -0.0}, "label": "Ta", "xyz": [3.1196265505856275, 3.787898684096693, 3.7435921839495854]}, {"species": [{"element": "Ta", "occu": 1}], "abc": [0.29897203, 0.14948601, 0.750000999999999], "properties": {"magmom": 0.0}, "label": "Ta", "xyz": [1.399022941364429, 0.8077262142565856, 3.7435921839495854]}, {"species": [{"element": "Ta", "occu": 1}], "abc": [0.85051399, 0.14948601, 0.750000999999999], "properties": {"magmom": 0.0}, "label": "Ta", "xyz": [4.840235842009027, 0.8077262142565856, 3.7435921839495854]}]}, "task_ids": null, "uncorrected_energy_per_atom": null, "energy_per_atom": -45.64163540033333, "formation_energy_per_atom": 0.32220918000000104, "energy_above_hull": 0.32220918000000104, "is_stable": false, "equilibrium_reaction_energy_per_atom": null, "decomposes_to": null, "xas": null, "grain_boundaries": null, "band_gap": 0.0, "cbm": null, "vbm": null, "efermi": 4.63390321, "is_gap_direct": null, "is_metal": null, "es_source_calc_id": null, "bandstructure": null, "dos": null, "dos_energy_up": null, "dos_energy_down": null, "is_magnetic": null, "ordering": null, "total_magnetization": 3.65e-05, "total_magnetization_normalized_vol": null, "total_magnetization_normalized_formula_units": null, "num_magnetic_sites": null, "num_unique_magnetic_sites": null, "types_of_magnetic_species": null, "bulk_modulus": null, "shear_modulus": null, "universal_anisotropy": null, "homogeneous_poisson": null, "e_total": null, "e_ionic": null, "e_electronic": null, "n": null, "e_ij_max": null, "weighted_surface_energy_EV_PER_ANG2": null, "weighted_surface_energy": null, "weighted_work_function": null, "surface_anisotropy": null, "shape_factor": null, "has_reconstructed": null, "possible_species": null, "has_props": null, "theoretical": null, "database_IDs": null, "fields_not_requested": ["builder_meta", "nsites", "elements", "nelements", "composition", "composition_reduced", "chemsys", "symmetry", "property_name", "deprecated", "deprecation_reasons", "last_updated", "origins", "warnings", "task_ids", "uncorrected_energy_per_atom", "equilibrium_reaction_energy_per_atom", "decomposes_to", "xas", "grain_boundaries", "cbm", "vbm", "is_gap_direct", "is_metal", "es_source_calc_id", "bandstructure", "dos", "dos_energy_up", "dos_energy_down", "is_magnetic", "ordering", "total_magnetization_normalized_vol", "total_magnetization_normalized_formula_units", "num_magnetic_sites", "num_unique_magnetic_sites", "types_of_magnetic_species", "bulk_modulus", "shear_modulus", "universal_anisotropy", "homogeneous_poisson", "e_total", "e_ionic", "e_electronic", "n", "e_ij_max", "weighted_surface_energy_EV_PER_ANG2", "weighted_surface_energy", "weighted_work_function", "surface_anisotropy", "shape_factor", "has_reconstructed", "possible_species", "has_props", "theoretical", "database_IDs"]}