{"builder_meta": null, "nsites": null, "elements": null, "nelements": null, "composition": null, "composition_reduced": null, "formula_pretty": "LuTc2", "formula_anonymous": "AB2", "chemsys": null, "volume": 211.51375905682795, "density": 11.64945861992644, "density_atomic": 17.626146588068995, "symmetry": null, "property_name": null, "material_id": "mp-1095487", "deprecated": null, "deprecation_reasons": null, "last_updated": null, "origins": null, "warnings": null, "structure": {"@module": "pymatgen.core.structure", "@class": "Structure", "charge": 0, "lattice": {"matrix": [[-2.6463782, -4.58244436, -0.00015428], [-2.6457156, 4.58206263, 0.00013008], [-3.613e-05, -0.00026182, -8.72231932]], "pbc": [true, true, true], "a": 5.291702364431825, "b": 5.291040445720169, "c": 8.722319324004388, "alpha": 90.00277934592154, "beta": 89.99672150193396, "gamma": 119.99096770798965, "volume": 211.51375905682795}, "properties": {}, "sites": [{"species": [{"element": "Lu", "occu": 1}], "abc": [0.66667328, 0.33332665, 0.56295807], "properties": {"magmom": -0.0}, "label": "Lu", "xyz": [-2.646177492190305, -1.5278170190324991, -4.910359545533918]}, {"species": [{"element": "Lu", "occu": 1}], "abc": [0.33332668, 0.66666554, 0.43704645000000003], "properties": {"magmom": 0.0}, "label": "Lu", "xyz": [-2.6459316690790384, 1.5271378652377063, -3.8120234003591618]}, {"species": [{"element": "Lu", "occu": 1}], "abc": [0.33332557, 0.66666619, 0.06295374000000001], "properties": {"magmom": -0.0}, "label": "Lu", "xyz": [-2.6459169353447645, 1.5272438750449882, -0.5490673281992013]}, {"species": [{"element": "Lu", "occu": 1}], "abc": [0.66667434, 0.33332764, 0.93704317], "properties": {"magmom": -0.0}, "label": "Lu", "xyz": [-2.646196432304304, -1.527915283142399, -8.173249240622809]}, {"species": [{"element": "Tc", "occu": 1}], "abc": [3.5e-07, 0.99999741, 0.50001724], "properties": {"magmom": -0.0}, "label": "Tc", "xyz": [-2.645727739451847, 4.581918244088485, -4.3611799531759825]}, {"species": [{"element": "Tc", "occu": 1}], "abc": [2.799999999999998e-07, 0.99999817, 0.99998275], "properties": {"magmom": -0.0}, "label": "Tc", "xyz": [-2.6457476287031056, 4.581791146257362, -8.722038780272976]}, {"species": [{"element": "Tc", "occu": 1}], "abc": [0.17218991, 0.3443863, 0.7499952400000001], "properties": {"magmom": -0.0}, "label": "Tc", "xyz": [-1.3668549277482631, 0.7887525498318245, -6.541679739449449]}, {"species": [{"element": "Tc", "occu": 1}], "abc": [0.17220061, 0.8277934100000001, 0.75000603], "properties": {"magmom": -0.0}, "label": "Tc", "xyz": [-2.645840976462762, 3.0037051686594345, -6.541710973328837]}, {"species": [{"element": "Tc", "occu": 1}], "abc": [0.6557615, 0.827881699999999, 0.7499936700000001], "properties": {"magmom": -0.0}, "label": "Tc", "xyz": [-3.9257595639151144, 0.7882188491080471, -6.541677757751389]}, {"species": [{"element": "Tc", "occu": 1}], "abc": [0.82783282, 0.65565894, 0.25000378], "properties": {"magmom": -0.0}, "label": "Tc", "xyz": [-3.9254548465665597, -0.7892929660221628, -2.1806552302995845]}, {"species": [{"element": "Tc", "occu": 1}], "abc": [0.8278118600000001, 0.17219587, 0.24999393], "properties": {"magmom": -0.0}, "label": "Tc", "xyz": [-2.646293591800715, -3.004454981441525, -2.180632201096719]}, {"species": [{"element": "Tc", "occu": 1}], "abc": [0.34419781, 0.17209818000000002, 0.25000593], "properties": {"magmom": -0.0}, "label": "Tc", "xyz": [-1.3662094531436009, -0.7887681304424308, -2.1806622696604396]}]}, "task_ids": null, "uncorrected_energy_per_atom": null, "energy_per_atom": -30.31181533666667, "formation_energy_per_atom": -0.30874724222222405, "energy_above_hull": 0.0, "is_stable": true, "equilibrium_reaction_energy_per_atom": null, "decomposes_to": null, "xas": null, "grain_boundaries": null, "band_gap": 0.0, "cbm": null, "vbm": null, "efermi": 5.98676217, "is_gap_direct": null, "is_metal": null, "es_source_calc_id": null, "bandstructure": null, "dos": null, "dos_energy_up": null, "dos_energy_down": null, "is_magnetic": null, "ordering": null, "total_magnetization": 2.75e-05, "total_magnetization_normalized_vol": null, "total_magnetization_normalized_formula_units": null, "num_magnetic_sites": null, "num_unique_magnetic_sites": null, "types_of_magnetic_species": null, "bulk_modulus": null, "shear_modulus": null, "universal_anisotropy": null, "homogeneous_poisson": null, "e_total": null, "e_ionic": null, "e_electronic": null, "n": null, "e_ij_max": null, "weighted_surface_energy_EV_PER_ANG2": null, "weighted_surface_energy": null, "weighted_work_function": null, "surface_anisotropy": null, "shape_factor": null, "has_reconstructed": null, "possible_species": null, "has_props": null, "theoretical": null, "database_IDs": null, "fields_not_requested": ["builder_meta", "nsites", "elements", "nelements", "composition", "composition_reduced", "chemsys", "symmetry", "property_name", "deprecated", "deprecation_reasons", "last_updated", "origins", "warnings", "task_ids", "uncorrected_energy_per_atom", "equilibrium_reaction_energy_per_atom", "decomposes_to", "xas", "grain_boundaries", "cbm", "vbm", "is_gap_direct", "is_metal", "es_source_calc_id", "bandstructure", "dos", "dos_energy_up", "dos_energy_down", "is_magnetic", "ordering", "total_magnetization_normalized_vol", "total_magnetization_normalized_formula_units", "num_magnetic_sites", "num_unique_magnetic_sites", "types_of_magnetic_species", "bulk_modulus", "shear_modulus", "universal_anisotropy", "homogeneous_poisson", "e_total", "e_ionic", "e_electronic", "n", "e_ij_max", "weighted_surface_energy_EV_PER_ANG2", "weighted_surface_energy", "weighted_work_function", "surface_anisotropy", "shape_factor", "has_reconstructed", "possible_species", "has_props", "theoretical", "database_IDs"]}