{"builder_meta": null, "nsites": null, "elements": null, "nelements": null, "composition": null, "composition_reduced": null, "formula_pretty": "LuTe", "formula_anonymous": "AB", "chemsys": null, "volume": 55.12951549804877, "density": 9.113526923372739, "density_atomic": 27.564757749024384, "symmetry": null, "property_name": null, "material_id": "mp-1185504", "deprecated": null, "deprecation_reasons": null, "last_updated": null, "origins": null, "warnings": null, "structure": {"@module": "pymatgen.core.structure", "@class": "Structure", "charge": 0, "lattice": {"matrix": [[4.00510083, 2.98e-06, 8.51e-06], [-2.00253592, 3.468698009999999, -9.029999999999997e-06], [5.36e-06, -4.03e-06, 3.96829586]], "pbc": [true, true, true], "a": 4.005100830010149, "b": 4.005248556026173, "c": 3.968295860005666, "alpha": 90.00021826077833, "beta": 89.99980086877977, "gamma": 119.9984978652956, "volume": 55.12951549804875}, "properties": {}, "sites": [{"species": [{"element": "Lu", "occu": 1}], "abc": [0.6666645800000001, 0.33331697, 0.7499882], "properties": {"magmom": 0.426}, "label": "Lu", "xyz": [2.002583677455791, 1.1561748747462315, 2.9761777325721885]}, {"species": [{"element": "Te", "occu": 1}], "abc": [0.33333942, 0.6666830300000001, 0.2500108], "properties": {"magmom": 0.004}, "label": "Te", "xyz": [2.6129421686453142e-06, 2.3125220852697175, 0.9921136391659912]}]}, "task_ids": null, "uncorrected_energy_per_atom": null, "energy_per_atom": -5.172808235000001, "formation_energy_per_atom": -1.340311561666668, "energy_above_hull": 0.0, "is_stable": true, "equilibrium_reaction_energy_per_atom": null, "decomposes_to": null, "xas": null, "grain_boundaries": null, "band_gap": 0.0, "cbm": null, "vbm": null, "efermi": 6.02631498, "is_gap_direct": null, "is_metal": null, "es_source_calc_id": null, "bandstructure": null, "dos": null, "dos_energy_up": null, "dos_energy_down": null, "is_magnetic": null, "ordering": null, "total_magnetization": 0.794553699999999, "total_magnetization_normalized_vol": null, "total_magnetization_normalized_formula_units": null, "num_magnetic_sites": null, "num_unique_magnetic_sites": null, "types_of_magnetic_species": null, "bulk_modulus": null, "shear_modulus": null, "universal_anisotropy": null, "homogeneous_poisson": null, "e_total": null, "e_ionic": null, "e_electronic": null, "n": null, "e_ij_max": null, "weighted_surface_energy_EV_PER_ANG2": null, "weighted_surface_energy": null, "weighted_work_function": null, "surface_anisotropy": null, "shape_factor": null, "has_reconstructed": null, "possible_species": null, "has_props": null, "theoretical": null, "database_IDs": null, "fields_not_requested": ["builder_meta", "nsites", "elements", "nelements", "composition", "composition_reduced", "chemsys", "symmetry", "property_name", "deprecated", "deprecation_reasons", "last_updated", "origins", "warnings", "task_ids", "uncorrected_energy_per_atom", "equilibrium_reaction_energy_per_atom", "decomposes_to", "xas", "grain_boundaries", "cbm", "vbm", "is_gap_direct", "is_metal", "es_source_calc_id", "bandstructure", "dos", "dos_energy_up", "dos_energy_down", "is_magnetic", "ordering", "total_magnetization_normalized_vol", "total_magnetization_normalized_formula_units", "num_magnetic_sites", "num_unique_magnetic_sites", "types_of_magnetic_species", "bulk_modulus", "shear_modulus", "universal_anisotropy", "homogeneous_poisson", "e_total", "e_ionic", "e_electronic", "n", "e_ij_max", "weighted_surface_energy_EV_PER_ANG2", "weighted_surface_energy", "weighted_work_function", "surface_anisotropy", "shape_factor", "has_reconstructed", "possible_species", "has_props", "theoretical", "database_IDs"]}