{
  "builder_meta": null,
  "nsites": null,
  "elements": null,
  "nelements": null,
  "composition": null,
  "composition_reduced": null,
  "formula_pretty": "LuZn5",
  "formula_anonymous": "AB5",
  "chemsys": null,
  "volume": 582.2601977784312,
  "density": 8.590082658054689,
  "density_atomic": 16.1738943827342,
  "symmetry": null,
  "property_name": null,
  "material_id": "mp-1199967",
  "deprecated": null,
  "deprecation_reasons": null,
  "last_updated": null,
  "origins": null,
  "warnings": null,
  "structure": {
    "@module": "pymatgen.core.structure",
    "@class": "Structure",
    "charge": 0,
    "lattice": {
      "matrix": [
        [4.35639944, -7.54550449, -0.0],
        [4.35639944, 7.54550449, 0.0],
        [0.0, -0.0, 8.85668365]
      ],
      "pbc": [true, true, true],
      "a": 8.712798292709552,
      "b": 8.712798292709552,
      "c": 8.85668365,
      "alpha": 90.0,
      "beta": 90.0,
      "gamma": 119.99999554048856,
      "volume": 582.2601977784312
    },
    "properties": {},
    "sites": [
      {
        "species": [{ "element": "Lu", "occu": 1 }],
        "abc": [0.19177366, 0.80822634, 0.25],
        "properties": { "magmom": -0.0 },
        "label": "Lu",
        "xyz": [4.35639944, 4.651446464812533, 2.2141709125]
      },
      {
        "species": [{ "element": "Lu", "occu": 1 }],
        "abc": [0.19177366, 0.38354632, 0.25],
        "properties": { "magmom": -0.0 },
        "label": "Lu",
        "xyz": [2.506323638692811, 1.4470214670892434, 2.2141709125]
      },
      {
        "species": [{ "element": "Lu", "occu": 1 }],
        "abc": [0.61645368, 0.80822634, 0.25],
        "properties": { "magmom": -0.0 },
        "label": "Lu",
        "xyz": [6.206475241307189, 1.447021467089244, 2.2141709125]
      },
      {
        "species": [{ "element": "Lu", "occu": 1 }],
        "abc": [0.80822634, 0.19177366, 0.75],
        "properties": { "magmom": -0.0 },
        "label": "Lu",
        "xyz": [4.35639944, -4.651446464812533, 6.642512737500001]
      },
      {
        "species": [{ "element": "Lu", "occu": 1 }],
        "abc": [0.80822634, 0.61645368, 0.75],
        "properties": { "magmom": -0.0 },
        "label": "Lu",
        "xyz": [6.206475241307189, -1.447021467089244, 6.642512737500001]
      },
      {
        "species": [{ "element": "Lu", "occu": 1 }],
        "abc": [0.38354632, 0.19177366, 0.75],
        "properties": { "magmom": -0.0 },
        "label": "Lu",
        "xyz": [2.506323638692811, -1.4470214670892434, 6.642512737500001]
      },
      {
        "species": [{ "element": "Zn", "occu": 1 }],
        "abc": [0.0, 0.0, 0.5],
        "properties": { "magmom": 0.0 },
        "label": "Zn",
        "xyz": [0.0, 0.0, 4.428341825]
      },
      {
        "species": [{ "element": "Zn", "occu": 1 }],
        "abc": [0.0, 0.0, 0.0],
        "properties": { "magmom": 0.0 },
        "label": "Zn",
        "xyz": [0.0, 0.0, 0.0]
      },
      {
        "species": [{ "element": "Zn", "occu": 1 }],
        "abc": [0.333333, 0.666667, 0.48424509],
        "properties": { "magmom": 0.0 },
        "label": "Zn",
        "xyz": [4.35639944, 2.5151731936696597, 4.288805571195779]
      },
      {
        "species": [{ "element": "Zn", "occu": 1 }],
        "abc": [0.666667, 0.333333, 0.51575491],
        "properties": { "magmom": 0.0 },
        "label": "Zn",
        "xyz": [4.35639944, -2.5151731936696597, 4.567878078804221]
      },
      {
        "species": [{ "element": "Zn", "occu": 1 }],
        "abc": [0.666667, 0.333333, 0.98424509],
        "properties": { "magmom": 0.0 },
        "label": "Zn",
        "xyz": [4.35639944, -2.5151731936696597, 8.717147396195779]
      },
      {
        "species": [{ "element": "Zn", "occu": 1 }],
        "abc": [0.333333, 0.666667, 0.01575491],
        "properties": { "magmom": 0.0 },
        "label": "Zn",
        "xyz": [4.35639944, 2.5151731936696597, 0.13953625380422152]
      },
      {
        "species": [{ "element": "Zn", "occu": 1 }],
        "abc": [0.5, 0.5, 0.5],
        "properties": { "magmom": -0.0 },
        "label": "Zn",
        "xyz": [4.35639944, 0.0, 4.428341825]
      },
      {
        "species": [{ "element": "Zn", "occu": 1 }],
        "abc": [0.5, 0.0, 0.5],
        "properties": { "magmom": -0.0 },
        "label": "Zn",
        "xyz": [2.17819972, -3.772752245, 4.428341825]
      },
      {
        "species": [{ "element": "Zn", "occu": 1 }],
        "abc": [0.0, 0.5, 0.5],
        "properties": { "magmom": -0.0 },
        "label": "Zn",
        "xyz": [2.17819972, 3.772752245, 4.428341825]
      },
      {
        "species": [{ "element": "Zn", "occu": 1 }],
        "abc": [0.5, 0.5, 0.0],
        "properties": { "magmom": -0.0 },
        "label": "Zn",
        "xyz": [4.35639944, 0.0, 0.0]
      },
      {
        "species": [{ "element": "Zn", "occu": 1 }],
        "abc": [0.5, 0.0, 0.0],
        "properties": { "magmom": -0.0 },
        "label": "Zn",
        "xyz": [2.17819972, -3.772752245, 0.0]
      },
      {
        "species": [{ "element": "Zn", "occu": 1 }],
        "abc": [0.0, 0.5, 0.0],
        "properties": { "magmom": -0.0 },
        "label": "Zn",
        "xyz": [2.17819972, 3.772752245, 0.0]
      },
      {
        "species": [{ "element": "Zn", "occu": 1 }],
        "abc": [0.56752355, 0.43247645, 0.25],
        "properties": { "magmom": -0.0 },
        "label": "Zn",
        "xyz": [4.35639944, -1.0189984994114787, 2.2141709125]
      },
      {
        "species": [{ "element": "Zn", "occu": 1 }],
        "abc": [0.56752355, 0.13504809, 0.25],
        "properties": { "magmom": -0.0 },
        "label": "Zn",
        "xyz": [3.060682699055881, -3.263245525244815, 2.2141709125]
      },
      {
        "species": [{ "element": "Zn", "occu": 1 }],
        "abc": [0.86495191, 0.43247645, 0.25],
        "properties": { "magmom": -0.0 },
        "label": "Zn",
        "xyz": [5.652116180944118, -3.2632455252448156, 2.2141709125]
      },
      {
        "species": [{ "element": "Zn", "occu": 1 }],
        "abc": [0.43247645, 0.56752355, 0.75],
        "properties": { "magmom": -0.0 },
        "label": "Zn",
        "xyz": [4.35639944, 1.0189984994114787, 6.642512737500001]
      },
      {
        "species": [{ "element": "Zn", "occu": 1 }],
        "abc": [0.43247645, 0.86495191, 0.75],
        "properties": { "magmom": -0.0 },
        "label": "Zn",
        "xyz": [5.652116180944118, 3.2632455252448156, 6.642512737500001]
      },
      {
        "species": [{ "element": "Zn", "occu": 1 }],
        "abc": [0.13504809, 0.56752355, 0.75],
        "properties": { "magmom": -0.0 },
        "label": "Zn",
        "xyz": [3.060682699055881, 3.263245525244815, 6.642512737500001]
      },
      {
        "species": [{ "element": "Zn", "occu": 1 }],
        "abc": [0.8400453, 0.1599547, 0.40679016],
        "properties": { "magmom": 0.0 },
        "label": "Zn",
        "xyz": [4.35639944, -5.1316266759067934, 3.6028117590528845]
      },
      {
        "species": [{ "element": "Zn", "occu": 1 }],
        "abc": [0.8400453, 0.68008959, 0.40679016],
        "properties": { "magmom": 0.0 },
        "label": "Zn",
        "xyz": [6.622314783520461, -1.2069465280061378, 3.6028117590528845]
      },
      {
        "species": [{ "element": "Zn", "occu": 1 }],
        "abc": [0.31991041000000003, 0.1599547, 0.40679016],
        "properties": { "magmom": 0.0 },
        "label": "Zn",
        "xyz": [2.0904840964795386, -1.206946528006138, 3.6028117590528845]
      },
      {
        "species": [{ "element": "Zn", "occu": 1 }],
        "abc": [0.1599547, 0.8400453, 0.59320984],
        "properties": { "magmom": 0.0 },
        "label": "Zn",
        "xyz": [4.35639944, 5.1316266759067934, 5.253871890947116]
      },
      {
        "species": [{ "element": "Zn", "occu": 1 }],
        "abc": [0.1599547, 0.31991041000000003, 0.59320984],
        "properties": { "magmom": 0.0 },
        "label": "Zn",
        "xyz": [2.0904840964795386, 1.206946528006138, 5.253871890947116]
      },
      {
        "species": [{ "element": "Zn", "occu": 1 }],
        "abc": [0.68008959, 0.8400453, 0.59320984],
        "properties": { "magmom": 0.0 },
        "label": "Zn",
        "xyz": [6.622314783520461, 1.2069465280061378, 5.253871890947116]
      },
      {
        "species": [{ "element": "Zn", "occu": 1 }],
        "abc": [0.1599547, 0.8400453, 0.90679016],
        "properties": { "magmom": 0.0 },
        "label": "Zn",
        "xyz": [4.35639944, 5.1316266759067934, 8.031153584052884]
      },
      {
        "species": [{ "element": "Zn", "occu": 1 }],
        "abc": [0.1599547, 0.31991041000000003, 0.90679016],
        "properties": { "magmom": 0.0 },
        "label": "Zn",
        "xyz": [2.0904840964795386, 1.206946528006138, 8.031153584052884]
      },
      {
        "species": [{ "element": "Zn", "occu": 1 }],
        "abc": [0.68008959, 0.8400453, 0.90679016],
        "properties": { "magmom": 0.0 },
        "label": "Zn",
        "xyz": [6.622314783520461, 1.2069465280061378, 8.031153584052884]
      },
      {
        "species": [{ "element": "Zn", "occu": 1 }],
        "abc": [0.8400453, 0.1599547, 0.09320984],
        "properties": { "magmom": 0.0 },
        "label": "Zn",
        "xyz": [4.35639944, -5.1316266759067934, 0.8255300659471161]
      },
      {
        "species": [{ "element": "Zn", "occu": 1 }],
        "abc": [0.8400453, 0.68008959, 0.09320984],
        "properties": { "magmom": 0.0 },
        "label": "Zn",
        "xyz": [6.622314783520461, -1.2069465280061378, 0.8255300659471161]
      },
      {
        "species": [{ "element": "Zn", "occu": 1 }],
        "abc": [0.31991041000000003, 0.1599547, 0.09320984],
        "properties": { "magmom": 0.0 },
        "label": "Zn",
        "xyz": [2.0904840964795386, -1.206946528006138, 0.8255300659471161]
      }
    ]
  },
  "task_ids": null,
  "uncorrected_energy_per_atom": null,
  "energy_per_atom": -14.059219514166665,
  "formation_energy_per_atom": -0.28707064611111,
  "energy_above_hull": 0.011205364015150002,
  "is_stable": false,
  "equilibrium_reaction_energy_per_atom": null,
  "decomposes_to": null,
  "xas": null,
  "grain_boundaries": null,
  "band_gap": 0.0,
  "cbm": null,
  "vbm": null,
  "efermi": 3.0788518,
  "is_gap_direct": null,
  "is_metal": null,
  "es_source_calc_id": null,
  "bandstructure": null,
  "dos": null,
  "dos_energy_up": null,
  "dos_energy_down": null,
  "is_magnetic": null,
  "ordering": null,
  "total_magnetization": 1e-7,
  "total_magnetization_normalized_vol": null,
  "total_magnetization_normalized_formula_units": null,
  "num_magnetic_sites": null,
  "num_unique_magnetic_sites": null,
  "types_of_magnetic_species": null,
  "bulk_modulus": null,
  "shear_modulus": null,
  "universal_anisotropy": null,
  "homogeneous_poisson": null,
  "e_total": null,
  "e_ionic": null,
  "e_electronic": null,
  "n": null,
  "e_ij_max": null,
  "weighted_surface_energy_EV_PER_ANG2": null,
  "weighted_surface_energy": null,
  "weighted_work_function": null,
  "surface_anisotropy": null,
  "shape_factor": null,
  "has_reconstructed": null,
  "possible_species": null,
  "has_props": null,
  "theoretical": null,
  "database_IDs": null,
  "fields_not_requested": [
    "builder_meta",
    "nsites",
    "elements",
    "nelements",
    "composition",
    "composition_reduced",
    "chemsys",
    "symmetry",
    "property_name",
    "deprecated",
    "deprecation_reasons",
    "last_updated",
    "origins",
    "warnings",
    "task_ids",
    "uncorrected_energy_per_atom",
    "equilibrium_reaction_energy_per_atom",
    "decomposes_to",
    "xas",
    "grain_boundaries",
    "cbm",
    "vbm",
    "is_gap_direct",
    "is_metal",
    "es_source_calc_id",
    "bandstructure",
    "dos",
    "dos_energy_up",
    "dos_energy_down",
    "is_magnetic",
    "ordering",
    "total_magnetization_normalized_vol",
    "total_magnetization_normalized_formula_units",
    "num_magnetic_sites",
    "num_unique_magnetic_sites",
    "types_of_magnetic_species",
    "bulk_modulus",
    "shear_modulus",
    "universal_anisotropy",
    "homogeneous_poisson",
    "e_total",
    "e_ionic",
    "e_electronic",
    "n",
    "e_ij_max",
    "weighted_surface_energy_EV_PER_ANG2",
    "weighted_surface_energy",
    "weighted_work_function",
    "surface_anisotropy",
    "shape_factor",
    "has_reconstructed",
    "possible_species",
    "has_props",
    "theoretical",
    "database_IDs"
  ]
}
