{
  "builder_meta": null,
  "nsites": null,
  "elements": null,
  "nelements": null,
  "composition": null,
  "composition_reduced": null,
  "formula_pretty": "LuZn3",
  "formula_anonymous": "AB3",
  "chemsys": null,
  "volume": 274.52035328868027,
  "density": 8.981223153816138,
  "density_atomic": 17.157522080542517,
  "symmetry": null,
  "property_name": null,
  "material_id": "mp-1190019",
  "deprecated": null,
  "deprecation_reasons": null,
  "last_updated": null,
  "origins": null,
  "warnings": null,
  "structure": {
    "@module": "pymatgen.core.structure",
    "@class": "Structure",
    "charge": 0,
    "lattice": {
      "matrix": [
        [0.0, -4.23903939, 0.0],
        [-6.5487845799999995, 0.0, 0.0],
        [0.0, 0.0, -9.88886373]
      ],
      "pbc": [true, true, true],
      "a": 4.23903939,
      "b": 6.5487845799999995,
      "c": 9.88886373,
      "alpha": 90.0,
      "beta": 90.0,
      "gamma": 90.0,
      "volume": 274.52035328868027
    },
    "properties": {},
    "sites": [
      {
        "species": [{ "element": "Lu", "occu": 1 }],
        "abc": [0.75, 0.221794599999999, 0.83526109],
        "properties": { "magmom": 0.0 },
        "label": "Lu",
        "xyz": [-1.4524850564072613, -3.1792795425, -8.259783097981266]
      },
      {
        "species": [{ "element": "Lu", "occu": 1 }],
        "abc": [0.75, 0.7217946, 0.66473891],
        "properties": { "magmom": 0.0 },
        "label": "Lu",
        "xyz": [-4.726877346407267, -3.1792795425, -6.573512497018735]
      },
      {
        "species": [{ "element": "Lu", "occu": 1 }],
        "abc": [0.25, 0.778205399999999, 0.16473891000000002],
        "properties": { "magmom": 0.0 },
        "label": "Lu",
        "xyz": [-5.096299523592726, -1.0597598475, -1.6290806320187345]
      },
      {
        "species": [{ "element": "Lu", "occu": 1 }],
        "abc": [0.25, 0.2782054, 0.33526109],
        "properties": { "magmom": 0.0 },
        "label": "Lu",
        "xyz": [-1.8219072335927318, -1.0597598475, -3.3153512329812656]
      },
      {
        "species": [{ "element": "Zn", "occu": 1 }],
        "abc": [0.75, 0.96231141, 0.39773163],
        "properties": { "magmom": 0.0 },
        "label": "Zn",
        "xyz": [-6.301970122966058, -3.1792795425, -3.9331138901807803]
      },
      {
        "species": [{ "element": "Zn", "occu": 1 }],
        "abc": [0.75, 0.46230841, 0.10226837],
        "properties": { "magmom": 0.0 },
        "label": "Zn",
        "xyz": [-3.0275581866123176, -3.1792795425, -1.01131797481922]
      },
      {
        "species": [{ "element": "Zn", "occu": 1 }],
        "abc": [0.25, 0.037691590000000004, 0.60226837],
        "properties": { "magmom": 0.0 },
        "label": "Zn",
        "xyz": [-0.24683410338768222, -1.0597598475, -5.95574983981922]
      },
      {
        "species": [{ "element": "Zn", "occu": 1 }],
        "abc": [0.25, 0.53768859, 0.89773163],
        "properties": { "magmom": 0.0 },
        "label": "Zn",
        "xyz": [-3.521206747033942, -1.0597598475, -8.87754575518078]
      },
      {
        "species": [{ "element": "Zn", "occu": 1 }],
        "abc": [0.75, 0.5797282, 0.35183415],
        "properties": { "magmom": -0.0 },
        "label": "Zn",
        "xyz": [-3.796515096751156, -3.1792795425, -3.47923996491038]
      },
      {
        "species": [{ "element": "Zn", "occu": 1 }],
        "abc": [0.75, 0.0797322, 0.14816685000000002],
        "properties": { "magmom": -0.0 },
        "label": "Zn",
        "xyz": [-0.522149001889476, -3.1792795425, -1.4652017889533508]
      },
      {
        "species": [{ "element": "Zn", "occu": 1 }],
        "abc": [0.25, 0.420267799999999, 0.64816685],
        "properties": { "magmom": -0.0 },
        "label": "Zn",
        "xyz": [-2.752243288110517, -1.0597598475, -6.4096336539533505]
      },
      {
        "species": [{ "element": "Zn", "occu": 1 }],
        "abc": [0.25, 0.9202718, 0.8518341500000001],
        "properties": { "magmom": -0.0 },
        "label": "Zn",
        "xyz": [-6.0266617732488434, -1.0597598475, -8.423671829910381]
      },
      {
        "species": [{ "element": "Zn", "occu": 1 }],
        "abc": [0.75, 0.2830233, 0.54245551],
        "properties": { "magmom": -0.0 },
        "label": "Zn",
        "xyz": [-1.8534586228207137, -3.1792795425, -5.364268617977653]
      },
      {
        "species": [{ "element": "Zn", "occu": 1 }],
        "abc": [0.75, 0.7830243, 0.95754449],
        "properties": { "magmom": -0.0 },
        "label": "Zn",
        "xyz": [-5.127857461605294, -3.1792795425, -9.469026977022349]
      },
      {
        "species": [{ "element": "Zn", "occu": 1 }],
        "abc": [0.25, 0.7169757, 0.45754449],
        "properties": { "magmom": -0.0 },
        "label": "Zn",
        "xyz": [-4.695319408394705, -1.0597598475, -4.524595112022348]
      },
      {
        "species": [{ "element": "Zn", "occu": 1 }],
        "abc": [0.25, 0.2169767, 0.04245551],
        "properties": { "magmom": -0.0 },
        "label": "Zn",
        "xyz": [-1.4209336671792858, -1.0597598475, -0.4198367529776523]
      }
    ]
  },
  "task_ids": null,
  "uncorrected_energy_per_atom": null,
  "energy_per_atom": -16.5865316,
  "formation_energy_per_atom": -0.383609600416669,
  "energy_above_hull": 0.0,
  "is_stable": true,
  "equilibrium_reaction_energy_per_atom": null,
  "decomposes_to": null,
  "xas": null,
  "grain_boundaries": null,
  "band_gap": 0.0,
  "cbm": null,
  "vbm": null,
  "efermi": 2.96818681,
  "is_gap_direct": null,
  "is_metal": null,
  "es_source_calc_id": null,
  "bandstructure": null,
  "dos": null,
  "dos_energy_up": null,
  "dos_energy_down": null,
  "is_magnetic": null,
  "ordering": null,
  "total_magnetization": 8e-7,
  "total_magnetization_normalized_vol": null,
  "total_magnetization_normalized_formula_units": null,
  "num_magnetic_sites": null,
  "num_unique_magnetic_sites": null,
  "types_of_magnetic_species": null,
  "bulk_modulus": null,
  "shear_modulus": null,
  "universal_anisotropy": null,
  "homogeneous_poisson": null,
  "e_total": null,
  "e_ionic": null,
  "e_electronic": null,
  "n": null,
  "e_ij_max": null,
  "weighted_surface_energy_EV_PER_ANG2": null,
  "weighted_surface_energy": null,
  "weighted_work_function": null,
  "surface_anisotropy": null,
  "shape_factor": null,
  "has_reconstructed": null,
  "possible_species": null,
  "has_props": null,
  "theoretical": null,
  "database_IDs": null,
  "fields_not_requested": [
    "builder_meta",
    "nsites",
    "elements",
    "nelements",
    "composition",
    "composition_reduced",
    "chemsys",
    "symmetry",
    "property_name",
    "deprecated",
    "deprecation_reasons",
    "last_updated",
    "origins",
    "warnings",
    "task_ids",
    "uncorrected_energy_per_atom",
    "equilibrium_reaction_energy_per_atom",
    "decomposes_to",
    "xas",
    "grain_boundaries",
    "cbm",
    "vbm",
    "is_gap_direct",
    "is_metal",
    "es_source_calc_id",
    "bandstructure",
    "dos",
    "dos_energy_up",
    "dos_energy_down",
    "is_magnetic",
    "ordering",
    "total_magnetization_normalized_vol",
    "total_magnetization_normalized_formula_units",
    "num_magnetic_sites",
    "num_unique_magnetic_sites",
    "types_of_magnetic_species",
    "bulk_modulus",
    "shear_modulus",
    "universal_anisotropy",
    "homogeneous_poisson",
    "e_total",
    "e_ionic",
    "e_electronic",
    "n",
    "e_ij_max",
    "weighted_surface_energy_EV_PER_ANG2",
    "weighted_surface_energy",
    "weighted_work_function",
    "surface_anisotropy",
    "shape_factor",
    "has_reconstructed",
    "possible_species",
    "has_props",
    "theoretical",
    "database_IDs"
  ]
}
