{"builder_meta": null, "nsites": null, "elements": null, "nelements": null, "composition": null, "composition_reduced": null, "formula_pretty": "LuZr3", "formula_anonymous": "AB3", "chemsys": null, "volume": 196.30842520948357, "density": 7.58991964308588, "density_atomic": 24.538553151185447, "symmetry": null, "property_name": null, "material_id": "mp-1185530", "deprecated": null, "deprecation_reasons": null, "last_updated": null, "origins": null, "warnings": null, "structure": {"@module": "pymatgen.core.structure", "@class": "Structure", "charge": 0, "lattice": {"matrix": [[3.30860594, -5.73066922, 0.0], [3.30860594, 5.73066922, 0.0], [0.0, 0.0, 5.17676627]], "pbc": [true, true, true], "a": 6.617208095205915, "b": 6.617208095205915, "c": 5.17676627, "alpha": 90.0, "beta": 90.0, "gamma": 119.99996215926998, "volume": 196.30842520948357}, "properties": {}, "sites": [{"species": [{"element": "Lu", "occu": 1}], "abc": [0.333333, 0.666667, 0.75], "properties": {"magmom": 0.0}, "label": "Lu", "xyz": [3.3086059399999996, 1.9102268937794804, 3.8825747025]}, {"species": [{"element": "Lu", "occu": 1}], "abc": [0.666667, 0.333333, 0.25], "properties": {"magmom": 0.0}, "label": "Lu", "xyz": [3.3086059399999996, -1.9102268937794804, 1.2941915675]}, {"species": [{"element": "Zr", "occu": 1}], "abc": [0.16360317, 0.32720733, 0.25], "properties": {"magmom": 0.0}, "label": "Zr", "xyz": [1.6238985357143703, 0.9375613239759554, 1.2941915675]}, {"species": [{"element": "Zr", "occu": 1}], "abc": [0.67279267, 0.83639683, 0.25], "properties": {"magmom": 0.0}, "label": "Zr", "xyz": [4.99331334428563, 0.937561323975955, 1.2941915675]}, {"species": [{"element": "Zr", "occu": 1}], "abc": [0.16360317, 0.83639683, 0.25], "properties": {"magmom": 0.0}, "label": "Zr", "xyz": [3.30860594, 3.8555579187731452, 1.2941915675]}, {"species": [{"element": "Zr", "occu": 1}], "abc": [0.83639683, 0.67279267, 0.75], "properties": {"magmom": 0.0}, "label": "Zr", "xyz": [4.99331334428563, -0.937561323975955, 3.8825747025]}, {"species": [{"element": "Zr", "occu": 1}], "abc": [0.32720733, 0.16360317, 0.75], "properties": {"magmom": 0.0}, "label": "Zr", "xyz": [1.6238985357143703, -0.9375613239759554, 3.8825747025]}, {"species": [{"element": "Zr", "occu": 1}], "abc": [0.83639683, 0.16360317, 0.75], "properties": {"magmom": 0.0}, "label": "Zr", "xyz": [3.30860594, -3.8555579187731452, 3.8825747025]}]}, "task_ids": null, "uncorrected_energy_per_atom": null, "energy_per_atom": -26.58276411875, "formation_energy_per_atom": -0.00045014416666300006, "energy_above_hull": 0.0, "is_stable": true, "equilibrium_reaction_energy_per_atom": null, "decomposes_to": null, "xas": null, "grain_boundaries": null, "band_gap": 0.0, "cbm": null, "vbm": null, "efermi": 3.756561119999999, "is_gap_direct": null, "is_metal": null, "es_source_calc_id": null, "bandstructure": null, "dos": null, "dos_energy_up": null, "dos_energy_down": null, "is_magnetic": null, "ordering": null, "total_magnetization": 1e-07, "total_magnetization_normalized_vol": null, "total_magnetization_normalized_formula_units": null, "num_magnetic_sites": null, "num_unique_magnetic_sites": null, "types_of_magnetic_species": null, "bulk_modulus": null, "shear_modulus": null, "universal_anisotropy": null, "homogeneous_poisson": null, "e_total": null, "e_ionic": null, "e_electronic": null, "n": null, "e_ij_max": null, "weighted_surface_energy_EV_PER_ANG2": null, "weighted_surface_energy": null, "weighted_work_function": null, "surface_anisotropy": null, "shape_factor": null, "has_reconstructed": null, "possible_species": null, "has_props": null, "theoretical": null, "database_IDs": null, "fields_not_requested": ["builder_meta", "nsites", "elements", "nelements", "composition", "composition_reduced", "chemsys", "symmetry", "property_name", "deprecated", "deprecation_reasons", "last_updated", "origins", "warnings", "task_ids", "uncorrected_energy_per_atom", "equilibrium_reaction_energy_per_atom", "decomposes_to", "xas", "grain_boundaries", "cbm", "vbm", "is_gap_direct", "is_metal", "es_source_calc_id", "bandstructure", "dos", "dos_energy_up", "dos_energy_down", "is_magnetic", "ordering", "total_magnetization_normalized_vol", "total_magnetization_normalized_formula_units", "num_magnetic_sites", "num_unique_magnetic_sites", "types_of_magnetic_species", "bulk_modulus", "shear_modulus", "universal_anisotropy", "homogeneous_poisson", "e_total", "e_ionic", "e_electronic", "n", "e_ij_max", "weighted_surface_energy_EV_PER_ANG2", "weighted_surface_energy", "weighted_work_function", "surface_anisotropy", "shape_factor", "has_reconstructed", "possible_species", "has_props", "theoretical", "database_IDs"]}