{
  "builder_meta": null,
  "nsites": null,
  "elements": null,
  "nelements": null,
  "composition": null,
  "composition_reduced": null,
  "formula_pretty": "Mg2Ag",
  "formula_anonymous": "AB2",
  "chemsys": null,
  "volume": 115.2810136694078,
  "density": 4.507909080612145,
  "density_atomic": 19.213502278234632,
  "symmetry": null,
  "property_name": null,
  "material_id": "mp-2021192",
  "deprecated": null,
  "deprecation_reasons": null,
  "last_updated": null,
  "origins": null,
  "warnings": null,
  "structure": {
    "@module": "pymatgen.core.structure",
    "@class": "Structure",
    "charge": 0,
    "lattice": {
      "matrix": [
        [2.40072536, -5.01853525, 0.0],
        [2.40072536, 5.01853525, 0.0],
        [0.0, 0.0, 4.78418904]
      ],
      "pbc": [true, true, true],
      "a": 5.563198568237493,
      "b": 5.563198568237493,
      "c": 4.78418904,
      "alpha": 90.0,
      "beta": 90.0,
      "gamma": 128.86973181963967,
      "volume": 115.2810136694078
    },
    "properties": {},
    "sites": [
      {
        "species": [{ "element": "Mg", "occu": 1 }],
        "abc": [0.59450203, 0.90152388, 0.25],
        "properties": { "magmom": -0.0 },
        "label": "Mg",
        "xyz": [3.5915473413540777, 1.540799976745213, 1.19604726]
      },
      {
        "species": [{ "element": "Mg", "occu": 1 }],
        "abc": [0.09847612, 0.40549797, 0.75],
        "properties": { "magmom": -0.0 },
        "label": "Mg",
        "xyz": [1.2099033786459223, 1.5407999767452123, 3.58814178]
      },
      {
        "species": [{ "element": "Mg", "occu": 1 }],
        "abc": [0.90152388, 0.59450203, 0.25],
        "properties": { "magmom": -0.0 },
        "label": "Mg",
        "xyz": [3.5915473413540777, -1.540799976745213, 1.19604726]
      },
      {
        "species": [{ "element": "Mg", "occu": 1 }],
        "abc": [0.40549797, 0.09847612, 0.75],
        "properties": { "magmom": -0.0 },
        "label": "Mg",
        "xyz": [1.2099033786459223, -1.5407999767452123, 3.58814178]
      },
      {
        "species": [{ "element": "Ag", "occu": 1 }],
        "abc": [0.75309092, 0.75309092, 0.75],
        "properties": { "magmom": -0.0 },
        "label": "Ag",
        "xyz": [3.6159289400594625, 0.0, 3.58814178]
      },
      {
        "species": [{ "element": "Ag", "occu": 1 }],
        "abc": [0.24690908, 0.24690908, 0.25],
        "properties": { "magmom": -0.0 },
        "label": "Ag",
        "xyz": [1.1855217799405375, 0.0, 1.19604726]
      }
    ]
  },
  "task_ids": null,
  "uncorrected_energy_per_atom": null,
  "energy_per_atom": -10.041040106666667,
  "formation_energy_per_atom": -0.14287866833333301,
  "energy_above_hull": 0.0,
  "is_stable": true,
  "equilibrium_reaction_energy_per_atom": null,
  "decomposes_to": null,
  "xas": null,
  "grain_boundaries": null,
  "band_gap": 0.0,
  "cbm": null,
  "vbm": null,
  "efermi": 4.59188037,
  "is_gap_direct": null,
  "is_metal": null,
  "es_source_calc_id": null,
  "bandstructure": null,
  "dos": null,
  "dos_energy_up": null,
  "dos_energy_down": null,
  "is_magnetic": null,
  "ordering": null,
  "total_magnetization": 0.0,
  "total_magnetization_normalized_vol": null,
  "total_magnetization_normalized_formula_units": null,
  "num_magnetic_sites": null,
  "num_unique_magnetic_sites": null,
  "types_of_magnetic_species": null,
  "bulk_modulus": null,
  "shear_modulus": null,
  "universal_anisotropy": null,
  "homogeneous_poisson": null,
  "e_total": null,
  "e_ionic": null,
  "e_electronic": null,
  "n": null,
  "e_ij_max": null,
  "weighted_surface_energy_EV_PER_ANG2": null,
  "weighted_surface_energy": null,
  "weighted_work_function": null,
  "surface_anisotropy": null,
  "shape_factor": null,
  "has_reconstructed": null,
  "possible_species": null,
  "has_props": null,
  "theoretical": null,
  "database_IDs": null,
  "fields_not_requested": [
    "builder_meta",
    "nsites",
    "elements",
    "nelements",
    "composition",
    "composition_reduced",
    "chemsys",
    "symmetry",
    "property_name",
    "deprecated",
    "deprecation_reasons",
    "last_updated",
    "origins",
    "warnings",
    "task_ids",
    "uncorrected_energy_per_atom",
    "equilibrium_reaction_energy_per_atom",
    "decomposes_to",
    "xas",
    "grain_boundaries",
    "cbm",
    "vbm",
    "is_gap_direct",
    "is_metal",
    "es_source_calc_id",
    "bandstructure",
    "dos",
    "dos_energy_up",
    "dos_energy_down",
    "is_magnetic",
    "ordering",
    "total_magnetization_normalized_vol",
    "total_magnetization_normalized_formula_units",
    "num_magnetic_sites",
    "num_unique_magnetic_sites",
    "types_of_magnetic_species",
    "bulk_modulus",
    "shear_modulus",
    "universal_anisotropy",
    "homogeneous_poisson",
    "e_total",
    "e_ionic",
    "e_electronic",
    "n",
    "e_ij_max",
    "weighted_surface_energy_EV_PER_ANG2",
    "weighted_surface_energy",
    "weighted_work_function",
    "surface_anisotropy",
    "shape_factor",
    "has_reconstructed",
    "possible_species",
    "has_props",
    "theoretical",
    "database_IDs"
  ]
}
