{"builder_meta": null, "nsites": null, "elements": null, "nelements": null, "composition": null, "composition_reduced": null, "formula_pretty": "Mg2Au", "formula_anonymous": "AB2", "chemsys": null, "volume": 228.51878855487993, "density": 7.137959889335888, "density_atomic": 19.04323237957333, "symmetry": null, "property_name": null, "material_id": "mp-11250", "deprecated": null, "deprecation_reasons": null, "last_updated": null, "origins": null, "warnings": null, "structure": {"@module": "pymatgen.core.structure", "@class": "Structure", "charge": 0, "lattice": {"matrix": [[4.33762471, 0.0, 0.0], [-0.0, 6.19823221, 0.0], [0.0, 0.0, 8.49967062]], "pbc": [true, true, true], "a": 4.33762471, "b": 6.19823221, "c": 8.49967062, "alpha": 90.0, "beta": 90.0, "gamma": 90.0, "volume": 228.51878855487993}, "properties": {}, "sites": [{"species": [{"element": "Mg", "occu": 1}], "abc": [0.25, 0.9588440500000001, 0.69442463], "properties": {"magmom": 0.0}, "label": "Mg", "xyz": [1.0844061775, 5.943138075076851, 5.90238062541537]}, {"species": [{"element": "Mg", "occu": 1}], "abc": [0.75, 0.041155950000000004, 0.30557537], "properties": {"magmom": 0.0}, "label": "Mg", "xyz": [3.2532185325, 0.25509413492314953, 2.5972899945846293]}, {"species": [{"element": "Mg", "occu": 1}], "abc": [0.25, 0.45884405, 0.80557537], "properties": {"magmom": 0.0}, "label": "Mg", "xyz": [1.0844061775, 2.8440219700768505, 6.84712530458463]}, {"species": [{"element": "Mg", "occu": 1}], "abc": [0.75, 0.54115595, 0.19442463000000001], "properties": {"magmom": 0.0}, "label": "Mg", "xyz": [3.2532185325, 3.3542102399231495, 1.6525453154153706]}, {"species": [{"element": "Mg", "occu": 1}], "abc": [0.75, 0.16562964, 0.93998314], "properties": {"magmom": -0.0}, "label": "Mg", "xyz": [3.2532185325, 1.0266109695787042, 7.989547078353347]}, {"species": [{"element": "Mg", "occu": 1}], "abc": [0.25, 0.83437036, 0.06001686], "properties": {"magmom": -0.0}, "label": "Mg", "xyz": [1.0844061775, 5.171621240421295, 0.5101235416466532]}, {"species": [{"element": "Mg", "occu": 1}], "abc": [0.75, 0.66562964, 0.5600168600000001], "properties": {"magmom": -0.0}, "label": "Mg", "xyz": [3.2532185325, 4.1257270745787045, 4.759958851646654]}, {"species": [{"element": "Mg", "occu": 1}], "abc": [0.25, 0.33437036000000003, 0.43998314], "properties": {"magmom": -0.0}, "label": "Mg", "xyz": [1.0844061775, 2.0725051354212956, 3.7397117683533465]}, {"species": [{"element": "Au", "occu": 1}], "abc": [0.25, 0.76842314, 0.37785474], "properties": {"magmom": -0.0}, "label": "Au", "xyz": [1.0844061775, 4.762865057257339, 3.211640832205739]}, {"species": [{"element": "Au", "occu": 1}], "abc": [0.75, 0.23157686, 0.62214526], "properties": {"magmom": -0.0}, "label": "Au", "xyz": [3.2532185325, 1.4353671527426606, 5.288029787794262]}, {"species": [{"element": "Au", "occu": 1}], "abc": [0.25, 0.26842314, 0.12214526], "properties": {"magmom": -0.0}, "label": "Au", "xyz": [1.0844061775, 1.6637489522573392, 1.0381944777942613]}, {"species": [{"element": "Au", "occu": 1}], "abc": [0.75, 0.73157686, 0.87785474], "properties": {"magmom": -0.0}, "label": "Au", "xyz": [3.2532185325, 4.53448325774266, 7.461476142205738]}]}, "task_ids": null, "uncorrected_energy_per_atom": null, "energy_per_atom": -2.659700787500002, "formation_energy_per_atom": -0.481426777500002, "energy_above_hull": 0.0, "is_stable": true, "equilibrium_reaction_energy_per_atom": null, "decomposes_to": null, "xas": null, "grain_boundaries": null, "band_gap": 0.0, "cbm": null, "vbm": null, "efermi": 4.56807762, "is_gap_direct": null, "is_metal": null, "es_source_calc_id": null, "bandstructure": null, "dos": null, "dos_energy_up": null, "dos_energy_down": null, "is_magnetic": null, "ordering": null, "total_magnetization": 2e-07, "total_magnetization_normalized_vol": null, "total_magnetization_normalized_formula_units": null, "num_magnetic_sites": null, "num_unique_magnetic_sites": null, "types_of_magnetic_species": null, "bulk_modulus": null, "shear_modulus": null, "universal_anisotropy": null, "homogeneous_poisson": null, "e_total": null, "e_ionic": null, "e_electronic": null, "n": null, "e_ij_max": null, "weighted_surface_energy_EV_PER_ANG2": null, "weighted_surface_energy": null, "weighted_work_function": null, "surface_anisotropy": null, "shape_factor": null, "has_reconstructed": null, "possible_species": null, "has_props": null, "theoretical": null, "database_IDs": null, "fields_not_requested": ["builder_meta", "nsites", "elements", "nelements", "composition", "composition_reduced", "chemsys", "symmetry", "property_name", "deprecated", "deprecation_reasons", "last_updated", "origins", "warnings", "task_ids", "uncorrected_energy_per_atom", "equilibrium_reaction_energy_per_atom", "decomposes_to", "xas", "grain_boundaries", "cbm", "vbm", "is_gap_direct", "is_metal", "es_source_calc_id", "bandstructure", "dos", "dos_energy_up", "dos_energy_down", "is_magnetic", "ordering", "total_magnetization_normalized_vol", "total_magnetization_normalized_formula_units", "num_magnetic_sites", "num_unique_magnetic_sites", "types_of_magnetic_species", "bulk_modulus", "shear_modulus", "universal_anisotropy", "homogeneous_poisson", "e_total", "e_ionic", "e_electronic", "n", "e_ij_max", "weighted_surface_energy_EV_PER_ANG2", "weighted_surface_energy", "weighted_work_function", "surface_anisotropy", "shape_factor", "has_reconstructed", "possible_species", "has_props", "theoretical", "database_IDs"]}