{"builder_meta": null, "nsites": null, "elements": null, "nelements": null, "composition": null, "composition_reduced": null, "formula_pretty": "Mg2Al3", "formula_anonymous": "A2B3", "chemsys": null, "volume": 399.0507203765886, "density": 2.156422628093317, "density_atomic": 19.952536018829427, "symmetry": null, "property_name": null, "material_id": "mp-1210739", "deprecated": null, "deprecation_reasons": null, "last_updated": null, "origins": null, "warnings": null, "structure": {"@module": "pymatgen.core.structure", "@class": "Structure", "charge": 0, "lattice": {"matrix": [[6.444701, 0.0, 0.0], [0.0, 6.444701, 0.0], [-3.22235, -3.22235, 9.607769]], "pbc": [true, true, true], "a": 6.444701, "b": 6.444701, "c": 10.633734254830754, "alpha": 107.63973693736922, "beta": 107.63973693736922, "gamma": 90.0, "volume": 399.0507203765886}, "properties": {}, "sites": [{"species": [{"element": "Mg", "occu": 1}], "abc": [0.293371999999999, 0.5173449999999991, 0.586743999999999], "properties": {"magmom": 0.0}, "label": "Mg", "xyz": [2.933719966957682e-07, 1.443439310444997, 5.63730081413599]}, {"species": [{"element": "Mg", "occu": 1}], "abc": [0.293371999999999, 0.069399, 0.586743999999999], "properties": {"magmom": 0.0}, "label": "Mg", "xyz": [2.933719966957682e-07, -1.443438723700997, 5.63730081413599]}, {"species": [{"element": "Mg", "occu": 1}], "abc": [0.319399, 0.043372, 0.086744], "properties": {"magmom": 0.0}, "label": "Mg", "xyz": [1.778911526299, 4.337200004700392e-08, 0.8334163141359999]}, {"species": [{"element": "Mg", "occu": 1}], "abc": [0.956627999999999, 0.680601, 0.913256], "properties": {"magmom": 0.0}, "label": "Mg", "xyz": [3.222350956627994, 1.4434394737010008, 8.774352685863999]}, {"species": [{"element": "Mg", "occu": 1}], "abc": [0.956627999999999, 0.232655, 0.913256], "properties": {"magmom": 0.0}, "label": "Mg", "xyz": [3.222350956627994, -1.4434385604449997, 8.774352685863999]}, {"species": [{"element": "Mg", "occu": 1}], "abc": [0.7673449999999991, 0.043372, 0.086744], "properties": {"magmom": 0.0}, "label": "Mg", "xyz": [4.665789560444995, 4.337200004700392e-08, 0.8334163141359999]}, {"species": [{"element": "Mg", "occu": 1}], "abc": [0.930601, 0.706627999999999, 0.413255999999999], "properties": {"magmom": 0.0}, "label": "Mg", "xyz": [4.665789723701003, 3.2223507066279975, 3.9704681858639903]}, {"species": [{"element": "Mg", "occu": 1}], "abc": [0.482655, 0.706627999999999, 0.413255999999999], "properties": {"magmom": 0.0}, "label": "Mg", "xyz": [1.7789116895550032, 3.2223507066279975, 3.9704681858639903]}, {"species": [{"element": "Al", "occu": 1}], "abc": [0.803187, 0.090712, 0.606374], "properties": {"magmom": 0.0}, "label": "Al", "xyz": [3.222350803187, -1.3693375417879998, 5.825901319605999]}, {"species": [{"element": "Al", "occu": 1}], "abc": [0.803187, 0.515663, 0.606374], "properties": {"magmom": 0.0}, "label": "Al", "xyz": [3.222350803187, 1.3693445928630004, 5.825901319605999]}, {"species": [{"element": "Al", "occu": 1}], "abc": [0.765663, 0.553187, 0.106374], "properties": {"magmom": 0.0}, "label": "Al", "xyz": [4.591694842862999, 3.222350553187, 1.022016819606]}, {"species": [{"element": "Al", "occu": 1}], "abc": [0.446812999999999, 0.234337, 0.893625999999999], "properties": {"magmom": 0.0}, "label": "Al", "xyz": [4.468129968238088e-07, -1.369343842862997, 8.58575218039399]}, {"species": [{"element": "Al", "occu": 1}], "abc": [0.446812999999999, 0.659288, 0.893625999999999], "properties": {"magmom": 0.0}, "label": "Al", "xyz": [4.468129968238088e-07, 1.369338291788003, 8.58575218039399]}, {"species": [{"element": "Al", "occu": 1}], "abc": [0.340711999999999, 0.553187, 0.106374], "properties": {"magmom": 0.0}, "label": "Al", "xyz": [1.8530127082119936, 3.222350553187, 1.022016819606]}, {"species": [{"element": "Al", "occu": 1}], "abc": [0.484336999999999, 0.196813, 0.393626], "properties": {"magmom": 0.0}, "label": "Al", "xyz": [1.8530064071369938, 1.968129998974888e-07, 3.7818676803939995]}, {"species": [{"element": "Al", "occu": 1}], "abc": [0.909288, 0.196813, 0.393626], "properties": {"magmom": 0.0}, "label": "Al", "xyz": [4.591688541788001, 1.968129998974888e-07, 3.7818676803939995]}, {"species": [{"element": "Al", "occu": 1}], "abc": [0.125, 0.375, 0.25], "properties": {"magmom": 0.0}, "label": "Al", "xyz": [1.2500000001747225e-07, 1.6111753749999997, 2.40194225]}, {"species": [{"element": "Al", "occu": 1}], "abc": [0.125, 0.875, 0.25], "properties": {"magmom": 0.0}, "label": "Al", "xyz": [1.2500000001747225e-07, 4.833525875, 2.40194225]}, {"species": [{"element": "Al", "occu": 1}], "abc": [0.125, 0.875, 0.75], "properties": {"magmom": 0.0}, "label": "Al", "xyz": [-1.611174875, 3.222350875, 7.20582675]}, {"species": [{"element": "Al", "occu": 1}], "abc": [0.625, 0.875, 0.75], "properties": {"magmom": 0.0}, "label": "Al", "xyz": [1.6111756250000004, 3.222350875, 7.20582675]}]}, "task_ids": null, "uncorrected_energy_per_atom": null, "energy_per_atom": -2.7935192425, "formation_energy_per_atom": 0.10601426150000001, "energy_above_hull": 0.11723150200000002, "is_stable": false, "equilibrium_reaction_energy_per_atom": null, "decomposes_to": null, "xas": null, "grain_boundaries": null, "band_gap": 0.0, "cbm": null, "vbm": null, "efermi": 5.34734111, "is_gap_direct": null, "is_metal": null, "es_source_calc_id": null, "bandstructure": null, "dos": null, "dos_energy_up": null, "dos_energy_down": null, "is_magnetic": null, "ordering": null, "total_magnetization": 0.005350199999999, "total_magnetization_normalized_vol": null, "total_magnetization_normalized_formula_units": null, "num_magnetic_sites": null, "num_unique_magnetic_sites": null, "types_of_magnetic_species": null, "bulk_modulus": null, "shear_modulus": null, "universal_anisotropy": null, "homogeneous_poisson": null, "e_total": null, "e_ionic": null, "e_electronic": null, "n": null, "e_ij_max": null, "weighted_surface_energy_EV_PER_ANG2": null, "weighted_surface_energy": null, "weighted_work_function": null, "surface_anisotropy": null, "shape_factor": null, "has_reconstructed": null, "possible_species": null, "has_props": null, "theoretical": null, "database_IDs": null, "fields_not_requested": ["builder_meta", "nsites", "elements", "nelements", "composition", "composition_reduced", "chemsys", "symmetry", "property_name", "deprecated", "deprecation_reasons", "last_updated", "origins", "warnings", "task_ids", "uncorrected_energy_per_atom", "equilibrium_reaction_energy_per_atom", "decomposes_to", "xas", "grain_boundaries", "cbm", "vbm", "is_gap_direct", "is_metal", "es_source_calc_id", "bandstructure", "dos", "dos_energy_up", "dos_energy_down", "is_magnetic", "ordering", "total_magnetization_normalized_vol", "total_magnetization_normalized_formula_units", "num_magnetic_sites", "num_unique_magnetic_sites", "types_of_magnetic_species", "bulk_modulus", "shear_modulus", "universal_anisotropy", "homogeneous_poisson", "e_total", "e_ionic", "e_electronic", "n", "e_ij_max", "weighted_surface_energy_EV_PER_ANG2", "weighted_surface_energy", "weighted_work_function", "surface_anisotropy", "shape_factor", "has_reconstructed", "possible_species", "has_props", "theoretical", "database_IDs"]}