{"builder_meta": null, "nsites": null, "elements": null, "nelements": null, "composition": null, "composition_reduced": null, "formula_pretty": "Mg2Bi", "formula_anonymous": "AB2", "chemsys": null, "volume": 157.10452080459805, "density": 5.445278343239143, "density_atomic": 26.18408680076634, "symmetry": null, "property_name": null, "material_id": "mp-978260", "deprecated": null, "deprecation_reasons": null, "last_updated": null, "origins": null, "warnings": null, "structure": {"@module": "pymatgen.core.structure", "@class": "Structure", "charge": 0, "lattice": {"matrix": [[1.755503, 6.037817, 0.0], [-1.755503, 6.037817, 0.0], [0.0, 3.002455, 7.411006]], "pbc": [true, true, true], "a": 6.287847398633176, "b": 6.287847398633176, "c": 7.996108175797837, "alpha": 68.8654975344406, "beta": 68.8654975344406, "gamma": 32.423713505477345, "volume": 157.10452080459805}, "properties": {}, "sites": [{"species": [{"element": "Mg", "occu": 1}], "abc": [0.130214, 0.130214, 0.9722639999999991], "properties": {"magmom": 0.0}, "label": "Mg", "xyz": [0.0, 4.491595513795998, 7.205454337583994]}, {"species": [{"element": "Mg", "occu": 1}], "abc": [0.869786, 0.869786, 0.027736], "properties": {"magmom": 0.0}, "label": "Mg", "xyz": [0.0, 10.586493486204, 0.205551662416]}, {"species": [{"element": "Mg", "occu": 1}], "abc": [0.449098999999999, 0.449098999999999, 0.305267], "properties": {"magmom": 0.0}, "label": "Mg", "xyz": [0.0, 6.339705584250988, 2.2623355686020004]}, {"species": [{"element": "Mg", "occu": 1}], "abc": [0.550901, 0.550901, 0.694732999999999], "properties": {"magmom": 0.0}, "label": "Mg", "xyz": [0.0, 8.738383415748999, 5.148670431397993]}, {"species": [{"element": "Bi", "occu": 1}], "abc": [0.17699499999999901, 0.17699499999999901, 0.322662], "properties": {"magmom": -0.0}, "label": "Bi", "xyz": [0.0, 3.106104975039988, 2.391250017972]}, {"species": [{"element": "Bi", "occu": 1}], "abc": [0.823005, 0.823005, 0.677338], "properties": {"magmom": -0.0}, "label": "Bi", "xyz": [0.0, 11.97198402496, 5.019755982028]}]}, "task_ids": null, "uncorrected_energy_per_atom": null, "energy_per_atom": -2.4234959666666662, "formation_energy_per_atom": -0.039837853333334006, "energy_above_hull": 0.109050429166664, "is_stable": false, "equilibrium_reaction_energy_per_atom": null, "decomposes_to": null, "xas": null, "grain_boundaries": null, "band_gap": 0.0, "cbm": null, "vbm": null, "efermi": 4.66793548, "is_gap_direct": null, "is_metal": null, "es_source_calc_id": null, "bandstructure": null, "dos": null, "dos_energy_up": null, "dos_energy_down": null, "is_magnetic": null, "ordering": null, "total_magnetization": 0.0005105999999990001, "total_magnetization_normalized_vol": null, "total_magnetization_normalized_formula_units": null, "num_magnetic_sites": null, "num_unique_magnetic_sites": null, "types_of_magnetic_species": null, "bulk_modulus": null, "shear_modulus": null, "universal_anisotropy": null, "homogeneous_poisson": null, "e_total": null, "e_ionic": null, "e_electronic": null, "n": null, "e_ij_max": null, "weighted_surface_energy_EV_PER_ANG2": null, "weighted_surface_energy": null, "weighted_work_function": null, "surface_anisotropy": null, "shape_factor": null, "has_reconstructed": null, "possible_species": null, "has_props": null, "theoretical": null, "database_IDs": null, "fields_not_requested": ["builder_meta", "nsites", "elements", "nelements", "composition", "composition_reduced", "chemsys", "symmetry", "property_name", "deprecated", "deprecation_reasons", "last_updated", "origins", "warnings", "task_ids", "uncorrected_energy_per_atom", "equilibrium_reaction_energy_per_atom", "decomposes_to", "xas", "grain_boundaries", "cbm", "vbm", "is_gap_direct", "is_metal", "es_source_calc_id", "bandstructure", "dos", "dos_energy_up", "dos_energy_down", "is_magnetic", "ordering", "total_magnetization_normalized_vol", "total_magnetization_normalized_formula_units", "num_magnetic_sites", "num_unique_magnetic_sites", "types_of_magnetic_species", "bulk_modulus", "shear_modulus", "universal_anisotropy", "homogeneous_poisson", "e_total", "e_ionic", "e_electronic", "n", "e_ij_max", "weighted_surface_energy_EV_PER_ANG2", "weighted_surface_energy", "weighted_work_function", "surface_anisotropy", "shape_factor", "has_reconstructed", "possible_species", "has_props", "theoretical", "database_IDs"]}