{
  "builder_meta": null,
  "nsites": null,
  "elements": null,
  "nelements": null,
  "composition": null,
  "composition_reduced": null,
  "formula_pretty": "Mg2Bi3",
  "formula_anonymous": "A2B3",
  "chemsys": null,
  "volume": 153.03805472102792,
  "density": 7.3300667675983835,
  "density_atomic": 30.607610944205582,
  "symmetry": null,
  "property_name": null,
  "material_id": "mp-1207227",
  "deprecated": null,
  "deprecation_reasons": null,
  "last_updated": null,
  "origins": null,
  "warnings": null,
  "structure": {
    "@module": "pymatgen.core.structure",
    "@class": "Structure",
    "charge": 0,
    "lattice": {
      "matrix": [
        [-2.599095, -4.501765, 0.0],
        [-2.599095, 4.501765, 0.0],
        [0.0, 0.0, -6.5398]
      ],
      "pbc": [true, true, true],
      "a": 5.198190351867657,
      "b": 5.198190351867657,
      "c": 6.5398,
      "alpha": 90.0,
      "beta": 90.0,
      "gamma": 120.00000447836172,
      "volume": 153.03805472102792
    },
    "properties": {},
    "sites": [
      {
        "species": [{ "element": "Mg", "occu": 1 }],
        "abc": [0.666667, 0.333333, 0.807373999999999],
        "properties": { "magmom": 0.0 },
        "label": "Mg",
        "xyz": [-2.599095, -1.5005913345100002, -5.280064485199993]
      },
      {
        "species": [{ "element": "Mg", "occu": 1 }],
        "abc": [0.333333, 0.666667, 0.192626],
        "properties": { "magmom": 0.0 },
        "label": "Mg",
        "xyz": [-2.599095, 1.5005913345100002, -1.2597355147999998]
      },
      {
        "species": [{ "element": "Bi", "occu": 1 }],
        "abc": [0.666667, 0.333333, 0.307197],
        "properties": { "magmom": -0.0 },
        "label": "Bi",
        "xyz": [-2.599095, -1.5005913345100002, -2.0090069406]
      },
      {
        "species": [{ "element": "Bi", "occu": 1 }],
        "abc": [0.333333, 0.666667, 0.692803],
        "properties": { "magmom": -0.0 },
        "label": "Bi",
        "xyz": [-2.599095, 1.5005913345100002, -4.5307930594]
      },
      {
        "species": [{ "element": "Bi", "occu": 1 }],
        "abc": [0.0, 0.0, 0.0],
        "properties": { "magmom": 0.0 },
        "label": "Bi",
        "xyz": [0.0, 0.0, 0.0]
      }
    ]
  },
  "task_ids": null,
  "uncorrected_energy_per_atom": null,
  "energy_per_atom": -3.019656781999999,
  "formation_energy_per_atom": -0.033448190000001,
  "energy_above_hull": 0.08566243599999701,
  "is_stable": false,
  "equilibrium_reaction_energy_per_atom": null,
  "decomposes_to": null,
  "xas": null,
  "grain_boundaries": null,
  "band_gap": 0.0,
  "cbm": null,
  "vbm": null,
  "efermi": 4.9146459,
  "is_gap_direct": null,
  "is_metal": null,
  "es_source_calc_id": null,
  "bandstructure": null,
  "dos": null,
  "dos_energy_up": null,
  "dos_energy_down": null,
  "is_magnetic": null,
  "ordering": null,
  "total_magnetization": 4.31e-5,
  "total_magnetization_normalized_vol": null,
  "total_magnetization_normalized_formula_units": null,
  "num_magnetic_sites": null,
  "num_unique_magnetic_sites": null,
  "types_of_magnetic_species": null,
  "bulk_modulus": null,
  "shear_modulus": null,
  "universal_anisotropy": null,
  "homogeneous_poisson": null,
  "e_total": null,
  "e_ionic": null,
  "e_electronic": null,
  "n": null,
  "e_ij_max": null,
  "weighted_surface_energy_EV_PER_ANG2": null,
  "weighted_surface_energy": null,
  "weighted_work_function": null,
  "surface_anisotropy": null,
  "shape_factor": null,
  "has_reconstructed": null,
  "possible_species": null,
  "has_props": null,
  "theoretical": null,
  "database_IDs": null,
  "fields_not_requested": [
    "builder_meta",
    "nsites",
    "elements",
    "nelements",
    "composition",
    "composition_reduced",
    "chemsys",
    "symmetry",
    "property_name",
    "deprecated",
    "deprecation_reasons",
    "last_updated",
    "origins",
    "warnings",
    "task_ids",
    "uncorrected_energy_per_atom",
    "equilibrium_reaction_energy_per_atom",
    "decomposes_to",
    "xas",
    "grain_boundaries",
    "cbm",
    "vbm",
    "is_gap_direct",
    "is_metal",
    "es_source_calc_id",
    "bandstructure",
    "dos",
    "dos_energy_up",
    "dos_energy_down",
    "is_magnetic",
    "ordering",
    "total_magnetization_normalized_vol",
    "total_magnetization_normalized_formula_units",
    "num_magnetic_sites",
    "num_unique_magnetic_sites",
    "types_of_magnetic_species",
    "bulk_modulus",
    "shear_modulus",
    "universal_anisotropy",
    "homogeneous_poisson",
    "e_total",
    "e_ionic",
    "e_electronic",
    "n",
    "e_ij_max",
    "weighted_surface_energy_EV_PER_ANG2",
    "weighted_surface_energy",
    "weighted_work_function",
    "surface_anisotropy",
    "shape_factor",
    "has_reconstructed",
    "possible_species",
    "has_props",
    "theoretical",
    "database_IDs"
  ]
}
