{"builder_meta": null, "nsites": null, "elements": null, "nelements": null, "composition": null, "composition_reduced": null, "formula_pretty": "Mg2Cu", "formula_anonymous": "AB2", "chemsys": null, "volume": 211.9179858513011, "density": 3.515311242798812, "density_atomic": 17.65983215427509, "symmetry": null, "property_name": null, "material_id": "mp-2481", "deprecated": null, "deprecation_reasons": null, "last_updated": null, "origins": null, "warnings": null, "structure": {"@module": "pymatgen.core.structure", "@class": "Structure", "charge": 0, "lattice": {"matrix": [[5.12074807, 0.0033483999999990004, -0.72144414], [-2.66953862, 4.36985426, -0.72144414], [0.00464807, 0.00829322, 9.46386334]], "pbc": [true, true, true], "a": 5.171320300980362, "b": 5.171319400738268, "c": 9.463868115112797, "alpha": 97.9912397220265, "beta": 97.99124139062867, "gamma": 119.41697826705403, "volume": 211.91798585130104}, "properties": {}, "sites": [{"species": [{"element": "Mg", "occu": 1}], "abc": [0.45878108, 0.7087810800000001, 0.41756217], "properties": {"magmom": -0.0}, "label": "Mg", "xyz": [0.459124721972718, 3.1022691393531603, 3.1094204344161054]}, {"species": [{"element": "Mg", "occu": 1}], "abc": [0.29121892, 0.54121892, 0.08243783], "properties": {"magmom": -0.0}, "label": "Mg", "xyz": [0.04683709052728205, 2.36670659564684, 0.17962295558389452]}, {"species": [{"element": "Mg", "occu": 1}], "abc": [0.54121892, 0.29121892, 0.58243783], "properties": {"magmom": -0.0}, "label": "Mg", "xyz": [1.9967327980272829, 1.2792267406468394, 4.911554625583895]}, {"species": [{"element": "Mg", "occu": 1}], "abc": [0.7087810800000001, 0.45878108, 0.9175621700000001], "properties": {"magmom": -0.0}, "label": "Mg", "xyz": [2.409020429472718, 2.0147892843531596, 7.841352104416105]}, {"species": [{"element": "Mg", "occu": 1}], "abc": [0.29107299000000003, 0.70892701, 0.75], "properties": {"magmom": 0.0}, "label": "Mg", "xyz": [-0.3985105276844967, 3.1051022584772787, 6.376453365]}, {"species": [{"element": "Mg", "occu": 1}], "abc": [0.95892701, 0.041072990000000004, 0.75], "properties": {"magmom": 0.0}, "label": "Mg", "xyz": [4.804263755184497, 0.18891376652272046, 6.376453365]}, {"species": [{"element": "Mg", "occu": 1}], "abc": [0.70892701, 0.29107299000000003, 0.25], "properties": {"magmom": 0.0}, "label": "Mg", "xyz": [2.8543680476844973, 1.276393621522721, 1.644521695]}, {"species": [{"element": "Mg", "occu": 1}], "abc": [0.041072990000000004, 0.95892701, 0.25], "properties": {"magmom": 0.0}, "label": "Mg", "xyz": [-2.348406235184497, 4.192582113477278, 1.644521695]}, {"species": [{"element": "Cu", "occu": 1}], "abc": [0.00171474, 0.25171474, 0.50342849], "properties": {"magmom": 0.0}, "label": "Cu", "xyz": [-0.6608414972461927, 1.104137513751046, 4.581543217573309]}, {"species": [{"element": "Cu", "occu": 1}], "abc": [0.7482852600000001, 0.9982852600000001, 0.99657151], "properties": {"magmom": 0.0}, "label": "Cu", "xyz": [1.171451379746193, 4.373131441248954, 8.171363512426689]}, {"species": [{"element": "Cu", "occu": 1}], "abc": [0.9982852600000001, 0.7482852600000001, 0.49657151], "properties": {"magmom": 0.0}, "label": "Cu", "xyz": [3.116699017246193, 3.2773583662489534, 3.4394318424266905]}, {"species": [{"element": "Cu", "occu": 1}], "abc": [0.25171474, 0.00171474, 0.00342849], "properties": {"magmom": 0.0}, "label": "Cu", "xyz": [1.2844061402538074, 0.008364438751045948, -0.1503884524266906]}]}, "task_ids": null, "uncorrected_energy_per_atom": null, "energy_per_atom": -6.482614911666666, "formation_energy_per_atom": -0.087480521666666, "energy_above_hull": 0.0, "is_stable": true, "equilibrium_reaction_energy_per_atom": null, "decomposes_to": null, "xas": null, "grain_boundaries": null, "band_gap": 0.0, "cbm": null, "vbm": null, "efermi": 2.98611265, "is_gap_direct": null, "is_metal": null, "es_source_calc_id": null, "bandstructure": null, "dos": null, "dos_energy_up": null, "dos_energy_down": null, "is_magnetic": null, "ordering": null, "total_magnetization": 0.0, "total_magnetization_normalized_vol": null, "total_magnetization_normalized_formula_units": null, "num_magnetic_sites": null, "num_unique_magnetic_sites": null, "types_of_magnetic_species": null, "bulk_modulus": null, "shear_modulus": null, "universal_anisotropy": null, "homogeneous_poisson": null, "e_total": null, "e_ionic": null, "e_electronic": null, "n": null, "e_ij_max": null, "weighted_surface_energy_EV_PER_ANG2": null, "weighted_surface_energy": null, "weighted_work_function": null, "surface_anisotropy": null, "shape_factor": null, "has_reconstructed": null, "possible_species": null, "has_props": null, "theoretical": null, "database_IDs": null, "fields_not_requested": ["builder_meta", "nsites", "elements", "nelements", "composition", "composition_reduced", "chemsys", "symmetry", "property_name", "deprecated", "deprecation_reasons", "last_updated", "origins", "warnings", "task_ids", "uncorrected_energy_per_atom", "equilibrium_reaction_energy_per_atom", "decomposes_to", "xas", "grain_boundaries", "cbm", "vbm", "is_gap_direct", "is_metal", "es_source_calc_id", "bandstructure", "dos", "dos_energy_up", "dos_energy_down", "is_magnetic", "ordering", "total_magnetization_normalized_vol", "total_magnetization_normalized_formula_units", "num_magnetic_sites", "num_unique_magnetic_sites", "types_of_magnetic_species", "bulk_modulus", "shear_modulus", "universal_anisotropy", "homogeneous_poisson", "e_total", "e_ionic", "e_electronic", "n", "e_ij_max", "weighted_surface_energy_EV_PER_ANG2", "weighted_surface_energy", "weighted_work_function", "surface_anisotropy", "shape_factor", "has_reconstructed", "possible_species", "has_props", "theoretical", "database_IDs"]}