{
  "builder_meta": null,
  "nsites": null,
  "elements": null,
  "nelements": null,
  "composition": null,
  "composition_reduced": null,
  "formula_pretty": "Mg2Cd",
  "formula_anonymous": "AB2",
  "chemsys": null,
  "volume": 255.25152240917305,
  "density": 4.190089187626951,
  "density_atomic": 21.27096020076442,
  "symmetry": null,
  "property_name": null,
  "material_id": "mp-1094909",
  "deprecated": null,
  "deprecation_reasons": null,
  "last_updated": null,
  "origins": null,
  "warnings": null,
  "structure": {
    "@module": "pymatgen.core.structure",
    "@class": "Structure",
    "charge": 0,
    "lattice": {
      "matrix": [
        [3.20497649, 0.0, 1.009999999999998e-6],
        [0.0, 15.84173121, 2.029999999999998e-6],
        [1.009999999999998e-6, 1.02e-6, 5.02737004]
      ],
      "pbc": [true, true, true],
      "a": 3.204976490000159,
      "b": 15.84173121000013,
      "c": 5.027370040000205,
      "alpha": 89.99998103326682,
      "beta": 89.99997043336168,
      "gamma": 89.99999999999768,
      "volume": 255.25152240917305
    },
    "properties": {},
    "sites": [
      {
        "species": [{ "element": "Mg", "occu": 1 }],
        "abc": [-0.0, 0.55703797, 0.25],
        "properties": { "magmom": 0.0 },
        "label": "Mg",
        "xyz": [2.524999999999995e-7, 8.824446049504044, 1.256843640787079]
      },
      {
        "species": [{ "element": "Mg", "occu": 1 }],
        "abc": [0.5, 0.72540864, 0.25],
        "properties": { "magmom": 0.0 },
        "label": "Mg",
        "xyz": [1.6024884975, 11.491728947291655, 1.2568444875795393]
      },
      {
        "species": [{ "element": "Mg", "occu": 1 }],
        "abc": [-0.0, 0.77459036, 0.75],
        "properties": { "magmom": 0.0 },
        "label": "Mg",
        "xyz": [7.574999999999985e-7, 12.270853045977136, 3.770529102418431]
      },
      {
        "species": [{ "element": "Mg", "occu": 1 }],
        "abc": [0.5, 0.94296203, 0.75],
        "properties": { "magmom": 0.0 },
        "label": "Mg",
        "xyz": [1.6024890025, 14.938151785495956, 3.770529949212921]
      },
      {
        "species": [{ "element": "Mg", "occu": 1 }],
        "abc": [0.5, 0.05699199, 0.25],
        "properties": { "magmom": 0.0 },
        "label": "Mg",
        "xyz": [1.6024884975, 0.9028520417030079, 1.2568431306937398]
      },
      {
        "species": [{ "element": "Mg", "occu": 1 }],
        "abc": [0.0, 0.22541054, 0.25],
        "properties": { "magmom": 0.0 },
        "label": "Mg",
        "xyz": [2.524999999999995e-7, 3.570893441580953, 1.2568429675833963]
      },
      {
        "species": [{ "element": "Mg", "occu": 1 }],
        "abc": [0.5, 0.27459046, 0.75],
        "properties": { "magmom": 0.0 },
        "label": "Mg",
        "xyz": [1.6024890025, 4.349989025150257, 3.770528592418634]
      },
      {
        "species": [{ "element": "Mg", "occu": 1 }],
        "abc": [0.0, 0.44300901000000004, 0.75],
        "properties": { "magmom": 0.0 },
        "label": "Mg",
        "xyz": [7.574999999999985e-7, 7.018030425028203, 3.7705284293082904]
      },
      {
        "species": [{ "element": "Cd", "occu": 1 }],
        "abc": [-0.0, 0.88800617, 0.25],
        "properties": { "magmom": 0.0 },
        "label": "Cd",
        "xyz": [2.524999999999995e-7, 14.067555312961566, 1.256844312652525]
      },
      {
        "species": [{ "element": "Cd", "occu": 1 }],
        "abc": [0.5, 0.61199383, 0.75],
        "properties": { "magmom": 0.0 },
        "label": "Cd",
        "xyz": [1.6024890025, 9.695042522038433, 3.7705292773474746]
      },
      {
        "species": [{ "element": "Cd", "occu": 1 }],
        "abc": [0.5, 0.38805772, 0.25],
        "properties": { "magmom": -0.0 },
        "label": "Cd",
        "xyz": [1.6024884975, 6.147506349205441, 1.2568438027571716]
      },
      {
        "species": [{ "element": "Cd", "occu": 1 }],
        "abc": [0.0, 0.11194228, 0.75],
        "properties": { "magmom": -0.0 },
        "label": "Cd",
        "xyz": [7.574999999999985e-7, 1.773360275794559, 3.7705277572428284]
      }
    ]
  },
  "task_ids": null,
  "uncorrected_energy_per_atom": null,
  "energy_per_atom": -1.471586153333333,
  "formation_energy_per_atom": -0.064602746666665,
  "energy_above_hull": 0.0008533286111110001,
  "is_stable": false,
  "equilibrium_reaction_energy_per_atom": null,
  "decomposes_to": null,
  "xas": null,
  "grain_boundaries": null,
  "band_gap": 0.0,
  "cbm": null,
  "vbm": null,
  "efermi": 3.66509507,
  "is_gap_direct": null,
  "is_metal": null,
  "es_source_calc_id": null,
  "bandstructure": null,
  "dos": null,
  "dos_energy_up": null,
  "dos_energy_down": null,
  "is_magnetic": null,
  "ordering": null,
  "total_magnetization": 1e-7,
  "total_magnetization_normalized_vol": null,
  "total_magnetization_normalized_formula_units": null,
  "num_magnetic_sites": null,
  "num_unique_magnetic_sites": null,
  "types_of_magnetic_species": null,
  "bulk_modulus": null,
  "shear_modulus": null,
  "universal_anisotropy": null,
  "homogeneous_poisson": null,
  "e_total": null,
  "e_ionic": null,
  "e_electronic": null,
  "n": null,
  "e_ij_max": null,
  "weighted_surface_energy_EV_PER_ANG2": null,
  "weighted_surface_energy": null,
  "weighted_work_function": null,
  "surface_anisotropy": null,
  "shape_factor": null,
  "has_reconstructed": null,
  "possible_species": null,
  "has_props": null,
  "theoretical": null,
  "database_IDs": null,
  "fields_not_requested": [
    "builder_meta",
    "nsites",
    "elements",
    "nelements",
    "composition",
    "composition_reduced",
    "chemsys",
    "symmetry",
    "property_name",
    "deprecated",
    "deprecation_reasons",
    "last_updated",
    "origins",
    "warnings",
    "task_ids",
    "uncorrected_energy_per_atom",
    "equilibrium_reaction_energy_per_atom",
    "decomposes_to",
    "xas",
    "grain_boundaries",
    "cbm",
    "vbm",
    "is_gap_direct",
    "is_metal",
    "es_source_calc_id",
    "bandstructure",
    "dos",
    "dos_energy_up",
    "dos_energy_down",
    "is_magnetic",
    "ordering",
    "total_magnetization_normalized_vol",
    "total_magnetization_normalized_formula_units",
    "num_magnetic_sites",
    "num_unique_magnetic_sites",
    "types_of_magnetic_species",
    "bulk_modulus",
    "shear_modulus",
    "universal_anisotropy",
    "homogeneous_poisson",
    "e_total",
    "e_ionic",
    "e_electronic",
    "n",
    "e_ij_max",
    "weighted_surface_energy_EV_PER_ANG2",
    "weighted_surface_energy",
    "weighted_work_function",
    "surface_anisotropy",
    "shape_factor",
    "has_reconstructed",
    "possible_species",
    "has_props",
    "theoretical",
    "database_IDs"
  ]
}
