{
  "builder_meta": null,
  "nsites": null,
  "elements": null,
  "nelements": null,
  "composition": null,
  "composition_reduced": null,
  "formula_pretty": "Mg2C3",
  "formula_anonymous": "A2B3",
  "chemsys": null,
  "volume": 127.68046923405105,
  "density": 2.201613364553335,
  "density_atomic": 12.768046923405105,
  "symmetry": null,
  "property_name": null,
  "material_id": "mp-28793",
  "deprecated": null,
  "deprecation_reasons": null,
  "last_updated": null,
  "origins": null,
  "warnings": null,
  "structure": {
    "@module": "pymatgen.core.structure",
    "@class": "Structure",
    "charge": 0,
    "lattice": {
      "matrix": [
        [3.742188, 0.0, 0.0],
        [0.0, 5.291497, 0.0],
        [0.0, 0.0, 6.44793]
      ],
      "pbc": [true, true, true],
      "a": 3.742188,
      "b": 5.291497,
      "c": 6.44793,
      "alpha": 90.0,
      "beta": 90.0,
      "gamma": 90.0,
      "volume": 127.68046923405105
    },
    "properties": {},
    "sites": [
      {
        "species": [{ "element": "Mg", "occu": 1 }],
        "abc": [0.5, 0.891598, 0.208526],
        "properties": { "magmom": 0.0 },
        "label": "Mg",
        "xyz": [1.871094, 4.717888142205999, 1.34456105118]
      },
      {
        "species": [{ "element": "Mg", "occu": 1 }],
        "abc": [0.5, 0.108402, 0.791474],
        "properties": { "magmom": 0.0 },
        "label": "Mg",
        "xyz": [1.871094, 0.573608857794, 5.10336894882]
      },
      {
        "species": [{ "element": "Mg", "occu": 1 }],
        "abc": [0.0, 0.391598, 0.291474],
        "properties": { "magmom": 0.0 },
        "label": "Mg",
        "xyz": [0.0, 2.072139642206, 1.8794039488200003]
      },
      {
        "species": [{ "element": "Mg", "occu": 1 }],
        "abc": [0.0, 0.608402, 0.708526],
        "properties": { "magmom": 0.0 },
        "label": "Mg",
        "xyz": [0.0, 3.219357357794, 4.56852605118]
      },
      {
        "species": [{ "element": "C", "occu": 1 }],
        "abc": [0.5, 0.706565, 0.882042],
        "properties": { "magmom": -0.0 },
        "label": "C",
        "xyz": [1.871094, 3.7387865778049996, 5.68734507306]
      },
      {
        "species": [{ "element": "C", "occu": 1 }],
        "abc": [0.5, 0.293435, 0.117958],
        "properties": { "magmom": -0.0 },
        "label": "C",
        "xyz": [1.871094, 1.5527104221949999, 0.76058492694]
      },
      {
        "species": [{ "element": "C", "occu": 1 }],
        "abc": [0.0, 0.206565, 0.617958],
        "properties": { "magmom": -0.0 },
        "label": "C",
        "xyz": [0.0, 1.093038077805, 3.98454992694]
      },
      {
        "species": [{ "element": "C", "occu": 1 }],
        "abc": [0.0, 0.793435, 0.382042],
        "properties": { "magmom": -0.0 },
        "label": "C",
        "xyz": [0.0, 4.198458922195, 2.46338007306]
      },
      {
        "species": [{ "element": "C", "occu": 1 }],
        "abc": [0.0, 0.0, 0.5],
        "properties": { "magmom": -0.0 },
        "label": "C",
        "xyz": [0.0, 0.0, 3.223965]
      },
      {
        "species": [{ "element": "C", "occu": 1 }],
        "abc": [0.5, 0.5, 0.0],
        "properties": { "magmom": -0.0 },
        "label": "C",
        "xyz": [1.871094, 2.6457485, 0.0]
      }
    ]
  },
  "task_ids": null,
  "uncorrected_energy_per_atom": null,
  "energy_per_atom": -6.004924574,
  "formation_energy_per_atom": 0.184462727499999,
  "energy_above_hull": 0.184462727499999,
  "is_stable": false,
  "equilibrium_reaction_energy_per_atom": null,
  "decomposes_to": null,
  "xas": null,
  "grain_boundaries": null,
  "band_gap": 1.6533,
  "cbm": null,
  "vbm": null,
  "efermi": 3.98673097,
  "is_gap_direct": null,
  "is_metal": null,
  "es_source_calc_id": null,
  "bandstructure": null,
  "dos": null,
  "dos_energy_up": null,
  "dos_energy_down": null,
  "is_magnetic": null,
  "ordering": null,
  "total_magnetization": 0.0004191,
  "total_magnetization_normalized_vol": null,
  "total_magnetization_normalized_formula_units": null,
  "num_magnetic_sites": null,
  "num_unique_magnetic_sites": null,
  "types_of_magnetic_species": null,
  "bulk_modulus": null,
  "shear_modulus": null,
  "universal_anisotropy": null,
  "homogeneous_poisson": null,
  "e_total": null,
  "e_ionic": null,
  "e_electronic": null,
  "n": null,
  "e_ij_max": null,
  "weighted_surface_energy_EV_PER_ANG2": null,
  "weighted_surface_energy": null,
  "weighted_work_function": null,
  "surface_anisotropy": null,
  "shape_factor": null,
  "has_reconstructed": null,
  "possible_species": null,
  "has_props": null,
  "theoretical": null,
  "database_IDs": null,
  "fields_not_requested": [
    "builder_meta",
    "nsites",
    "elements",
    "nelements",
    "composition",
    "composition_reduced",
    "chemsys",
    "symmetry",
    "property_name",
    "deprecated",
    "deprecation_reasons",
    "last_updated",
    "origins",
    "warnings",
    "task_ids",
    "uncorrected_energy_per_atom",
    "equilibrium_reaction_energy_per_atom",
    "decomposes_to",
    "xas",
    "grain_boundaries",
    "cbm",
    "vbm",
    "is_gap_direct",
    "is_metal",
    "es_source_calc_id",
    "bandstructure",
    "dos",
    "dos_energy_up",
    "dos_energy_down",
    "is_magnetic",
    "ordering",
    "total_magnetization_normalized_vol",
    "total_magnetization_normalized_formula_units",
    "num_magnetic_sites",
    "num_unique_magnetic_sites",
    "types_of_magnetic_species",
    "bulk_modulus",
    "shear_modulus",
    "universal_anisotropy",
    "homogeneous_poisson",
    "e_total",
    "e_ionic",
    "e_electronic",
    "n",
    "e_ij_max",
    "weighted_surface_energy_EV_PER_ANG2",
    "weighted_surface_energy",
    "weighted_work_function",
    "surface_anisotropy",
    "shape_factor",
    "has_reconstructed",
    "possible_species",
    "has_props",
    "theoretical",
    "database_IDs"
  ]
}
