{"builder_meta": null, "nsites": null, "elements": null, "nelements": null, "composition": null, "composition_reduced": null, "formula_pretty": "Mg2Fe", "formula_anonymous": "AB2", "chemsys": null, "volume": 107.51115768134261, "density": 3.226671760261467, "density_atomic": 17.91852628022377, "symmetry": null, "property_name": null, "material_id": "mp-1094145", "deprecated": null, "deprecation_reasons": null, "last_updated": null, "origins": null, "warnings": null, "structure": {"@module": "pymatgen.core.structure", "@class": "Structure", "charge": 0, "lattice": {"matrix": [[2.341615, -7.346541, 0.0], [2.341615, 7.346541, 0.0], [0.0, 0.0, 3.124821]], "pbc": [true, true, true], "a": 7.7106955245882975, "b": 7.7106955245882975, "c": 3.124821, "alpha": 90.0, "beta": 90.0, "gamma": 144.6419823976969, "volume": 107.51115768134261}, "properties": {}, "sites": [{"species": [{"element": "Mg", "occu": 1}], "abc": [0.914746, 0.085254, 0.75], "properties": {"magmom": -0.028}, "label": "Mg", "xyz": [2.341615, -6.093896987172, 2.3436157499999997]}, {"species": [{"element": "Mg", "occu": 1}], "abc": [0.085254, 0.914746, 0.25], "properties": {"magmom": -0.028}, "label": "Mg", "xyz": [2.341615, 6.093896987172, 0.78120525]}, {"species": [{"element": "Mg", "occu": 1}], "abc": [0.28304, 0.71696, 0.75], "properties": {"magmom": -0.012}, "label": "Mg", "xyz": [2.341615, 3.18781107072, 2.3436157499999997]}, {"species": [{"element": "Mg", "occu": 1}], "abc": [0.71696, 0.28304, 0.25], "properties": {"magmom": -0.012}, "label": "Mg", "xyz": [2.341615, -3.18781107072, 0.78120525]}, {"species": [{"element": "Fe", "occu": 1}], "abc": [0.558566999999999, 0.441432999999999, 0.75], "properties": {"magmom": 2.402}, "label": "Fe", "xyz": [2.3416149999999956, -0.8605297334939999, 2.3436157499999997]}, {"species": [{"element": "Fe", "occu": 1}], "abc": [0.441432999999999, 0.558566999999999, 0.25], "properties": {"magmom": 2.402}, "label": "Fe", "xyz": [2.3416149999999956, 0.8605297334939999, 0.78120525]}]}, "task_ids": null, "uncorrected_energy_per_atom": null, "energy_per_atom": -3.74324418, "formation_energy_per_atom": 0.16707623333333302, "energy_above_hull": 0.16707623333333302, "is_stable": false, "equilibrium_reaction_energy_per_atom": null, "decomposes_to": null, "xas": null, "grain_boundaries": null, "band_gap": 0.0, "cbm": null, "vbm": null, "efermi": 3.95591564, "is_gap_direct": null, "is_metal": null, "es_source_calc_id": null, "bandstructure": null, "dos": null, "dos_energy_up": null, "dos_energy_down": null, "is_magnetic": null, "ordering": null, "total_magnetization": 4.5034898, "total_magnetization_normalized_vol": null, "total_magnetization_normalized_formula_units": null, "num_magnetic_sites": null, "num_unique_magnetic_sites": null, "types_of_magnetic_species": null, "bulk_modulus": null, "shear_modulus": null, "universal_anisotropy": null, "homogeneous_poisson": null, "e_total": null, "e_ionic": null, "e_electronic": null, "n": null, "e_ij_max": null, "weighted_surface_energy_EV_PER_ANG2": null, "weighted_surface_energy": null, "weighted_work_function": null, "surface_anisotropy": null, "shape_factor": null, "has_reconstructed": null, "possible_species": null, "has_props": null, "theoretical": null, "database_IDs": null, "fields_not_requested": ["builder_meta", "nsites", "elements", "nelements", "composition", "composition_reduced", "chemsys", "symmetry", "property_name", "deprecated", "deprecation_reasons", "last_updated", "origins", "warnings", "task_ids", "uncorrected_energy_per_atom", "equilibrium_reaction_energy_per_atom", "decomposes_to", "xas", "grain_boundaries", "cbm", "vbm", "is_gap_direct", "is_metal", "es_source_calc_id", "bandstructure", "dos", "dos_energy_up", "dos_energy_down", "is_magnetic", "ordering", "total_magnetization_normalized_vol", "total_magnetization_normalized_formula_units", "num_magnetic_sites", "num_unique_magnetic_sites", "types_of_magnetic_species", "bulk_modulus", "shear_modulus", "universal_anisotropy", "homogeneous_poisson", "e_total", "e_ionic", "e_electronic", "n", "e_ij_max", "weighted_surface_energy_EV_PER_ANG2", "weighted_surface_energy", "weighted_work_function", "surface_anisotropy", "shape_factor", "has_reconstructed", "possible_species", "has_props", "theoretical", "database_IDs"]}