{"builder_meta": null, "nsites": null, "elements": null, "nelements": null, "composition": null, "composition_reduced": null, "formula_pretty": "Mg2Ga5", "formula_anonymous": "A2B5", "chemsys": null, "volume": 259.54918634339805, "density": 5.082717769397954, "density_atomic": 18.539227595957005, "symmetry": null, "property_name": null, "material_id": "mp-27668", "deprecated": null, "deprecation_reasons": null, "last_updated": null, "origins": null, "warnings": null, "structure": {"@module": "pymatgen.core.structure", "@class": "Structure", "charge": 0, "lattice": {"matrix": [[6.79056308, -0.00404327, -1.7780661100000001], [-4.04663312, 5.45312072, -1.778066739999999], [4.0340000000000003e-05, 8.047000000000001e-05, 7.01225108]], "pbc": [true, true, true], "a": 7.0194930289175375, "b": 7.019493324070369, "c": 7.012251080577756, "alpha": 104.6727892778042, "beta": 104.67278695794951, "gamma": 119.60174872232945, "volume": 259.5491863433981}, "properties": {}, "sites": [{"species": [{"element": "Mg", "occu": 1}], "abc": [0.70085646, 0.70085645, 0.40198432], "properties": {"magmom": 0.0}, "label": "Mg", "xyz": [1.9231172947673416, 3.81905342501985, 0.3264763193030231]}, {"species": [{"element": "Mg", "occu": 1}], "abc": [0.70103048, 0.29896943, -4e-08], "properties": {"magmom": -0.0}, "label": "Mg", "xyz": [3.5505720981355435, 1.6274819378675014, -1.778066418814834]}, {"species": [{"element": "Mg", "occu": 1}], "abc": [0.29896947, 0.70103051, -4e-08], "properties": {"magmom": -0.0}, "label": "Mg", "xyz": [-0.8066422348689375, 3.821595185140982, -1.7780667965779418]}, {"species": [{"element": "Mg", "occu": 1}], "abc": [0.29914351, 0.29914353, 0.598015], "properties": {"magmom": 0.0}, "label": "Mg", "xyz": [0.8208528824209973, 1.630104385984314, 3.1296372312695615]}, {"species": [{"element": "Ga", "occu": 1}], "abc": [0.81793034, 0.52037586, 0.70255018], "properties": {"magmom": -0.0}, "label": "Ga", "xyz": [3.4484657197656245, 2.8344218053609924, 2.546861031599521]}, {"species": [{"element": "Ga", "occu": 1}], "abc": [0.11539774, 0.8177601600000001, 0.29719913000000003], "properties": {"magmom": 0.0}, "label": "Ga", "xyz": [-2.525547725900156, 4.458902203880298, 0.42481796785989157]}, {"species": [{"element": "Ga", "occu": 1}], "abc": [0.52037586, 0.81793035, 0.7025502], "properties": {"magmom": 0.0}, "label": "Ga", "xyz": [0.22380939935112468, 4.458225453212984, 2.5468609666045534]}, {"species": [{"element": "Ga", "occu": 1}], "abc": [0.81776015, 0.11539773, 0.29719911], "properties": {"magmom": -0.0}, "label": "Ga", "xyz": [5.0860915957065425, 0.6259952430346568, 0.4248183056645223]}, {"species": [{"element": "Ga", "occu": 1}], "abc": [0.29418371, 0.29418367, -7.046000000000001e-05], "properties": {"magmom": -0.0}, "label": "Ga", "xyz": [0.80721965463592, 1.6030295965235948, -1.0466503671543004]}, {"species": [{"element": "Ga", "occu": 1}], "abc": [0.7058161900000001, 0.7058162, 7.018000000000001e-05], "properties": {"magmom": -0.0}, "label": "Ga", "xyz": [1.936710152358783, 3.8460471449525073, -2.509484037320714]}, {"species": [{"element": "Ga", "occu": 1}], "abc": [0.88460233, 0.182239799999999, 0.7028009], "properties": {"magmom": 0.0}, "label": "Ga", "xyz": [5.269518663106111, 0.9902554977142545, 3.0313004191656856]}, {"species": [{"element": "Ga", "occu": 1}], "abc": [0.18206969, 0.47962426, 0.29744981], "properties": {"magmom": -0.0}, "label": "Ga", "xyz": [-0.7044957016451104, 2.614736768891392, 0.909256861567977]}, {"species": [{"element": "Ga", "occu": 1}], "abc": [0.182239799999999, 0.88460234, 0.70280092], "properties": {"magmom": -0.0}, "label": "Ga", "xyz": [-2.3421219184978113, 4.823163058888372, 3.0313000991416477]}, {"species": [{"element": "Ga", "occu": 1}], "abc": [0.47962428, 0.18206971, 0.2974498], "properties": {"magmom": 0.0}, "label": "Ga", "xyz": [2.5201616085297194, 0.9909327934082017, 0.9092569077821877]}]}, "task_ids": null, "uncorrected_energy_per_atom": null, "energy_per_atom": -2.744449647857143, "formation_energy_per_atom": -0.11567534178571401, "energy_above_hull": 0.0, "is_stable": true, "equilibrium_reaction_energy_per_atom": null, "decomposes_to": null, "xas": null, "grain_boundaries": null, "band_gap": 0.0, "cbm": null, "vbm": null, "efermi": 3.66922149, "is_gap_direct": null, "is_metal": null, "es_source_calc_id": null, "bandstructure": null, "dos": null, "dos_energy_up": null, "dos_energy_down": null, "is_magnetic": null, "ordering": null, "total_magnetization": 0.0, "total_magnetization_normalized_vol": null, "total_magnetization_normalized_formula_units": null, "num_magnetic_sites": null, "num_unique_magnetic_sites": null, "types_of_magnetic_species": null, "bulk_modulus": null, "shear_modulus": null, "universal_anisotropy": null, "homogeneous_poisson": null, "e_total": null, "e_ionic": null, "e_electronic": null, "n": null, "e_ij_max": null, "weighted_surface_energy_EV_PER_ANG2": null, "weighted_surface_energy": null, "weighted_work_function": null, "surface_anisotropy": null, "shape_factor": null, "has_reconstructed": null, "possible_species": null, "has_props": null, "theoretical": null, "database_IDs": null, "fields_not_requested": ["builder_meta", "nsites", "elements", "nelements", "composition", "composition_reduced", "chemsys", "symmetry", "property_name", "deprecated", "deprecation_reasons", "last_updated", "origins", "warnings", "task_ids", "uncorrected_energy_per_atom", "equilibrium_reaction_energy_per_atom", "decomposes_to", "xas", "grain_boundaries", "cbm", "vbm", "is_gap_direct", "is_metal", "es_source_calc_id", "bandstructure", "dos", "dos_energy_up", "dos_energy_down", "is_magnetic", "ordering", "total_magnetization_normalized_vol", "total_magnetization_normalized_formula_units", "num_magnetic_sites", "num_unique_magnetic_sites", "types_of_magnetic_species", "bulk_modulus", "shear_modulus", "universal_anisotropy", "homogeneous_poisson", "e_total", "e_ionic", "e_electronic", "n", "e_ij_max", "weighted_surface_energy_EV_PER_ANG2", "weighted_surface_energy", "weighted_work_function", "surface_anisotropy", "shape_factor", "has_reconstructed", "possible_species", "has_props", "theoretical", "database_IDs"]}