{
  "builder_meta": null,
  "nsites": null,
  "elements": null,
  "nelements": null,
  "composition": null,
  "composition_reduced": null,
  "formula_pretty": "Mg2Ga",
  "formula_anonymous": "AB2",
  "chemsys": null,
  "volume": 353.7907142955792,
  "density": 3.332420463762857,
  "density_atomic": 19.655039683087736,
  "symmetry": null,
  "property_name": null,
  "material_id": "mp-30650",
  "deprecated": null,
  "deprecation_reasons": null,
  "last_updated": null,
  "origins": null,
  "warnings": null,
  "structure": {
    "@module": "pymatgen.core.structure",
    "@class": "Structure",
    "charge": 0,
    "lattice": {
      "matrix": [
        [7.64864885, -2.95e-6, 0.0],
        [-3.82432589, 6.62392243, -0.0],
        [0.0, 0.0, 6.98307274]
      ],
      "pbc": [true, true, true],
      "a": 7.648648850000569,
      "b": 7.648648042077855,
      "c": 6.98307274,
      "alpha": 90.0,
      "beta": 90.0,
      "gamma": 120.00003826454157,
      "volume": 353.7907142955792
    },
    "properties": {},
    "sites": [
      {
        "species": [{ "element": "Mg", "occu": 1 }],
        "abc": [0.023665890000000002, 0.62548034, 0.75],
        "properties": { "magmom": 0.0 },
        "label": "Mg",
        "xyz": [-2.211028575615276, 4.14313318383565, 5.237304555]
      },
      {
        "species": [{ "element": "Mg", "occu": 1 }],
        "abc": [0.37451966000000003, 0.39818455, 0.75],
        "properties": { "magmom": 0.0 },
        "label": "Mg",
        "xyz": [1.3417818831983919, 2.6375424671914596, 5.237304555]
      },
      {
        "species": [{ "element": "Mg", "occu": 1 }],
        "abc": [0.60181445, 0.97633411, 0.75],
        "properties": { "magmom": 0.0 },
        "label": "Mg",
        "xyz": [0.869247586742774, 6.46715963505046, 5.237304555]
      },
      {
        "species": [{ "element": "Mg", "occu": 1 }],
        "abc": [0.97633411, 0.60181445, 0.25],
        "properties": { "magmom": 0.0 },
        "label": "Mg",
        "xyz": [5.166102185556163, 3.986369353867489, 1.745768185]
      },
      {
        "species": [{ "element": "Mg", "occu": 1 }],
        "abc": [0.39818455, 0.37451966000000003, 0.25],
        "properties": { "magmom": 0.0 },
        "label": "Mg",
        "xyz": [1.61328856839327, 2.4807880017055517, 1.745768185]
      },
      {
        "species": [{ "element": "Mg", "occu": 1 }],
        "abc": [0.62548034, 0.023665890000000002, 0.25],
        "properties": { "magmom": 0.0 },
        "label": "Mg",
        "xyz": [4.693573407401717, 0.15675917442990972, 1.745768185]
      },
      {
        "species": [{ "element": "Mg", "occu": 1 }],
        "abc": [0.27219629, 0.0, 0.0],
        "properties": { "magmom": 0.0 },
        "label": "Mg",
        "xyz": [2.0819338404827663, -8.029790555000001e-7, 0.0]
      },
      {
        "species": [{ "element": "Mg", "occu": 1 }],
        "abc": [0.72780371, 0.72780371, 0.5],
        "properties": { "magmom": 0.0 },
        "label": "Mg",
        "xyz": [2.7833564385261815, 4.820913172285271, 3.49153637]
      },
      {
        "species": [{ "element": "Mg", "occu": 1 }],
        "abc": [0.0, 0.27219629, 0.5],
        "properties": { "magmom": 0.0 },
        "label": "Mg",
        "xyz": [-1.0409673190089481, 1.8030071106937848, 3.49153637]
      },
      {
        "species": [{ "element": "Mg", "occu": 1 }],
        "abc": [0.0, 0.27219629, 0.0],
        "properties": { "magmom": 0.0 },
        "label": "Mg",
        "xyz": [-1.0409673190089481, 1.8030071106937848, 0.0]
      },
      {
        "species": [{ "element": "Mg", "occu": 1 }],
        "abc": [0.72780371, 0.72780371, 0.0],
        "properties": { "magmom": 0.0 },
        "label": "Mg",
        "xyz": [2.7833564385261815, 4.820913172285271, 0.0]
      },
      {
        "species": [{ "element": "Mg", "occu": 1 }],
        "abc": [0.27219629, 0.0, 0.5],
        "properties": { "magmom": 0.0 },
        "label": "Mg",
        "xyz": [2.0819338404827663, -8.029790555000001e-7, 3.49153637]
      },
      {
        "species": [{ "element": "Ga", "occu": 1 }],
        "abc": [0.666667, 0.333333, 0.53634216],
        "properties": { "magmom": -0.0 },
        "label": "Ga",
        "xyz": [3.82432776099158, 2.20796996869154, 3.7453163168087182]
      },
      {
        "species": [{ "element": "Ga", "occu": 1 }],
        "abc": [0.666667, 0.333333, 0.96365784],
        "properties": { "magmom": -0.0 },
        "label": "Ga",
        "xyz": [3.82432776099158, 2.20796996869154, 6.729292793191282]
      },
      {
        "species": [{ "element": "Ga", "occu": 1 }],
        "abc": [0.333333, 0.666667, 0.46365784],
        "properties": { "magmom": -0.0 },
        "label": "Ga",
        "xyz": [-4.800991580289349e-6, 4.415949511308461, 3.2377564231912817]
      },
      {
        "species": [{ "element": "Ga", "occu": 1 }],
        "abc": [0.333333, 0.666667, 0.03634216],
        "properties": { "magmom": -0.0 },
        "label": "Ga",
        "xyz": [-4.800991580289349e-6, 4.415949511308461, 0.2537799468087184]
      },
      {
        "species": [{ "element": "Ga", "occu": 1 }],
        "abc": [-0.0, -0.0, 0.75],
        "properties": { "magmom": 0.0 },
        "label": "Ga",
        "xyz": [0.0, 0.0, 5.237304555]
      },
      {
        "species": [{ "element": "Ga", "occu": 1 }],
        "abc": [-0.0, -0.0, 0.25],
        "properties": { "magmom": 0.0 },
        "label": "Ga",
        "xyz": [0.0, 0.0, 1.745768185]
      }
    ]
  },
  "task_ids": null,
  "uncorrected_energy_per_atom": null,
  "energy_per_atom": -2.2130058711111102,
  "formation_energy_per_atom": -0.11666052027777701,
  "energy_above_hull": 0.0,
  "is_stable": true,
  "equilibrium_reaction_energy_per_atom": null,
  "decomposes_to": null,
  "xas": null,
  "grain_boundaries": null,
  "band_gap": 0.0,
  "cbm": null,
  "vbm": null,
  "efermi": 3.7604989,
  "is_gap_direct": null,
  "is_metal": null,
  "es_source_calc_id": null,
  "bandstructure": null,
  "dos": null,
  "dos_energy_up": null,
  "dos_energy_down": null,
  "is_magnetic": null,
  "ordering": null,
  "total_magnetization": 1e-7,
  "total_magnetization_normalized_vol": null,
  "total_magnetization_normalized_formula_units": null,
  "num_magnetic_sites": null,
  "num_unique_magnetic_sites": null,
  "types_of_magnetic_species": null,
  "bulk_modulus": null,
  "shear_modulus": null,
  "universal_anisotropy": null,
  "homogeneous_poisson": null,
  "e_total": null,
  "e_ionic": null,
  "e_electronic": null,
  "n": null,
  "e_ij_max": null,
  "weighted_surface_energy_EV_PER_ANG2": null,
  "weighted_surface_energy": null,
  "weighted_work_function": null,
  "surface_anisotropy": null,
  "shape_factor": null,
  "has_reconstructed": null,
  "possible_species": null,
  "has_props": null,
  "theoretical": null,
  "database_IDs": null,
  "fields_not_requested": [
    "builder_meta",
    "nsites",
    "elements",
    "nelements",
    "composition",
    "composition_reduced",
    "chemsys",
    "symmetry",
    "property_name",
    "deprecated",
    "deprecation_reasons",
    "last_updated",
    "origins",
    "warnings",
    "task_ids",
    "uncorrected_energy_per_atom",
    "equilibrium_reaction_energy_per_atom",
    "decomposes_to",
    "xas",
    "grain_boundaries",
    "cbm",
    "vbm",
    "is_gap_direct",
    "is_metal",
    "es_source_calc_id",
    "bandstructure",
    "dos",
    "dos_energy_up",
    "dos_energy_down",
    "is_magnetic",
    "ordering",
    "total_magnetization_normalized_vol",
    "total_magnetization_normalized_formula_units",
    "num_magnetic_sites",
    "num_unique_magnetic_sites",
    "types_of_magnetic_species",
    "bulk_modulus",
    "shear_modulus",
    "universal_anisotropy",
    "homogeneous_poisson",
    "e_total",
    "e_ionic",
    "e_electronic",
    "n",
    "e_ij_max",
    "weighted_surface_energy_EV_PER_ANG2",
    "weighted_surface_energy",
    "weighted_work_function",
    "surface_anisotropy",
    "shape_factor",
    "has_reconstructed",
    "possible_species",
    "has_props",
    "theoretical",
    "database_IDs"
  ]
}
