{"builder_meta": null, "nsites": null, "elements": null, "nelements": null, "composition": null, "composition_reduced": null, "formula_pretty": "Mg2Hg", "formula_anonymous": "AB2", "chemsys": null, "volume": 250.21321410033997, "density": 6.615259499936341, "density_atomic": 20.85110117502833, "symmetry": null, "property_name": null, "material_id": "mp-30719", "deprecated": null, "deprecation_reasons": null, "last_updated": null, "origins": null, "warnings": null, "structure": {"@module": "pymatgen.core.structure", "@class": "Structure", "charge": 0, "lattice": {"matrix": [[4.63206195, -0.0, 0.0], [0.0, 6.16307759, 0.0], [0.0, 0.0, 8.76472405]], "pbc": [true, true, true], "a": 4.63206195, "b": 6.16307759, "c": 8.76472405, "alpha": 90.0, "beta": 90.0, "gamma": 90.0, "volume": 250.21321410033997}, "properties": {}, "sites": [{"species": [{"element": "Mg", "occu": 1}], "abc": [0.25, 0.95822631, 0.70672764], "properties": {"magmom": -0.0}, "label": "Mg", "xyz": [1.1580154875, 5.905623097309394, 6.194272743107742]}, {"species": [{"element": "Mg", "occu": 1}], "abc": [0.75, 0.04177369, 0.29327236], "properties": {"magmom": -0.0}, "label": "Mg", "xyz": [3.4740464624999996, 0.2574544926906071, 2.570451306892258]}, {"species": [{"element": "Mg", "occu": 1}], "abc": [0.25, 0.45822631, 0.79327236], "properties": {"magmom": -0.0}, "label": "Mg", "xyz": [1.1580154875, 2.824084302309393, 6.952813331892258]}, {"species": [{"element": "Mg", "occu": 1}], "abc": [0.75, 0.54177369, 0.20672764000000002], "properties": {"magmom": -0.0}, "label": "Mg", "xyz": [3.4740464624999996, 3.338993287690607, 1.811910718107742]}, {"species": [{"element": "Mg", "occu": 1}], "abc": [0.75, 0.17640991, 0.94049501], "properties": {"magmom": 0.0}, "label": "Mg", "xyz": [3.4740464624999996, 1.087227962974917, 8.24317923305199]}, {"species": [{"element": "Mg", "occu": 1}], "abc": [0.25, 0.82359009, 0.05950499], "properties": {"magmom": 0.0}, "label": "Mg", "xyz": [1.1580154875, 5.075849627025084, 0.5215448169480095]}, {"species": [{"element": "Mg", "occu": 1}], "abc": [0.75, 0.6764099100000001, 0.55950499], "properties": {"magmom": 0.0}, "label": "Mg", "xyz": [3.4740464624999996, 4.168766757974917, 4.903906841948009]}, {"species": [{"element": "Mg", "occu": 1}], "abc": [0.25, 0.32359009, 0.44049501], "properties": {"magmom": 0.0}, "label": "Mg", "xyz": [1.1580154875, 1.994310832025083, 3.8608172080519907]}, {"species": [{"element": "Hg", "occu": 1}], "abc": [0.25, 0.78379988, 0.38351578000000003], "properties": {"magmom": 0.0}, "label": "Hg", "xyz": [1.1580154875, 4.830619475472689, 3.3614099805205093]}, {"species": [{"element": "Hg", "occu": 1}], "abc": [0.75, 0.21620012, 0.61648422], "properties": {"magmom": 0.0}, "label": "Hg", "xyz": [3.4740464624999996, 1.3324581145273109, 5.403314069479491]}, {"species": [{"element": "Hg", "occu": 1}], "abc": [0.25, 0.28379988, 0.11648422], "properties": {"magmom": 0.0}, "label": "Hg", "xyz": [1.1580154875, 1.7490806804726893, 1.020952044479491]}, {"species": [{"element": "Hg", "occu": 1}], "abc": [0.75, 0.71620012, 0.88351578], "properties": {"magmom": 0.0}, "label": "Hg", "xyz": [3.4740464624999996, 4.413996909527311, 7.743772005520508]}]}, "task_ids": null, "uncorrected_energy_per_atom": null, "energy_per_atom": -1.363143843333333, "formation_energy_per_atom": -0.172939820833335, "energy_above_hull": 0.0024985925, "is_stable": false, "equilibrium_reaction_energy_per_atom": null, "decomposes_to": null, "xas": null, "grain_boundaries": null, "band_gap": 0.0, "cbm": null, "vbm": null, "efermi": 4.04741902, "is_gap_direct": null, "is_metal": null, "es_source_calc_id": null, "bandstructure": null, "dos": null, "dos_energy_up": null, "dos_energy_down": null, "is_magnetic": null, "ordering": null, "total_magnetization": 0.0, "total_magnetization_normalized_vol": null, "total_magnetization_normalized_formula_units": null, "num_magnetic_sites": null, "num_unique_magnetic_sites": null, "types_of_magnetic_species": null, "bulk_modulus": null, "shear_modulus": null, "universal_anisotropy": null, "homogeneous_poisson": null, "e_total": null, "e_ionic": null, "e_electronic": null, "n": null, "e_ij_max": null, "weighted_surface_energy_EV_PER_ANG2": null, "weighted_surface_energy": null, "weighted_work_function": null, "surface_anisotropy": null, "shape_factor": null, "has_reconstructed": null, "possible_species": null, "has_props": null, "theoretical": null, "database_IDs": null, "fields_not_requested": ["builder_meta", "nsites", "elements", "nelements", "composition", "composition_reduced", "chemsys", "symmetry", "property_name", "deprecated", "deprecation_reasons", "last_updated", "origins", "warnings", "task_ids", "uncorrected_energy_per_atom", "equilibrium_reaction_energy_per_atom", "decomposes_to", "xas", "grain_boundaries", "cbm", "vbm", "is_gap_direct", "is_metal", "es_source_calc_id", "bandstructure", "dos", "dos_energy_up", "dos_energy_down", "is_magnetic", "ordering", "total_magnetization_normalized_vol", "total_magnetization_normalized_formula_units", "num_magnetic_sites", "num_unique_magnetic_sites", "types_of_magnetic_species", "bulk_modulus", "shear_modulus", "universal_anisotropy", "homogeneous_poisson", "e_total", "e_ionic", "e_electronic", "n", "e_ij_max", "weighted_surface_energy_EV_PER_ANG2", "weighted_surface_energy", "weighted_work_function", "surface_anisotropy", "shape_factor", "has_reconstructed", "possible_species", "has_props", "theoretical", "database_IDs"]}