{
  "builder_meta": null,
  "nsites": null,
  "elements": null,
  "nelements": null,
  "composition": null,
  "composition_reduced": null,
  "formula_pretty": "Mg2In",
  "formula_anonymous": "AB2",
  "chemsys": null,
  "volume": 202.51962470110277,
  "density": 4.020033796381418,
  "density_atomic": 22.50218052234475,
  "symmetry": null,
  "property_name": null,
  "material_id": "mp-31326",
  "deprecated": null,
  "deprecation_reasons": null,
  "last_updated": null,
  "origins": null,
  "warnings": null,
  "structure": {
    "@module": "pymatgen.core.structure",
    "@class": "Structure",
    "charge": 0,
    "lattice": {
      "matrix": [
        [8.35892804, -0.0, 0.0],
        [-4.17946502, 7.23904557, -0.0],
        [0.0, 0.0, 3.3468420500000002]
      ],
      "pbc": [true, true, true],
      "a": 8.35892804,
      "b": 8.358929872773203,
      "c": 3.3468420500000002,
      "alpha": 90.0,
      "beta": 90.0,
      "gamma": 120.00000066178542,
      "volume": 202.51962470110277
    },
    "properties": {},
    "sites": [
      {
        "species": [{ "element": "Mg", "occu": 1 }],
        "abc": [0.29594889, 0.0, 0.0],
        "properties": { "magmom": 0.0 },
        "label": "Mg",
        "xyz": [2.473815475027876, 0.0, 0.0]
      },
      {
        "species": [{ "element": "Mg", "occu": 1 }],
        "abc": [0.70405111, 0.70405111, 0.0],
        "properties": { "magmom": 0.0 },
        "label": "Mg",
        "xyz": [2.9425555784349524, 5.096658068899083, 0.0]
      },
      {
        "species": [{ "element": "Mg", "occu": 1 }],
        "abc": [-0.0, 0.29594889, -0.0],
        "properties": { "magmom": 0.0 },
        "label": "Mg",
        "xyz": [-1.236908033462828, 2.1423875011009175, 0.0]
      },
      {
        "species": [{ "element": "Mg", "occu": 1 }],
        "abc": [0.63210829, 0.0, 0.5],
        "properties": { "magmom": 0.0 },
        "label": "Mg",
        "xyz": [5.283747709597452, 0.0, 1.6734210250000001]
      },
      {
        "species": [{ "element": "Mg", "occu": 1 }],
        "abc": [0.36789171, 0.36789171, 0.5],
        "properties": { "magmom": 0.0 },
        "label": "Mg",
        "xyz": [1.5375897973095642, 2.6631848535152245, 1.6734210250000001]
      },
      {
        "species": [{ "element": "Mg", "occu": 1 }],
        "abc": [-0.0, 0.63210829, 0.5],
        "properties": { "magmom": 0.0 },
        "label": "Mg",
        "xyz": [-2.641874486907016, 4.575860716484775, 1.6734210250000001]
      },
      {
        "species": [{ "element": "In", "occu": 1 }],
        "abc": [-0.0, -0.0, 0.5],
        "properties": { "magmom": -0.0 },
        "label": "In",
        "xyz": [0.0, 0.0, 1.6734210250000001]
      },
      {
        "species": [{ "element": "In", "occu": 1 }],
        "abc": [0.333333, 0.666667, 0.0],
        "properties": { "magmom": -0.0 },
        "label": "In",
        "xyz": [-4.846131020475042e-6, 4.82603279301519, 0.0]
      },
      {
        "species": [{ "element": "In", "occu": 1 }],
        "abc": [0.666667, 0.333333, -0.0],
        "properties": { "magmom": -0.0 },
        "label": "In",
        "xyz": [4.17946786613102, 2.41301277698481, 0.0]
      }
    ]
  },
  "task_ids": null,
  "uncorrected_energy_per_atom": null,
  "energy_per_atom": -2.057405011111111,
  "formation_energy_per_atom": -0.050700419999999004,
  "energy_above_hull": 0.024119455555553,
  "is_stable": false,
  "equilibrium_reaction_energy_per_atom": null,
  "decomposes_to": null,
  "xas": null,
  "grain_boundaries": null,
  "band_gap": 0.0,
  "cbm": null,
  "vbm": null,
  "efermi": 5.00388349,
  "is_gap_direct": null,
  "is_metal": null,
  "es_source_calc_id": null,
  "bandstructure": null,
  "dos": null,
  "dos_energy_up": null,
  "dos_energy_down": null,
  "is_magnetic": null,
  "ordering": null,
  "total_magnetization": 0.0001272,
  "total_magnetization_normalized_vol": null,
  "total_magnetization_normalized_formula_units": null,
  "num_magnetic_sites": null,
  "num_unique_magnetic_sites": null,
  "types_of_magnetic_species": null,
  "bulk_modulus": null,
  "shear_modulus": null,
  "universal_anisotropy": null,
  "homogeneous_poisson": null,
  "e_total": null,
  "e_ionic": null,
  "e_electronic": null,
  "n": null,
  "e_ij_max": null,
  "weighted_surface_energy_EV_PER_ANG2": null,
  "weighted_surface_energy": null,
  "weighted_work_function": null,
  "surface_anisotropy": null,
  "shape_factor": null,
  "has_reconstructed": null,
  "possible_species": null,
  "has_props": null,
  "theoretical": null,
  "database_IDs": null,
  "fields_not_requested": [
    "builder_meta",
    "nsites",
    "elements",
    "nelements",
    "composition",
    "composition_reduced",
    "chemsys",
    "symmetry",
    "property_name",
    "deprecated",
    "deprecation_reasons",
    "last_updated",
    "origins",
    "warnings",
    "task_ids",
    "uncorrected_energy_per_atom",
    "equilibrium_reaction_energy_per_atom",
    "decomposes_to",
    "xas",
    "grain_boundaries",
    "cbm",
    "vbm",
    "is_gap_direct",
    "is_metal",
    "es_source_calc_id",
    "bandstructure",
    "dos",
    "dos_energy_up",
    "dos_energy_down",
    "is_magnetic",
    "ordering",
    "total_magnetization_normalized_vol",
    "total_magnetization_normalized_formula_units",
    "num_magnetic_sites",
    "num_unique_magnetic_sites",
    "types_of_magnetic_species",
    "bulk_modulus",
    "shear_modulus",
    "universal_anisotropy",
    "homogeneous_poisson",
    "e_total",
    "e_ionic",
    "e_electronic",
    "n",
    "e_ij_max",
    "weighted_surface_energy_EV_PER_ANG2",
    "weighted_surface_energy",
    "weighted_work_function",
    "surface_anisotropy",
    "shape_factor",
    "has_reconstructed",
    "possible_species",
    "has_props",
    "theoretical",
    "database_IDs"
  ]
}
