{"builder_meta": null, "nsites": null, "elements": null, "nelements": null, "composition": null, "composition_reduced": null, "formula_pretty": "Mg2Ir3", "formula_anonymous": "A2B3", "chemsys": null, "volume": 407.97170778665884, "density": 12.724783330616724, "density_atomic": 16.318868311466353, "symmetry": null, "property_name": null, "material_id": "mp-1210677", "deprecated": null, "deprecation_reasons": null, "last_updated": null, "origins": null, "warnings": null, "structure": {"@module": "pymatgen.core.structure", "@class": "Structure", "charge": 0, "lattice": {"matrix": [[0.0, 5.1843433, 0.0], [0.05270018, 0.0, 8.52163586], [9.227230370000001, -2.59217115, -1.17528257]], "pbc": [true, true, true], "a": 5.1843433, "b": 8.521798814769683, "c": 9.656211508210065, "alpha": 96.64981847482161, "beta": 105.57181444461267, "gamma": 90.0, "volume": 407.97170778665895}, "properties": {}, "sites": [{"species": [{"element": "Mg", "occu": 1}], "abc": [0.28039004, 0.08446018, 0.56077908], "properties": {"magmom": -0.0}, "label": "Mg", "xyz": [5.178888824525493, 2.8725611900259906e-06, 0.0606650202854192]}, {"species": [{"element": "Mg", "occu": 1}], "abc": [0.71960996, 0.91553982, 0.43922092], "properties": {"magmom": -0.0}, "label": "Mg", "xyz": [4.101041725474508, 2.59216927743881, 7.285688269714581]}, {"species": [{"element": "Mg", "occu": 1}], "abc": [0.5549141, 0.38408297, 0.1098292], "properties": {"magmom": -0.0}, "label": "Mg", "xyz": [1.0336605714067386, 2.5921691127429503, 3.1439348659302606]}, {"species": [{"element": "Mg", "occu": 1}], "abc": [0.4450859, 0.61591703, 0.890170799999999], "properties": {"magmom": -0.0}, "label": "Mg", "xyz": [8.246269978593254, 3.0372570525294407e-06, 4.202418424069741]}, {"species": [{"element": "Mg", "occu": 1}], "abc": [0.29098487, 0.44418787, 0.58197074], "properties": {"magmom": 0.0}, "label": "Mg", "xyz": [5.393386867282191, -2.3011862801958216e-06, 3.1012272145970163]}, {"species": [{"element": "Mg", "occu": 1}], "abc": [0.70901513, 0.55581213, 0.41802926], "properties": {"magmom": 0.0}, "label": "Mg", "xyz": [3.8865436827178104, 2.5921744511862803, 4.245126075402983]}, {"species": [{"element": "Mg", "occu": 1}], "abc": [0.42182875000000003, 0.00240288, 0.84365551], "properties": {"magmom": 0.0}, "label": "Mg", "xyz": [7.784730375898358, 5.5802493386103436e-06, -0.971057147612184]}, {"species": [{"element": "Mg", "occu": 1}], "abc": [0.57817125, 0.99759712, 0.15634449], "properties": {"magmom": 0.0}, "label": "Mg", "xyz": [1.495200174101643, 2.5921665697506615, 8.317410437612184]}, {"species": [{"element": "Mg", "occu": 1}], "abc": [0.01988705, 0.18143133, 0.03977511], "properties": {"magmom": -0.0}, "label": "Mg", "xyz": [0.37657556671073017, -2.5982058114992768e-06, 1.4993447343526611]}, {"species": [{"element": "Mg", "occu": 1}], "abc": [0.98011295, 0.81856867, 0.96022489], "properties": {"magmom": -0.0}, "label": "Mg", "xyz": [8.90335498328927, 2.5921747482058115, 5.847008555647339]}, {"species": [{"element": "Ir", "occu": 1}], "abc": [0.86828076, 0.027736260000000002, 0.73656051], "properties": {"magmom": 0.0}, "label": "Ir", "xyz": [6.797875213109216, 2.5921746363736213, -0.6293084213150272]}, {"species": [{"element": "Ir", "occu": 1}], "abc": [0.13171924000000002, 0.97226374, 0.26343949], "properties": {"magmom": 0.0}, "label": "Ir", "xyz": [2.482055336890785, -2.486373621435334e-06, 7.975661711315027]}, {"species": [{"element": "Ir", "occu": 1}], "abc": [0.41857776, 0.22946336, 0.33642904], "properties": {"magmom": -0.0}, "label": "Ir", "xyz": [3.11640101561335, 1.2979691540748122, 1.5600040103782566]}, {"species": [{"element": "Ir", "occu": 1}], "abc": [0.58142224, 0.77053664, 0.66357096], "properties": {"magmom": -0.0}, "label": "Ir", "xyz": [6.163529534386651, 1.2942029959251877, 5.786349279621743]}, {"species": [{"element": "Ir", "occu": 1}], "abc": [0.08214871, 0.77053664, 0.66357096], "properties": {"magmom": -0.0}, "label": "Ir", "xyz": [6.163529534386651, -1.294202384197661, 5.786349279621743]}, {"species": [{"element": "Ir", "occu": 1}], "abc": [0.91785129, 0.22946336, 0.33642904], "properties": {"magmom": -0.0}, "label": "Ir", "xyz": [3.11640101561335, 3.8863745341976608, 1.5600040103782566]}, {"species": [{"element": "Ir", "occu": 1}], "abc": [-0.0, 0.5, 0.0], "properties": {"magmom": 0.0}, "label": "Ir", "xyz": [0.02635009, 0.0, 4.26081793]}, {"species": [{"element": "Ir", "occu": 1}], "abc": [0.21565436000000002, 0.74097427, 0.43130771], "properties": {"magmom": 0.0}, "label": "Ir", "xyz": [4.018825077931522, 2.833747221542282e-06, 5.807404476699707]}, {"species": [{"element": "Ir", "occu": 1}], "abc": [0.7843456400000001, 0.25902573, 0.56869229], "properties": {"magmom": 0.0}, "label": "Ir", "xyz": [5.261105472068479, 2.5921693162527792, 1.5389488133002929]}, {"species": [{"element": "Ir", "occu": 1}], "abc": [0.1358081, 0.4664289, 0.2716142], "properties": {"magmom": 0.0}, "label": "Ir", "xyz": [2.530827682150456, 5.320150400112134e-06, 3.65551380535586]}, {"species": [{"element": "Ir", "occu": 1}], "abc": [0.8641919, 0.5335711, 0.7283858], "properties": {"magmom": 0.0}, "label": "Ir", "xyz": [6.749102867849545, 2.5921668298496, 3.69083948464414]}, {"species": [{"element": "Ir", "occu": 1}], "abc": [0.64287136, 0.29565935, 0.81860216], "properties": {"magmom": -0.0}, "label": "Ir", "xyz": [7.569012012663283, 1.2109089254982042, 1.5574124688919397]}, {"species": [{"element": "Ir", "occu": 1}], "abc": [0.35712864, 0.70434065, 0.18139784], "properties": {"magmom": -0.0}, "label": "Ir", "xyz": [1.7109185373367182, 1.3812632245017962, 5.788940821108061]}, {"species": [{"element": "Ir", "occu": 1}], "abc": [0.824269199999999, 0.70434065, 0.18139784], "properties": {"magmom": -0.0}, "label": "Ir", "xyz": [1.7109185373367182, 3.8030802568960387, 5.788940821108061]}, {"species": [{"element": "Ir", "occu": 1}], "abc": [0.1757308, 0.29565935, 0.81860216], "properties": {"magmom": -0.0}, "label": "Ir", "xyz": [7.569012012663283, -1.210908106896044, 1.5574124688919397]}]}, "task_ids": null, "uncorrected_energy_per_atom": null, "energy_per_atom": -6.300655718000002, "formation_energy_per_atom": -0.345407204000002, "energy_above_hull": 0.0, "is_stable": true, "equilibrium_reaction_energy_per_atom": null, "decomposes_to": null, "xas": null, "grain_boundaries": null, "band_gap": 0.0, "cbm": null, "vbm": null, "efermi": 6.84680961, "is_gap_direct": null, "is_metal": null, "es_source_calc_id": null, "bandstructure": null, "dos": null, "dos_energy_up": null, "dos_energy_down": null, "is_magnetic": null, "ordering": null, "total_magnetization": 0.0, "total_magnetization_normalized_vol": null, "total_magnetization_normalized_formula_units": null, "num_magnetic_sites": null, "num_unique_magnetic_sites": null, "types_of_magnetic_species": null, "bulk_modulus": null, "shear_modulus": null, "universal_anisotropy": null, "homogeneous_poisson": null, "e_total": null, "e_ionic": null, "e_electronic": null, "n": null, "e_ij_max": null, "weighted_surface_energy_EV_PER_ANG2": null, "weighted_surface_energy": null, "weighted_work_function": null, "surface_anisotropy": null, "shape_factor": null, "has_reconstructed": null, "possible_species": null, "has_props": null, "theoretical": null, "database_IDs": null, "fields_not_requested": ["builder_meta", "nsites", "elements", "nelements", "composition", "composition_reduced", "chemsys", "symmetry", "property_name", "deprecated", "deprecation_reasons", "last_updated", "origins", "warnings", "task_ids", "uncorrected_energy_per_atom", "equilibrium_reaction_energy_per_atom", "decomposes_to", "xas", "grain_boundaries", "cbm", "vbm", "is_gap_direct", "is_metal", "es_source_calc_id", "bandstructure", "dos", "dos_energy_up", "dos_energy_down", "is_magnetic", "ordering", "total_magnetization_normalized_vol", "total_magnetization_normalized_formula_units", "num_magnetic_sites", "num_unique_magnetic_sites", "types_of_magnetic_species", "bulk_modulus", "shear_modulus", "universal_anisotropy", "homogeneous_poisson", "e_total", "e_ionic", "e_electronic", "n", "e_ij_max", "weighted_surface_energy_EV_PER_ANG2", "weighted_surface_energy", "weighted_work_function", "surface_anisotropy", "shape_factor", "has_reconstructed", "possible_species", "has_props", "theoretical", "database_IDs"]}