{
  "builder_meta": null,
  "nsites": null,
  "elements": null,
  "nelements": null,
  "composition": null,
  "composition_reduced": null,
  "formula_pretty": "Mg2Ni",
  "formula_anonymous": "AB2",
  "chemsys": null,
  "volume": 300.36648344396997,
  "density": 3.559281694202292,
  "density_atomic": 16.687026857998333,
  "symmetry": null,
  "property_name": null,
  "material_id": "mp-2137",
  "deprecated": null,
  "deprecation_reasons": null,
  "last_updated": null,
  "origins": null,
  "warnings": null,
  "structure": {
    "@module": "pymatgen.core.structure",
    "@class": "Structure",
    "charge": 0,
    "lattice": {
      "matrix": [
        [5.15114353, 0.0, 0.0],
        [-2.57557177, 4.46102158, 0.0],
        [0.0, -0.0, 13.07114086]
      ],
      "pbc": [true, true, true],
      "a": 5.15114353,
      "b": 5.151143900110598,
      "c": 13.07114086,
      "alpha": 90.0,
      "beta": 90.0,
      "gamma": 119.99999768743358,
      "volume": 300.36648344396997
    },
    "properties": {},
    "sites": [
      {
        "species": [{ "element": "Mg", "occu": 1 }],
        "abc": [0.5, -0.0, 0.11605652],
        "properties": { "magmom": 0.0 },
        "label": "Mg",
        "xyz": [2.575571765, 0.0, 1.516991120641407]
      },
      {
        "species": [{ "element": "Mg", "occu": 1 }],
        "abc": [0.5, 0.5, 0.44939052],
        "properties": { "magmom": 0.0 },
        "label": "Mg",
        "xyz": [1.28778588, 2.23051079, 5.8740467880686476]
      },
      {
        "species": [{ "element": "Mg", "occu": 1 }],
        "abc": [-0.0, 0.5, 0.78272352],
        "properties": { "magmom": 0.0 },
        "label": "Mg",
        "xyz": [-1.287785885, 2.23051079, 10.231089384355027]
      },
      {
        "species": [{ "element": "Mg", "occu": 1 }],
        "abc": [0.5, -0.0, 0.88394348],
        "properties": { "magmom": 0.0 },
        "label": "Mg",
        "xyz": [2.575571765, 0.0, 11.554149739358593]
      },
      {
        "species": [{ "element": "Mg", "occu": 1 }],
        "abc": [0.5, 0.5, 0.21727648],
        "properties": { "magmom": 0.0 },
        "label": "Mg",
        "xyz": [1.28778588, 2.23051079, 2.8400514756449726]
      },
      {
        "species": [{ "element": "Mg", "occu": 1 }],
        "abc": [-0.0, 0.5, 0.55060948],
        "properties": { "magmom": 0.0 },
        "label": "Mg",
        "xyz": [-1.287785885, 2.23051079, 7.197094071931352]
      },
      {
        "species": [{ "element": "Mg", "occu": 1 }],
        "abc": [0.16426222000000001, 0.32852743, 0.0],
        "properties": { "magmom": -0.0 },
        "label": "Mg",
        "xyz": [-7.702602214387788e-6, 1.4655679548519394, 0.0]
      },
      {
        "species": [{ "element": "Mg", "occu": 1 }],
        "abc": [0.83573778, 0.16426222000000001, 0.333333],
        "properties": { "magmom": -0.0 },
        "label": "Mg",
        "xyz": [3.8819361215140336, 0.7327773081987076, 4.35704259628638]
      },
      {
        "species": [{ "element": "Mg", "occu": 1 }],
        "abc": [0.32852743, 0.16426222000000001, 0.666667],
        "properties": { "magmom": -0.0 },
        "label": "Mg",
        "xyz": [1.2692228087624984, 0.7327773081987076, 8.71409826371362]
      },
      {
        "species": [{ "element": "Mg", "occu": 1 }],
        "abc": [0.67147257, 0.83573778, 0.666667],
        "properties": { "magmom": -0.0 },
        "label": "Mg",
        "xyz": [1.3063489512375015, 3.7282442718012923, 8.71409826371362]
      },
      {
        "species": [{ "element": "Mg", "occu": 1 }],
        "abc": [0.16426222000000001, 0.83573778, 0.333333],
        "properties": { "magmom": -0.0 },
        "label": "Mg",
        "xyz": [-1.3063643615140337, 3.7282442718012923, 4.35704259628638]
      },
      {
        "species": [{ "element": "Mg", "occu": 1 }],
        "abc": [0.83573778, 0.67147257, 0.0],
        "properties": { "magmom": -0.0 },
        "label": "Mg",
        "xyz": [2.575579462602214, 2.995453625148061, 0.0]
      },
      {
        "species": [{ "element": "Ni", "occu": 1 }],
        "abc": [-0.0, -0.0, 0.166666999999999],
        "properties": { "magmom": -0.0 },
        "label": "Ni",
        "xyz": [0.0, 0.0, 2.178527833713607]
      },
      {
        "species": [{ "element": "Ni", "occu": 1 }],
        "abc": [-0.0, -0.0, 0.5],
        "properties": { "magmom": -0.0 },
        "label": "Ni",
        "xyz": [0.0, 0.0, 6.53557043]
      },
      {
        "species": [{ "element": "Ni", "occu": 1 }],
        "abc": [-0.0, -0.0, 0.833333],
        "properties": { "magmom": -0.0 },
        "label": "Ni",
        "xyz": [0.0, 0.0, 10.89261302628638]
      },
      {
        "species": [{ "element": "Ni", "occu": 1 }],
        "abc": [-0.0, 0.5, 0.166666999999999],
        "properties": { "magmom": -0.0 },
        "label": "Ni",
        "xyz": [-1.287785885, 2.23051079, 2.178527833713607]
      },
      {
        "species": [{ "element": "Ni", "occu": 1 }],
        "abc": [0.5, -0.0, 0.5],
        "properties": { "magmom": -0.0 },
        "label": "Ni",
        "xyz": [2.575571765, 0.0, 6.53557043]
      },
      {
        "species": [{ "element": "Ni", "occu": 1 }],
        "abc": [0.5, 0.5, 0.833333],
        "properties": { "magmom": -0.0 },
        "label": "Ni",
        "xyz": [1.28778588, 2.23051079, 10.89261302628638]
      }
    ]
  },
  "task_ids": null,
  "uncorrected_energy_per_atom": null,
  "energy_per_atom": -3.166725901111111,
  "formation_energy_per_atom": -0.15303366444444402,
  "energy_above_hull": 0.0,
  "is_stable": true,
  "equilibrium_reaction_energy_per_atom": null,
  "decomposes_to": null,
  "xas": null,
  "grain_boundaries": null,
  "band_gap": 0.0,
  "cbm": null,
  "vbm": null,
  "efermi": 4.66852209,
  "is_gap_direct": null,
  "is_metal": null,
  "es_source_calc_id": null,
  "bandstructure": null,
  "dos": null,
  "dos_energy_up": null,
  "dos_energy_down": null,
  "is_magnetic": null,
  "ordering": null,
  "total_magnetization": 5e-7,
  "total_magnetization_normalized_vol": null,
  "total_magnetization_normalized_formula_units": null,
  "num_magnetic_sites": null,
  "num_unique_magnetic_sites": null,
  "types_of_magnetic_species": null,
  "bulk_modulus": null,
  "shear_modulus": null,
  "universal_anisotropy": null,
  "homogeneous_poisson": null,
  "e_total": null,
  "e_ionic": null,
  "e_electronic": null,
  "n": null,
  "e_ij_max": null,
  "weighted_surface_energy_EV_PER_ANG2": null,
  "weighted_surface_energy": null,
  "weighted_work_function": null,
  "surface_anisotropy": null,
  "shape_factor": null,
  "has_reconstructed": null,
  "possible_species": null,
  "has_props": null,
  "theoretical": null,
  "database_IDs": null,
  "fields_not_requested": [
    "builder_meta",
    "nsites",
    "elements",
    "nelements",
    "composition",
    "composition_reduced",
    "chemsys",
    "symmetry",
    "property_name",
    "deprecated",
    "deprecation_reasons",
    "last_updated",
    "origins",
    "warnings",
    "task_ids",
    "uncorrected_energy_per_atom",
    "equilibrium_reaction_energy_per_atom",
    "decomposes_to",
    "xas",
    "grain_boundaries",
    "cbm",
    "vbm",
    "is_gap_direct",
    "is_metal",
    "es_source_calc_id",
    "bandstructure",
    "dos",
    "dos_energy_up",
    "dos_energy_down",
    "is_magnetic",
    "ordering",
    "total_magnetization_normalized_vol",
    "total_magnetization_normalized_formula_units",
    "num_magnetic_sites",
    "num_unique_magnetic_sites",
    "types_of_magnetic_species",
    "bulk_modulus",
    "shear_modulus",
    "universal_anisotropy",
    "homogeneous_poisson",
    "e_total",
    "e_ionic",
    "e_electronic",
    "n",
    "e_ij_max",
    "weighted_surface_energy_EV_PER_ANG2",
    "weighted_surface_energy",
    "weighted_work_function",
    "surface_anisotropy",
    "shape_factor",
    "has_reconstructed",
    "possible_species",
    "has_props",
    "theoretical",
    "database_IDs"
  ]
}
