{"builder_meta": null, "nsites": null, "elements": null, "nelements": null, "composition": null, "composition_reduced": null, "formula_pretty": "Mg2P", "formula_anonymous": "AB2", "chemsys": null, "volume": 117.89342669771125, "density": 2.24188828113115, "density_atomic": 19.64890444961854, "symmetry": null, "property_name": null, "material_id": "mp-1185772", "deprecated": null, "deprecation_reasons": null, "last_updated": null, "origins": null, "warnings": null, "structure": {"@module": "pymatgen.core.structure", "@class": "Structure", "charge": 0, "lattice": {"matrix": [[3.744399, 0.0, 0.0], [-1.8722, 2.89055, 5.670275], [0.0, -3.351150999999999, 4.318668]], "pbc": [true, true, true], "a": 3.744399, "b": 6.634186515174638, "c": 5.466361341790807, "alpha": 65.9115639251271, "beta": 90.0, "gamma": 106.39184472754299, "volume": 117.89342669771122}, "properties": {}, "sites": [{"species": [{"element": "Mg", "occu": 1}], "abc": [0.323920999999999, 0.647841, 0.399842], "properties": {"magmom": 0.0}, "label": "Mg", "xyz": [1.5482789963439103e-06, 0.5326858844080007, 5.400221476731]}, {"species": [{"element": "Mg", "occu": 1}], "abc": [0.029616999999999002, 0.059232, 0.450104], "properties": {"magmom": 0.0}, "label": "Mg", "xyz": [3.71478299626693e-06, -1.3371534121039996, 2.279711470272]}, {"species": [{"element": "Mg", "occu": 1}], "abc": [0.025938, 0.051877, 0.938786], "properties": {"magmom": 0.0}, "label": "Mg", "xyz": [-1.8981380000004933e-06, -2.996060580335999, 4.348461913223]}, {"species": [{"element": "Mg", "occu": 1}], "abc": [0.731634, 0.463269, 0.989047999999999], "properties": {"magmom": 0.0}, "label": "Mg", "xyz": [1.8721973961660003, -1.9753469862979955, 6.898232577038995]}, {"species": [{"element": "P", "occu": 1}], "abc": [0.670434, 0.340867, 0.551685], "properties": {"magmom": -0.0}, "label": "P", "xyz": [1.8722012017660001, -0.8634866325849994, 4.315353984005]}, {"species": [{"element": "P", "occu": 1}], "abc": [0.385121999999999, 0.770243, 0.837202999999999], "properties": {"magmom": -0.0}, "label": "P", "xyz": [1.487077996298325e-06, -0.5791677670029958, 7.983091432428996]}]}, "task_ids": null, "uncorrected_energy_per_atom": null, "energy_per_atom": -3.22711832, "formation_energy_per_atom": -0.334980468214285, "energy_above_hull": 0.204774964999999, "is_stable": false, "equilibrium_reaction_energy_per_atom": null, "decomposes_to": null, "xas": null, "grain_boundaries": null, "band_gap": 0.0, "cbm": null, "vbm": null, "efermi": 4.60832299, "is_gap_direct": null, "is_metal": null, "es_source_calc_id": null, "bandstructure": null, "dos": null, "dos_energy_up": null, "dos_energy_down": null, "is_magnetic": null, "ordering": null, "total_magnetization": 8.070000000000001e-05, "total_magnetization_normalized_vol": null, "total_magnetization_normalized_formula_units": null, "num_magnetic_sites": null, "num_unique_magnetic_sites": null, "types_of_magnetic_species": null, "bulk_modulus": null, "shear_modulus": null, "universal_anisotropy": null, "homogeneous_poisson": null, "e_total": null, "e_ionic": null, "e_electronic": null, "n": null, "e_ij_max": null, "weighted_surface_energy_EV_PER_ANG2": null, "weighted_surface_energy": null, "weighted_work_function": null, "surface_anisotropy": null, "shape_factor": null, "has_reconstructed": null, "possible_species": null, "has_props": null, "theoretical": null, "database_IDs": null, "fields_not_requested": ["builder_meta", "nsites", "elements", "nelements", "composition", "composition_reduced", "chemsys", "symmetry", "property_name", "deprecated", "deprecation_reasons", "last_updated", "origins", "warnings", "task_ids", "uncorrected_energy_per_atom", "equilibrium_reaction_energy_per_atom", "decomposes_to", "xas", "grain_boundaries", "cbm", "vbm", "is_gap_direct", "is_metal", "es_source_calc_id", "bandstructure", "dos", "dos_energy_up", "dos_energy_down", "is_magnetic", "ordering", "total_magnetization_normalized_vol", "total_magnetization_normalized_formula_units", "num_magnetic_sites", "num_unique_magnetic_sites", "types_of_magnetic_species", "bulk_modulus", "shear_modulus", "universal_anisotropy", "homogeneous_poisson", "e_total", "e_ionic", "e_electronic", "n", "e_ij_max", "weighted_surface_energy_EV_PER_ANG2", "weighted_surface_energy", "weighted_work_function", "surface_anisotropy", "shape_factor", "has_reconstructed", "possible_species", "has_props", "theoretical", "database_IDs"]}