{
  "builder_meta": null,
  "nsites": null,
  "elements": null,
  "nelements": null,
  "composition": null,
  "composition_reduced": null,
  "formula_pretty": "Mg2Pd",
  "formula_anonymous": "AB2",
  "chemsys": null,
  "volume": 434.24837707625943,
  "density": 4.742601425078707,
  "density_atomic": 18.093682378177476,
  "symmetry": null,
  "property_name": null,
  "material_id": "mp-18316",
  "deprecated": null,
  "deprecation_reasons": null,
  "last_updated": null,
  "origins": null,
  "warnings": null,
  "structure": {
    "@module": "pymatgen.core.structure",
    "@class": "Structure",
    "charge": 0,
    "lattice": {
      "matrix": [
        [7.3611951, -0.0, 4.24998854],
        [2.45373136, 6.94020215, 4.24998854],
        [0.0, 0.0, 8.49997709]
      ],
      "pbc": [true, true, true],
      "a": 8.499976228813546,
      "b": 8.499976827029789,
      "c": 8.49997709,
      "alpha": 59.99999901550469,
      "beta": 59.99999668739995,
      "gamma": 60.00000241154183,
      "volume": 434.24837707625943
    },
    "properties": {},
    "sites": [
      {
        "species": [{ "element": "Mg", "occu": 1 }],
        "abc": [0.81967599, 0.43032401000000003, 0.43032401000000003],
        "properties": { "magmom": 0.0 },
        "label": "Mg",
        "xyz": [7.089694399473602, 2.9865356193986217, 8.970229901276932]
      },
      {
        "species": [{ "element": "Mg", "occu": 1 }],
        "abc": [0.56967599, 0.56967599, 0.18032401],
        "properties": { "magmom": 0.0 },
        "label": "Mg",
        "xyz": [5.591327947877696, 3.953666530601379, 6.374982811803241]
      },
      {
        "species": [{ "element": "Mg", "occu": 1 }],
        "abc": [0.18032401, 0.18032401, 0.56967599],
        "properties": { "magmom": 0.0 },
        "label": "Mg",
        "xyz": [1.7698668971223046, 1.2514850818986216, 6.37498281569676]
      },
      {
        "species": [{ "element": "Mg", "occu": 1 }],
        "abc": [0.56967599, 0.18032401, 0.18032401],
        "properties": { "magmom": 0.0 },
        "label": "Mg",
        "xyz": [4.635962784473603, 1.2514850818986216, 4.720241358776931]
      },
      {
        "species": [{ "element": "Mg", "occu": 1 }],
        "abc": [0.56967599, 0.18032401, 0.56967599],
        "properties": { "magmom": 0.0 },
        "label": "Mg",
        "xyz": [4.635962784473603, 1.2514850818986216, 8.029724268723069]
      },
      {
        "species": [{ "element": "Mg", "occu": 1 }],
        "abc": [0.18032401, 0.56967599, 0.18032401],
        "properties": { "magmom": 0.0 },
        "label": "Mg",
        "xyz": [2.7252320605263973, 3.953666530601379, 4.720241358776931]
      },
      {
        "species": [{ "element": "Mg", "occu": 1 }],
        "abc": [0.43032401000000003, 0.81967599, 0.43032401000000003],
        "properties": { "magmom": 0.0 },
        "label": "Mg",
        "xyz": [5.178963675526397, 5.688717068101379, 8.970229901276932]
      },
      {
        "species": [{ "element": "Mg", "occu": 1 }],
        "abc": [0.43032401000000003, 0.43032401000000003, 0.81967599],
        "properties": { "magmom": 0.0 },
        "label": "Mg",
        "xyz": [4.2235985121223045, 2.9865356193986217, 10.624971358196762]
      },
      {
        "species": [{ "element": "Mg", "occu": 1 }],
        "abc": [0.81967599, 0.81967599, 0.43032401000000003],
        "properties": { "magmom": 0.0 },
        "label": "Mg",
        "xyz": [8.045059562877697, 5.688717068101379, 10.624971354303241]
      },
      {
        "species": [{ "element": "Mg", "occu": 1 }],
        "abc": [0.81967599, 0.43032401000000003, 0.81967599],
        "properties": { "magmom": 0.0 },
        "label": "Mg",
        "xyz": [7.089694399473602, 2.9865356193986217, 12.279712811223071]
      },
      {
        "species": [{ "element": "Mg", "occu": 1 }],
        "abc": [0.18032401, 0.56967599, 0.56967599],
        "properties": { "magmom": 0.0 },
        "label": "Mg",
        "xyz": [2.7252320605263973, 3.953666530601379, 8.029724268723069]
      },
      {
        "species": [{ "element": "Mg", "occu": 1 }],
        "abc": [0.43032401000000003, 0.81967599, 0.81967599],
        "properties": { "magmom": 0.0 },
        "label": "Mg",
        "xyz": [5.178963675526397, 5.688717068101379, 12.279712811223071]
      },
      {
        "species": [{ "element": "Mg", "occu": 1 }],
        "abc": [-0.0, 0.5, -0.0],
        "properties": { "magmom": -0.0 },
        "label": "Mg",
        "xyz": [1.22686568, 3.470101075, 2.12499427]
      },
      {
        "species": [{ "element": "Mg", "occu": 1 }],
        "abc": [0.5, 0.0, -0.0],
        "properties": { "magmom": -0.0 },
        "label": "Mg",
        "xyz": [3.68059755, 0.0, 2.12499427]
      },
      {
        "species": [{ "element": "Mg", "occu": 1 }],
        "abc": [-0.0, 0.0, 0.5],
        "properties": { "magmom": -0.0 },
        "label": "Mg",
        "xyz": [0.0, 0.0, 4.249988545]
      },
      {
        "species": [{ "element": "Mg", "occu": 1 }],
        "abc": [-0.0, 0.0, -0.0],
        "properties": { "magmom": -0.0 },
        "label": "Mg",
        "xyz": [0.0, 0.0, 0.0]
      },
      {
        "species": [{ "element": "Pd", "occu": 1 }],
        "abc": [0.8522394, 0.215920199999999, 0.215920199999999],
        "properties": { "magmom": 0.0 },
        "label": "Pd",
        "xyz": [6.803310661304409, 1.4985298362684232, 6.37498281215919]
      },
      {
        "species": [{ "element": "Pd", "occu": 1 }],
        "abc": [0.215920199999999, 0.8522394, 0.215920199999999],
        "properties": { "magmom": 0.0 },
        "label": "Pd",
        "xyz": [3.6805972602385966, 5.91471371619471, 6.37498281215919]
      },
      {
        "species": [{ "element": "Pd", "occu": 1 }],
        "abc": [0.215920199999999, 0.215920199999999, 0.8522394],
        "properties": { "magmom": 0.0 },
        "label": "Pd",
        "xyz": [2.119240884228482, 1.4985298362684232, 9.079332126304354]
      },
      {
        "species": [{ "element": "Pd", "occu": 1 }],
        "abc": [0.7840798, 0.7840798, 0.7840798],
        "properties": { "magmom": 0.0 },
        "label": "Pd",
        "xyz": [7.695685575771508, 5.44167231373157, 13.329320665622767]
      },
      {
        "species": [{ "element": "Pd", "occu": 1 }],
        "abc": [0.7840798, 0.1477606, 0.7840798],
        "properties": { "magmom": 0.0 },
        "label": "Pd",
        "xyz": [6.134329199761396, 1.0254884338052899, 10.624971357840797]
      },
      {
        "species": [{ "element": "Pd", "occu": 1 }],
        "abc": [0.1477606, 0.7840798, 0.7840798],
        "properties": { "magmom": 0.0 },
        "label": "Pd",
        "xyz": [3.011615798695588, 5.44167231373157, 10.624971357840797]
      },
      {
        "species": [{ "element": "Pd", "occu": 1 }],
        "abc": [0.7840798, 0.7840798, 0.1477606],
        "properties": { "magmom": 0.0 },
        "label": "Pd",
        "xyz": [7.695685575771508, 5.44167231373157, 7.920622043695638]
      },
      {
        "species": [{ "element": "Pd", "occu": 1 }],
        "abc": [0.215920199999999, 0.215920199999999, 0.215920199999999],
        "properties": { "magmom": 0.0 },
        "label": "Pd",
        "xyz": [2.119240884228482, 1.4985298362684232, 3.6706335043772174]
      }
    ]
  },
  "task_ids": null,
  "uncorrected_energy_per_atom": null,
  "energy_per_atom": -3.3212282675,
  "formation_energy_per_atom": -0.5076209874999991,
  "energy_above_hull": 0.004329522222222,
  "is_stable": false,
  "equilibrium_reaction_energy_per_atom": null,
  "decomposes_to": null,
  "xas": null,
  "grain_boundaries": null,
  "band_gap": 0.0,
  "cbm": null,
  "vbm": null,
  "efermi": 4.20239241,
  "is_gap_direct": null,
  "is_metal": null,
  "es_source_calc_id": null,
  "bandstructure": null,
  "dos": null,
  "dos_energy_up": null,
  "dos_energy_down": null,
  "is_magnetic": null,
  "ordering": null,
  "total_magnetization": 5e-7,
  "total_magnetization_normalized_vol": null,
  "total_magnetization_normalized_formula_units": null,
  "num_magnetic_sites": null,
  "num_unique_magnetic_sites": null,
  "types_of_magnetic_species": null,
  "bulk_modulus": null,
  "shear_modulus": null,
  "universal_anisotropy": null,
  "homogeneous_poisson": null,
  "e_total": null,
  "e_ionic": null,
  "e_electronic": null,
  "n": null,
  "e_ij_max": null,
  "weighted_surface_energy_EV_PER_ANG2": null,
  "weighted_surface_energy": null,
  "weighted_work_function": null,
  "surface_anisotropy": null,
  "shape_factor": null,
  "has_reconstructed": null,
  "possible_species": null,
  "has_props": null,
  "theoretical": null,
  "database_IDs": null,
  "fields_not_requested": [
    "builder_meta",
    "nsites",
    "elements",
    "nelements",
    "composition",
    "composition_reduced",
    "chemsys",
    "symmetry",
    "property_name",
    "deprecated",
    "deprecation_reasons",
    "last_updated",
    "origins",
    "warnings",
    "task_ids",
    "uncorrected_energy_per_atom",
    "equilibrium_reaction_energy_per_atom",
    "decomposes_to",
    "xas",
    "grain_boundaries",
    "cbm",
    "vbm",
    "is_gap_direct",
    "is_metal",
    "es_source_calc_id",
    "bandstructure",
    "dos",
    "dos_energy_up",
    "dos_energy_down",
    "is_magnetic",
    "ordering",
    "total_magnetization_normalized_vol",
    "total_magnetization_normalized_formula_units",
    "num_magnetic_sites",
    "num_unique_magnetic_sites",
    "types_of_magnetic_species",
    "bulk_modulus",
    "shear_modulus",
    "universal_anisotropy",
    "homogeneous_poisson",
    "e_total",
    "e_ionic",
    "e_electronic",
    "n",
    "e_ij_max",
    "weighted_surface_energy_EV_PER_ANG2",
    "weighted_surface_energy",
    "weighted_work_function",
    "surface_anisotropy",
    "shape_factor",
    "has_reconstructed",
    "possible_species",
    "has_props",
    "theoretical",
    "database_IDs"
  ]
}
