{
  "builder_meta": null,
  "nsites": null,
  "elements": null,
  "nelements": null,
  "composition": null,
  "composition_reduced": null,
  "formula_pretty": "Mg2Pt",
  "formula_anonymous": "AB2",
  "chemsys": null,
  "volume": 111.90333159972256,
  "density": 7.232374613179499,
  "density_atomic": 18.650555266620426,
  "symmetry": null,
  "property_name": null,
  "material_id": "mp-13208",
  "deprecated": null,
  "deprecation_reasons": null,
  "last_updated": null,
  "origins": null,
  "warnings": null,
  "structure": {
    "@module": "pymatgen.core.structure",
    "@class": "Structure",
    "charge": 0,
    "lattice": {
      "matrix": [
        [5.05541268, 0.01460644, -1.49700936],
        [-2.81603566, 4.19849221, -1.49700936],
        [-0.0077639200000000005, -0.01460643, 5.27239702]
      ],
      "pbc": [true, true, true],
      "a": 5.2724233268130005,
      "b": 5.27242171110676,
      "c": 5.27242296887835,
      "alpha": 106.5797818730616,
      "beta": 106.57978021663939,
      "gamma": 115.42312262783027,
      "volume": 111.90333159972256
    },
    "properties": {},
    "sites": [
      {
        "species": [{ "element": "Mg", "occu": 1 }],
        "abc": [0.81892864, 0.68107136, 0.5],
        "properties": { "magmom": -0.0 },
        "label": "Mg",
        "xyz": [2.2182190339064576, 2.8641312164585475, 0.3906844699999996]
      },
      {
        "species": [{ "element": "Mg", "occu": 1 }],
        "abc": [0.68107136, 0.18107136000000001, 0.86214272],
        "properties": { "magmom": -0.0 },
        "label": "Mg",
        "xyz": [2.9264997754574846, 0.7575818950799745, 3.254922986246835]
      },
      {
        "species": [{ "element": "Mg", "occu": 1 }],
        "abc": [0.18107136000000001, 0.31892864, 0.5],
        "properties": { "magmom": -0.0 },
        "label": "Mg",
        "xyz": [0.013394066093542507, 1.3343610035414526, 1.88769383]
      },
      {
        "species": [{ "element": "Mg", "occu": 1 }],
        "abc": [0.31892864, 0.81892864, 0.13785728],
        "properties": { "magmom": -0.0 },
        "label": "Mg",
        "xyz": [-0.694886675457485, 3.440910324920026, -0.9765446862468353]
      },
      {
        "species": [{ "element": "Pt", "occu": 1 }],
        "abc": [0.75, 0.75, 0.0],
        "properties": { "magmom": -0.0 },
        "label": "Pt",
        "xyz": [1.6795327650000003, 3.1598239875000003, -2.24551404]
      },
      {
        "species": [{ "element": "Pt", "occu": 1 }],
        "abc": [0.25, 0.25, 0.0],
        "properties": { "magmom": -0.0 },
        "label": "Pt",
        "xyz": [0.559844255, 1.0532746625, -0.74850468]
      }
    ]
  },
  "task_ids": null,
  "uncorrected_energy_per_atom": null,
  "energy_per_atom": -3.798923769999999,
  "formation_energy_per_atom": -0.6882326533333321,
  "energy_above_hull": 0.0,
  "is_stable": true,
  "equilibrium_reaction_energy_per_atom": null,
  "decomposes_to": null,
  "xas": null,
  "grain_boundaries": null,
  "band_gap": 0.0,
  "cbm": null,
  "vbm": null,
  "efermi": 4.58558905,
  "is_gap_direct": null,
  "is_metal": null,
  "es_source_calc_id": null,
  "bandstructure": null,
  "dos": null,
  "dos_energy_up": null,
  "dos_energy_down": null,
  "is_magnetic": null,
  "ordering": null,
  "total_magnetization": 2.899999999999999e-6,
  "total_magnetization_normalized_vol": null,
  "total_magnetization_normalized_formula_units": null,
  "num_magnetic_sites": null,
  "num_unique_magnetic_sites": null,
  "types_of_magnetic_species": null,
  "bulk_modulus": null,
  "shear_modulus": null,
  "universal_anisotropy": null,
  "homogeneous_poisson": null,
  "e_total": null,
  "e_ionic": null,
  "e_electronic": null,
  "n": null,
  "e_ij_max": null,
  "weighted_surface_energy_EV_PER_ANG2": null,
  "weighted_surface_energy": null,
  "weighted_work_function": null,
  "surface_anisotropy": null,
  "shape_factor": null,
  "has_reconstructed": null,
  "possible_species": null,
  "has_props": null,
  "theoretical": null,
  "database_IDs": null,
  "fields_not_requested": [
    "builder_meta",
    "nsites",
    "elements",
    "nelements",
    "composition",
    "composition_reduced",
    "chemsys",
    "symmetry",
    "property_name",
    "deprecated",
    "deprecation_reasons",
    "last_updated",
    "origins",
    "warnings",
    "task_ids",
    "uncorrected_energy_per_atom",
    "equilibrium_reaction_energy_per_atom",
    "decomposes_to",
    "xas",
    "grain_boundaries",
    "cbm",
    "vbm",
    "is_gap_direct",
    "is_metal",
    "es_source_calc_id",
    "bandstructure",
    "dos",
    "dos_energy_up",
    "dos_energy_down",
    "is_magnetic",
    "ordering",
    "total_magnetization_normalized_vol",
    "total_magnetization_normalized_formula_units",
    "num_magnetic_sites",
    "num_unique_magnetic_sites",
    "types_of_magnetic_species",
    "bulk_modulus",
    "shear_modulus",
    "universal_anisotropy",
    "homogeneous_poisson",
    "e_total",
    "e_ionic",
    "e_electronic",
    "n",
    "e_ij_max",
    "weighted_surface_energy_EV_PER_ANG2",
    "weighted_surface_energy",
    "weighted_work_function",
    "surface_anisotropy",
    "shape_factor",
    "has_reconstructed",
    "possible_species",
    "has_props",
    "theoretical",
    "database_IDs"
  ]
}
