{"builder_meta": null, "nsites": null, "elements": null, "nelements": null, "composition": null, "composition_reduced": null, "formula_pretty": "Mg2Pb", "formula_anonymous": "AB2", "chemsys": null, "volume": 79.58774374047873, "density": 5.33728534901159, "density_atomic": 26.52924791349291, "symmetry": null, "property_name": null, "material_id": "mp-20724", "deprecated": null, "deprecation_reasons": null, "last_updated": null, "origins": null, "warnings": null, "structure": {"@module": "pymatgen.core.structure", "@class": "Structure", "charge": 0, "lattice": {"matrix": [[4.18136138, 0.0, 2.41411011], [1.39378746, 3.9422251, 2.41411011], [0.0, 0.0, 4.82822022]], "pbc": [true, true, true], "a": 4.828220232483158, "b": 4.828220153009541, "c": 4.82822022, "alpha": 59.99999954102619, "beta": 60.000000085526246, "gamma": 59.99999555689963, "volume": 79.58774374047873}, "properties": {}, "sites": [{"species": [{"element": "Mg", "occu": 1}], "abc": [0.75, 0.75, 0.75], "properties": {"magmom": 0.0}, "label": "Mg", "xyz": [4.18136163, 2.956668825, 7.242330330000001]}, {"species": [{"element": "Mg", "occu": 1}], "abc": [0.25, 0.25, 0.25], "properties": {"magmom": 0.0}, "label": "Mg", "xyz": [1.3937872100000002, 0.985556275, 2.41411011]}, {"species": [{"element": "Pb", "occu": 1}], "abc": [0.0, 0.0, -0.0], "properties": {"magmom": -0.0}, "label": "Pb", "xyz": [0.0, 0.0, 0.0]}]}, "task_ids": null, "uncorrected_energy_per_atom": null, "energy_per_atom": -2.360902936666664, "formation_energy_per_atom": -0.036373903333329, "energy_above_hull": 0.0, "is_stable": true, "equilibrium_reaction_energy_per_atom": null, "decomposes_to": null, "xas": null, "grain_boundaries": null, "band_gap": 0.0, "cbm": null, "vbm": null, "efermi": 4.54461209, "is_gap_direct": null, "is_metal": null, "es_source_calc_id": null, "bandstructure": null, "dos": null, "dos_energy_up": null, "dos_energy_down": null, "is_magnetic": null, "ordering": null, "total_magnetization": 5e-07, "total_magnetization_normalized_vol": null, "total_magnetization_normalized_formula_units": null, "num_magnetic_sites": null, "num_unique_magnetic_sites": null, "types_of_magnetic_species": null, "bulk_modulus": null, "shear_modulus": null, "universal_anisotropy": null, "homogeneous_poisson": null, "e_total": null, "e_ionic": null, "e_electronic": null, "n": null, "e_ij_max": null, "weighted_surface_energy_EV_PER_ANG2": null, "weighted_surface_energy": null, "weighted_work_function": null, "surface_anisotropy": null, "shape_factor": null, "has_reconstructed": null, "possible_species": null, "has_props": null, "theoretical": null, "database_IDs": null, "fields_not_requested": ["builder_meta", "nsites", "elements", "nelements", "composition", "composition_reduced", "chemsys", "symmetry", "property_name", "deprecated", "deprecation_reasons", "last_updated", "origins", "warnings", "task_ids", "uncorrected_energy_per_atom", "equilibrium_reaction_energy_per_atom", "decomposes_to", "xas", "grain_boundaries", "cbm", "vbm", "is_gap_direct", "is_metal", "es_source_calc_id", "bandstructure", "dos", "dos_energy_up", "dos_energy_down", "is_magnetic", "ordering", "total_magnetization_normalized_vol", "total_magnetization_normalized_formula_units", "num_magnetic_sites", "num_unique_magnetic_sites", "types_of_magnetic_species", "bulk_modulus", "shear_modulus", "universal_anisotropy", "homogeneous_poisson", "e_total", "e_ionic", "e_electronic", "n", "e_ij_max", "weighted_surface_energy_EV_PER_ANG2", "weighted_surface_energy", "weighted_work_function", "surface_anisotropy", "shape_factor", "has_reconstructed", "possible_species", "has_props", "theoretical", "database_IDs"]}