{
  "builder_meta": null,
  "nsites": null,
  "elements": null,
  "nelements": null,
  "composition": null,
  "composition_reduced": null,
  "formula_pretty": "Mg2Ru",
  "formula_anonymous": "AB2",
  "chemsys": null,
  "volume": 123.305925722548,
  "density": 4.031428109107293,
  "density_atomic": 20.550987620424667,
  "symmetry": null,
  "property_name": null,
  "material_id": "mp-1077234",
  "deprecated": null,
  "deprecation_reasons": null,
  "last_updated": null,
  "origins": null,
  "warnings": null,
  "structure": {
    "@module": "pymatgen.core.structure",
    "@class": "Structure",
    "charge": 0.0,
    "lattice": {
      "matrix": [
        [3.36679523, -4.19272848, 0.0],
        [3.36679523, 4.19272848, -0.0],
        [0.0, 0.0, 4.3675764]
      ],
      "pbc": [true, true, true],
      "a": 5.377200222025758,
      "b": 5.377200222025758,
      "c": 4.3675764,
      "alpha": 90.0,
      "beta": 90.0,
      "gamma": 102.4705020404353,
      "volume": 123.305925722548
    },
    "properties": {},
    "sites": [
      {
        "species": [{ "element": "Mg", "occu": 1 }],
        "abc": [0.41817536, 0.12531833, 0.75],
        "properties": { "magmom": -0.009000000000000001 },
        "label": "Mg",
        "xyz": [1.8298319630270987, -1.2278700102492144, 3.2756822999999997]
      },
      {
        "species": [{ "element": "Mg", "occu": 1 }],
        "abc": [0.12531833, 0.41817536, 0.25],
        "properties": { "magmom": -0.009000000000000001 },
        "label": "Mg",
        "xyz": [1.8298319630270987, 1.2278700102492144, 1.0918941]
      },
      {
        "species": [{ "element": "Mg", "occu": 1 }],
        "abc": [0.58182464, 0.87468167, 0.25],
        "properties": { "magmom": -0.009000000000000001 },
        "label": "Mg",
        "xyz": [4.903758496972902, 1.2278700102492142, 1.0918941]
      },
      {
        "species": [{ "element": "Mg", "occu": 1 }],
        "abc": [0.87468167, 0.58182464, 0.75],
        "properties": { "magmom": -0.009000000000000001 },
        "label": "Mg",
        "xyz": [4.903758496972902, -1.2278700102492142, 3.2756822999999997]
      },
      {
        "species": [{ "element": "Ru", "occu": 1 }],
        "abc": [0.92733107, 0.07266893, 0.75],
        "properties": { "magmom": 0.399 },
        "label": "Ru",
        "xyz": [3.36679523, -3.5833662951557477, 3.2756822999999997]
      },
      {
        "species": [{ "element": "Ru", "occu": 1 }],
        "abc": [0.07266893, 0.92733107, 0.25],
        "properties": { "magmom": 0.399 },
        "label": "Ru",
        "xyz": [3.36679523, 3.5833662951557477, 1.0918941]
      }
    ]
  },
  "task_ids": null,
  "uncorrected_energy_per_atom": null,
  "energy_per_atom": -4.037838713333333,
  "formation_energy_per_atom": 0.140608810000001,
  "energy_above_hull": 0.244916415416666,
  "is_stable": false,
  "equilibrium_reaction_energy_per_atom": null,
  "decomposes_to": null,
  "xas": null,
  "grain_boundaries": null,
  "band_gap": 0.0,
  "cbm": null,
  "vbm": null,
  "efermi": 3.66076357,
  "is_gap_direct": null,
  "is_metal": null,
  "es_source_calc_id": null,
  "bandstructure": null,
  "dos": null,
  "dos_energy_up": null,
  "dos_energy_down": null,
  "is_magnetic": null,
  "ordering": null,
  "total_magnetization": 0.6813625,
  "total_magnetization_normalized_vol": null,
  "total_magnetization_normalized_formula_units": null,
  "num_magnetic_sites": null,
  "num_unique_magnetic_sites": null,
  "types_of_magnetic_species": null,
  "bulk_modulus": null,
  "shear_modulus": null,
  "universal_anisotropy": null,
  "homogeneous_poisson": null,
  "e_total": null,
  "e_ionic": null,
  "e_electronic": null,
  "n": null,
  "e_ij_max": null,
  "weighted_surface_energy_EV_PER_ANG2": null,
  "weighted_surface_energy": null,
  "weighted_work_function": null,
  "surface_anisotropy": null,
  "shape_factor": null,
  "has_reconstructed": null,
  "possible_species": null,
  "has_props": null,
  "theoretical": null,
  "database_IDs": null,
  "fields_not_requested": [
    "builder_meta",
    "nsites",
    "elements",
    "nelements",
    "composition",
    "composition_reduced",
    "chemsys",
    "symmetry",
    "property_name",
    "deprecated",
    "deprecation_reasons",
    "last_updated",
    "origins",
    "warnings",
    "task_ids",
    "uncorrected_energy_per_atom",
    "equilibrium_reaction_energy_per_atom",
    "decomposes_to",
    "xas",
    "grain_boundaries",
    "cbm",
    "vbm",
    "is_gap_direct",
    "is_metal",
    "es_source_calc_id",
    "bandstructure",
    "dos",
    "dos_energy_up",
    "dos_energy_down",
    "is_magnetic",
    "ordering",
    "total_magnetization_normalized_vol",
    "total_magnetization_normalized_formula_units",
    "num_magnetic_sites",
    "num_unique_magnetic_sites",
    "types_of_magnetic_species",
    "bulk_modulus",
    "shear_modulus",
    "universal_anisotropy",
    "homogeneous_poisson",
    "e_total",
    "e_ionic",
    "e_electronic",
    "n",
    "e_ij_max",
    "weighted_surface_energy_EV_PER_ANG2",
    "weighted_surface_energy",
    "weighted_work_function",
    "surface_anisotropy",
    "shape_factor",
    "has_reconstructed",
    "possible_species",
    "has_props",
    "theoretical",
    "database_IDs"
  ]
}
