{"builder_meta": null, "nsites": null, "elements": null, "nelements": null, "composition": null, "composition_reduced": null, "formula_pretty": "Mg2Rh", "formula_anonymous": "AB2", "chemsys": null, "volume": 50.85102666452417, "density": 4.94773504978135, "density_atomic": 16.950342221508055, "symmetry": null, "property_name": null, "material_id": "mp-12693", "deprecated": null, "deprecation_reasons": null, "last_updated": null, "origins": null, "warnings": null, "structure": {"@module": "pymatgen.core.structure", "@class": "Structure", "charge": 0, "lattice": {"matrix": [[3.03652929, 1e-08, -0.9167592800000001], [-0.27677768, 3.02388821, -0.9167592800000001], [0.01277498, 0.013996370000000001, 5.52955851]], "pbc": [true, true, true], "a": 3.171901276284308, "b": 3.171900592419205, "c": 5.529590980714631, "alpha": 106.6671945565892, "beta": 106.66717731316902, "gamma": 89.99997679019917, "volume": 50.85102666452417}, "properties": {}, "sites": [{"species": [{"element": "Mg", "occu": 1}], "abc": [0.642817699999999, 0.642817699999999, 0.28563539], "properties": {"magmom": -0.0}, "label": "Mg", "xyz": [1.7776661689060365, 1.9478067292410255, 0.4008194178851585]}, {"species": [{"element": "Mg", "occu": 1}], "abc": [0.3571823, 0.3571823, 0.7143646100000001], "properties": {"magmom": -0.0}, "label": "Mg", "xyz": [0.9948604210939608, 1.0900778607589718, 3.295220532114844]}, {"species": [{"element": "Rh", "occu": 1}], "abc": [-0.0, 0.0, -0.0], "properties": {"magmom": 0.0}, "label": "Rh", "xyz": [0.0, 0.0, 0.0]}]}, "task_ids": null, "uncorrected_energy_per_atom": null, "energy_per_atom": -3.9435868999999992, "formation_energy_per_atom": -0.401837599999999, "energy_above_hull": 0.0, "is_stable": true, "equilibrium_reaction_energy_per_atom": null, "decomposes_to": null, "xas": null, "grain_boundaries": null, "band_gap": 0.0, "cbm": null, "vbm": null, "efermi": 4.93751259, "is_gap_direct": null, "is_metal": null, "es_source_calc_id": null, "bandstructure": null, "dos": null, "dos_energy_up": null, "dos_energy_down": null, "is_magnetic": null, "ordering": null, "total_magnetization": 3e-07, "total_magnetization_normalized_vol": null, "total_magnetization_normalized_formula_units": null, "num_magnetic_sites": null, "num_unique_magnetic_sites": null, "types_of_magnetic_species": null, "bulk_modulus": null, "shear_modulus": null, "universal_anisotropy": null, "homogeneous_poisson": null, "e_total": null, "e_ionic": null, "e_electronic": null, "n": null, "e_ij_max": null, "weighted_surface_energy_EV_PER_ANG2": null, "weighted_surface_energy": null, "weighted_work_function": null, "surface_anisotropy": null, "shape_factor": null, "has_reconstructed": null, "possible_species": null, "has_props": null, "theoretical": null, "database_IDs": null, "fields_not_requested": ["builder_meta", "nsites", "elements", "nelements", "composition", "composition_reduced", "chemsys", "symmetry", "property_name", "deprecated", "deprecation_reasons", "last_updated", "origins", "warnings", "task_ids", "uncorrected_energy_per_atom", "equilibrium_reaction_energy_per_atom", "decomposes_to", "xas", "grain_boundaries", "cbm", "vbm", "is_gap_direct", "is_metal", "es_source_calc_id", "bandstructure", "dos", "dos_energy_up", "dos_energy_down", "is_magnetic", "ordering", "total_magnetization_normalized_vol", "total_magnetization_normalized_formula_units", "num_magnetic_sites", "num_unique_magnetic_sites", "types_of_magnetic_species", "bulk_modulus", "shear_modulus", "universal_anisotropy", "homogeneous_poisson", "e_total", "e_ionic", "e_electronic", "n", "e_ij_max", "weighted_surface_energy_EV_PER_ANG2", "weighted_surface_energy", "weighted_work_function", "surface_anisotropy", "shape_factor", "has_reconstructed", "possible_species", "has_props", "theoretical", "database_IDs"]}