{"builder_meta": null, "nsites": null, "elements": null, "nelements": null, "composition": null, "composition_reduced": null, "formula_pretty": "Mg2Sb", "formula_anonymous": "AB2", "chemsys": null, "volume": 149.1472887133819, "density": 3.793646444627041, "density_atomic": 24.857881452230316, "symmetry": null, "property_name": null, "material_id": "mp-1185773", "deprecated": null, "deprecation_reasons": null, "last_updated": null, "origins": null, "warnings": null, "structure": {"@module": "pymatgen.core.structure", "@class": "Structure", "charge": 0, "lattice": {"matrix": [[-2.017576, 2.98144, 6.198681], [2.017576, -2.98144, 6.198681], [2.017577, 2.98144, -6.198681]], "pbc": [true, true, true], "a": 7.168210622542909, "b": 7.168210622542909, "c": 7.168210904004569, "alpha": 147.305078959099, "beta": 130.84480261938077, "gamma": 60.292585899020786, "volume": 149.1472887133819}, "properties": {}, "sites": [{"species": [{"element": "Mg", "occu": 1}], "abc": [0.252149, 0.0, 0.252149], "properties": {"magmom": -0.0}, "label": "Mg", "xyz": [2.521490000129134e-07, 1.50353422912, 0.0]}, {"species": [{"element": "Mg", "occu": 1}], "abc": [0.174976, 0.674976, 0.5], "properties": {"magmom": -0.0}, "label": "Mg", "xyz": [2.0175765, 0.0, 2.169240813312]}, {"species": [{"element": "Mg", "occu": 1}], "abc": [0.825024, 0.325024, 0.5], "properties": {"magmom": -0.0}, "label": "Mg", "xyz": [5.00000000069889e-07, 2.98144, 4.029440186687999]}, {"species": [{"element": "Mg", "occu": 1}], "abc": [0.747850999999999, 0.0, 0.747850999999999], "properties": {"magmom": -0.0}, "label": "Mg", "xyz": [7.478510000158423e-07, 4.459345770879994, 0.0]}, {"species": [{"element": "Sb", "occu": 1}], "abc": [0.649142, 0.649142, 0.0], "properties": {"magmom": -0.0}, "label": "Sb", "xyz": [0.0, 0.0, 8.047648363403999]}, {"species": [{"element": "Sb", "occu": 1}], "abc": [0.350858, 0.350858, 0.0], "properties": {"magmom": -0.0}, "label": "Sb", "xyz": [0.0, 0.0, 4.349713636595999]}]}, "task_ids": null, "uncorrected_energy_per_atom": null, "energy_per_atom": -2.70517907, "formation_energy_per_atom": -0.24186531333333203, "energy_above_hull": 0.11491080270833301, "is_stable": false, "equilibrium_reaction_energy_per_atom": null, "decomposes_to": null, "xas": null, "grain_boundaries": null, "band_gap": 0.0, "cbm": null, "vbm": null, "efermi": 5.01079553, "is_gap_direct": null, "is_metal": null, "es_source_calc_id": null, "bandstructure": null, "dos": null, "dos_energy_up": null, "dos_energy_down": null, "is_magnetic": null, "ordering": null, "total_magnetization": 0.0019014, "total_magnetization_normalized_vol": null, "total_magnetization_normalized_formula_units": null, "num_magnetic_sites": null, "num_unique_magnetic_sites": null, "types_of_magnetic_species": null, "bulk_modulus": null, "shear_modulus": null, "universal_anisotropy": null, "homogeneous_poisson": null, "e_total": null, "e_ionic": null, "e_electronic": null, "n": null, "e_ij_max": null, "weighted_surface_energy_EV_PER_ANG2": null, "weighted_surface_energy": null, "weighted_work_function": null, "surface_anisotropy": null, "shape_factor": null, "has_reconstructed": null, "possible_species": null, "has_props": null, "theoretical": null, "database_IDs": null, "fields_not_requested": ["builder_meta", "nsites", "elements", "nelements", "composition", "composition_reduced", "chemsys", "symmetry", "property_name", "deprecated", "deprecation_reasons", "last_updated", "origins", "warnings", "task_ids", "uncorrected_energy_per_atom", "equilibrium_reaction_energy_per_atom", "decomposes_to", "xas", "grain_boundaries", "cbm", "vbm", "is_gap_direct", "is_metal", "es_source_calc_id", "bandstructure", "dos", "dos_energy_up", "dos_energy_down", "is_magnetic", "ordering", "total_magnetization_normalized_vol", "total_magnetization_normalized_formula_units", "num_magnetic_sites", "num_unique_magnetic_sites", "types_of_magnetic_species", "bulk_modulus", "shear_modulus", "universal_anisotropy", "homogeneous_poisson", "e_total", "e_ionic", "e_electronic", "n", "e_ij_max", "weighted_surface_energy_EV_PER_ANG2", "weighted_surface_energy", "weighted_work_function", "surface_anisotropy", "shape_factor", "has_reconstructed", "possible_species", "has_props", "theoretical", "database_IDs"]}