{
  "builder_meta": null,
  "nsites": null,
  "elements": null,
  "nelements": null,
  "composition": null,
  "composition_reduced": null,
  "formula_pretty": "Mg2Sc",
  "formula_anonymous": "AB2",
  "chemsys": null,
  "volume": 139.01489356567873,
  "density": 2.235297933809545,
  "density_atomic": 23.169148927613122,
  "symmetry": null,
  "property_name": null,
  "material_id": "mp-1185774",
  "deprecated": null,
  "deprecation_reasons": null,
  "last_updated": null,
  "origins": null,
  "warnings": null,
  "structure": {
    "@module": "pymatgen.core.structure",
    "@class": "Structure",
    "charge": 0,
    "lattice": {
      "matrix": [
        [1.634840619999999, -8.23707817, 0.0],
        [1.634840619999999, 8.23707817, -0.0],
        [-0.0, -0.0, 5.16158078]
      ],
      "pbc": [true, true, true],
      "a": 8.397747354588166,
      "b": 8.397747354588166,
      "c": 5.16158078,
      "alpha": 90.0,
      "beta": 90.0,
      "gamma": 157.54839540155984,
      "volume": 139.01489356567865
    },
    "properties": {},
    "sites": [
      {
        "species": [{ "element": "Mg", "occu": 1 }],
        "abc": [0.11043775, 0.88956225, 0.25],
        "properties": { "magmom": -0.0 },
        "label": "Mg",
        "xyz": [1.634840619999999, 6.417709410662166, 1.290395195]
      },
      {
        "species": [{ "element": "Mg", "occu": 1 }],
        "abc": [0.77520813, 0.22479187, 0.25],
        "properties": { "magmom": -0.0 },
        "label": "Mg",
        "xyz": [1.634840619999999, -4.533821759659045, 1.290395195]
      },
      {
        "species": [{ "element": "Mg", "occu": 1 }],
        "abc": [0.88956225, 0.11043775, 0.75],
        "properties": { "magmom": -0.0 },
        "label": "Mg",
        "xyz": [1.634840619999999, -6.417709410662166, 3.871185585]
      },
      {
        "species": [{ "element": "Mg", "occu": 1 }],
        "abc": [0.22479187, 0.77520813, 0.75],
        "properties": { "magmom": -0.0 },
        "label": "Mg",
        "xyz": [1.634840619999999, 4.533821759659045, 3.871185585]
      },
      {
        "species": [{ "element": "Sc", "occu": 1 }],
        "abc": [0.44269195, 0.55730805, 0.25],
        "properties": { "magmom": -0.0 },
        "label": "Sc",
        "xyz": [1.634840619999999, 0.9441017752405378, 1.290395195]
      },
      {
        "species": [{ "element": "Sc", "occu": 1 }],
        "abc": [0.55730805, 0.44269195, 0.75],
        "properties": { "magmom": -0.0 },
        "label": "Sc",
        "xyz": [1.634840619999999, -0.9441017752405378, 3.871185585]
      }
    ]
  },
  "task_ids": null,
  "uncorrected_energy_per_atom": null,
  "energy_per_atom": -3.2117470066666662,
  "formation_energy_per_atom": -0.013943961666666001,
  "energy_above_hull": 0.005852034999999,
  "is_stable": false,
  "equilibrium_reaction_energy_per_atom": null,
  "decomposes_to": null,
  "xas": null,
  "grain_boundaries": null,
  "band_gap": 0.0,
  "cbm": null,
  "vbm": null,
  "efermi": 3.47950714,
  "is_gap_direct": null,
  "is_metal": null,
  "es_source_calc_id": null,
  "bandstructure": null,
  "dos": null,
  "dos_energy_up": null,
  "dos_energy_down": null,
  "is_magnetic": null,
  "ordering": null,
  "total_magnetization": 0.0007991999999990001,
  "total_magnetization_normalized_vol": null,
  "total_magnetization_normalized_formula_units": null,
  "num_magnetic_sites": null,
  "num_unique_magnetic_sites": null,
  "types_of_magnetic_species": null,
  "bulk_modulus": null,
  "shear_modulus": null,
  "universal_anisotropy": null,
  "homogeneous_poisson": null,
  "e_total": null,
  "e_ionic": null,
  "e_electronic": null,
  "n": null,
  "e_ij_max": null,
  "weighted_surface_energy_EV_PER_ANG2": null,
  "weighted_surface_energy": null,
  "weighted_work_function": null,
  "surface_anisotropy": null,
  "shape_factor": null,
  "has_reconstructed": null,
  "possible_species": null,
  "has_props": null,
  "theoretical": null,
  "database_IDs": null,
  "fields_not_requested": [
    "builder_meta",
    "nsites",
    "elements",
    "nelements",
    "composition",
    "composition_reduced",
    "chemsys",
    "symmetry",
    "property_name",
    "deprecated",
    "deprecation_reasons",
    "last_updated",
    "origins",
    "warnings",
    "task_ids",
    "uncorrected_energy_per_atom",
    "equilibrium_reaction_energy_per_atom",
    "decomposes_to",
    "xas",
    "grain_boundaries",
    "cbm",
    "vbm",
    "is_gap_direct",
    "is_metal",
    "es_source_calc_id",
    "bandstructure",
    "dos",
    "dos_energy_up",
    "dos_energy_down",
    "is_magnetic",
    "ordering",
    "total_magnetization_normalized_vol",
    "total_magnetization_normalized_formula_units",
    "num_magnetic_sites",
    "num_unique_magnetic_sites",
    "types_of_magnetic_species",
    "bulk_modulus",
    "shear_modulus",
    "universal_anisotropy",
    "homogeneous_poisson",
    "e_total",
    "e_ionic",
    "e_electronic",
    "n",
    "e_ij_max",
    "weighted_surface_energy_EV_PER_ANG2",
    "weighted_surface_energy",
    "weighted_work_function",
    "surface_anisotropy",
    "shape_factor",
    "has_reconstructed",
    "possible_species",
    "has_props",
    "theoretical",
    "database_IDs"
  ]
}
