{"builder_meta": null, "nsites": null, "elements": null, "nelements": null, "composition": null, "composition_reduced": null, "formula_pretty": "Mg2Si3", "formula_anonymous": "A2B3", "chemsys": null, "volume": 390.4450396675765, "density": 2.26029265558351, "density_atomic": 19.522251983378826, "symmetry": null, "property_name": null, "material_id": "mp-1073164", "deprecated": null, "deprecation_reasons": null, "last_updated": null, "origins": null, "warnings": null, "structure": {"@module": "pymatgen.core.structure", "@class": "Structure", "charge": 0, "lattice": {"matrix": [[3.684752999999999, 0.0, 0.0], [0.064363999999999, 5.292363, 0.0], [1.309044, 0.578036, 20.021744]], "pbc": [true, true, true], "a": 3.684752999999999, "b": 5.2927543725611335, "c": 20.072816309944354, "alpha": 88.30449142436261, "beta": 86.26081556148158, "gamma": 89.30322168885871, "volume": 390.4450396675764}, "properties": {}, "sites": [{"species": [{"element": "Mg", "occu": 1}], "abc": [0.736507999999999, 0.056365, 0.218103], "properties": {"magmom": 0.0}, "label": "Mg", "xyz": [3.0029843629159956, 0.42437542620299995, 4.366802431632]}, {"species": [{"element": "Mg", "occu": 1}], "abc": [0.440532, 0.842699, 0.785304999999999], "properties": {"magmom": -0.0}, "label": "Mg", "xyz": [2.705489885451997, 4.913803568716999, 15.723175671919982]}, {"species": [{"element": "Mg", "occu": 1}], "abc": [0.294365999999999, 0.834237, 0.075504], "properties": {"magmom": 0.0}, "label": "Mg", "xyz": [1.2371988900419952, 4.458729062174999, 1.5117217589760001]}, {"species": [{"element": "Mg", "occu": 1}], "abc": [0.905366, 0.058351999999999, 0.929346], "properties": {"magmom": -0.0}, "label": "Mg", "xyz": [4.556360657949999, 0.8460154102319947, 18.607127699424]}, {"species": [{"element": "Mg", "occu": 1}], "abc": [0.9615229999999991, 0.38251, 0.725063999999999], "properties": {"magmom": -0.0}, "label": "Mg", "xyz": [4.516735311274994, 2.4434948654339994, 14.517045791615983]}, {"species": [{"element": "Mg", "occu": 1}], "abc": [0.209873999999999, 0.552947, 0.281122], "properties": {"magmom": 0.0}, "label": "Mg", "xyz": [1.1769247991979954, 3.0888948801529996, 5.6285527167680005]}, {"species": [{"element": "Mg", "occu": 1}], "abc": [0.07413, 0.517632, 0.567058], "properties": {"magmom": -0.0}, "label": "Mg", "xyz": [1.0487714784899995, 3.0672763825039997, 11.353490109152]}, {"species": [{"element": "Mg", "occu": 1}], "abc": [0.652231999999999, 0.770289, 0.425394999999999], "properties": {"magmom": 0.0}, "label": "Mg", "xyz": [3.009753472271994, 4.3225426271269995, 8.517149788879982]}, {"species": [{"element": "Si", "occu": 1}], "abc": [0.350929, 0.320135, 0.015052], "properties": {"magmom": -0.0}, "label": "Si", "xyz": [1.3333955849649994, 1.702971226877, 0.301367290688]}, {"species": [{"element": "Si", "occu": 1}], "abc": [0.857273, 0.578581, 0.985148999999999], "properties": {"magmom": 0.0}, "label": "Si", "xyz": [4.485682433608996, 3.6315122642669997, 19.724401079855983]}, {"species": [{"element": "Si", "occu": 1}], "abc": [0.264812, 0.327171, 0.135941], "properties": {"magmom": -0.0}, "label": "Si", "xyz": [1.1747775960839992, 1.8100864869489999, 2.7217759011040004]}, {"species": [{"element": "Si", "occu": 1}], "abc": [0.920736, 0.560449, 0.862472], "properties": {"magmom": 0.0}, "label": "Si", "xyz": [4.557771274411998, 3.4646394159789997, 17.268193591168004]}, {"species": [{"element": "Si", "occu": 1}], "abc": [0.036065, 0.998290999999999, 0.638386], "properties": {"magmom": 0.0}, "label": "Si", "xyz": [1.0328199818529988, 5.652328441528995, 12.781601065184]}, {"species": [{"element": "Si", "occu": 1}], "abc": [0.194675, 0.024721, 0.329188], "properties": {"magmom": -0.0}, "label": "Si", "xyz": [1.1498420089909995, 0.321115020491, 6.590917863872]}, {"species": [{"element": "Si", "occu": 1}], "abc": [0.098462, 0.023025, 0.517413], "properties": {"magmom": 0.0}, "label": "Si", "xyz": [1.041606514158, 0.420939998943, 10.359510628272002]}, {"species": [{"element": "Si", "occu": 1}], "abc": [0.606514, 0.275989, 0.483435], "properties": {"magmom": 0.0}, "label": "Si", "xyz": [2.8854557231779987, 1.740076805667, 9.679211810640002]}, {"species": [{"element": "Si", "occu": 1}], "abc": [0.53319, 0.720202999999999, 0.657667], "properties": {"magmom": 0.0}, "label": "Si", "xyz": [2.8719436383099985, 4.191730911700995, 13.167640311248002]}, {"species": [{"element": "Si", "occu": 1}], "abc": [0.680932, 0.281531, 0.362187], "properties": {"magmom": 0.0}, "label": "Si", "xyz": [3.001305410307999, 1.699321372485, 7.251615394128001]}, {"species": [{"element": "Si", "occu": 1}], "abc": [0.7489100000000001, 0.581245, 0.170761], "properties": {"magmom": -0.0}, "label": "Si", "xyz": [3.0204932848939987, 3.174865537331, 3.4189330271840004]}, {"species": [{"element": "Si", "occu": 1}], "abc": [0.432761, 0.293608, 0.835434], "properties": {"magmom": 0.0}, "label": "Si", "xyz": [2.7071350434409993, 2.036791043328, 16.726845676896]}]}, "task_ids": null, "uncorrected_energy_per_atom": null, "energy_per_atom": -3.81604994, "formation_energy_per_atom": 0.09132888399999901, "energy_above_hull": 0.15648814199999903, "is_stable": false, "equilibrium_reaction_energy_per_atom": null, "decomposes_to": null, "xas": null, "grain_boundaries": null, "band_gap": 0.0, "cbm": null, "vbm": null, "efermi": 5.16225864, "is_gap_direct": null, "is_metal": null, "es_source_calc_id": null, "bandstructure": null, "dos": null, "dos_energy_up": null, "dos_energy_down": null, "is_magnetic": null, "ordering": null, "total_magnetization": 5.8e-05, "total_magnetization_normalized_vol": null, "total_magnetization_normalized_formula_units": null, "num_magnetic_sites": null, "num_unique_magnetic_sites": null, "types_of_magnetic_species": null, "bulk_modulus": null, "shear_modulus": null, "universal_anisotropy": null, "homogeneous_poisson": null, "e_total": null, "e_ionic": null, "e_electronic": null, "n": null, "e_ij_max": null, "weighted_surface_energy_EV_PER_ANG2": null, "weighted_surface_energy": null, "weighted_work_function": null, "surface_anisotropy": null, "shape_factor": null, "has_reconstructed": null, "possible_species": null, "has_props": null, "theoretical": null, "database_IDs": null, "fields_not_requested": ["builder_meta", "nsites", "elements", "nelements", "composition", "composition_reduced", "chemsys", "symmetry", "property_name", "deprecated", "deprecation_reasons", "last_updated", "origins", "warnings", "task_ids", "uncorrected_energy_per_atom", "equilibrium_reaction_energy_per_atom", "decomposes_to", "xas", "grain_boundaries", "cbm", "vbm", "is_gap_direct", "is_metal", "es_source_calc_id", "bandstructure", "dos", "dos_energy_up", "dos_energy_down", "is_magnetic", "ordering", "total_magnetization_normalized_vol", "total_magnetization_normalized_formula_units", "num_magnetic_sites", "num_unique_magnetic_sites", "types_of_magnetic_species", "bulk_modulus", "shear_modulus", "universal_anisotropy", "homogeneous_poisson", "e_total", "e_ionic", "e_electronic", "n", "e_ij_max", "weighted_surface_energy_EV_PER_ANG2", "weighted_surface_energy", "weighted_work_function", "surface_anisotropy", "shape_factor", "has_reconstructed", "possible_species", "has_props", "theoretical", "database_IDs"]}