{"builder_meta": null, "nsites": null, "elements": null, "nelements": null, "composition": null, "composition_reduced": null, "formula_pretty": "Mg2Zn", "formula_anonymous": "AB2", "chemsys": null, "volume": 113.8671151448295, "density": 3.325508046706014, "density_atomic": 18.97785252413825, "symmetry": null, "property_name": null, "material_id": "mp-1094422", "deprecated": null, "deprecation_reasons": null, "last_updated": null, "origins": null, "warnings": null, "structure": {"@module": "pymatgen.core.structure", "@class": "Structure", "charge": 0, "lattice": {"matrix": [[1.58998062, -7.5749117, -0.0], [1.58998062, 7.5749117, 0.0], [0.0, 0.0, 4.72714492]], "pbc": [true, true, true], "a": 7.7399822761278, "b": 7.7399822761278, "c": 4.72714492, "alpha": 90.0, "beta": 90.0, "gamma": 156.2913207156118, "volume": 113.8671151448295}, "properties": {}, "sites": [{"species": [{"element": "Mg", "occu": 1}], "abc": [0.09258324, 0.90741676, 0.25], "properties": {"magmom": 0.0}, "label": "Mg", "xyz": [1.58998062, 6.172291964200185, 1.18178623]}, {"species": [{"element": "Mg", "occu": 1}], "abc": [0.78237752, 0.21762248, 0.25], "properties": {"magmom": 0.0}, "label": "Mg", "xyz": [1.58998062, -4.277969560129968, 1.18178623]}, {"species": [{"element": "Mg", "occu": 1}], "abc": [0.21762248, 0.78237752, 0.75], "properties": {"magmom": 0.0}, "label": "Mg", "xyz": [1.58998062, 4.277969560129968, 3.5453586899999996]}, {"species": [{"element": "Mg", "occu": 1}], "abc": [0.90741676, 0.09258324, 0.75], "properties": {"magmom": 0.0}, "label": "Mg", "xyz": [1.58998062, -6.172291964200185, 3.5453586899999996]}, {"species": [{"element": "Zn", "occu": 1}], "abc": [0.44052989000000004, 0.55947011, 0.25], "properties": {"magmom": 0.0}, "label": "Zn", "xyz": [1.58998062, 0.900961664078574, 1.18178623]}, {"species": [{"element": "Zn", "occu": 1}], "abc": [0.55947011, 0.44052989000000004, 0.75], "properties": {"magmom": 0.0}, "label": "Zn", "xyz": [1.58998062, -0.900961664078574, 3.5453586899999996]}]}, "task_ids": null, "uncorrected_energy_per_atom": null, "energy_per_atom": -1.5411801933333331, "formation_energy_per_atom": -0.034285646666666, "energy_above_hull": 0.0365503432, "is_stable": false, "equilibrium_reaction_energy_per_atom": null, "decomposes_to": null, "xas": null, "grain_boundaries": null, "band_gap": 0.0, "cbm": null, "vbm": null, "efermi": 3.54001647, "is_gap_direct": null, "is_metal": null, "es_source_calc_id": null, "bandstructure": null, "dos": null, "dos_energy_up": null, "dos_energy_down": null, "is_magnetic": null, "ordering": null, "total_magnetization": 2e-07, "total_magnetization_normalized_vol": null, "total_magnetization_normalized_formula_units": null, "num_magnetic_sites": null, "num_unique_magnetic_sites": null, "types_of_magnetic_species": null, "bulk_modulus": null, "shear_modulus": null, "universal_anisotropy": null, "homogeneous_poisson": null, "e_total": null, "e_ionic": null, "e_electronic": null, "n": null, "e_ij_max": null, "weighted_surface_energy_EV_PER_ANG2": null, "weighted_surface_energy": null, "weighted_work_function": null, "surface_anisotropy": null, "shape_factor": null, "has_reconstructed": null, "possible_species": null, "has_props": null, "theoretical": null, "database_IDs": null, "fields_not_requested": ["builder_meta", "nsites", "elements", "nelements", "composition", "composition_reduced", "chemsys", "symmetry", "property_name", "deprecated", "deprecation_reasons", "last_updated", "origins", "warnings", "task_ids", "uncorrected_energy_per_atom", "equilibrium_reaction_energy_per_atom", "decomposes_to", "xas", "grain_boundaries", "cbm", "vbm", "is_gap_direct", "is_metal", "es_source_calc_id", "bandstructure", "dos", "dos_energy_up", "dos_energy_down", "is_magnetic", "ordering", "total_magnetization_normalized_vol", "total_magnetization_normalized_formula_units", "num_magnetic_sites", "num_unique_magnetic_sites", "types_of_magnetic_species", "bulk_modulus", "shear_modulus", "universal_anisotropy", "homogeneous_poisson", "e_total", "e_ionic", "e_electronic", "n", "e_ij_max", "weighted_surface_energy_EV_PER_ANG2", "weighted_surface_energy", "weighted_work_function", "surface_anisotropy", "shape_factor", "has_reconstructed", "possible_species", "has_props", "theoretical", "database_IDs"]}