{"builder_meta": null, "nsites": null, "elements": null, "nelements": null, "composition": null, "composition_reduced": null, "formula_pretty": "Mg3Au", "formula_anonymous": "AB3", "chemsys": null, "volume": 474.9472034205766, "density": 5.661457342444322, "density_atomic": 19.789466809190692, "symmetry": null, "property_name": null, "material_id": "mp-17783", "deprecated": null, "deprecation_reasons": null, "last_updated": null, "origins": null, "warnings": null, "structure": {"@module": "pymatgen.core.structure", "@class": "Structure", "charge": 0, "lattice": {"matrix": [[8.02805334, 0.0, -0.0], [-4.01402717, 6.95249804, 0.0], [0.0, -0.0, 8.50930735]], "pbc": [true, true, true], "a": 8.02805334, "b": 8.028053507401532, "c": 8.50930735, "alpha": 90.0, "beta": 90.0, "gamma": 120.00000343073648, "volume": 474.9472034205766}, "properties": {}, "sites": [{"species": [{"element": "Mg", "occu": 1}], "abc": [0.37527138, -0.0, 0.92592843], "properties": {"magmom": -0.0}, "label": "Mg", "xyz": [3.012698655615409, 0.0, 7.879009594972961]}, {"species": [{"element": "Mg", "occu": 1}], "abc": [0.37527138, 0.37527138, 0.42592843], "properties": {"magmom": -0.0}, "label": "Mg", "xyz": [1.5063491401720144, 2.609073533918095, 3.624355919972961]}, {"species": [{"element": "Mg", "occu": 1}], "abc": [0.0, 0.6247286200000001, 0.42592843], "properties": {"magmom": -0.0}, "label": "Mg", "xyz": [-2.507677654556606, 4.343424506081905, 3.624355919972961]}, {"species": [{"element": "Mg", "occu": 1}], "abc": [-0.0, 0.37527138, 0.92592843], "properties": {"magmom": -0.0}, "label": "Mg", "xyz": [-1.5063495154433946, 2.609073533918095, 7.879009594972961]}, {"species": [{"element": "Mg", "occu": 1}], "abc": [0.6247286200000001, 0.6247286200000001, 0.92592843], "properties": {"magmom": -0.0}, "label": "Mg", "xyz": [2.507677029827985, 4.343424506081905, 7.879009594972961]}, {"species": [{"element": "Mg", "occu": 1}], "abc": [0.6247286200000001, 0.0, 0.42592843], "properties": {"magmom": -0.0}, "label": "Mg", "xyz": [5.015354684384591, 0.0, 3.624355919972961]}, {"species": [{"element": "Mg", "occu": 1}], "abc": [-0.0, -0.0, 0.32445276], "properties": {"magmom": -0.0}, "label": "Mg", "xyz": [0.0, 0.0, 2.760868255395786]}, {"species": [{"element": "Mg", "occu": 1}], "abc": [-0.0, -0.0, 0.82445276], "properties": {"magmom": -0.0}, "label": "Mg", "xyz": [0.0, 0.0, 7.015521930395786]}, {"species": [{"element": "Mg", "occu": 1}], "abc": [0.333333, 0.666667, 0.20615662], "properties": {"magmom": -0.0}, "label": "Mg", "xyz": [-4.347360170520176e-06, 4.6350010108326805, 1.7542500418171572]}, {"species": [{"element": "Mg", "occu": 1}], "abc": [0.666667, 0.333333, 0.70615662], "properties": {"magmom": -0.0}, "label": "Mg", "xyz": [4.01403051736017, 2.31749702916732, 6.008903716817158]}, {"species": [{"element": "Mg", "occu": 1}], "abc": [0.333333, 0.666667, 0.70615662], "properties": {"magmom": -0.0}, "label": "Mg", "xyz": [-4.347360170520176e-06, 4.6350010108326805, 6.008903716817158]}, {"species": [{"element": "Mg", "occu": 1}], "abc": [0.666667, 0.333333, 0.20615662], "properties": {"magmom": -0.0}, "label": "Mg", "xyz": [4.01403051736017, 2.31749702916732, 1.7542500418171572]}, {"species": [{"element": "Mg", "occu": 1}], "abc": [0.72110526, -0.0, 0.08274079000000001], "properties": {"magmom": -0.0}, "label": "Mg", "xyz": [5.7890714910345675, 0.0, 0.7040668124918066]}, {"species": [{"element": "Mg", "occu": 1}], "abc": [0.72110526, 0.72110526, 0.58274079], "properties": {"magmom": -0.0}, "label": "Mg", "xyz": [2.8945353849646533, 5.013482906783691, 4.9587204874918065]}, {"species": [{"element": "Mg", "occu": 1}], "abc": [0.0, 0.27889474000000003, 0.58274079], "properties": {"magmom": -0.0}, "label": "Mg", "xyz": [-1.119491063930086, 1.93901513321631, 4.9587204874918065]}, {"species": [{"element": "Mg", "occu": 1}], "abc": [-0.0, 0.72110526, 0.08274079000000001], "properties": {"magmom": -0.0}, "label": "Mg", "xyz": [-2.894536106069914, 5.013482906783691, 0.7040668124918066]}, {"species": [{"element": "Mg", "occu": 1}], "abc": [0.27889474000000003, 0.27889474000000003, 0.08274079000000001], "properties": {"magmom": -0.0}, "label": "Mg", "xyz": [1.1194907850353457, 1.93901513321631, 0.7040668124918066]}, {"species": [{"element": "Mg", "occu": 1}], "abc": [0.27889474000000003, 0.0, 0.58274079], "properties": {"magmom": -0.0}, "label": "Mg", "xyz": [2.2389818489654316, 0.0, 4.9587204874918065]}, {"species": [{"element": "Au", "occu": 1}], "abc": [0.3285129, 0.0, 0.25367578], "properties": {"magmom": -0.0}, "label": "Au", "xyz": [2.637319084078086, 0.0, 2.158605179270983]}, {"species": [{"element": "Au", "occu": 1}], "abc": [0.3285129, 0.3285129, 0.75367578], "properties": {"magmom": -0.0}, "label": "Au", "xyz": [1.318659377782593, 2.283985293364716, 6.413258854270984]}, {"species": [{"element": "Au", "occu": 1}], "abc": [-0.0, 0.6714861, 0.75367578], "properties": {"magmom": -0.0}, "label": "Au", "xyz": [-2.695363449677337, 4.668505794137244, 6.413258854270984]}, {"species": [{"element": "Au", "occu": 1}], "abc": [0.0, 0.3285129, 0.25367578], "properties": {"magmom": -0.0}, "label": "Au", "xyz": [-1.318659706295493, 2.283985293364716, 2.158605179270983]}, {"species": [{"element": "Au", "occu": 1}], "abc": [0.6714861, 0.6714861, 0.25367578], "properties": {"magmom": -0.0}, "label": "Au", "xyz": [2.6953627781912366, 4.668505794137244, 2.158605179270983]}, {"species": [{"element": "Au", "occu": 1}], "abc": [0.6714861, -0.0, 0.75367578], "properties": {"magmom": -0.0}, "label": "Au", "xyz": [5.390726227868574, 0.0, 6.413258854270984]}]}, "task_ids": null, "uncorrected_energy_per_atom": null, "energy_per_atom": -2.4339327816666643, "formation_energy_per_atom": -0.392609770416664, "energy_above_hull": 0.0, "is_stable": true, "equilibrium_reaction_energy_per_atom": null, "decomposes_to": null, "xas": null, "grain_boundaries": null, "band_gap": 0.0, "cbm": null, "vbm": null, "efermi": 4.15064284, "is_gap_direct": null, "is_metal": null, "es_source_calc_id": null, "bandstructure": null, "dos": null, "dos_energy_up": null, "dos_energy_down": null, "is_magnetic": null, "ordering": null, "total_magnetization": 1e-07, "total_magnetization_normalized_vol": null, "total_magnetization_normalized_formula_units": null, "num_magnetic_sites": null, "num_unique_magnetic_sites": null, "types_of_magnetic_species": null, "bulk_modulus": null, "shear_modulus": null, "universal_anisotropy": null, "homogeneous_poisson": null, "e_total": null, "e_ionic": null, "e_electronic": null, "n": null, "e_ij_max": null, "weighted_surface_energy_EV_PER_ANG2": null, "weighted_surface_energy": null, "weighted_work_function": null, "surface_anisotropy": null, "shape_factor": null, "has_reconstructed": null, "possible_species": null, "has_props": null, "theoretical": null, "database_IDs": null, "fields_not_requested": ["builder_meta", "nsites", "elements", "nelements", "composition", "composition_reduced", "chemsys", "symmetry", "property_name", "deprecated", "deprecation_reasons", "last_updated", "origins", "warnings", "task_ids", "uncorrected_energy_per_atom", "equilibrium_reaction_energy_per_atom", "decomposes_to", "xas", "grain_boundaries", "cbm", "vbm", "is_gap_direct", "is_metal", "es_source_calc_id", "bandstructure", "dos", "dos_energy_up", "dos_energy_down", "is_magnetic", "ordering", "total_magnetization_normalized_vol", "total_magnetization_normalized_formula_units", "num_magnetic_sites", "num_unique_magnetic_sites", "types_of_magnetic_species", "bulk_modulus", "shear_modulus", "universal_anisotropy", "homogeneous_poisson", "e_total", "e_ionic", "e_electronic", "n", "e_ij_max", "weighted_surface_energy_EV_PER_ANG2", "weighted_surface_energy", "weighted_work_function", "surface_anisotropy", "shape_factor", "has_reconstructed", "possible_species", "has_props", "theoretical", "database_IDs"]}