{"builder_meta": null, "nsites": null, "elements": null, "nelements": null, "composition": null, "composition_reduced": null, "formula_pretty": "Mg3Ag", "formula_anonymous": "AB3", "chemsys": null, "volume": 157.95662997239478, "density": 3.8010125467658433, "density_atomic": 19.744578746549347, "symmetry": null, "property_name": null, "material_id": "mp-864952", "deprecated": null, "deprecation_reasons": null, "last_updated": null, "origins": null, "warnings": null, "structure": {"@module": "pymatgen.core.structure", "@class": "Structure", "charge": 0, "lattice": {"matrix": [[6.1117359, -5.8410000000000005e-05, 1e-08], [-3.05591903, 5.29289, 9e-08], [1e-08, 9e-08, 4.88295597]], "pbc": [true, true, true], "a": 6.111735900279113, "b": 6.111736714716705, "c": 4.882955970000001, "alpha": 89.99999830038936, "beta": 89.99999978892464, "gamma": 120.00109610925522, "volume": 157.95662997239478}, "properties": {}, "sites": [{"species": [{"element": "Mg", "occu": 1}], "abc": [0.17123731, 0.34249462, 0.24999844000000002], "properties": {"magmom": 0.0}, "label": "Mg", "xyz": [-7.860948420516939e-05, 1.8127763697803825, 1.220731407625576]}, {"species": [{"element": "Mg", "occu": 1}], "abc": [0.17125562, 0.82874463, 0.24999849000000002], "properties": {"magmom": -0.0}, "label": "Mg", "xyz": [-1.485907362496566, 4.386444184139799, 1.2207316955360583]}, {"species": [{"element": "Mg", "occu": 1}], "abc": [0.65750444, 0.82876233, 0.24999843], "properties": {"magmom": 0.0}, "label": "Mg", "xyz": [1.48586291726324, 4.386509466499218, 1.220731407422781]}, {"species": [{"element": "Mg", "occu": 1}], "abc": [0.34249479, 0.17123751, 0.749998899999999], "properties": {"magmom": 0.0}, "label": "Mg", "xyz": [1.5699497456471345, 0.9063213666831171, 3.662211625084752]}, {"species": [{"element": "Mg", "occu": 1}], "abc": [0.82874516, 0.17125516000000002, 0.74999881], "properties": {"magmom": 0.0}, "label": "Mg", "xyz": [4.5417296513935375, 0.9063863843074974, 3.662211190482812]}, {"species": [{"element": "Mg", "occu": 1}], "abc": [0.8287625, 0.65750456, 0.74999888], "properties": {"magmom": -0.0}, "label": "Mg", "xyz": [3.0558968341079615, 3.480050970060674, 3.6622115760523495]}, {"species": [{"element": "Ag", "occu": 1}], "abc": [0.6666667, 0.33333347, 0.24999759], "properties": {"magmom": -0.0}, "label": "Ag", "xyz": [3.055850711915571, 1.7642584725261363, 1.2207272612427915]}, {"species": [{"element": "Ag", "occu": 1}], "abc": [0.33333348, 0.6666657300000001, 0.74999846], "properties": {"magmom": 0.0}, "label": "Ag", "xyz": [-3.028706792521655e-05, 3.528568973150995, 3.6622095210810572]}]}, "task_ids": null, "uncorrected_energy_per_atom": null, "energy_per_atom": -2.02712416375, "formation_energy_per_atom": -0.093537232916665, "energy_above_hull": 0.021672128750000002, "is_stable": false, "equilibrium_reaction_energy_per_atom": null, "decomposes_to": null, "xas": null, "grain_boundaries": null, "band_gap": 0.0, "cbm": null, "vbm": null, "efermi": 3.8258388500000002, "is_gap_direct": null, "is_metal": null, "es_source_calc_id": null, "bandstructure": null, "dos": null, "dos_energy_up": null, "dos_energy_down": null, "is_magnetic": null, "ordering": null, "total_magnetization": 1e-07, "total_magnetization_normalized_vol": null, "total_magnetization_normalized_formula_units": null, "num_magnetic_sites": null, "num_unique_magnetic_sites": null, "types_of_magnetic_species": null, "bulk_modulus": null, "shear_modulus": null, "universal_anisotropy": null, "homogeneous_poisson": null, "e_total": null, "e_ionic": null, "e_electronic": null, "n": null, "e_ij_max": null, "weighted_surface_energy_EV_PER_ANG2": null, "weighted_surface_energy": null, "weighted_work_function": null, "surface_anisotropy": null, "shape_factor": null, "has_reconstructed": null, "possible_species": null, "has_props": null, "theoretical": null, "database_IDs": null, "fields_not_requested": ["builder_meta", "nsites", "elements", "nelements", "composition", "composition_reduced", "chemsys", "symmetry", "property_name", "deprecated", "deprecation_reasons", "last_updated", "origins", "warnings", "task_ids", "uncorrected_energy_per_atom", "equilibrium_reaction_energy_per_atom", "decomposes_to", "xas", "grain_boundaries", "cbm", "vbm", "is_gap_direct", "is_metal", "es_source_calc_id", "bandstructure", "dos", "dos_energy_up", "dos_energy_down", "is_magnetic", "ordering", "total_magnetization_normalized_vol", "total_magnetization_normalized_formula_units", "num_magnetic_sites", "num_unique_magnetic_sites", "types_of_magnetic_species", "bulk_modulus", "shear_modulus", "universal_anisotropy", "homogeneous_poisson", "e_total", "e_ionic", "e_electronic", "n", "e_ij_max", "weighted_surface_energy_EV_PER_ANG2", "weighted_surface_energy", "weighted_work_function", "surface_anisotropy", "shape_factor", "has_reconstructed", "possible_species", "has_props", "theoretical", "database_IDs"]}