{
  "builder_meta": null,
  "nsites": null,
  "elements": null,
  "nelements": null,
  "composition": null,
  "composition_reduced": null,
  "formula_pretty": "Mg3As2",
  "formula_anonymous": "A2B3",
  "chemsys": null,
  "volume": 944.6147476461049,
  "density": 3.132694630713741,
  "density_atomic": 23.61536869115262,
  "symmetry": null,
  "property_name": null,
  "material_id": "mp-1990",
  "deprecated": null,
  "deprecation_reasons": null,
  "last_updated": null,
  "origins": null,
  "warnings": null,
  "structure": {
    "@module": "pymatgen.core.structure",
    "@class": "Structure",
    "charge": 0,
    "lattice": {
      "matrix": [
        [10.09367387, 0.0, -3.56865346],
        [-5.046836929999999, 8.74137887, -3.56865346],
        [-0.0, -0.0, 10.70595736]
      ],
      "pbc": [true, true, true],
      "a": 10.70595814074998,
      "b": 10.705958857779358,
      "c": 10.70595736,
      "alpha": 109.47122351473733,
      "beta": 109.47122487145388,
      "gamma": 109.47121501405243,
      "volume": 944.6147476461049
    },
    "properties": {},
    "sites": [
      {
        "species": [{ "element": "Mg", "occu": 1 }],
        "abc": [0.023583299999999002, 0.49303225, 0.75886456],
        "properties": { "magmom": -0.0 },
        "label": "Mg",
        "xyz": [-2.250211228002631, 4.309781692378557, 6.280749751377861]
      },
      {
        "species": [{ "element": "Mg", "occu": 1 }],
        "abc": [0.23416769, 0.26471974, 0.74113544],
        "properties": { "magmom": -0.0 },
        "label": "Mg",
        "xyz": [1.0276149338192628, 2.3140155417078936, 6.154208065404831]
      },
      {
        "species": [{ "element": "Mg", "occu": 1 }],
        "abc": [0.26583231, 0.00696775, 0.030550050000000002],
        "properties": { "magmom": -0.0 },
        "label": "Mg",
        "xyz": [2.6480595432297322, 0.0609077426214425, -0.6464613453613397]
      },
      {
        "species": [{ "element": "Mg", "occu": 1 }],
        "abc": [0.23528026, 0.46944995, 0.476416699999999],
        "properties": { "magmom": -0.0 },
        "label": "Mg",
        "xyz": [0.0056048680421532104, 4.103639873452557, 2.585558973508874]
      },
      {
        "species": [{ "element": "Mg", "occu": 1 }],
        "abc": [0.46944995, 0.476416699999999, 0.23528026],
        "properties": { "magmom": -0.0 },
        "label": "Mg",
        "xyz": [2.334077297959081, 4.16453887469512, -0.8565698620113928]
      },
      {
        "species": [{ "element": "Mg", "occu": 1 }],
        "abc": [0.75886456, 0.023583299999999002, 0.49303225],
        "properties": { "magmom": -0.0 },
        "label": "Mg",
        "xyz": [7.540710310769783, 0.20615056030486228, 2.486096982746268]
      },
      {
        "species": [{ "element": "Mg", "occu": 1 }],
        "abc": [0.26471974, 0.74113544, 0.23416769],
        "properties": { "magmom": -0.0 },
        "label": "Mg",
        "xyz": [-1.0683949862126045, 6.478545675024153, -1.0825592641362247]
      },
      {
        "species": [{ "element": "Mg", "occu": 1 }],
        "abc": [0.030550050000000002, 0.26583231, 0.00696775],
        "properties": { "magmom": -0.0 },
        "label": "Mg",
        "xyz": [-1.0332500778830145, 2.32374093759729, -0.9830895001018258]
      },
      {
        "species": [{ "element": "Mg", "occu": 1 }],
        "abc": [0.49303225, 0.75886456, 0.023583299999999002],
        "properties": { "magmom": -0.0 },
        "label": "Mg",
        "xyz": [1.1466410526161082, 6.633522629975848, -4.215104078361385]
      },
      {
        "species": [{ "element": "Mg", "occu": 1 }],
        "abc": [0.74113544, 0.23416769, 0.26471974],
        "properties": { "magmom": -0.0 },
        "label": "Mg",
        "xyz": [6.298973279154161, 2.0469484974027106, -0.6464406406330441]
      },
      {
        "species": [{ "element": "Mg", "occu": 1 }],
        "abc": [0.00696775, 0.030550050000000002, 0.26583231],
        "properties": { "magmom": -0.0 },
        "label": "Mg",
        "xyz": [-0.08385092444565395, 0.2670495615474435, 2.7121013489887136]
      },
      {
        "species": [{ "element": "Mg", "occu": 1 }],
        "abc": [0.476416699999999, 0.23528026, 0.46944995],
        "properties": { "magmom": -0.0 },
        "label": "Mg",
        "xyz": [3.6213736909536176, 2.056673893292106, 2.4861113285786534]
      },
      {
        "species": [{ "element": "Mg", "occu": 1 }],
        "abc": [0.976416699999999, 0.50696775, 0.24113544],
        "properties": { "magmom": -0.0 },
        "label": "Mg",
        "xyz": [7.297048168002612, 4.431597177621443, -2.7120993113778553]
      },
      {
        "species": [{ "element": "Mg", "occu": 1 }],
        "abc": [0.76583231, 0.73528026, 0.25886456],
        "properties": { "magmom": -0.0 },
        "label": "Mg",
        "xyz": [4.019222006180739, 6.427363328292106, -2.5855576254048316]
      },
      {
        "species": [{ "element": "Mg", "occu": 1 }],
        "abc": [0.73416769, 0.9930322500000001, 0.96944995],
        "properties": { "magmom": -0.0 },
        "label": "Mg",
        "xyz": [2.398777396770269, 8.680471127378558, 4.215111785361338]
      },
      {
        "species": [{ "element": "Mg", "occu": 1 }],
        "abc": [0.76471974, 0.53055005, 0.5235833],
        "properties": { "magmom": -0.0 },
        "label": "Mg",
        "xyz": [5.0412320719578485, 4.637738996547443, 0.9830914664911141]
      },
      {
        "species": [{ "element": "Mg", "occu": 1 }],
        "abc": [0.5235833, 0.76471974, 0.53055005],
        "properties": { "magmom": -0.0 },
        "label": "Mg",
        "xyz": [1.425463249046374, 6.684704976707894, 1.0825391114213492]
      },
      {
        "species": [{ "element": "Mg", "occu": 1 }],
        "abc": [0.9930322500000001, 0.96944995, 0.73416769],
        "properties": { "magmom": -0.0 },
        "label": "Mg",
        "xyz": [5.1306878644456555, 8.474329308452557, 0.856549091011285]
      },
      {
        "species": [{ "element": "Mg", "occu": 1 }],
        "abc": [0.25886456, 0.76583231, 0.73528026],
        "properties": { "magmom": -0.0 },
        "label": "Mg",
        "xyz": [-1.2521363391541596, 6.69443037259729, 4.215091080633043]
      },
      {
        "species": [{ "element": "Mg", "occu": 1 }],
        "abc": [0.50696775, 0.24113544, 0.976416699999999],
        "properties": { "magmom": -0.0 },
        "label": "Mg",
        "xyz": [3.900195887383894, 2.107856240024153, 7.783754518361363]
      },
      {
        "species": [{ "element": "Mg", "occu": 1 }],
        "abc": [0.96944995, 0.73416769, 0.9930322500000001],
        "properties": { "magmom": -0.0 },
        "label": "Mg",
        "xyz": [6.080087017883015, 6.417637932402711, 4.551739940101825]
      },
      {
        "species": [{ "element": "Mg", "occu": 1 }],
        "abc": [0.73528026, 0.25886456, 0.76583231],
        "properties": { "magmom": -0.0 },
        "label": "Mg",
        "xyz": [6.115231926212606, 2.2628331949758476, 4.651209704136224]
      },
      {
        "species": [{ "element": "Mg", "occu": 1 }],
        "abc": [0.24113544, 0.976416699999999, 0.50696775],
        "properties": { "magmom": -0.0 },
        "label": "Mg",
        "xyz": [-2.4938733707697716, 8.535228309695121, 1.0825534572537396]
      },
      {
        "species": [{ "element": "Mg", "occu": 1 }],
        "abc": [0.53055005, 0.5235833, 0.76471974],
        "properties": { "magmom": -0.0 },
        "label": "Mg",
        "xyz": [2.712759642040925, 4.576839995304871, 4.425220302011395]
      },
      {
        "species": [{ "element": "As", "occu": 1 }],
        "abc": [0.25, 0.72798969, 0.47798969],
        "properties": { "magmom": 0.0 },
        "label": "As",
        "xyz": [-1.150626784651251, 6.363633693743851, 1.6272309485967908]
      },
      {
        "species": [{ "element": "As", "occu": 1 }],
        "abc": [0.02201031, 0.75, 0.77201031],
        "properties": { "magmom": 0.0 },
        "label": "As",
        "xyz": [-3.5629628065823997, 6.5560341525000005, 5.510072196403209]
      },
      {
        "species": [{ "element": "As", "occu": 1 }],
        "abc": [0.77201031, 0.02201031, 0.75],
        "properties": { "magmom": 0.0 },
        "label": "As",
        "xyz": [7.681337848068851, 0.19240045875614972, 5.195883587125654]
      },
      {
        "species": [{ "element": "As", "occu": 1 }],
        "abc": [0.47798969, 0.25, 0.72798969],
        "properties": { "magmom": 0.0 },
        "label": "As",
        "xyz": [3.562962811582401, 2.1853447175, 5.195883653596791]
      },
      {
        "species": [{ "element": "As", "occu": 1 }],
        "abc": [0.72798969, 0.47798969, 0.25],
        "properties": { "magmom": 0.0 },
        "label": "As",
        "xyz": [4.935754491931149, 4.17828897624385, -1.6272331471256551]
      },
      {
        "species": [{ "element": "As", "occu": 1 }],
        "abc": [0.75, 0.77201031, 0.02201031],
        "properties": { "magmom": 0.0 },
        "label": "As",
        "xyz": [3.674045259651253, 6.748434611256149, -5.195885918596791]
      },
      {
        "species": [{ "element": "As", "occu": 1 }],
        "abc": [0.75, 0.27201031000000003, 0.52201031],
        "properties": { "magmom": 0.0 },
        "label": "As",
        "xyz": [6.197463724651252, 2.37774517625615, 1.9414194914032081]
      },
      {
        "species": [{ "element": "As", "occu": 1 }],
        "abc": [0.97798969, 0.25, 0.22798969],
        "properties": { "magmom": 0.0 },
        "label": "As",
        "xyz": [8.609799746582402, 2.1853447175, -1.94142175640321]
      },
      {
        "species": [{ "element": "As", "occu": 1 }],
        "abc": [0.22798969, 0.97798969, 0.25],
        "properties": { "magmom": 0.0 },
        "label": "As",
        "xyz": [-2.634500908068851, 8.548978411243851, -1.6272331471256551]
      },
      {
        "species": [{ "element": "As", "occu": 1 }],
        "abc": [0.52201031, 0.75, 0.27201031000000003],
        "properties": { "magmom": 0.0 },
        "label": "As",
        "xyz": [1.4838741284176002, 6.5560341525000005, -1.6272332135967904]
      },
      {
        "species": [{ "element": "As", "occu": 1 }],
        "abc": [0.27201031000000003, 0.52201031, 0.75],
        "properties": { "magmom": 0.0 },
        "label": "As",
        "xyz": [0.11108244806885237, 4.56308989375615, 5.195883587125654]
      },
      {
        "species": [{ "element": "As", "occu": 1 }],
        "abc": [0.25, 0.22798969, 0.97798969],
        "properties": { "magmom": 0.0 },
        "label": "As",
        "xyz": [1.3727916803487485, 1.9929442587438504, 8.76453635859679]
      },
      {
        "species": [{ "element": "As", "occu": 1 }],
        "abc": [0.0, 0.5, -0.0],
        "properties": { "magmom": -0.0 },
        "label": "As",
        "xyz": [-2.5234184649999993, 4.370689435, -1.78432673]
      },
      {
        "species": [{ "element": "As", "occu": 1 }],
        "abc": [0.5, 0.0, -0.0],
        "properties": { "magmom": -0.0 },
        "label": "As",
        "xyz": [5.046836935, 0.0, -1.78432673]
      },
      {
        "species": [{ "element": "As", "occu": 1 }],
        "abc": [0.0, 0.0, 0.5],
        "properties": { "magmom": -0.0 },
        "label": "As",
        "xyz": [0.0, 0.0, 5.35297868]
      },
      {
        "species": [{ "element": "As", "occu": 1 }],
        "abc": [0.5, 0.5, 0.5],
        "properties": { "magmom": -0.0 },
        "label": "As",
        "xyz": [2.5234184700000006, 4.370689435, 1.7843252199999995]
      }
    ]
  },
  "task_ids": null,
  "uncorrected_energy_per_atom": null,
  "energy_per_atom": -9.17214968525,
  "formation_energy_per_atom": -0.78755513925,
  "energy_above_hull": 0.0,
  "is_stable": true,
  "equilibrium_reaction_energy_per_atom": null,
  "decomposes_to": null,
  "xas": null,
  "grain_boundaries": null,
  "band_gap": 1.6654,
  "cbm": null,
  "vbm": null,
  "efermi": 2.42281242,
  "is_gap_direct": null,
  "is_metal": null,
  "es_source_calc_id": null,
  "bandstructure": null,
  "dos": null,
  "dos_energy_up": null,
  "dos_energy_down": null,
  "is_magnetic": null,
  "ordering": null,
  "total_magnetization": 0.0,
  "total_magnetization_normalized_vol": null,
  "total_magnetization_normalized_formula_units": null,
  "num_magnetic_sites": null,
  "num_unique_magnetic_sites": null,
  "types_of_magnetic_species": null,
  "bulk_modulus": null,
  "shear_modulus": null,
  "universal_anisotropy": null,
  "homogeneous_poisson": null,
  "e_total": null,
  "e_ionic": null,
  "e_electronic": null,
  "n": null,
  "e_ij_max": null,
  "weighted_surface_energy_EV_PER_ANG2": null,
  "weighted_surface_energy": null,
  "weighted_work_function": null,
  "surface_anisotropy": null,
  "shape_factor": null,
  "has_reconstructed": null,
  "possible_species": null,
  "has_props": null,
  "theoretical": null,
  "database_IDs": null,
  "fields_not_requested": [
    "builder_meta",
    "nsites",
    "elements",
    "nelements",
    "composition",
    "composition_reduced",
    "chemsys",
    "symmetry",
    "property_name",
    "deprecated",
    "deprecation_reasons",
    "last_updated",
    "origins",
    "warnings",
    "task_ids",
    "uncorrected_energy_per_atom",
    "equilibrium_reaction_energy_per_atom",
    "decomposes_to",
    "xas",
    "grain_boundaries",
    "cbm",
    "vbm",
    "is_gap_direct",
    "is_metal",
    "es_source_calc_id",
    "bandstructure",
    "dos",
    "dos_energy_up",
    "dos_energy_down",
    "is_magnetic",
    "ordering",
    "total_magnetization_normalized_vol",
    "total_magnetization_normalized_formula_units",
    "num_magnetic_sites",
    "num_unique_magnetic_sites",
    "types_of_magnetic_species",
    "bulk_modulus",
    "shear_modulus",
    "universal_anisotropy",
    "homogeneous_poisson",
    "e_total",
    "e_ionic",
    "e_electronic",
    "n",
    "e_ij_max",
    "weighted_surface_energy_EV_PER_ANG2",
    "weighted_surface_energy",
    "weighted_work_function",
    "surface_anisotropy",
    "shape_factor",
    "has_reconstructed",
    "possible_species",
    "has_props",
    "theoretical",
    "database_IDs"
  ]
}
