{"builder_meta": null, "nsites": null, "elements": null, "nelements": null, "composition": null, "composition_reduced": null, "formula_pretty": "Mg3Cd", "formula_anonymous": "AB3", "chemsys": null, "volume": 170.0525846242741, "density": 3.619363548477147, "density_atomic": 21.25657307803426, "symmetry": null, "property_name": null, "material_id": "mp-30490", "deprecated": null, "deprecation_reasons": null, "last_updated": null, "origins": null, "warnings": null, "structure": {"@module": "pymatgen.core.structure", "@class": "Structure", "charge": 0, "lattice": {"matrix": [[6.30025307, -4.08e-06, 0.0], [-3.1501311100000002, 5.45618646, -0.0], [0.0, -0.0, 4.94693497]], "pbc": [true, true, true], "a": 6.300253070001322, "b": 6.300261637144696, "c": 4.94693497, "alpha": 90.0, "beta": 90.0, "gamma": 120.00004016464894, "volume": 170.0525846242741}, "properties": {}, "sites": [{"species": [{"element": "Mg", "occu": 1}], "abc": [0.16752753, 0.33505306, 0.75], "properties": {"magmom": 0.0}, "label": "Mg", "xyz": [4.76738532051435e-06, 1.8281112858412452, 3.7102012275]}, {"species": [{"element": "Mg", "occu": 1}], "abc": [0.83247247, 0.16752753, 0.25], "properties": {"magmom": 0.0}, "label": "Mg", "xyz": [4.7170535507735245, 0.9140580443755663, 1.2367337425]}, {"species": [{"element": "Mg", "occu": 1}], "abc": [0.83247247, 0.66494694, 0.25], "properties": {"magmom": 0.0}, "label": "Mg", "xyz": [3.15011719261468, 3.6280710941587544, 1.2367337425]}, {"species": [{"element": "Mg", "occu": 1}], "abc": [0.16752753, 0.83247247, 0.75], "properties": {"magmom": 0.0}, "label": "Mg", "xyz": [-1.5669315907735246, 4.542124335624433, 3.7102012275]}, {"species": [{"element": "Mg", "occu": 1}], "abc": [0.66494694, 0.83247247, 0.75], "properties": {"magmom": 0.0}, "label": "Mg", "xyz": [1.5669365741565637, 4.5421223061532405, 3.7102012275]}, {"species": [{"element": "Mg", "occu": 1}], "abc": [0.33505306, 0.16752753, 0.25], "properties": {"magmom": 0.0}, "label": "Mg", "xyz": [1.5831853858434357, 0.914060073846759, 1.2367337425]}, {"species": [{"element": "Cd", "occu": 1}], "abc": [0.666666, 0.333333, 0.75], "properties": {"magmom": 0.0}, "label": "Cd", "xyz": [3.1501218598749903, 1.8187242812738997, 3.7102012275]}, {"species": [{"element": "Cd", "occu": 1}], "abc": [0.333333999999999, 0.666667, 0.25], "properties": {"magmom": 0.0}, "label": "Cd", "xyz": [1.0012500339939834e-07, 3.6374580987260994, 1.2367337425]}]}, "task_ids": null, "uncorrected_energy_per_atom": null, "energy_per_atom": -1.513723257499999, "formation_energy_per_atom": -0.050868198749999004, "energy_above_hull": 0.0, "is_stable": true, "equilibrium_reaction_energy_per_atom": null, "decomposes_to": null, "xas": null, "grain_boundaries": null, "band_gap": 0.0, "cbm": null, "vbm": null, "efermi": 3.40127761, "is_gap_direct": null, "is_metal": null, "es_source_calc_id": null, "bandstructure": null, "dos": null, "dos_energy_up": null, "dos_energy_down": null, "is_magnetic": null, "ordering": null, "total_magnetization": 0.0, "total_magnetization_normalized_vol": null, "total_magnetization_normalized_formula_units": null, "num_magnetic_sites": null, "num_unique_magnetic_sites": null, "types_of_magnetic_species": null, "bulk_modulus": null, "shear_modulus": null, "universal_anisotropy": null, "homogeneous_poisson": null, "e_total": null, "e_ionic": null, "e_electronic": null, "n": null, "e_ij_max": null, "weighted_surface_energy_EV_PER_ANG2": null, "weighted_surface_energy": null, "weighted_work_function": null, "surface_anisotropy": null, "shape_factor": null, "has_reconstructed": null, "possible_species": null, "has_props": null, "theoretical": null, "database_IDs": null, "fields_not_requested": ["builder_meta", "nsites", "elements", "nelements", "composition", "composition_reduced", "chemsys", "symmetry", "property_name", "deprecated", "deprecation_reasons", "last_updated", "origins", "warnings", "task_ids", "uncorrected_energy_per_atom", "equilibrium_reaction_energy_per_atom", "decomposes_to", "xas", "grain_boundaries", "cbm", "vbm", "is_gap_direct", "is_metal", "es_source_calc_id", "bandstructure", "dos", "dos_energy_up", "dos_energy_down", "is_magnetic", "ordering", "total_magnetization_normalized_vol", "total_magnetization_normalized_formula_units", "num_magnetic_sites", "num_unique_magnetic_sites", "types_of_magnetic_species", "bulk_modulus", "shear_modulus", "universal_anisotropy", "homogeneous_poisson", "e_total", "e_ionic", "e_electronic", "n", "e_ij_max", "weighted_surface_energy_EV_PER_ANG2", "weighted_surface_energy", "weighted_work_function", "surface_anisotropy", "shape_factor", "has_reconstructed", "possible_species", "has_props", "theoretical", "database_IDs"]}