{"builder_meta": null, "nsites": null, "elements": null, "nelements": null, "composition": null, "composition_reduced": null, "formula_pretty": "Mg3C", "formula_anonymous": "AB3", "chemsys": null, "volume": 160.55436332434985, "density": 1.7566939906013, "density_atomic": 20.06929541554373, "symmetry": null, "property_name": null, "material_id": "mp-1185780", "deprecated": null, "deprecation_reasons": null, "last_updated": null, "origins": null, "warnings": null, "structure": {"@module": "pymatgen.core.structure", "@class": "Structure", "charge": 0, "lattice": {"matrix": [[3.874722, -6.711215, 0.0], [3.874722, 6.711215, 0.0], [0.0, 0.0, 3.087098]], "pbc": [true, true, true], "a": 7.749443680259184, "b": 7.749443680259184, "c": 3.087098, "alpha": 90.0, "beta": 90.0, "gamma": 119.99999727027084, "volume": 160.55436332434985}, "properties": {}, "sites": [{"species": [{"element": "Mg", "occu": 1}], "abc": [0.210621, 0.421242, 0.25], "properties": {"magmom": 0.0}, "label": "Mg", "xyz": [2.448293467086, 1.413522814515, 0.7717745]}, {"species": [{"element": "Mg", "occu": 1}], "abc": [0.578758, 0.789378999999999, 0.25], "properties": {"magmom": 0.0}, "label": "Mg", "xyz": [5.301150532913996, 1.413522814514994, 0.7717745]}, {"species": [{"element": "Mg", "occu": 1}], "abc": [0.210621, 0.789378999999999, 0.25], "properties": {"magmom": -0.001}, "label": "Mg", "xyz": [3.8747219999999962, 3.8841693709699943, 0.7717745]}, {"species": [{"element": "Mg", "occu": 1}], "abc": [0.789378999999999, 0.210621, 0.75], "properties": {"magmom": -0.001}, "label": "Mg", "xyz": [3.8747219999999962, -3.8841693709699943, 2.3153235]}, {"species": [{"element": "Mg", "occu": 1}], "abc": [0.421242, 0.210621, 0.75], "properties": {"magmom": 0.0}, "label": "Mg", "xyz": [2.448293467086, -1.413522814515, 2.3153235]}, {"species": [{"element": "Mg", "occu": 1}], "abc": [0.789378999999999, 0.578758, 0.75], "properties": {"magmom": 0.0}, "label": "Mg", "xyz": [5.301150532913996, -1.413522814514994, 2.3153235]}, {"species": [{"element": "C", "occu": 1}], "abc": [0.666667, 0.333333, 0.25], "properties": {"magmom": -0.0}, "label": "C", "xyz": [3.874722, -2.2370761408100006, 0.7717745]}, {"species": [{"element": "C", "occu": 1}], "abc": [0.333333, 0.666667, 0.75], "properties": {"magmom": -0.0}, "label": "C", "xyz": [3.874722, 2.2370761408100006, 2.3153235]}]}, "task_ids": null, "uncorrected_energy_per_atom": null, "energy_per_atom": -2.9253501, "formation_energy_per_atom": 0.604668784374999, "energy_above_hull": 0.604668784374999, "is_stable": false, "equilibrium_reaction_energy_per_atom": null, "decomposes_to": null, "xas": null, "grain_boundaries": null, "band_gap": 0.0, "cbm": null, "vbm": null, "efermi": 3.0191672, "is_gap_direct": null, "is_metal": null, "es_source_calc_id": null, "bandstructure": null, "dos": null, "dos_energy_up": null, "dos_energy_down": null, "is_magnetic": null, "ordering": null, "total_magnetization": 0.0013337, "total_magnetization_normalized_vol": null, "total_magnetization_normalized_formula_units": null, "num_magnetic_sites": null, "num_unique_magnetic_sites": null, "types_of_magnetic_species": null, "bulk_modulus": null, "shear_modulus": null, "universal_anisotropy": null, "homogeneous_poisson": null, "e_total": null, "e_ionic": null, "e_electronic": null, "n": null, "e_ij_max": null, "weighted_surface_energy_EV_PER_ANG2": null, "weighted_surface_energy": null, "weighted_work_function": null, "surface_anisotropy": null, "shape_factor": null, "has_reconstructed": null, "possible_species": null, "has_props": null, "theoretical": null, "database_IDs": null, "fields_not_requested": ["builder_meta", "nsites", "elements", "nelements", "composition", "composition_reduced", "chemsys", "symmetry", "property_name", "deprecated", "deprecation_reasons", "last_updated", "origins", "warnings", "task_ids", "uncorrected_energy_per_atom", "equilibrium_reaction_energy_per_atom", "decomposes_to", "xas", "grain_boundaries", "cbm", "vbm", "is_gap_direct", "is_metal", "es_source_calc_id", "bandstructure", "dos", "dos_energy_up", "dos_energy_down", "is_magnetic", "ordering", "total_magnetization_normalized_vol", "total_magnetization_normalized_formula_units", "num_magnetic_sites", "num_unique_magnetic_sites", "types_of_magnetic_species", "bulk_modulus", "shear_modulus", "universal_anisotropy", "homogeneous_poisson", "e_total", "e_ionic", "e_electronic", "n", "e_ij_max", "weighted_surface_energy_EV_PER_ANG2", "weighted_surface_energy", "weighted_work_function", "surface_anisotropy", "shape_factor", "has_reconstructed", "possible_species", "has_props", "theoretical", "database_IDs"]}