{
  "builder_meta": null,
  "nsites": null,
  "elements": null,
  "nelements": null,
  "composition": null,
  "composition_reduced": null,
  "formula_pretty": "Mg3Fe",
  "formula_anonymous": "AB3",
  "chemsys": null,
  "volume": 147.51042072101052,
  "density": 2.898927535700018,
  "density_atomic": 18.438802590126315,
  "symmetry": null,
  "property_name": null,
  "material_id": "mp-1185789",
  "deprecated": null,
  "deprecation_reasons": null,
  "last_updated": null,
  "origins": null,
  "warnings": null,
  "structure": {
    "@module": "pymatgen.core.structure",
    "@class": "Structure",
    "charge": 0,
    "lattice": {
      "matrix": [
        [2.964842, -5.135257, 0.0],
        [2.964842, 5.135257, 0.0],
        [0.0, 0.0, 4.844277]
      ],
      "pbc": [true, true, true],
      "a": 5.929684016961866,
      "b": 5.929684016961866,
      "c": 4.844277,
      "alpha": 90.0,
      "beta": 90.0,
      "gamma": 120.0000001892492,
      "volume": 147.51042072101052
    },
    "properties": {},
    "sites": [
      {
        "species": [{ "element": "Mg", "occu": 1 }],
        "abc": [0.173015, 0.346029, 0.25],
        "properties": { "magmom": -0.025 },
        "label": "Mg",
        "xyz": [1.538883451048, 0.888471354598, 1.21106925]
      },
      {
        "species": [{ "element": "Mg", "occu": 1 }],
        "abc": [0.653971, 0.826985, 0.25],
        "properties": { "magmom": -0.025 },
        "label": "Mg",
        "xyz": [4.390800548952, 0.8884713545980003, 1.21106925]
      },
      {
        "species": [{ "element": "Mg", "occu": 1 }],
        "abc": [0.173015, 0.826985, 0.25],
        "properties": { "magmom": -0.025 },
        "label": "Mg",
        "xyz": [2.9648419999999995, 3.3583040202900003, 1.21106925]
      },
      {
        "species": [{ "element": "Mg", "occu": 1 }],
        "abc": [0.826985, 0.173015, 0.75],
        "properties": { "magmom": -0.025 },
        "label": "Mg",
        "xyz": [2.9648419999999995, -3.3583040202900003, 3.63320775]
      },
      {
        "species": [{ "element": "Mg", "occu": 1 }],
        "abc": [0.346029, 0.173015, 0.75],
        "properties": { "magmom": -0.025 },
        "label": "Mg",
        "xyz": [1.538883451048, -0.888471354598, 3.63320775]
      },
      {
        "species": [{ "element": "Mg", "occu": 1 }],
        "abc": [0.826985, 0.653971, 0.75],
        "properties": { "magmom": -0.025 },
        "label": "Mg",
        "xyz": [4.390800548952, -0.8884713545980003, 3.63320775]
      },
      {
        "species": [{ "element": "Fe", "occu": 1 }],
        "abc": [0.666667, 0.333333, 0.25],
        "properties": { "magmom": 2.431 },
        "label": "Fe",
        "xyz": [2.964842, -1.7117557568380002, 1.21106925]
      },
      {
        "species": [{ "element": "Fe", "occu": 1 }],
        "abc": [0.333333, 0.666667, 0.75],
        "properties": { "magmom": 2.425 },
        "label": "Fe",
        "xyz": [2.964842, 1.7117557568380002, 3.63320775]
      }
    ]
  },
  "task_ids": null,
  "uncorrected_energy_per_atom": null,
  "energy_per_atom": -3.098130275,
  "formation_energy_per_atom": 0.24222753875000003,
  "energy_above_hull": 0.24222753875000003,
  "is_stable": false,
  "equilibrium_reaction_energy_per_atom": null,
  "decomposes_to": null,
  "xas": null,
  "grain_boundaries": null,
  "band_gap": 0.0,
  "cbm": null,
  "vbm": null,
  "efermi": 3.94774693,
  "is_gap_direct": null,
  "is_metal": null,
  "es_source_calc_id": null,
  "bandstructure": null,
  "dos": null,
  "dos_energy_up": null,
  "dos_energy_down": null,
  "is_magnetic": null,
  "ordering": null,
  "total_magnetization": 4.3008138,
  "total_magnetization_normalized_vol": null,
  "total_magnetization_normalized_formula_units": null,
  "num_magnetic_sites": null,
  "num_unique_magnetic_sites": null,
  "types_of_magnetic_species": null,
  "bulk_modulus": null,
  "shear_modulus": null,
  "universal_anisotropy": null,
  "homogeneous_poisson": null,
  "e_total": null,
  "e_ionic": null,
  "e_electronic": null,
  "n": null,
  "e_ij_max": null,
  "weighted_surface_energy_EV_PER_ANG2": null,
  "weighted_surface_energy": null,
  "weighted_work_function": null,
  "surface_anisotropy": null,
  "shape_factor": null,
  "has_reconstructed": null,
  "possible_species": null,
  "has_props": null,
  "theoretical": null,
  "database_IDs": null,
  "fields_not_requested": [
    "builder_meta",
    "nsites",
    "elements",
    "nelements",
    "composition",
    "composition_reduced",
    "chemsys",
    "symmetry",
    "property_name",
    "deprecated",
    "deprecation_reasons",
    "last_updated",
    "origins",
    "warnings",
    "task_ids",
    "uncorrected_energy_per_atom",
    "equilibrium_reaction_energy_per_atom",
    "decomposes_to",
    "xas",
    "grain_boundaries",
    "cbm",
    "vbm",
    "is_gap_direct",
    "is_metal",
    "es_source_calc_id",
    "bandstructure",
    "dos",
    "dos_energy_up",
    "dos_energy_down",
    "is_magnetic",
    "ordering",
    "total_magnetization_normalized_vol",
    "total_magnetization_normalized_formula_units",
    "num_magnetic_sites",
    "num_unique_magnetic_sites",
    "types_of_magnetic_species",
    "bulk_modulus",
    "shear_modulus",
    "universal_anisotropy",
    "homogeneous_poisson",
    "e_total",
    "e_ionic",
    "e_electronic",
    "n",
    "e_ij_max",
    "weighted_surface_energy_EV_PER_ANG2",
    "weighted_surface_energy",
    "weighted_work_function",
    "surface_anisotropy",
    "shape_factor",
    "has_reconstructed",
    "possible_species",
    "has_props",
    "theoretical",
    "database_IDs"
  ]
}
