{
  "builder_meta": null,
  "nsites": null,
  "elements": null,
  "nelements": null,
  "composition": null,
  "composition_reduced": null,
  "formula_pretty": "Mg3Ge",
  "formula_anonymous": "AB3",
  "chemsys": null,
  "volume": 178.02950381667048,
  "density": 2.715277621487484,
  "density_atomic": 22.25368797708381,
  "symmetry": null,
  "property_name": null,
  "material_id": "mp-642855",
  "deprecated": null,
  "deprecation_reasons": null,
  "last_updated": null,
  "origins": null,
  "warnings": null,
  "structure": {
    "@module": "pymatgen.core.structure",
    "@class": "Structure",
    "charge": 0,
    "lattice": {
      "matrix": [
        [3.476328, -6.021177, 0.0],
        [3.476328, 6.021177, 0.0],
        [0.0, 0.0, 4.252652]
      ],
      "pbc": [true, true, true],
      "a": 6.952656242682576,
      "b": 6.952656242682576,
      "c": 4.252652,
      "alpha": 90.0,
      "beta": 90.0,
      "gamma": 120.00000230929724,
      "volume": 178.02950381667048
    },
    "properties": {},
    "sites": [
      {
        "species": [{ "element": "Mg", "occu": 1 }],
        "abc": [0.627486, 0.712554999999999, 0.75],
        "properties": { "magmom": -0.0 },
        "label": "Mg",
        "xyz": [4.658422049447997, 0.512215506212994, 3.189489]
      },
      {
        "species": [{ "element": "Mg", "occu": 1 }],
        "abc": [0.287445, 0.91493, 0.75],
        "properties": { "magmom": 0.0 },
        "label": "Mg",
        "xyz": [4.179849879000001, 3.7781982498450004, 3.189489]
      },
      {
        "species": [{ "element": "Mg", "occu": 1 }],
        "abc": [0.08507, 0.372513999999999, 0.75],
        "properties": { "magmom": -0.0 },
        "label": "Mg",
        "xyz": [1.5907120715519967, 1.730751201587994, 3.189489]
      },
      {
        "species": [{ "element": "Mg", "occu": 1 }],
        "abc": [0.372513999999999, 0.287445, 0.25],
        "properties": { "magmom": -0.0 },
        "label": "Mg",
        "xyz": [2.294233950551997, -0.512215506212994, 1.063163]
      },
      {
        "species": [{ "element": "Mg", "occu": 1 }],
        "abc": [0.712554999999999, 0.08507, 0.25],
        "properties": { "magmom": 0.0 },
        "label": "Mg",
        "xyz": [2.772806120999997, -3.7781982498449938, 1.063163]
      },
      {
        "species": [{ "element": "Mg", "occu": 1 }],
        "abc": [0.91493, 0.627486, 0.25],
        "properties": { "magmom": -0.0 },
        "label": "Mg",
        "xyz": [5.361943928448, -1.7307512015880007, 1.063163]
      },
      {
        "species": [{ "element": "Ge", "occu": 1 }],
        "abc": [0.666667, 0.333333, 0.75],
        "properties": { "magmom": 0.0 },
        "label": "Ge",
        "xyz": [3.476328, -2.0070630141179997, 3.189489]
      },
      {
        "species": [{ "element": "Ge", "occu": 1 }],
        "abc": [0.333333, 0.666667, 0.25],
        "properties": { "magmom": 0.0 },
        "label": "Ge",
        "xyz": [3.476328, 2.0070630141179997, 1.063163]
      }
    ]
  },
  "task_ids": null,
  "uncorrected_energy_per_atom": null,
  "energy_per_atom": -6.7110260775000015,
  "formation_energy_per_atom": -0.11605399375000101,
  "energy_above_hull": 0.141868551249999,
  "is_stable": false,
  "equilibrium_reaction_energy_per_atom": null,
  "decomposes_to": null,
  "xas": null,
  "grain_boundaries": null,
  "band_gap": 0.0,
  "cbm": null,
  "vbm": null,
  "efermi": 3.63765056,
  "is_gap_direct": null,
  "is_metal": null,
  "es_source_calc_id": null,
  "bandstructure": null,
  "dos": null,
  "dos_energy_up": null,
  "dos_energy_down": null,
  "is_magnetic": null,
  "ordering": null,
  "total_magnetization": 0.0027253,
  "total_magnetization_normalized_vol": null,
  "total_magnetization_normalized_formula_units": null,
  "num_magnetic_sites": null,
  "num_unique_magnetic_sites": null,
  "types_of_magnetic_species": null,
  "bulk_modulus": null,
  "shear_modulus": null,
  "universal_anisotropy": null,
  "homogeneous_poisson": null,
  "e_total": null,
  "e_ionic": null,
  "e_electronic": null,
  "n": null,
  "e_ij_max": null,
  "weighted_surface_energy_EV_PER_ANG2": null,
  "weighted_surface_energy": null,
  "weighted_work_function": null,
  "surface_anisotropy": null,
  "shape_factor": null,
  "has_reconstructed": null,
  "possible_species": null,
  "has_props": null,
  "theoretical": null,
  "database_IDs": null,
  "fields_not_requested": [
    "builder_meta",
    "nsites",
    "elements",
    "nelements",
    "composition",
    "composition_reduced",
    "chemsys",
    "symmetry",
    "property_name",
    "deprecated",
    "deprecation_reasons",
    "last_updated",
    "origins",
    "warnings",
    "task_ids",
    "uncorrected_energy_per_atom",
    "equilibrium_reaction_energy_per_atom",
    "decomposes_to",
    "xas",
    "grain_boundaries",
    "cbm",
    "vbm",
    "is_gap_direct",
    "is_metal",
    "es_source_calc_id",
    "bandstructure",
    "dos",
    "dos_energy_up",
    "dos_energy_down",
    "is_magnetic",
    "ordering",
    "total_magnetization_normalized_vol",
    "total_magnetization_normalized_formula_units",
    "num_magnetic_sites",
    "num_unique_magnetic_sites",
    "types_of_magnetic_species",
    "bulk_modulus",
    "shear_modulus",
    "universal_anisotropy",
    "homogeneous_poisson",
    "e_total",
    "e_ionic",
    "e_electronic",
    "n",
    "e_ij_max",
    "weighted_surface_energy_EV_PER_ANG2",
    "weighted_surface_energy",
    "weighted_work_function",
    "surface_anisotropy",
    "shape_factor",
    "has_reconstructed",
    "possible_species",
    "has_props",
    "theoretical",
    "database_IDs"
  ]
}
