{"builder_meta": null, "nsites": null, "elements": null, "nelements": null, "composition": null, "composition_reduced": null, "formula_pretty": "Mg3Hg", "formula_anonymous": "AB3", "chemsys": null, "volume": 164.59216934411586, "density": 5.5186797673332855, "density_atomic": 20.574021168014482, "symmetry": null, "property_name": null, "material_id": "mp-1185784", "deprecated": null, "deprecation_reasons": null, "last_updated": null, "origins": null, "warnings": null, "structure": {"@module": "pymatgen.core.structure", "@class": "Structure", "charge": 0, "lattice": {"matrix": [[3.12446691, -5.41173515, -0.0], [3.12446691, 5.41173515, 0.0], [-0.0, 0.0, 4.86706011]], "pbc": [true, true, true], "a": 6.248933573453192, "b": 6.248933573453192, "c": 4.86706011, "alpha": 90.0, "beta": 90.0, "gamma": 119.99999738972971, "volume": 164.59216934411586}, "properties": {}, "sites": [{"species": [{"element": "Mg", "occu": 1}], "abc": [0.16822974000000002, 0.33645849, 0.25], "properties": {"magmom": 0.0}, "label": "Mg", "xyz": [1.5768816745014695, 0.9104094396155624, 1.2167650275]}, {"species": [{"element": "Mg", "occu": 1}], "abc": [0.16822974000000002, 0.83177026, 0.25], "properties": {"magmom": 0.0}, "label": "Mg", "xyz": [3.12446691, 3.5909055555332774, 1.2167650275]}, {"species": [{"element": "Mg", "occu": 1}], "abc": [0.6635415100000001, 0.83177026, 0.25], "properties": {"magmom": 0.0}, "label": "Mg", "xyz": [4.672052145498531, 0.9104094396155618, 1.2167650275]}, {"species": [{"element": "Mg", "occu": 1}], "abc": [0.33645849, 0.16822974000000002, 0.75], "properties": {"magmom": 0.0}, "label": "Mg", "xyz": [1.5768816745014695, -0.9104094396155624, 3.6502950824999996]}, {"species": [{"element": "Mg", "occu": 1}], "abc": [0.83177026, 0.16822974000000002, 0.75], "properties": {"magmom": 0.0}, "label": "Mg", "xyz": [3.12446691, -3.5909055555332774, 3.6502950824999996]}, {"species": [{"element": "Mg", "occu": 1}], "abc": [0.83177026, 0.6635415100000001, 0.75], "properties": {"magmom": 0.0}, "label": "Mg", "xyz": [4.672052145498531, -0.9104094396155618, 3.6502950824999996]}, {"species": [{"element": "Hg", "occu": 1}], "abc": [0.666667, 0.333333, 0.25], "properties": {"magmom": -0.0}, "label": "Hg", "xyz": [3.1244669100000007, -1.8039153244901003, 1.2167650275]}, {"species": [{"element": "Hg", "occu": 1}], "abc": [0.333333, 0.666667, 0.75], "properties": {"magmom": -0.0}, "label": "Hg", "xyz": [3.1244669100000007, 1.8039153244901003, 3.6502950824999996]}]}, "task_ids": null, "uncorrected_energy_per_atom": null, "energy_per_atom": -1.43229797375, "formation_energy_per_atom": -0.132027453125001, "energy_above_hull": 0.0, "is_stable": true, "equilibrium_reaction_energy_per_atom": null, "decomposes_to": null, "xas": null, "grain_boundaries": null, "band_gap": 0.0, "cbm": null, "vbm": null, "efermi": 3.81807418, "is_gap_direct": null, "is_metal": null, "es_source_calc_id": null, "bandstructure": null, "dos": null, "dos_energy_up": null, "dos_energy_down": null, "is_magnetic": null, "ordering": null, "total_magnetization": 1e-07, "total_magnetization_normalized_vol": null, "total_magnetization_normalized_formula_units": null, "num_magnetic_sites": null, "num_unique_magnetic_sites": null, "types_of_magnetic_species": null, "bulk_modulus": null, "shear_modulus": null, "universal_anisotropy": null, "homogeneous_poisson": null, "e_total": null, "e_ionic": null, "e_electronic": null, "n": null, "e_ij_max": null, "weighted_surface_energy_EV_PER_ANG2": null, "weighted_surface_energy": null, "weighted_work_function": null, "surface_anisotropy": null, "shape_factor": null, "has_reconstructed": null, "possible_species": null, "has_props": null, "theoretical": null, "database_IDs": null, "fields_not_requested": ["builder_meta", "nsites", "elements", "nelements", "composition", "composition_reduced", "chemsys", "symmetry", "property_name", "deprecated", "deprecation_reasons", "last_updated", "origins", "warnings", "task_ids", "uncorrected_energy_per_atom", "equilibrium_reaction_energy_per_atom", "decomposes_to", "xas", "grain_boundaries", "cbm", "vbm", "is_gap_direct", "is_metal", "es_source_calc_id", "bandstructure", "dos", "dos_energy_up", "dos_energy_down", "is_magnetic", "ordering", "total_magnetization_normalized_vol", "total_magnetization_normalized_formula_units", "num_magnetic_sites", "num_unique_magnetic_sites", "types_of_magnetic_species", "bulk_modulus", "shear_modulus", "universal_anisotropy", "homogeneous_poisson", "e_total", "e_ionic", "e_electronic", "n", "e_ij_max", "weighted_surface_energy_EV_PER_ANG2", "weighted_surface_energy", "weighted_work_function", "surface_anisotropy", "shape_factor", "has_reconstructed", "possible_species", "has_props", "theoretical", "database_IDs"]}