{
  "builder_meta": null,
  "nsites": null,
  "elements": null,
  "nelements": null,
  "composition": null,
  "composition_reduced": null,
  "formula_pretty": "Mg3Ir",
  "formula_anonymous": "AB3",
  "chemsys": null,
  "volume": 436.99642116487087,
  "density": 6.044837291329051,
  "density_atomic": 18.20818421520295,
  "symmetry": null,
  "property_name": null,
  "material_id": "mp-568419",
  "deprecated": null,
  "deprecation_reasons": null,
  "last_updated": null,
  "origins": null,
  "warnings": null,
  "structure": {
    "@module": "pymatgen.core.structure",
    "@class": "Structure",
    "charge": 0,
    "lattice": {
      "matrix": [
        [7.85811571, -1.1050000000000001e-5, -0.0],
        [-3.92906789, 6.80532227, -0.0],
        [-0.0, -0.0, 8.17167559]
      ],
      "pbc": [true, true, true],
      "a": 7.858115710007769,
      "b": 7.858115911768355,
      "c": 8.17167559,
      "alpha": 90.0,
      "beta": 90.0,
      "gamma": 120.00016420659658,
      "volume": 436.99642116487087
    },
    "properties": {},
    "sites": [
      {
        "species": [{ "element": "Mg", "occu": 1 }],
        "abc": [0.36952843, 0.0, 0.91129247],
        "properties": { "magmom": -0.0 },
        "label": "Mg",
        "xyz": [2.9037971610746354, -4.083289151500001e-6, 7.446786432449807]
      },
      {
        "species": [{ "element": "Mg", "occu": 1 }],
        "abc": [0.333333, 0.666666, 0.6996122300000001],
        "properties": { "magmom": 0.0 },
        "label": "Mg",
        "xyz": [-6.68999330999398e-6, 4.536873293122169, 5.717004182356466]
      },
      {
        "species": [{ "element": "Mg", "occu": 1 }],
        "abc": [-0.0, -0.0, 0.80659437],
        "properties": { "magmom": -0.0 },
        "label": "Mg",
        "xyz": [0.0, 0.0, 6.591227524360428]
      },
      {
        "species": [{ "element": "Mg", "occu": 1 }],
        "abc": [0.0, 0.36952843, 0.91129247],
        "properties": { "magmom": -0.0 },
        "label": "Mg",
        "xyz": [-1.4519022887551127, 2.514760054077136, 7.446786432449807]
      },
      {
        "species": [{ "element": "Mg", "occu": 1 }],
        "abc": [0.666667, 0.333333999999999, 0.19961223],
        "properties": { "magmom": 0.0 },
        "label": "Mg",
        "xyz": [3.9290545099933136, 2.268437926877823, 1.6311663873564657]
      },
      {
        "species": [{ "element": "Mg", "occu": 1 }],
        "abc": [0.71094479, -0.0, 0.07089024000000001],
        "properties": { "magmom": 0.0 },
        "label": "Mg",
        "xyz": [5.586686423241651, -7.855939929500001e-6, 0.5792920437772416]
      },
      {
        "species": [{ "element": "Mg", "occu": 1 }],
        "abc": [0.63047157, 0.63047157, 0.91129347],
        "properties": { "magmom": -0.0 },
        "label": "Mg",
        "xyz": [2.4771529476804774, 4.290555249212015, 7.446794604125397]
      },
      {
        "species": [{ "element": "Mg", "occu": 1 }],
        "abc": [0.333333999999999, 0.666667, 0.19961223],
        "properties": { "magmom": 0.0 },
        "label": "Mg",
        "xyz": [-2.7609454975596748e-6, 4.5368800984333895, 1.6311663873564657]
      },
      {
        "species": [{ "element": "Mg", "occu": 1 }],
        "abc": [0.36952843, 0.36952843, 0.41129347],
        "properties": { "magmom": -0.0 },
        "label": "Mg",
        "xyz": [1.4518948723195226, 2.5147559707879843, 3.360956809125397]
      },
      {
        "species": [{ "element": "Mg", "occu": 1 }],
        "abc": [0.28905521, 0.0, 0.57089024],
        "properties": { "magmom": 0.0 },
        "label": "Mg",
        "xyz": [2.271429286758349, -3.1940600705000004e-6, 4.665129838777241]
      },
      {
        "species": [{ "element": "Mg", "occu": 1 }],
        "abc": [0.63047157, -0.0, 0.41129247],
        "properties": { "magmom": -0.0 },
        "label": "Mg",
        "xyz": [4.9543185489253645, -6.9667108485e-6, 3.360948637449807]
      },
      {
        "species": [{ "element": "Mg", "occu": 1 }],
        "abc": [0.28905521, 0.28905521, 0.07089024000000001],
        "properties": { "magmom": 0.0 },
        "label": "Mg",
        "xyz": [1.1357117427101422, 1.9671106638124563, 0.5792920437772416]
      },
      {
        "species": [{ "element": "Mg", "occu": 1 }],
        "abc": [-0.0, 0.71094479, 0.07089024000000001],
        "properties": { "magmom": 0.0 },
        "label": "Mg",
        "xyz": [-2.7933503459517928, 4.838208412127473, 0.5792920437772416]
      },
      {
        "species": [{ "element": "Mg", "occu": 1 }],
        "abc": [0.0, 0.28905521, 0.57089024],
        "properties": { "magmom": 0.0 },
        "label": "Mg",
        "xyz": [-1.1357175440482068, 1.9671138578725267, 4.665129838777241]
      },
      {
        "species": [{ "element": "Mg", "occu": 1 }],
        "abc": [0.71094479, 0.71094479, 0.57089024],
        "properties": { "magmom": 0.0 },
        "label": "Mg",
        "xyz": [2.793336077289858, 4.838200556187544, 4.665129838777241]
      },
      {
        "species": [{ "element": "Mg", "occu": 1 }],
        "abc": [-0.0, 0.63047157, 0.41129247],
        "properties": { "magmom": -0.0 },
        "label": "Mg",
        "xyz": [-2.477165601244887, 4.290562215922863, 3.360948637449807]
      },
      {
        "species": [{ "element": "Mg", "occu": 1 }],
        "abc": [-0.0, -0.0, 0.30659437],
        "properties": { "magmom": -0.0 },
        "label": "Mg",
        "xyz": [0.0, 0.0, 2.505389729360428]
      },
      {
        "species": [{ "element": "Mg", "occu": 1 }],
        "abc": [0.666666, 0.333333, 0.6996122300000001],
        "properties": { "magmom": 0.0 },
        "label": "Mg",
        "xyz": [3.9290505809454896, 2.2684311215666098, 5.717004182356466]
      },
      {
        "species": [{ "element": "Ir", "occu": 1 }],
        "abc": [0.32855242, 0.32855242, 0.74017636],
        "properties": { "magmom": -0.0 },
        "label": "Ir",
        "xyz": [1.2908981695567245, 2.2359014701841526, 6.048481093307052]
      },
      {
        "species": [{ "element": "Ir", "occu": 1 }],
        "abc": [0.67144858, 0.67144858, 0.24017636],
        "properties": { "magmom": -0.0 },
        "label": "Ir",
        "xyz": [2.638153579491096, 4.569416555127067, 1.9626432983070523]
      },
      {
        "species": [{ "element": "Ir", "occu": 1 }],
        "abc": [0.32855142, -0.0, 0.24017636],
        "properties": { "magmom": -0.0 },
        "label": "Ir",
        "xyz": [2.581795075044808, -3.630493191e-6, 1.9626432983070523]
      },
      {
        "species": [{ "element": "Ir", "occu": 1 }],
        "abc": [0.67144858, 0.0, 0.74017636],
        "properties": { "magmom": -0.0 },
        "label": "Ir",
        "xyz": [5.276320634955192, -7.419506809e-6, 6.048481093307052]
      },
      {
        "species": [{ "element": "Ir", "occu": 1 }],
        "abc": [0.0, 0.67144858, 0.74017636],
        "properties": { "magmom": -0.0 },
        "label": "Ir",
        "xyz": [-2.6381670554640957, 4.569423974633876, 6.048481093307052]
      },
      {
        "species": [{ "element": "Ir", "occu": 1 }],
        "abc": [-0.0, 0.32855142, 0.24017636],
        "properties": { "magmom": -0.0 },
        "label": "Ir",
        "xyz": [-1.2909008345359037, 2.2358982953661233, 1.9626432983070523]
      }
    ]
  },
  "task_ids": null,
  "uncorrected_energy_per_atom": null,
  "energy_per_atom": -3.753877054583332,
  "formation_energy_per_atom": -0.321415998333331,
  "energy_above_hull": 0.0,
  "is_stable": true,
  "equilibrium_reaction_energy_per_atom": null,
  "decomposes_to": null,
  "xas": null,
  "grain_boundaries": null,
  "band_gap": 0.0,
  "cbm": null,
  "vbm": null,
  "efermi": 4.686015,
  "is_gap_direct": null,
  "is_metal": null,
  "es_source_calc_id": null,
  "bandstructure": null,
  "dos": null,
  "dos_energy_up": null,
  "dos_energy_down": null,
  "is_magnetic": null,
  "ordering": null,
  "total_magnetization": 2e-7,
  "total_magnetization_normalized_vol": null,
  "total_magnetization_normalized_formula_units": null,
  "num_magnetic_sites": null,
  "num_unique_magnetic_sites": null,
  "types_of_magnetic_species": null,
  "bulk_modulus": null,
  "shear_modulus": null,
  "universal_anisotropy": null,
  "homogeneous_poisson": null,
  "e_total": null,
  "e_ionic": null,
  "e_electronic": null,
  "n": null,
  "e_ij_max": null,
  "weighted_surface_energy_EV_PER_ANG2": null,
  "weighted_surface_energy": null,
  "weighted_work_function": null,
  "surface_anisotropy": null,
  "shape_factor": null,
  "has_reconstructed": null,
  "possible_species": null,
  "has_props": null,
  "theoretical": null,
  "database_IDs": null,
  "fields_not_requested": [
    "builder_meta",
    "nsites",
    "elements",
    "nelements",
    "composition",
    "composition_reduced",
    "chemsys",
    "symmetry",
    "property_name",
    "deprecated",
    "deprecation_reasons",
    "last_updated",
    "origins",
    "warnings",
    "task_ids",
    "uncorrected_energy_per_atom",
    "equilibrium_reaction_energy_per_atom",
    "decomposes_to",
    "xas",
    "grain_boundaries",
    "cbm",
    "vbm",
    "is_gap_direct",
    "is_metal",
    "es_source_calc_id",
    "bandstructure",
    "dos",
    "dos_energy_up",
    "dos_energy_down",
    "is_magnetic",
    "ordering",
    "total_magnetization_normalized_vol",
    "total_magnetization_normalized_formula_units",
    "num_magnetic_sites",
    "num_unique_magnetic_sites",
    "types_of_magnetic_species",
    "bulk_modulus",
    "shear_modulus",
    "universal_anisotropy",
    "homogeneous_poisson",
    "e_total",
    "e_ionic",
    "e_electronic",
    "n",
    "e_ij_max",
    "weighted_surface_energy_EV_PER_ANG2",
    "weighted_surface_energy",
    "weighted_work_function",
    "surface_anisotropy",
    "shape_factor",
    "has_reconstructed",
    "possible_species",
    "has_props",
    "theoretical",
    "database_IDs"
  ]
}
