{
  "builder_meta": null,
  "nsites": null,
  "elements": null,
  "nelements": null,
  "composition": null,
  "composition_reduced": null,
  "formula_pretty": "Mg3In",
  "formula_anonymous": "AB3",
  "chemsys": null,
  "volume": 354.11485362019425,
  "density": 3.521320581760992,
  "density_atomic": 22.13217835126214,
  "symmetry": null,
  "property_name": null,
  "material_id": "mp-697180",
  "deprecated": null,
  "deprecation_reasons": null,
  "last_updated": null,
  "origins": null,
  "warnings": null,
  "structure": {
    "@module": "pymatgen.core.structure",
    "@class": "Structure",
    "charge": 0,
    "lattice": {
      "matrix": [
        [3.14195074, 1.81400587, 10.35511279],
        [-3.14195074, 1.81400587, 10.35511279],
        [0.0, -3.62801174, 10.35511279]
      ],
      "pbc": [true, true, true],
      "a": 10.972275636466785,
      "b": 10.972275636466785,
      "c": 10.972275519654044,
      "alpha": 33.27955158204351,
      "beta": 33.27955158204351,
      "gamma": 33.2795547346408,
      "volume": 354.11485362019425
    },
    "properties": {},
    "sites": [
      {
        "species": [{ "element": "Mg", "occu": 1 }],
        "abc": [0.00128238, 0.49935039999999903, 0.49935039999999903],
        "properties": { "magmom": 0.0 },
        "label": "Mg",
        "xyz": [-1.5649051840093318, -0.9034983119392755, 10.354938617002851]
      },
      {
        "species": [{ "element": "Mg", "occu": 1 }],
        "abc": [0.49935039999999903, 0.49935039999999903, 0.00128238],
        "properties": { "magmom": 0.0 },
        "label": "Mg",
        "xyz": [0.0, 1.806996623878551, 10.354938617002851]
      },
      {
        "species": [{ "element": "Mg", "occu": 1 }],
        "abc": [0.49935039999999903, 0.00128238, 0.49935039999999903],
        "properties": { "magmom": 0.0 },
        "label": "Mg",
        "xyz": [1.5649051840093318, -0.9034983119392755, 10.354938617002851]
      },
      {
        "species": [{ "element": "Mg", "occu": 1 }],
        "abc": [0.41687735000000004, 0.9166080600000001, 0.9166080600000001],
        "properties": { "magmom": -0.0 },
        "label": "Mg",
        "xyz": [-1.5701292740852253, -0.9065144413592678, 23.299971669892482]
      },
      {
        "species": [{ "element": "Mg", "occu": 1 }],
        "abc": [0.9166080600000001, 0.9166080600000001, 0.41687735000000004],
        "properties": { "magmom": -0.0 },
        "label": "Mg",
        "xyz": [0.0, 1.8130288827185357, 23.299971669892482]
      },
      {
        "species": [{ "element": "Mg", "occu": 1 }],
        "abc": [0.9166080600000001, 0.41687735000000004, 0.9166080600000001],
        "properties": { "magmom": -0.0 },
        "label": "Mg",
        "xyz": [1.5701292740852253, -0.9065144413592678, 23.299971669892482]
      },
      {
        "species": [{ "element": "Mg", "occu": 1 }],
        "abc": [0.83312265, 0.33339094, 0.33339094],
        "properties": { "magmom": -0.0 },
        "label": "Mg",
        "xyz": [1.5701324160359653, 0.9065162553651374, 15.53168058238194]
      },
      {
        "species": [{ "element": "Mg", "occu": 1 }],
        "abc": [0.33339094, 0.33339094, 0.83312265],
        "properties": { "magmom": -0.0 },
        "label": "Mg",
        "xyz": [0.0, -1.8130325107302752, 15.531680582381938]
      },
      {
        "species": [{ "element": "Mg", "occu": 1 }],
        "abc": [0.33339094, 0.83312265, 0.33339094],
        "properties": { "magmom": -0.0 },
        "label": "Mg",
        "xyz": [-1.5701324160359653, 0.9065162553651374, 15.53168058238194]
      },
      {
        "species": [{ "element": "Mg", "occu": 1 }],
        "abc": [0.24871762, 0.750649599999999, 0.750649599999999],
        "properties": { "magmom": 0.0 },
        "label": "Mg",
        "xyz": [-1.577045555990662, -0.9105075580607207, 18.121621555497107]
      },
      {
        "species": [{ "element": "Mg", "occu": 1 }],
        "abc": [0.750649599999999, 0.750649599999999, 0.24871762],
        "properties": { "magmom": 0.0 },
        "label": "Mg",
        "xyz": [0.0, 1.8210151161214416, 18.121621555497107]
      },
      {
        "species": [{ "element": "Mg", "occu": 1 }],
        "abc": [0.750649599999999, 0.24871762, 0.750649599999999],
        "properties": { "magmom": 0.0 },
        "label": "Mg",
        "xyz": [1.577045555990662, -0.9105075580607207, 18.121621555497107]
      },
      {
        "species": [{ "element": "In", "occu": 1 }],
        "abc": [0.99971619, 0.99971619, 0.99971619],
        "properties": { "magmom": -0.0 },
        "label": "In",
        "xyz": [0.0, 0.0, 31.05652171631721]
      },
      {
        "species": [{ "element": "In", "occu": 1 }],
        "abc": [0.25028381, 0.25028381, 0.25028381],
        "properties": { "magmom": -0.0 },
        "label": "In",
        "xyz": [0.0, 0.0, 7.775151246182789]
      },
      {
        "species": [{ "element": "In", "occu": 1 }],
        "abc": [0.41576953, 0.41576953, 0.41576953],
        "properties": { "magmom": 0.0 },
        "label": "In",
        "xyz": [0.0, 0.0, 12.916021133385865]
      },
      {
        "species": [{ "element": "In", "occu": 1 }],
        "abc": [0.8342304700000001, 0.8342304700000001, 0.8342304700000001],
        "properties": { "magmom": 0.0 },
        "label": "In",
        "xyz": [0.0, 0.0, 25.915651829114136]
      }
    ]
  },
  "task_ids": null,
  "uncorrected_energy_per_atom": null,
  "energy_per_atom": -1.986869387499998,
  "formation_energy_per_atom": -0.07422344041666401,
  "energy_above_hull": 0.0,
  "is_stable": true,
  "equilibrium_reaction_energy_per_atom": null,
  "decomposes_to": null,
  "xas": null,
  "grain_boundaries": null,
  "band_gap": 0.0,
  "cbm": null,
  "vbm": null,
  "efermi": 4.88236252,
  "is_gap_direct": null,
  "is_metal": null,
  "es_source_calc_id": null,
  "bandstructure": null,
  "dos": null,
  "dos_energy_up": null,
  "dos_energy_down": null,
  "is_magnetic": null,
  "ordering": null,
  "total_magnetization": 1e-7,
  "total_magnetization_normalized_vol": null,
  "total_magnetization_normalized_formula_units": null,
  "num_magnetic_sites": null,
  "num_unique_magnetic_sites": null,
  "types_of_magnetic_species": null,
  "bulk_modulus": null,
  "shear_modulus": null,
  "universal_anisotropy": null,
  "homogeneous_poisson": null,
  "e_total": null,
  "e_ionic": null,
  "e_electronic": null,
  "n": null,
  "e_ij_max": null,
  "weighted_surface_energy_EV_PER_ANG2": null,
  "weighted_surface_energy": null,
  "weighted_work_function": null,
  "surface_anisotropy": null,
  "shape_factor": null,
  "has_reconstructed": null,
  "possible_species": null,
  "has_props": null,
  "theoretical": null,
  "database_IDs": null,
  "fields_not_requested": [
    "builder_meta",
    "nsites",
    "elements",
    "nelements",
    "composition",
    "composition_reduced",
    "chemsys",
    "symmetry",
    "property_name",
    "deprecated",
    "deprecation_reasons",
    "last_updated",
    "origins",
    "warnings",
    "task_ids",
    "uncorrected_energy_per_atom",
    "equilibrium_reaction_energy_per_atom",
    "decomposes_to",
    "xas",
    "grain_boundaries",
    "cbm",
    "vbm",
    "is_gap_direct",
    "is_metal",
    "es_source_calc_id",
    "bandstructure",
    "dos",
    "dos_energy_up",
    "dos_energy_down",
    "is_magnetic",
    "ordering",
    "total_magnetization_normalized_vol",
    "total_magnetization_normalized_formula_units",
    "num_magnetic_sites",
    "num_unique_magnetic_sites",
    "types_of_magnetic_species",
    "bulk_modulus",
    "shear_modulus",
    "universal_anisotropy",
    "homogeneous_poisson",
    "e_total",
    "e_ionic",
    "e_electronic",
    "n",
    "e_ij_max",
    "weighted_surface_energy_EV_PER_ANG2",
    "weighted_surface_energy",
    "weighted_work_function",
    "surface_anisotropy",
    "shape_factor",
    "has_reconstructed",
    "possible_species",
    "has_props",
    "theoretical",
    "database_IDs"
  ]
}
