{"builder_meta": null, "nsites": null, "elements": null, "nelements": null, "composition": null, "composition_reduced": null, "formula_pretty": "Mg3N2", "formula_anonymous": "A2B3", "chemsys": null, "volume": 489.827010464277, "density": 2.73722024386655, "density_atomic": 12.245675261606925, "symmetry": null, "property_name": null, "material_id": "mp-1559", "deprecated": null, "deprecation_reasons": null, "last_updated": null, "origins": null, "warnings": null, "structure": {"@module": "pymatgen.core.structure", "@class": "Structure", "charge": 0, "lattice": {"matrix": [[8.10913653, 0.00012681000000000001, -2.86693109], [-4.0544498, 7.02278605, -2.86693165], [7.613e-05, 0.00013288000000000002, 8.6010068]], "pbc": [true, true, true], "a": 8.601010937853166, "b": 8.601010648206778, "c": 8.60100680136338, "alpha": 109.47019958518658, "beta": 109.47020082578157, "gamma": 109.47021189874263, "volume": 489.827010464277}, "properties": {}, "sites": [{"species": [{"element": "Mg", "occu": 1}], "abc": [0.04121857, 0.26976211, 0.00638495], "properties": {"magmom": -0.0}, "label": "Mg", "xyz": [-0.7594894351494724, 1.8944876582855832, -0.836643332580463]}, {"species": [{"element": "Mg", "occu": 1}], "abc": [0.27145701, 0.73662275, 0.230231699999999], "properties": {"magmom": -0.0}, "label": "Mg", "xyz": [-0.7853004777580537, 5.173208989464371, -0.9098712003769265]}, {"species": [{"element": "Mg", "occu": 1}], "abc": [0.76338423, 0.03483653, 0.49362374000000003], "properties": {"magmom": 0.0}, "label": "Mg", "xyz": [6.049181563403054, 0.24481189439118395, 1.9572172113455473]}, {"species": [{"element": "Mg", "occu": 1}], "abc": [0.45878146000000003, 0.46517024, 0.22855145000000002], "properties": {"magmom": 0.0}, "label": "Mg", "xyz": [1.8343295096606704, 3.2668796203407706, -0.6831335392838274]}, {"species": [{"element": "Mg", "occu": 1}], "abc": [0.22855038, 0.45878179, 0.4651707], "properties": {"magmom": 0.0}, "label": "Mg", "xyz": [-0.006726087860369698, 3.222017149162333, 2.030402129612793]}, {"species": [{"element": "Mg", "occu": 1}], "abc": [0.26976149, 0.00638603, 0.04121592], "properties": {"magmom": 0.0}, "label": "Mg", "xyz": [2.1616440526579255, 0.044887407624878, -0.43719750590231743]}, {"species": [{"element": "Mg", "occu": 1}], "abc": [0.23022743, 0.27145458, 0.73661859], "properties": {"magmom": 0.0}, "label": "Mg", "xyz": [0.7664027740041909, 1.9064945146512464, 4.897373597819157]}, {"species": [{"element": "Mg", "occu": 1}], "abc": [0.03483888, 0.49362356, 0.7633895900000001], "properties": {"magmom": 0.0}, "label": "Mg", "xyz": [-1.718800592795515, 3.46671850824643, 5.050853379076759]}, {"species": [{"element": "Mg", "occu": 1}], "abc": [0.49362321000000003, 0.76338659, 0.03483515], "properties": {"magmom": -0.0}, "label": "Mg", "xyz": [0.9077480491186495, 5.361167920263062, -3.3041435415221527]}, {"species": [{"element": "Mg", "occu": 1}], "abc": [0.73662026, 0.23022836, 0.27145275], "properties": {"magmom": 0.0}, "label": "Mg", "xyz": [5.039925596645628, 1.6169739963789684, -0.43712154830077754]}, {"species": [{"element": "Mg", "occu": 1}], "abc": [0.00638512, 0.04121891, 0.2697633], "properties": {"magmom": 0.0}, "label": "Mg", "xyz": [-0.1153216544852554, 0.28950824198857666, 2.183758480991558]}, {"species": [{"element": "Mg", "occu": 1}], "abc": [0.46517238, 0.22854859, 0.458783599999999], "properties": {"magmom": -0.0}, "label": "Mg", "xyz": [2.8455424815847272, 1.605167801273445, 1.9571505186633038]}, {"species": [{"element": "Mg", "occu": 1}], "abc": [0.96516345, 0.506377899999999, 0.23661304], "properties": {"magmom": -0.0}, "label": "Mg", "xyz": [5.773576427787149, 3.556337485666138, -2.183697564098521]}, {"species": [{"element": "Mg", "occu": 1}], "abc": [0.76976784, 0.7285457, 0.26337854], "properties": {"magmom": 0.0}, "label": "Mg", "xyz": [3.2883205943155853, 5.116553190747671, -2.0302414648654783]}, {"species": [{"element": "Mg", "occu": 1}], "abc": [0.73024045, 0.99361466, 0.95878328], "properties": {"magmom": -0.0}, "label": "Mg", "xyz": [1.8931317414356776, 6.978163178237203, 3.3043271450677247]}, {"species": [{"element": "Mg", "occu": 1}], "abc": [0.77144921, 0.54121332, 0.53482647], "properties": {"magmom": -0.0}, "label": "Mg", "xyz": [4.061505449158466, 3.8009942489858393, 0.8367327842754801]}, {"species": [{"element": "Mg", "occu": 1}], "abc": [0.54121763, 0.53482705, 0.7714487], "properties": {"magmom": 0.0}, "label": "Mg", "xyz": [2.220436958595465, 3.7561470878135683, 3.550289267726911]}, {"species": [{"element": "Mg", "occu": 1}], "abc": [0.23661107, 0.96516204, 0.50637727], "properties": {"magmom": -0.0}, "label": "Mg", "xyz": [-1.99445101840464, 6.778223802562966, 0.9099531099597034]}, {"species": [{"element": "Mg", "occu": 1}], "abc": [0.72854662, 0.26338185000000003, 0.7697739100000001], "properties": {"magmom": -0.0}, "label": "Mg", "xyz": [4.840074123881667, 1.8498690565572358, 3.7770399171796205]}, {"species": [{"element": "Mg", "occu": 1}], "abc": [0.95878657, 0.73024287, 0.99361703], "properties": {"magmom": -0.0}, "label": "Mg", "xyz": [4.81427378510197, 5.128593056103851, 3.7037754092285073]}, {"species": [{"element": "Mg", "occu": 1}], "abc": [0.50637674, 0.23661451, 0.9651636100000001], "properties": {"magmom": -0.0}, "label": "Mg", "xyz": [3.147009945435343, 1.6618855446304814, 6.171273925995461]}, {"species": [{"element": "Mg", "occu": 1}], "abc": [0.2633784, 0.76976981, 0.728544899999999], "properties": {"magmom": -0.0}, "label": "Mg", "xyz": [-0.9851661834243494, 5.406058891440366, 3.3042544841073695]}, {"species": [{"element": "Mg", "occu": 1}], "abc": [0.993613299999999, 0.9587815900000001, 0.73023755], "properties": {"magmom": 0.0}, "label": "Mg", "xyz": [4.170069674889341, 6.733541009317037, 0.6833959861495229]}, {"species": [{"element": "Mg", "occu": 1}], "abc": [0.53482864, 0.77144813, 0.54121869], "properties": {"magmom": 0.0}, "label": "Mg", "xyz": [1.2092419485042147, 5.417854904421952, 0.9100197169083599]}, {"species": [{"element": "N", "occu": 1}], "abc": [1.95e-06, 0.50000205, 1.66e-06], "properties": {"magmom": 0.0}, "label": "N", "xyz": [-2.027217398679481, 3.5114074221792624, -1.43346301505422]}, {"species": [{"element": "N", "occu": 1}], "abc": [0.50000013, 0.0, 7e-08], "properties": {"magmom": -0.0}, "label": "N", "xyz": [4.054569319193078, 6.340502578690001e-05, -1.4334653156305657]}, {"species": [{"element": "N", "occu": 1}], "abc": [0.99999802, 0.0, 0.49999938], "properties": {"magmom": -0.0}, "label": "N", "xyz": [8.10915853886247, 0.00019324966653060002, 1.433572653899342]}, {"species": [{"element": "N", "occu": 1}], "abc": [0.49999981, 0.49999803000000004, 0.49999968], "properties": {"magmom": 0.0}, "label": "N", "xyz": [2.0273878765058035, 3.511509035044866, 1.433575470250081]}, {"species": [{"element": "N", "occu": 1}], "abc": [0.24999801, 0.718891, 0.46889058], "properties": {"magmom": 0.0}, "label": "N", "xyz": [-0.8874037792136396, 5.048711694698468, 1.2551926389286638]}, {"species": [{"element": "N", "occu": 1}], "abc": [0.0311092, 0.75000029, 0.78110923], "properties": {"magmom": -0.0}, "label": "N", "xyz": [-2.788510309805686, 5.26719931286009, 4.4789382971975575]}, {"species": [{"element": "N", "occu": 1}], "abc": [0.78110893, 0.03110982, 0.75000048], "properties": {"magmom": -0.0}, "label": "N", "xyz": [6.20804285223172, 0.21867632240120669, 4.1221840248058275]}, {"species": [{"element": "N", "occu": 1}], "abc": [0.46888982, 0.24999617000000002, 0.71888953], "properties": {"magmom": 0.0}, "label": "N", "xyz": [2.788749375509778, 1.755824601188249, 4.12217700108452]}, {"species": [{"element": "N", "occu": 1}], "abc": [0.71889018, 0.46889065, 0.24999732], "properties": {"magmom": -0.0}, "label": "N", "xyz": [3.9285040498778776, 3.29304309790304, -1.2550574029099928]}, {"species": [{"element": "N", "occu": 1}], "abc": [0.75000166, 0.7811097300000001, 0.031109730000000002], "properties": {"magmom": 0.0}, "label": "N", "xyz": [2.914898038473831, 5.485665756934693, -4.1220162843894]}, {"species": [{"element": "N", "occu": 1}], "abc": [0.75000355, 0.28110966, 0.53111049], "properties": {"magmom": 0.0}, "label": "N", "xyz": [4.942176613611218, 1.9743386806803294, 1.611954259561224]}, {"species": [{"element": "N", "occu": 1}], "abc": [0.9688900300000001, 0.24999944000000002, 0.21888897000000002], "properties": {"magmom": -0.0}, "label": "N", "xyz": [6.843268020334971, 1.7558445306508499, -1.6118067374013125]}, {"species": [{"element": "N", "occu": 1}], "abc": [0.21889027, 0.9688911, 0.24999964], "properties": {"magmom": 0.0}, "label": "N", "xyz": [-2.153290209625624, 6.804375878476457, -1.2550392767172576]}, {"species": [{"element": "N", "occu": 1}], "abc": [0.53110914, 0.75000186, 0.28110949], "properties": {"magmom": -0.0}, "label": "N", "xyz": [1.2660130381797299, 5.267207303661127, -1.2550327406074997]}, {"species": [{"element": "N", "occu": 1}], "abc": [0.28111021, 0.53110988, 0.75000168], "properties": {"magmom": -0.0}, "label": "N", "xyz": [0.12625982375084566, 3.7300063640901424, 4.1221902243262925]}, {"species": [{"element": "N", "occu": 1}], "abc": [0.24999877, 0.21888986, 0.96888864], "properties": {"magmom": -0.0}, "label": "N", "xyz": [1.1398699706552031, 1.5373771035609598, 6.989146267409923]}]}, "task_ids": null, "uncorrected_energy_per_atom": null, "energy_per_atom": -7.095321842, "formation_energy_per_atom": -0.9422394225, "energy_above_hull": 0.0, "is_stable": true, "equilibrium_reaction_energy_per_atom": null, "decomposes_to": null, "xas": null, "grain_boundaries": null, "band_gap": 1.952799999999999, "cbm": null, "vbm": null, "efermi": 3.70405339, "is_gap_direct": null, "is_metal": null, "es_source_calc_id": null, "bandstructure": null, "dos": null, "dos_energy_up": null, "dos_energy_down": null, "is_magnetic": null, "ordering": null, "total_magnetization": 0.0, "total_magnetization_normalized_vol": null, "total_magnetization_normalized_formula_units": null, "num_magnetic_sites": null, "num_unique_magnetic_sites": null, "types_of_magnetic_species": null, "bulk_modulus": null, "shear_modulus": null, "universal_anisotropy": null, "homogeneous_poisson": null, "e_total": null, "e_ionic": null, "e_electronic": null, "n": null, "e_ij_max": null, "weighted_surface_energy_EV_PER_ANG2": null, "weighted_surface_energy": null, "weighted_work_function": null, "surface_anisotropy": null, "shape_factor": null, "has_reconstructed": null, "possible_species": null, "has_props": null, "theoretical": null, "database_IDs": null, "fields_not_requested": ["builder_meta", "nsites", "elements", "nelements", "composition", "composition_reduced", "chemsys", "symmetry", "property_name", "deprecated", "deprecation_reasons", "last_updated", "origins", "warnings", "task_ids", "uncorrected_energy_per_atom", "equilibrium_reaction_energy_per_atom", "decomposes_to", "xas", "grain_boundaries", "cbm", "vbm", "is_gap_direct", "is_metal", "es_source_calc_id", "bandstructure", "dos", "dos_energy_up", "dos_energy_down", "is_magnetic", "ordering", "total_magnetization_normalized_vol", "total_magnetization_normalized_formula_units", "num_magnetic_sites", "num_unique_magnetic_sites", "types_of_magnetic_species", "bulk_modulus", "shear_modulus", "universal_anisotropy", "homogeneous_poisson", "e_total", "e_ionic", "e_electronic", "n", "e_ij_max", "weighted_surface_energy_EV_PER_ANG2", "weighted_surface_energy", "weighted_work_function", "surface_anisotropy", "shape_factor", "has_reconstructed", "possible_species", "has_props", "theoretical", "database_IDs"]}