{"builder_meta": null, "nsites": null, "elements": null, "nelements": null, "composition": null, "composition_reduced": null, "formula_pretty": "Mg3N", "formula_anonymous": "AB3", "chemsys": null, "volume": 129.5223977783909, "density": 2.228755505781191, "density_atomic": 16.190299722298864, "symmetry": null, "property_name": null, "material_id": "mp-1185783", "deprecated": null, "deprecation_reasons": null, "last_updated": null, "origins": null, "warnings": null, "structure": {"@module": "pymatgen.core.structure", "@class": "Structure", "charge": 0, "lattice": {"matrix": [[2.811109, -4.868983, 0.0], [2.811109, 4.868983, 0.0], [0.0, 0.0, 4.731501]], "pbc": [true, true, true], "a": 5.622217468594576, "b": 5.622217468594576, "c": 4.731501, "alpha": 90.0, "beta": 90.0, "gamma": 119.99999374668435, "volume": 129.5223977783909}, "properties": {}, "sites": [{"species": [{"element": "Mg", "occu": 1}], "abc": [0.171229, 0.342457, 0.25], "properties": {"magmom": 0.0}, "label": "Mg", "xyz": [1.444027337774, 0.8337062211240001, 1.18287525]}, {"species": [{"element": "Mg", "occu": 1}], "abc": [0.171229, 0.828770999999999, 0.25], "properties": {"magmom": -0.0}, "label": "Mg", "xyz": [2.8111089999999974, 3.2015608197859953, 1.18287525]}, {"species": [{"element": "Mg", "occu": 1}], "abc": [0.657543, 0.828770999999999, 0.25], "properties": {"magmom": 0.0}, "label": "Mg", "xyz": [4.178190662225997, 0.8337062211239954, 1.18287525]}, {"species": [{"element": "Mg", "occu": 1}], "abc": [0.342457, 0.171229, 0.75], "properties": {"magmom": -0.0}, "label": "Mg", "xyz": [1.444027337774, -0.8337062211240001, 3.54862575]}, {"species": [{"element": "Mg", "occu": 1}], "abc": [0.828770999999999, 0.171229, 0.75], "properties": {"magmom": -0.0}, "label": "Mg", "xyz": [2.8111089999999974, -3.2015608197859953, 3.54862575]}, {"species": [{"element": "Mg", "occu": 1}], "abc": [0.828770999999999, 0.657543, 0.75], "properties": {"magmom": 0.0}, "label": "Mg", "xyz": [4.178190662225997, -0.8337062211239954, 3.54862575]}, {"species": [{"element": "N", "occu": 1}], "abc": [0.666667, 0.333333, 0.25], "properties": {"magmom": -0.0}, "label": "N", "xyz": [2.811109, -1.622997579322, 1.18287525]}, {"species": [{"element": "N", "occu": 1}], "abc": [0.333333, 0.666667, 0.75], "properties": {"magmom": 0.0}, "label": "N", "xyz": [2.811109, 1.622997579322, 3.54862575]}]}, "task_ids": null, "uncorrected_energy_per_atom": null, "energy_per_atom": -4.94421098890625, "formation_energy_per_atom": 0.46495436765625, "energy_above_hull": 1.053854006718749, "is_stable": false, "equilibrium_reaction_energy_per_atom": null, "decomposes_to": null, "xas": null, "grain_boundaries": null, "band_gap": 0.0, "cbm": null, "vbm": null, "efermi": 4.83665921, "is_gap_direct": null, "is_metal": null, "es_source_calc_id": null, "bandstructure": null, "dos": null, "dos_energy_up": null, "dos_energy_down": null, "is_magnetic": null, "ordering": null, "total_magnetization": 0.0024553, "total_magnetization_normalized_vol": null, "total_magnetization_normalized_formula_units": null, "num_magnetic_sites": null, "num_unique_magnetic_sites": null, "types_of_magnetic_species": null, "bulk_modulus": null, "shear_modulus": null, "universal_anisotropy": null, "homogeneous_poisson": null, "e_total": null, "e_ionic": null, "e_electronic": null, "n": null, "e_ij_max": null, "weighted_surface_energy_EV_PER_ANG2": null, "weighted_surface_energy": null, "weighted_work_function": null, "surface_anisotropy": null, "shape_factor": null, "has_reconstructed": null, "possible_species": null, "has_props": null, "theoretical": null, "database_IDs": null, "fields_not_requested": ["builder_meta", "nsites", "elements", "nelements", "composition", "composition_reduced", "chemsys", "symmetry", "property_name", "deprecated", "deprecation_reasons", "last_updated", "origins", "warnings", "task_ids", "uncorrected_energy_per_atom", "equilibrium_reaction_energy_per_atom", "decomposes_to", "xas", "grain_boundaries", "cbm", "vbm", "is_gap_direct", "is_metal", "es_source_calc_id", "bandstructure", "dos", "dos_energy_up", "dos_energy_down", "is_magnetic", "ordering", "total_magnetization_normalized_vol", "total_magnetization_normalized_formula_units", "num_magnetic_sites", "num_unique_magnetic_sites", "types_of_magnetic_species", "bulk_modulus", "shear_modulus", "universal_anisotropy", "homogeneous_poisson", "e_total", "e_ionic", "e_electronic", "n", "e_ij_max", "weighted_surface_energy_EV_PER_ANG2", "weighted_surface_energy", "weighted_work_function", "surface_anisotropy", "shape_factor", "has_reconstructed", "possible_species", "has_props", "theoretical", "database_IDs"]}