{"builder_meta": null, "nsites": null, "elements": null, "nelements": null, "composition": null, "composition_reduced": null, "formula_pretty": "Mg3Pd", "formula_anonymous": "AB3", "chemsys": null, "volume": 459.8652694065521, "density": 3.885391569922302, "density_atomic": 19.161052891939672, "symmetry": null, "property_name": null, "material_id": "mp-18712", "deprecated": null, "deprecation_reasons": null, "last_updated": null, "origins": null, "warnings": null, "structure": {"@module": "pymatgen.core.structure", "@class": "Structure", "charge": 0, "lattice": {"matrix": [[8.01039003, 9.16e-05, -2.019999999999999e-06], [-4.00511659, 6.93724728, -2.019999999999999e-06], [-2.019999999999999e-06, -4.039999999999999e-06, 8.2753602]], "pbc": [true, true, true], "a": 8.010390030523984, "b": 8.010390672330827, "c": 8.275360200001233, "alpha": 90.00003167992203, "beta": 90.00002843453223, "gamma": 119.99869443556626, "volume": 459.8652694065521}, "properties": {}, "sites": [{"species": [{"element": "Mg", "occu": 1}], "abc": [0.99997398, 0.99997398, 0.49726274000000004], "properties": {"magmom": -0.0}, "label": "Mg", "xyz": [4.005168218314356, 6.937156361500874, 4.115024247644069]}, {"species": [{"element": "Mg", "occu": 1}], "abc": [2.2020000000000003e-05, 2.2020000000000003e-05, 0.9972637400000001], "properties": {"magmom": -0.0}, "label": "Mg", "xyz": [8.6181648394e-05, 0.00014873125662800003, 8.252716662810188]}, {"species": [{"element": "Mg", "occu": 1}], "abc": [0.66672122, 0.33347009, 0.11506457], "properties": {"magmom": -0.0}, "label": "Mg", "xyz": [4.005110191319212, 2.3134250816167445, 0.9521987426216677]}, {"species": [{"element": "Mg", "occu": 1}], "abc": [0.33327778, 0.66652791, 0.61506457], "properties": {"magmom": -0.0}, "label": "Mg", "xyz": [0.00016177366307526268, 4.62389697407537, 5.08987884340062]}, {"species": [{"element": "Mg", "occu": 1}], "abc": [0.66652891, 0.33327778, 0.61506457], "properties": {"magmom": -0.0}, "label": "Mg", "xyz": [4.004338927183966, 2.3120889419767314, 5.0898788433986]}, {"species": [{"element": "Mg", "occu": 1}], "abc": [0.33347009, 0.66672122, 0.11506457], "properties": {"magmom": -0.0}, "label": "Mg", "xyz": [0.000929032681731225, 4.625240050962663, 0.9521987426216677]}, {"species": [{"element": "Mg", "occu": 1}], "abc": [0.37710387, 0.9998648800000001, 0.39511632], "properties": {"magmom": -0.0}, "label": "Mg", "xyz": [-0.9838271362589096, 6.936342865592087, 3.269727087421589]}, {"species": [{"element": "Mg", "occu": 1}], "abc": [0.37713472000000003, 0.37713472000000003, 0.89513601], "properties": {"magmom": -0.0}, "label": "Mg", "xyz": [1.5105258691430967, 2.6163077397044336, 7.407571387116533]}, {"species": [{"element": "Mg", "occu": 1}], "abc": [0.00013912, 0.62289913, 0.89511532], "properties": {"magmom": -0.0}, "label": "Mg", "xyz": [-2.4936710421315396, 4.321201691784365, 7.407400435001]}, {"species": [{"element": "Mg", "occu": 1}], "abc": [0.9998648800000001, 0.37710387, 0.39511632], "properties": {"magmom": -0.0}, "label": "Mg", "xyz": [6.498961902073978, 2.616152787788049, 3.269727087421589]}, {"species": [{"element": "Mg", "occu": 1}], "abc": [0.62286328, 0.62286328, 0.39513601], "properties": {"magmom": -0.0}, "label": "Mg", "xyz": [2.494736953960543, 4.321012052918847, 3.2698902943731505]}, {"species": [{"element": "Mg", "occu": 1}], "abc": [0.62289913, 0.00013912, 0.89511532], "properties": {"magmom": -0.0}, "label": "Mg", "xyz": [4.989105980694727, 0.0010185511360088, 7.407400435001]}, {"species": [{"element": "Mg", "occu": 1}], "abc": [0.71857128, 5.13e-06, 0.23880594], "properties": {"magmom": -0.0}, "label": "Mg", "xyz": [5.756015188520234, 0.0001004444317968, 1.9762037198752396]}, {"species": [{"element": "Mg", "occu": 1}], "abc": [0.7185702700000001, 0.7185702700000001, 0.73883719], "properties": {"magmom": 0.0}, "label": "Mg", "xyz": [2.8780689247535047, 4.984962487180851, 6.114140973381947]}, {"species": [{"element": "Mg", "occu": 1}], "abc": [0.99999487, 0.28142872, 0.73880494], "properties": {"magmom": -0.0}, "label": "Mg", "xyz": [6.883192608938701, 1.9524292370920162, 6.113874407563736]}, {"species": [{"element": "Mg", "occu": 1}], "abc": [5.13e-06, 0.71857128, 0.23880594], "properties": {"magmom": -0.0}, "label": "Mg", "xyz": [-2.87792114371268, 4.984905693360028, 1.9762037198752396]}, {"species": [{"element": "Mg", "occu": 1}], "abc": [0.28142973, 0.28142973, 0.23883819], "properties": {"magmom": 0.0}, "label": "Mg", "xyz": [1.1272025403422272, 1.9523724430106149, 1.9764709147899286]}, {"species": [{"element": "Mg", "occu": 1}], "abc": [0.28142872, 0.99999487, 0.73880494], "properties": {"magmom": -0.0}, "label": "Mg", "xyz": [-1.7507437232942107, 6.937234486020248, 6.113874407563736]}, {"species": [{"element": "Pd", "occu": 1}], "abc": [0.6723679100000001, 0.99997834, 0.56763375], "properties": {"magmom": 0.0}, "label": "Pd", "xyz": [1.3808982169611024, 6.937156314884122, 4.697370364787325]}, {"species": [{"element": "Pd", "occu": 1}], "abc": [0.67243663, 0.67243663, 0.06762588], "properties": {"magmom": -0.0}, "label": "Pd", "xyz": [2.6932924376178295, 4.664920504426619, 0.5596257991979907]}, {"species": [{"element": "Pd", "occu": 1}], "abc": [2.1660000000000003e-05, 0.32763209, 0.06763375], "properties": {"magmom": 0.0}, "label": "Pd", "xyz": [-1.3120313506474983, 2.2728645539369214, 0.559692981066175]}, {"species": [{"element": "Pd", "occu": 1}], "abc": [0.99997834, 0.6723679100000001, 0.56763375], "properties": {"magmom": 0.0}, "label": "Pd", "xyz": [5.317303507407148, 4.66447175958238, 4.697370364787325]}, {"species": [{"element": "Pd", "occu": 1}], "abc": [0.32756437, 0.32756437, 0.5676268800000001], "properties": {"magmom": -0.0}, "label": "Pd", "xyz": [1.3119837244450352, 2.2724227464911104, 4.6973155678421215]}, {"species": [{"element": "Pd", "occu": 1}], "abc": [0.32763209, 2.1660000000000003e-05, 0.06763375], "properties": {"magmom": 0.0}, "label": "Pd", "xyz": [2.624373939798548, 0.00017999863517880003, 0.559692981066175]}]}, "task_ids": null, "uncorrected_energy_per_atom": null, "energy_per_atom": -2.916554490416666, "formation_energy_per_atom": -0.398731526666665, "energy_above_hull": 0.0, "is_stable": true, "equilibrium_reaction_energy_per_atom": null, "decomposes_to": null, "xas": null, "grain_boundaries": null, "band_gap": 0.0, "cbm": null, "vbm": null, "efermi": 3.93764913, "is_gap_direct": null, "is_metal": null, "es_source_calc_id": null, "bandstructure": null, "dos": null, "dos_energy_up": null, "dos_energy_down": null, "is_magnetic": null, "ordering": null, "total_magnetization": 0.0, "total_magnetization_normalized_vol": null, "total_magnetization_normalized_formula_units": null, "num_magnetic_sites": null, "num_unique_magnetic_sites": null, "types_of_magnetic_species": null, "bulk_modulus": null, "shear_modulus": null, "universal_anisotropy": null, "homogeneous_poisson": null, "e_total": null, "e_ionic": null, "e_electronic": null, "n": null, "e_ij_max": null, "weighted_surface_energy_EV_PER_ANG2": null, "weighted_surface_energy": null, "weighted_work_function": null, "surface_anisotropy": null, "shape_factor": null, "has_reconstructed": null, "possible_species": null, "has_props": null, "theoretical": null, "database_IDs": null, "fields_not_requested": ["builder_meta", "nsites", "elements", "nelements", "composition", "composition_reduced", "chemsys", "symmetry", "property_name", "deprecated", "deprecation_reasons", "last_updated", "origins", "warnings", "task_ids", "uncorrected_energy_per_atom", "equilibrium_reaction_energy_per_atom", "decomposes_to", "xas", "grain_boundaries", "cbm", "vbm", "is_gap_direct", "is_metal", "es_source_calc_id", "bandstructure", "dos", "dos_energy_up", "dos_energy_down", "is_magnetic", "ordering", "total_magnetization_normalized_vol", "total_magnetization_normalized_formula_units", "num_magnetic_sites", "num_unique_magnetic_sites", "types_of_magnetic_species", "bulk_modulus", "shear_modulus", "universal_anisotropy", "homogeneous_poisson", "e_total", "e_ionic", "e_electronic", "n", "e_ij_max", "weighted_surface_energy_EV_PER_ANG2", "weighted_surface_energy", "weighted_work_function", "surface_anisotropy", "shape_factor", "has_reconstructed", "possible_species", "has_props", "theoretical", "database_IDs"]}