{
  "builder_meta": null,
  "nsites": null,
  "elements": null,
  "nelements": null,
  "composition": null,
  "composition_reduced": null,
  "formula_pretty": "Mg3Pa",
  "formula_anonymous": "AB3",
  "chemsys": null,
  "volume": 195.72007458676993,
  "density": 5.157593687137969,
  "density_atomic": 24.46500932334624,
  "symmetry": null,
  "property_name": null,
  "material_id": "mp-1185799",
  "deprecated": null,
  "deprecation_reasons": null,
  "last_updated": null,
  "origins": null,
  "warnings": null,
  "structure": {
    "@module": "pymatgen.core.structure",
    "@class": "Structure",
    "charge": 0,
    "lattice": {
      "matrix": [
        [3.313453, -5.739069, 0.0],
        [3.313453, 5.739069, 0.0],
        [0.0, 0.0, 5.146158]
      ],
      "pbc": [true, true, true],
      "a": 6.6269060480717545,
      "b": 6.6269060480717545,
      "c": 5.146158,
      "alpha": 90.0,
      "beta": 90.0,
      "gamma": 120.00000047992253,
      "volume": 195.72007458676993
    },
    "properties": {},
    "sites": [
      {
        "species": [{ "element": "Mg", "occu": 1 }],
        "abc": [0.163587999999999, 0.327175999999999, 0.25],
        "properties": { "magmom": 0.003 },
        "label": "Mg",
        "xyz": [1.6261234480919935, 0.9388428195719999, 1.2865395]
      },
      {
        "species": [{ "element": "Mg", "occu": 1 }],
        "abc": [0.163587999999999, 0.836411999999999, 0.25],
        "properties": { "magmom": 0.003 },
        "label": "Mg",
        "xyz": [3.3134529999999938, 3.861383360856, 1.2865395]
      },
      {
        "species": [{ "element": "Mg", "occu": 1 }],
        "abc": [0.672824, 0.836411999999999, 0.25],
        "properties": { "magmom": 0.003 },
        "label": "Mg",
        "xyz": [5.000782551907997, 0.9388428195719949, 1.2865395]
      },
      {
        "species": [{ "element": "Mg", "occu": 1 }],
        "abc": [0.327175999999999, 0.163587999999999, 0.75],
        "properties": { "magmom": 0.003 },
        "label": "Mg",
        "xyz": [1.6261234480919935, -0.9388428195719999, 3.8596185]
      },
      {
        "species": [{ "element": "Mg", "occu": 1 }],
        "abc": [0.836411999999999, 0.163587999999999, 0.75],
        "properties": { "magmom": 0.003 },
        "label": "Mg",
        "xyz": [3.3134529999999938, -3.861383360856, 3.8596185]
      },
      {
        "species": [{ "element": "Mg", "occu": 1 }],
        "abc": [0.836411999999999, 0.672824, 0.75],
        "properties": { "magmom": 0.003 },
        "label": "Mg",
        "xyz": [5.000782551907997, -0.9388428195719949, 3.8596185]
      },
      {
        "species": [{ "element": "Pa", "occu": 1 }],
        "abc": [0.666667, 0.333333, 0.25],
        "properties": { "magmom": 0.838 },
        "label": "Pa",
        "xyz": [3.313453, -1.913026826046, 1.2865395]
      },
      {
        "species": [{ "element": "Pa", "occu": 1 }],
        "abc": [0.333333, 0.666667, 0.75],
        "properties": { "magmom": 0.838 },
        "label": "Pa",
        "xyz": [3.313453, 1.913026826046, 3.8596185]
      }
    ]
  },
  "task_ids": null,
  "uncorrected_energy_per_atom": null,
  "energy_per_atom": -21.99841821875,
  "formation_energy_per_atom": 0.342564015,
  "energy_above_hull": 0.342564015,
  "is_stable": false,
  "equilibrium_reaction_energy_per_atom": null,
  "decomposes_to": null,
  "xas": null,
  "grain_boundaries": null,
  "band_gap": 0.0,
  "cbm": null,
  "vbm": null,
  "efermi": 5.37840217,
  "is_gap_direct": null,
  "is_metal": null,
  "es_source_calc_id": null,
  "bandstructure": null,
  "dos": null,
  "dos_energy_up": null,
  "dos_energy_down": null,
  "is_magnetic": null,
  "ordering": null,
  "total_magnetization": 2.0629717,
  "total_magnetization_normalized_vol": null,
  "total_magnetization_normalized_formula_units": null,
  "num_magnetic_sites": null,
  "num_unique_magnetic_sites": null,
  "types_of_magnetic_species": null,
  "bulk_modulus": null,
  "shear_modulus": null,
  "universal_anisotropy": null,
  "homogeneous_poisson": null,
  "e_total": null,
  "e_ionic": null,
  "e_electronic": null,
  "n": null,
  "e_ij_max": null,
  "weighted_surface_energy_EV_PER_ANG2": null,
  "weighted_surface_energy": null,
  "weighted_work_function": null,
  "surface_anisotropy": null,
  "shape_factor": null,
  "has_reconstructed": null,
  "possible_species": null,
  "has_props": null,
  "theoretical": null,
  "database_IDs": null,
  "fields_not_requested": [
    "builder_meta",
    "nsites",
    "elements",
    "nelements",
    "composition",
    "composition_reduced",
    "chemsys",
    "symmetry",
    "property_name",
    "deprecated",
    "deprecation_reasons",
    "last_updated",
    "origins",
    "warnings",
    "task_ids",
    "uncorrected_energy_per_atom",
    "equilibrium_reaction_energy_per_atom",
    "decomposes_to",
    "xas",
    "grain_boundaries",
    "cbm",
    "vbm",
    "is_gap_direct",
    "is_metal",
    "es_source_calc_id",
    "bandstructure",
    "dos",
    "dos_energy_up",
    "dos_energy_down",
    "is_magnetic",
    "ordering",
    "total_magnetization_normalized_vol",
    "total_magnetization_normalized_formula_units",
    "num_magnetic_sites",
    "num_unique_magnetic_sites",
    "types_of_magnetic_species",
    "bulk_modulus",
    "shear_modulus",
    "universal_anisotropy",
    "homogeneous_poisson",
    "e_total",
    "e_ionic",
    "e_electronic",
    "n",
    "e_ij_max",
    "weighted_surface_energy_EV_PER_ANG2",
    "weighted_surface_energy",
    "weighted_work_function",
    "surface_anisotropy",
    "shape_factor",
    "has_reconstructed",
    "possible_species",
    "has_props",
    "theoretical",
    "database_IDs"
  ]
}
