{"builder_meta": null, "nsites": null, "elements": null, "nelements": null, "composition": null, "composition_reduced": null, "formula_pretty": "Mg3Pt", "formula_anonymous": "AB3", "chemsys": null, "volume": 449.8876005115479, "density": 5.935119911778635, "density_atomic": 18.745316687981163, "symmetry": null, "property_name": null, "material_id": "mp-18707", "deprecated": null, "deprecation_reasons": null, "last_updated": null, "origins": null, "warnings": null, "structure": {"@module": "pymatgen.core.structure", "@class": "Structure", "charge": 0, "lattice": {"matrix": [[7.89616861, -1e-06, 0.0], [-3.94808481, 6.83828367, 0.0], [-0.0, 0.0, 8.33183248]], "pbc": [true, true, true], "a": 7.896168610000063, "b": 7.896169781504284, "c": 8.33183248, "alpha": 90.0, "beta": 90.0, "gamma": 120.00000657955323, "volume": 449.8876005115479}, "properties": {}, "sites": [{"species": [{"element": "Mg", "occu": 1}], "abc": [-0.0, -0.0, 0.32401755], "properties": {"magmom": -0.0}, "label": "Mg", "xyz": [0.0, 0.0, 2.6996599471800238]}, {"species": [{"element": "Mg", "occu": 1}], "abc": [-0.0, -0.0, 0.82401755], "properties": {"magmom": -0.0}, "label": "Mg", "xyz": [0.0, 0.0, 6.865576187180023]}, {"species": [{"element": "Mg", "occu": 1}], "abc": [0.333333, 0.666667, 0.2144189], "properties": {"magmom": 0.0}, "label": "Mg", "xyz": [-4.284751140115617e-06, 4.55885772609489, 1.7865023553458719]}, {"species": [{"element": "Mg", "occu": 1}], "abc": [0.666667, 0.333333, 0.7144189], "properties": {"magmom": 0.0}, "label": "Mg", "xyz": [3.9480880847511406, 2.27942494390511, 5.952418595345871]}, {"species": [{"element": "Mg", "occu": 1}], "abc": [0.333333, 0.666667, 0.7144189], "properties": {"magmom": 0.0}, "label": "Mg", "xyz": [-4.284751140115617e-06, 4.55885772609489, 5.952418595345871]}, {"species": [{"element": "Mg", "occu": 1}], "abc": [0.666667, 0.333333, 0.2144189], "properties": {"magmom": 0.0}, "label": "Mg", "xyz": [3.9480880847511406, 2.27942494390511, 1.7865023553458719]}, {"species": [{"element": "Mg", "occu": 1}], "abc": [0.28220785, 0.28220785, 0.08478372], "properties": {"magmom": -0.0}, "label": "Mg", "xyz": [1.1141802408178298, 1.9298170499929594, 0.7064037520712256]}, {"species": [{"element": "Mg", "occu": 1}], "abc": [-0.0, 0.28220785, 0.58478372], "properties": {"magmom": -0.0}, "label": "Mg", "xyz": [-1.1141805258477584, 1.9298173322008094, 4.872319992071225]}, {"species": [{"element": "Mg", "occu": 1}], "abc": [0.28220785, -0.0, 0.58478372], "properties": {"magmom": -0.0}, "label": "Mg", "xyz": [2.2283607666655882, -2.8220784999999997e-07, 4.872319992071225]}, {"species": [{"element": "Mg", "occu": 1}], "abc": [0.71779215, 0.0, 0.08478372], "properties": {"magmom": -0.0}, "label": "Mg", "xyz": [5.667807843334411, -7.177921499999999e-07, 0.7064037520712256]}, {"species": [{"element": "Mg", "occu": 1}], "abc": [0.0, 0.71779215, 0.08478372], "properties": {"magmom": -0.0}, "label": "Mg", "xyz": [-2.8339042841522413, 4.90846633779919, 0.7064037520712256]}, {"species": [{"element": "Mg", "occu": 1}], "abc": [0.71779215, 0.71779215, 0.58478372], "properties": {"magmom": -0.0}, "label": "Mg", "xyz": [2.8339035591821697, 4.90846562000704, 4.872319992071225]}, {"species": [{"element": "Mg", "occu": 1}], "abc": [0.37511269, 0.37511269, 0.42928911000000003], "properties": {"magmom": -0.0}, "label": "Mg", "xyz": [1.480976334563422, 2.565126607324083, 3.5767649500082928]}, {"species": [{"element": "Mg", "occu": 1}], "abc": [0.0, 0.37511269, 0.92928911], "properties": {"magmom": -0.0}, "label": "Mg", "xyz": [-1.4809767134272391, 2.5651269824367726, 7.742681190008292]}, {"species": [{"element": "Mg", "occu": 1}], "abc": [0.37511269, 0.0, 0.92928911], "properties": {"magmom": -0.0}, "label": "Mg", "xyz": [2.961953047990661, -3.7511269e-07, 7.742681190008292]}, {"species": [{"element": "Mg", "occu": 1}], "abc": [0.62488731, -0.0, 0.42928911000000003], "properties": {"magmom": -0.0}, "label": "Mg", "xyz": [4.934215562009339, -6.2488731e-07, 3.5767649500082928]}, {"species": [{"element": "Mg", "occu": 1}], "abc": [-0.0, 0.62488731, 0.42928911000000003], "properties": {"magmom": -0.0}, "label": "Mg", "xyz": [-2.467108096572761, 4.273156687563228, 3.5767649500082928]}, {"species": [{"element": "Mg", "occu": 1}], "abc": [0.62488731, 0.62488731, 0.92928911], "properties": {"magmom": -0.0}, "label": "Mg", "xyz": [2.4671074654365777, 4.273156062675918, 7.742681190008292]}, {"species": [{"element": "Pt", "occu": 1}], "abc": [0.32770313, 0.32770313, 0.75690805], "properties": {"magmom": 0.0}, "label": "Pt", "xyz": [1.2937994187622939, 2.240926634783757, 6.306431075363464]}, {"species": [{"element": "Pt", "occu": 1}], "abc": [-0.0, 0.32770313, 0.25690805], "properties": {"magmom": 0.0}, "label": "Pt", "xyz": [-1.2937997497424554, 2.240926962486887, 2.1405148353634638]}, {"species": [{"element": "Pt", "occu": 1}], "abc": [0.32770313, -0.0, 0.25690805], "properties": {"magmom": 0.0}, "label": "Pt", "xyz": [2.5875991685047492, -3.2770313e-07, 2.1405148353634638]}, {"species": [{"element": "Pt", "occu": 1}], "abc": [0.67229687, 0.0, 0.75690805], "properties": {"magmom": 0.0}, "label": "Pt", "xyz": [5.308569441495251, -6.7229687e-07, 6.306431075363464]}, {"species": [{"element": "Pt", "occu": 1}], "abc": [0.0, 0.67229687, 0.75690805], "properties": {"magmom": 0.0}, "label": "Pt", "xyz": [-2.654285060257545, 4.597356707513113, 6.306431075363464]}, {"species": [{"element": "Pt", "occu": 1}], "abc": [0.67229687, 0.67229687, 0.25690805], "properties": {"magmom": 0.0}, "label": "Pt", "xyz": [2.6542843812377064, 4.597356035216244, 2.1405148353634638]}]}, "task_ids": null, "uncorrected_energy_per_atom": null, "energy_per_atom": -3.302398918333333, "formation_energy_per_atom": -0.5617630770833331, "energy_above_hull": 0.0, "is_stable": true, "equilibrium_reaction_energy_per_atom": null, "decomposes_to": null, "xas": null, "grain_boundaries": null, "band_gap": 0.0, "cbm": null, "vbm": null, "efermi": 4.51283661, "is_gap_direct": null, "is_metal": null, "es_source_calc_id": null, "bandstructure": null, "dos": null, "dos_energy_up": null, "dos_energy_down": null, "is_magnetic": null, "ordering": null, "total_magnetization": 2e-07, "total_magnetization_normalized_vol": null, "total_magnetization_normalized_formula_units": null, "num_magnetic_sites": null, "num_unique_magnetic_sites": null, "types_of_magnetic_species": null, "bulk_modulus": null, "shear_modulus": null, "universal_anisotropy": null, "homogeneous_poisson": null, "e_total": null, "e_ionic": null, "e_electronic": null, "n": null, "e_ij_max": null, "weighted_surface_energy_EV_PER_ANG2": null, "weighted_surface_energy": null, "weighted_work_function": null, "surface_anisotropy": null, "shape_factor": null, "has_reconstructed": null, "possible_species": null, "has_props": null, "theoretical": null, "database_IDs": null, "fields_not_requested": ["builder_meta", "nsites", "elements", "nelements", "composition", "composition_reduced", "chemsys", "symmetry", "property_name", "deprecated", "deprecation_reasons", "last_updated", "origins", "warnings", "task_ids", "uncorrected_energy_per_atom", "equilibrium_reaction_energy_per_atom", "decomposes_to", "xas", "grain_boundaries", "cbm", "vbm", "is_gap_direct", "is_metal", "es_source_calc_id", "bandstructure", "dos", "dos_energy_up", "dos_energy_down", "is_magnetic", "ordering", "total_magnetization_normalized_vol", "total_magnetization_normalized_formula_units", "num_magnetic_sites", "num_unique_magnetic_sites", "types_of_magnetic_species", "bulk_modulus", "shear_modulus", "universal_anisotropy", "homogeneous_poisson", "e_total", "e_ionic", "e_electronic", "n", "e_ij_max", "weighted_surface_energy_EV_PER_ANG2", "weighted_surface_energy", "weighted_work_function", "surface_anisotropy", "shape_factor", "has_reconstructed", "possible_species", "has_props", "theoretical", "database_IDs"]}