{"builder_meta": null, "nsites": null, "elements": null, "nelements": null, "composition": null, "composition_reduced": null, "formula_pretty": "Mg3Pd5", "formula_anonymous": "A3B5", "chemsys": null, "volume": 245.75538753277436, "density": 8.17602457032619, "density_atomic": 15.359711720798398, "symmetry": null, "property_name": null, "material_id": "mp-1210703", "deprecated": null, "deprecation_reasons": null, "last_updated": null, "origins": null, "warnings": null, "structure": {"@module": "pymatgen.core.structure", "@class": "Structure", "charge": 0, "lattice": {"matrix": [[0.0, 0.0, 4.21355893], [5.46888319, -1.2570000000000002e-05, 0.0], [-3.86e-05, 10.66486415, 0.0]], "pbc": [true, true, true], "a": 4.21355893, "b": 5.468883190014446, "c": 10.664864150069853, "alpha": 90.00033906610582, "beta": 90.0, "gamma": 90.0, "volume": 245.75538753277436}, "properties": {}, "sites": [{"species": [{"element": "Mg", "occu": 1}], "abc": [0.0, -2.5770000000000002e-05, 0.49998335], "properties": {"magmom": -0.0}, "label": "Mg", "xyz": [-0.0001602324771163, 5.332254505335832, 0.0]}, {"species": [{"element": "Mg", "occu": 1}], "abc": [0.0, 0.50021815, 1.00001875], "properties": {"magmom": -0.0}, "label": "Mg", "xyz": [2.7355960311441487, 10.665057828460666, 0.0]}, {"species": [{"element": "Mg", "occu": 1}], "abc": [0.5, 0.16708232, 0.13668072], "properties": {"magmom": -0.0}, "label": "Mg", "xyz": [0.9137484153184088, 1.4576792104994256, 2.106779465]}, {"species": [{"element": "Mg", "occu": 1}], "abc": [0.5, 0.83291847, 0.86331179], "properties": {"magmom": -0.0}, "label": "Mg", "xyz": [4.555100495388425, 9.20709248965816, 2.106779465]}, {"species": [{"element": "Mg", "occu": 1}], "abc": [0.5, 0.3329101, 0.63669725], "properties": {"magmom": 0.0}, "label": "Mg", "xyz": [1.820621873157369, 6.79028549124863, 2.106779465]}, {"species": [{"element": "Mg", "occu": 1}], "abc": [0.5, 0.66706794, 0.36330574], "properties": {"magmom": -0.0}, "label": "Mg", "xyz": [3.6481026200523647, 3.874597976971215, 2.106779465]}, {"species": [{"element": "Pd", "occu": 1}], "abc": [0.5, 0.17988332, 0.38772149], "properties": {"magmom": -0.0}, "label": "Pd", "xyz": [0.9837458988598768, 4.134994757752251, 2.106779465]}, {"species": [{"element": "Pd", "occu": 1}], "abc": [0.5, 0.8200317500000001, 0.61211327], "properties": {"magmom": -0.0}, "label": "Pd", "xyz": [4.48463422526906, 6.528094561163173, 2.106779465]}, {"species": [{"element": "Pd", "occu": 1}], "abc": [0.5, 0.32004678000000003, 0.88795858], "properties": {"magmom": 0.0}, "label": "Pd", "xyz": [1.7502641799544403, 9.469953603538883, 2.106779465]}, {"species": [{"element": "Pd", "occu": 1}], "abc": [0.5, 0.67990776, 0.11221898], "properties": {"magmom": -0.0}, "label": "Pd", "xyz": [3.718331787761926, 1.1967916303110238, 2.106779465]}, {"species": [{"element": "Pd", "occu": 1}], "abc": [0.0, 0.40012694, 0.24396709], "properties": {"magmom": 0.0}, "label": "Pd", "xyz": [2.1882380789024647, 2.6018708423251873, 0.0]}, {"species": [{"element": "Pd", "occu": 1}], "abc": [0.0, 0.59981963, 0.75600725], "properties": {"magmom": -0.0}, "label": "Pd", "xyz": [3.28031430965917, 8.062707077932338, 0.0]}, {"species": [{"element": "Pd", "occu": 1}], "abc": [-0.0, 0.09982627000000001, 0.74409888], "properties": {"magmom": 0.0}, "label": "Pd", "xyz": [0.5459094877066334, 7.9357122145509384, 0.0]}, {"species": [{"element": "Pd", "occu": 1}], "abc": [0.0, 0.90014033, 0.25591717], "properties": {"magmom": 0.0}, "label": "Pd", "xyz": [4.922752440975291, 2.729310536938508, 0.0]}, {"species": [{"element": "Pd", "occu": 1}], "abc": [-0.0, 5.9440000000000014e-05, 1.00010419], "properties": {"magmom": 0.0}, "label": "Pd", "xyz": [0.0002864663950796001, 10.665975321448629, 0.0]}, {"species": [{"element": "Pd", "occu": 1}], "abc": [0.0, 0.49998457, 0.49989351], "properties": {"magmom": -0.0}, "label": "Pd", "xyz": [2.7343379142428925, 5.331290088810622, 0.0]}]}, "task_ids": null, "uncorrected_energy_per_atom": null, "energy_per_atom": -4.48602879625, "formation_energy_per_atom": -0.6371764093749991, "energy_above_hull": 0.0, "is_stable": true, "equilibrium_reaction_energy_per_atom": null, "decomposes_to": null, "xas": null, "grain_boundaries": null, "band_gap": 0.0, "cbm": null, "vbm": null, "efermi": 4.6164734, "is_gap_direct": null, "is_metal": null, "es_source_calc_id": null, "bandstructure": null, "dos": null, "dos_energy_up": null, "dos_energy_down": null, "is_magnetic": null, "ordering": null, "total_magnetization": 0.0, "total_magnetization_normalized_vol": null, "total_magnetization_normalized_formula_units": null, "num_magnetic_sites": null, "num_unique_magnetic_sites": null, "types_of_magnetic_species": null, "bulk_modulus": null, "shear_modulus": null, "universal_anisotropy": null, "homogeneous_poisson": null, "e_total": null, "e_ionic": null, "e_electronic": null, "n": null, "e_ij_max": null, "weighted_surface_energy_EV_PER_ANG2": null, "weighted_surface_energy": null, "weighted_work_function": null, "surface_anisotropy": null, "shape_factor": null, "has_reconstructed": null, "possible_species": null, "has_props": null, "theoretical": null, "database_IDs": null, "fields_not_requested": ["builder_meta", "nsites", "elements", "nelements", "composition", "composition_reduced", "chemsys", "symmetry", "property_name", "deprecated", "deprecation_reasons", "last_updated", "origins", "warnings", "task_ids", "uncorrected_energy_per_atom", "equilibrium_reaction_energy_per_atom", "decomposes_to", "xas", "grain_boundaries", "cbm", "vbm", "is_gap_direct", "is_metal", "es_source_calc_id", "bandstructure", "dos", "dos_energy_up", "dos_energy_down", "is_magnetic", "ordering", "total_magnetization_normalized_vol", "total_magnetization_normalized_formula_units", "num_magnetic_sites", "num_unique_magnetic_sites", "types_of_magnetic_species", "bulk_modulus", "shear_modulus", "universal_anisotropy", "homogeneous_poisson", "e_total", "e_ionic", "e_electronic", "n", "e_ij_max", "weighted_surface_energy_EV_PER_ANG2", "weighted_surface_energy", "weighted_work_function", "surface_anisotropy", "shape_factor", "has_reconstructed", "possible_species", "has_props", "theoretical", "database_IDs"]}