{"builder_meta": null, "nsites": null, "elements": null, "nelements": null, "composition": null, "composition_reduced": null, "formula_pretty": "Mg3P2", "formula_anonymous": "A2B3", "chemsys": null, "volume": 866.2922139668336, "density": 2.068073438608592, "density_atomic": 21.65730534917084, "symmetry": null, "property_name": null, "material_id": "mp-2514", "deprecated": null, "deprecation_reasons": null, "last_updated": null, "origins": null, "warnings": null, "structure": {"@module": "pymatgen.core.structure", "@class": "Structure", "charge": 0, "lattice": {"matrix": [[9.80661588, -0.0, -3.46716316], [-4.90330844, 8.49277847, -3.46716316], [-0.0, -0.0, 10.40148748]], "pbc": [true, true, true], "a": 10.401487172319609, "b": 10.401487402113794, "c": 10.40148748, "alpha": 109.47122468121817, "beta": 109.47122512874732, "gamma": 109.47121844691551, "volume": 866.2922139668336}, "properties": {}, "sites": [{"species": [{"element": "Mg", "occu": 1}], "abc": [0.52673318, 0.76606347, 0.53250217], "properties": {"magmom": -0.0}, "label": "Mg", "xyz": [1.4092244894842123, 6.50600734466949, 1.0564777360764168]}, {"species": [{"element": "Mg", "occu": 1}], "abc": [0.99423101, 0.96749783, 0.733560299999999], "properties": {"magmom": -0.0}, "label": "Mg", "xyz": [5.006101335533755, 8.21674474039572, 0.8284843123174994]}, {"species": [{"element": "Mg", "occu": 1}], "abc": [0.26067071, 0.7664397, 0.73393653], "properties": {"magmom": -0.0}, "label": "Mg", "xyz": [-1.2017927256241925, 6.509202582713258, 4.072872253105149]}, {"species": [{"element": "Mg", "occu": 1}], "abc": [0.50576899, 0.23932929, 0.97326682], "properties": {"magmom": -0.0}, "label": "Mg", "xyz": [3.786376881349354, 2.032570641352386, 7.54004533593405]}, {"species": [{"element": "Mg", "occu": 1}], "abc": [0.96749783, 0.733560299999999, 0.99423101], "properties": {"magmom": -0.0}, "label": "Mg", "xyz": [5.891007173304614, 6.229965122286733, 4.443635321388268]}, {"species": [{"element": "Mg", "occu": 1}], "abc": [0.73393653, 0.26067071, 0.7664397], "properties": {"magmom": -0.0}, "label": "Mg", "xyz": [5.919284737606305, 2.2138185936476136, 4.523647362527676]}, {"species": [{"element": "Mg", "occu": 1}], "abc": [0.23932929, 0.97326682, 0.50576899], "properties": {"magmom": -0.0}, "label": "Mg", "xyz": [-2.425216997014835, 8.265739494461364, 1.0564812567059372]}, {"species": [{"element": "Mg", "occu": 1}], "abc": [0.53250217, 0.52673318, 0.76606347], "properties": {"magmom": -0.0}, "label": "Mg", "xyz": [2.639308989334421, 4.473428210538635, 4.29565780880065]}, {"species": [{"element": "Mg", "occu": 1}], "abc": [0.76606347, 0.53250217, 0.52673318], "properties": {"magmom": -0.0}, "label": "Mg", "xyz": [4.901467805510588, 4.52242296460428, 0.9764696292207642]}, {"species": [{"element": "Mg", "occu": 1}], "abc": [0.733560299999999, 0.99423101, 0.96749783], "properties": {"magmom": -0.0}, "label": "Mg", "xyz": [2.318722784274831, 8.443783715934353, 4.0728821874720325]}, {"species": [{"element": "Mg", "occu": 1}], "abc": [0.7664397, 0.73393653, 0.26067071], "properties": {"magmom": -0.0}, "label": "Mg", "xyz": [3.9174625511091223, 6.233160360330509, -2.4906860643279765]}, {"species": [{"element": "Mg", "occu": 1}], "abc": [0.97326682, 0.50576899, 0.23932929], "properties": {"magmom": -0.0}, "label": "Mg", "xyz": [7.064512495131827, 4.295383989065645, -2.6386778592204707]}, {"species": [{"element": "Mg", "occu": 1}], "abc": [0.47326582, 0.23393653, 0.46749783], "properties": {"magmom": -0.0}, "label": "Mg", "xyz": [3.494073143899908, 1.986771125330509, 2.4106868910867427]}, {"species": [{"element": "Mg", "occu": 1}], "abc": [0.00576899, 0.032502170000000004, 0.2664397], "properties": {"magmom": -0.0}, "label": "Mg", "xyz": [-0.10279389553375362, 0.2760337296042799, 2.6386768476824902]}, {"species": [{"element": "Mg", "occu": 1}], "abc": [0.73932929, 0.2335603, 0.26606347], "properties": {"magmom": -0.0}, "label": "Mg", "xyz": [6.105100165624194, 1.9835758872867408, -0.6057110931051488]}, {"species": [{"element": "Mg", "occu": 1}], "abc": [0.49423101, 0.76067071, 0.02673418], "properties": {"magmom": -0.0}, "label": "Mg", "xyz": [1.1169305586506466, 6.460207828647613, -4.0728737744465695]}, {"species": [{"element": "Mg", "occu": 1}], "abc": [0.032502170000000004, 0.2664397, 0.00576899], "properties": {"magmom": -0.0}, "label": "Mg", "xyz": [-0.9876997333046083, 2.262813347713259, -0.976474161388264]}, {"species": [{"element": "Mg", "occu": 1}], "abc": [0.26606347, 0.73932929, 0.2335603], "properties": {"magmom": -0.0}, "label": "Mg", "xyz": [-1.0159772976063035, 6.278959876352386, -1.0564862025276778]}, {"species": [{"element": "Mg", "occu": 1}], "abc": [0.76067071, 0.02673418, 0.49423101], "properties": {"magmom": -0.0}, "label": "Mg", "xyz": [7.328519533706396, 0.22704746831710457, 2.410676436130903]}, {"species": [{"element": "Mg", "occu": 1}], "abc": [0.46749783, 0.47326582, 0.23393653], "properties": {"magmom": -0.0}, "label": "Mg", "xyz": [2.2640033539740196, 4.019341766682895, -0.8284931816374899]}, {"species": [{"element": "Mg", "occu": 1}], "abc": [0.23393653, 0.46749783, 0.47326582], "properties": {"magmom": -0.0}, "label": "Mg", "xyz": [0.0018396344894116012, 3.97035550539572, 2.4906811292917563]}, {"species": [{"element": "Mg", "occu": 1}], "abc": [0.2664397, 0.00576899, 0.032502170000000004], "properties": {"magmom": -0.0}, "label": "Mg", "xyz": [2.584584655725161, 0.048994754065645296, -0.6057210274720287]}, {"species": [{"element": "Mg", "occu": 1}], "abc": [0.2335603, 0.26606347, 0.73932929], "properties": {"magmom": -0.0}, "label": "Mg", "xyz": [0.9858448888908771, 2.259618109669491, 5.957847224327976]}, {"species": [{"element": "Mg", "occu": 1}], "abc": [0.02673418, 0.49423101, 0.76067071], "properties": {"magmom": -0.0}, "label": "Mg", "xyz": [-2.1611952485159462, 4.197394480934355, 6.10583555205731]}, {"species": [{"element": "P", "occu": 1}], "abc": [0.5, 0.5, 0.5], "properties": {"magmom": -0.0}, "label": "P", "xyz": [2.4516537200000004, 4.246389235, 1.73358058]}, {"species": [{"element": "P", "occu": 1}], "abc": [0.0, 0.0, 0.5], "properties": {"magmom": -0.0}, "label": "P", "xyz": [0.0, 0.0, 5.20074374]}, {"species": [{"element": "P", "occu": 1}], "abc": [0.5, 0.0, 0.0], "properties": {"magmom": -0.0}, "label": "P", "xyz": [4.90330794, 0.0, -1.73358158]}, {"species": [{"element": "P", "occu": 1}], "abc": [0.0, 0.5, 0.0], "properties": {"magmom": -0.0}, "label": "P", "xyz": [-2.45165422, 4.246389235, -1.73358158]}, {"species": [{"element": "P", "occu": 1}], "abc": [0.25, 0.22617632000000001, 0.97617632], "properties": {"magmom": 0.0}, "label": "P", "xyz": [1.3426417112158593, 1.9208653809198304, 8.502704776384101]}, {"species": [{"element": "P", "occu": 1}], "abc": [0.27382368, 0.52382368, 0.75], "properties": {"magmom": 0.0}, "label": "P", "xyz": [0.1168145773921796, 4.448718471580169, 5.035542068736742]}, {"species": [{"element": "P", "occu": 1}], "abc": [0.52382368, 0.75, 0.27382368], "properties": {"magmom": 0.0}, "label": "P", "xyz": [1.459456288608039, 6.3695838525, -1.568380956384103]}, {"species": [{"element": "P", "occu": 1}], "abc": [0.22617632000000001, 0.97617632, 0.25], "properties": {"magmom": 0.0}, "label": "P", "xyz": [-2.5684692973921788, 8.29044923341983, -1.5683809087367422]}, {"species": [{"element": "P", "occu": 1}], "abc": [0.97617632, 0.25, 0.22617632000000001], "properties": {"magmom": 0.0}, "label": "P", "xyz": [8.347159091391962, 2.1231946175, -1.8987832036158983]}, {"species": [{"element": "P", "occu": 1}], "abc": [0.75, 0.27382368, 0.52382368], "properties": {"magmom": 0.0}, "label": "P", "xyz": [6.012319948784141, 2.3255238540801697, 1.8987817036158976]}, {"species": [{"element": "P", "occu": 1}], "abc": [0.75, 0.77382368, 0.02382368], "properties": {"magmom": 0.0}, "label": "P", "xyz": [3.560665728784141, 6.571913089080169, -5.0355436163841025]}, {"species": [{"element": "P", "occu": 1}], "abc": [0.72617632, 0.47617632, 0.25], "properties": {"magmom": 0.0}, "label": "P", "xyz": [4.786492862607822, 4.04405999841983, -1.5683809087367422]}, {"species": [{"element": "P", "occu": 1}], "abc": [0.47617632, 0.25, 0.72617632], "properties": {"magmom": 0.0}, "label": "P", "xyz": [3.4438511513919616, 2.1231946175, 5.035542116384102]}, {"species": [{"element": "P", "occu": 1}], "abc": [0.77382368, 0.02382368, 0.75], "properties": {"magmom": 0.0}, "label": "P", "xyz": [7.4717767373921795, 0.20232923658016957, 5.035542068736742]}, {"species": [{"element": "P", "occu": 1}], "abc": [0.02382368, 0.75, 0.77382368], "properties": {"magmom": 0.0}, "label": "P", "xyz": [-3.4438516513919617, 6.3695838525, 5.365944363615899]}, {"species": [{"element": "P", "occu": 1}], "abc": [0.25, 0.72617632, 0.47617632], "properties": {"magmom": 0.0}, "label": "P", "xyz": [-1.1090125087841405, 6.16725461591983, 1.5683794563841023]}]}, "task_ids": null, "uncorrected_energy_per_atom": null, "energy_per_atom": -3.792177938999999, "formation_energy_per_atom": -0.647706519857142, "energy_above_hull": 0.0, "is_stable": true, "equilibrium_reaction_energy_per_atom": null, "decomposes_to": null, "xas": null, "grain_boundaries": null, "band_gap": 1.798099999999999, "cbm": null, "vbm": null, "efermi": 3.20685389, "is_gap_direct": null, "is_metal": null, "es_source_calc_id": null, "bandstructure": null, "dos": null, "dos_energy_up": null, "dos_energy_down": null, "is_magnetic": null, "ordering": null, "total_magnetization": 0.0, "total_magnetization_normalized_vol": null, "total_magnetization_normalized_formula_units": null, "num_magnetic_sites": null, "num_unique_magnetic_sites": null, "types_of_magnetic_species": null, "bulk_modulus": null, "shear_modulus": null, "universal_anisotropy": null, "homogeneous_poisson": null, "e_total": null, "e_ionic": null, "e_electronic": null, "n": null, "e_ij_max": null, "weighted_surface_energy_EV_PER_ANG2": null, "weighted_surface_energy": null, "weighted_work_function": null, "surface_anisotropy": null, "shape_factor": null, "has_reconstructed": null, "possible_species": null, "has_props": null, "theoretical": null, "database_IDs": null, "fields_not_requested": ["builder_meta", "nsites", "elements", "nelements", "composition", "composition_reduced", "chemsys", "symmetry", "property_name", "deprecated", "deprecation_reasons", "last_updated", "origins", "warnings", "task_ids", "uncorrected_energy_per_atom", "equilibrium_reaction_energy_per_atom", "decomposes_to", "xas", "grain_boundaries", "cbm", "vbm", "is_gap_direct", "is_metal", "es_source_calc_id", "bandstructure", "dos", "dos_energy_up", "dos_energy_down", "is_magnetic", "ordering", "total_magnetization_normalized_vol", "total_magnetization_normalized_formula_units", "num_magnetic_sites", "num_unique_magnetic_sites", "types_of_magnetic_species", "bulk_modulus", "shear_modulus", "universal_anisotropy", "homogeneous_poisson", "e_total", "e_ionic", "e_electronic", "n", "e_ij_max", "weighted_surface_energy_EV_PER_ANG2", "weighted_surface_energy", "weighted_work_function", "surface_anisotropy", "shape_factor", "has_reconstructed", "possible_species", "has_props", "theoretical", "database_IDs"]}