{
  "builder_meta": null,
  "nsites": null,
  "elements": null,
  "nelements": null,
  "composition": null,
  "composition_reduced": null,
  "formula_pretty": "Mg3Ru2",
  "formula_anonymous": "A2B3",
  "chemsys": null,
  "volume": 329.27423095861525,
  "density": 5.548439932684171,
  "density_atomic": 16.463711547930764,
  "symmetry": null,
  "property_name": null,
  "material_id": "mp-625",
  "deprecated": null,
  "deprecation_reasons": null,
  "last_updated": null,
  "origins": null,
  "warnings": null,
  "structure": {
    "@module": "pymatgen.core.structure",
    "@class": "Structure",
    "charge": 0,
    "lattice": {
      "matrix": [
        [6.9053534800000005, -0.0, 0.0],
        [0.0, 6.9053534800000005, 0.0],
        [0.0, 0.0, 6.9053534800000005]
      ],
      "pbc": [true, true, true],
      "a": 6.9053534800000005,
      "b": 6.9053534800000005,
      "c": 6.9053534800000005,
      "alpha": 90.0,
      "beta": 90.0,
      "gamma": 90.0,
      "volume": 329.27423095861536
    },
    "properties": {},
    "sites": [
      {
        "species": [{ "element": "Mg", "occu": 1 }],
        "abc": [0.625, 0.29392738, 0.54392738],
        "properties": { "magmom": -0.0 },
        "label": "Mg",
        "xyz": [4.3158459250000005, 2.0296724563502826, 3.7560108263502823]
      },
      {
        "species": [{ "element": "Mg", "occu": 1 }],
        "abc": [0.70607262, 0.04392738, 0.875],
        "properties": { "magmom": -0.0 },
        "label": "Mg",
        "xyz": [4.875681023649718, 0.3033340863502824, 6.042184295]
      },
      {
        "species": [{ "element": "Mg", "occu": 1 }],
        "abc": [0.54392738, 0.625, 0.29392738],
        "properties": { "magmom": -0.0 },
        "label": "Mg",
        "xyz": [3.7560108263502823, 4.3158459250000005, 2.0296724563502826]
      },
      {
        "species": [{ "element": "Mg", "occu": 1 }],
        "abc": [0.95607262, 0.375, 0.7939273800000001],
        "properties": { "magmom": -0.0 },
        "label": "Mg",
        "xyz": [6.6020193936497185, 2.589507555, 5.482349196350283]
      },
      {
        "species": [{ "element": "Mg", "occu": 1 }],
        "abc": [0.29392738, 0.54392738, 0.625],
        "properties": { "magmom": -0.0 },
        "label": "Mg",
        "xyz": [2.0296724563502826, 3.7560108263502823, 4.3158459250000005]
      },
      {
        "species": [{ "element": "Mg", "occu": 1 }],
        "abc": [0.45607262, 0.125, 0.20607262],
        "properties": { "magmom": -0.0 },
        "label": "Mg",
        "xyz": [3.1493426536497178, 0.8631691850000001, 1.4230042836497179]
      },
      {
        "species": [{ "element": "Mg", "occu": 1 }],
        "abc": [0.04392738, 0.875, 0.70607262],
        "properties": { "magmom": -0.0 },
        "label": "Mg",
        "xyz": [0.3033340863502824, 6.042184295, 4.875681023649718]
      },
      {
        "species": [{ "element": "Mg", "occu": 1 }],
        "abc": [0.7939273800000001, 0.95607262, 0.375],
        "properties": { "magmom": -0.0 },
        "label": "Mg",
        "xyz": [5.482349196350283, 6.6020193936497185, 2.589507555]
      },
      {
        "species": [{ "element": "Mg", "occu": 1 }],
        "abc": [0.125, 0.20607262, 0.45607262],
        "properties": { "magmom": -0.0 },
        "label": "Mg",
        "xyz": [0.8631691850000001, 1.4230042836497179, 3.1493426536497178]
      },
      {
        "species": [{ "element": "Mg", "occu": 1 }],
        "abc": [0.375, 0.7939273800000001, 0.95607262],
        "properties": { "magmom": -0.0 },
        "label": "Mg",
        "xyz": [2.589507555, 5.482349196350283, 6.6020193936497185]
      },
      {
        "species": [{ "element": "Mg", "occu": 1 }],
        "abc": [0.875, 0.70607262, 0.04392738],
        "properties": { "magmom": -0.0 },
        "label": "Mg",
        "xyz": [6.042184295, 4.875681023649718, 0.3033340863502824]
      },
      {
        "species": [{ "element": "Mg", "occu": 1 }],
        "abc": [0.20607262, 0.45607262, 0.125],
        "properties": { "magmom": -0.0 },
        "label": "Mg",
        "xyz": [1.4230042836497179, 3.1493426536497178, 0.8631691850000001]
      },
      {
        "species": [{ "element": "Ru", "occu": 1 }],
        "abc": [0.6750417, 0.6750417, 0.6750417],
        "properties": { "magmom": -0.0 },
        "label": "Ru",
        "xyz": [4.661401552240116, 4.661401552240116, 4.661401552240116]
      },
      {
        "species": [{ "element": "Ru", "occu": 1 }],
        "abc": [0.9250417, 0.574958299999999, 0.425041699999999],
        "properties": { "magmom": -0.0 },
        "label": "Ru",
        "xyz": [6.387739922240116, 3.9702902977598775, 2.9350631822401096]
      },
      {
        "species": [{ "element": "Ru", "occu": 1 }],
        "abc": [0.574958299999999, 0.425041699999999, 0.9250417],
        "properties": { "magmom": -0.0 },
        "label": "Ru",
        "xyz": [3.9702902977598775, 2.9350631822401096, 6.387739922240116]
      },
      {
        "species": [{ "element": "Ru", "occu": 1 }],
        "abc": [0.425041699999999, 0.9250417, 0.574958299999999],
        "properties": { "magmom": -0.0 },
        "label": "Ru",
        "xyz": [2.9350631822401096, 6.387739922240116, 3.9702902977598775]
      },
      {
        "species": [{ "element": "Ru", "occu": 1 }],
        "abc": [0.1750417, 0.824958299999999, 0.3249583],
        "properties": { "magmom": -0.0 },
        "label": "Ru",
        "xyz": [1.208724812240116, 5.696628667759878, 2.243951927759884]
      },
      {
        "species": [{ "element": "Ru", "occu": 1 }],
        "abc": [0.824958299999999, 0.3249583, 0.1750417],
        "properties": { "magmom": -0.0 },
        "label": "Ru",
        "xyz": [5.696628667759878, 2.243951927759884, 1.208724812240116]
      },
      {
        "species": [{ "element": "Ru", "occu": 1 }],
        "abc": [0.3249583, 0.1750417, 0.824958299999999],
        "properties": { "magmom": -0.0 },
        "label": "Ru",
        "xyz": [2.243951927759884, 1.208724812240116, 5.696628667759878]
      },
      {
        "species": [{ "element": "Ru", "occu": 1 }],
        "abc": [0.074958299999999, 0.074958299999999, 0.074958299999999],
        "properties": { "magmom": -0.0 },
        "label": "Ru",
        "xyz": [0.5176135577598772, 0.5176135577598772, 0.5176135577598772]
      }
    ]
  },
  "task_ids": null,
  "uncorrected_energy_per_atom": null,
  "energy_per_atom": -4.813212151499999,
  "formation_energy_per_atom": -0.125169126499999,
  "energy_above_hull": 0.0,
  "is_stable": true,
  "equilibrium_reaction_energy_per_atom": null,
  "decomposes_to": null,
  "xas": null,
  "grain_boundaries": null,
  "band_gap": 0.0,
  "cbm": null,
  "vbm": null,
  "efermi": 5.50414856,
  "is_gap_direct": null,
  "is_metal": null,
  "es_source_calc_id": null,
  "bandstructure": null,
  "dos": null,
  "dos_energy_up": null,
  "dos_energy_down": null,
  "is_magnetic": null,
  "ordering": null,
  "total_magnetization": 0.0,
  "total_magnetization_normalized_vol": null,
  "total_magnetization_normalized_formula_units": null,
  "num_magnetic_sites": null,
  "num_unique_magnetic_sites": null,
  "types_of_magnetic_species": null,
  "bulk_modulus": null,
  "shear_modulus": null,
  "universal_anisotropy": null,
  "homogeneous_poisson": null,
  "e_total": null,
  "e_ionic": null,
  "e_electronic": null,
  "n": null,
  "e_ij_max": null,
  "weighted_surface_energy_EV_PER_ANG2": null,
  "weighted_surface_energy": null,
  "weighted_work_function": null,
  "surface_anisotropy": null,
  "shape_factor": null,
  "has_reconstructed": null,
  "possible_species": null,
  "has_props": null,
  "theoretical": null,
  "database_IDs": null,
  "fields_not_requested": [
    "builder_meta",
    "nsites",
    "elements",
    "nelements",
    "composition",
    "composition_reduced",
    "chemsys",
    "symmetry",
    "property_name",
    "deprecated",
    "deprecation_reasons",
    "last_updated",
    "origins",
    "warnings",
    "task_ids",
    "uncorrected_energy_per_atom",
    "equilibrium_reaction_energy_per_atom",
    "decomposes_to",
    "xas",
    "grain_boundaries",
    "cbm",
    "vbm",
    "is_gap_direct",
    "is_metal",
    "es_source_calc_id",
    "bandstructure",
    "dos",
    "dos_energy_up",
    "dos_energy_down",
    "is_magnetic",
    "ordering",
    "total_magnetization_normalized_vol",
    "total_magnetization_normalized_formula_units",
    "num_magnetic_sites",
    "num_unique_magnetic_sites",
    "types_of_magnetic_species",
    "bulk_modulus",
    "shear_modulus",
    "universal_anisotropy",
    "homogeneous_poisson",
    "e_total",
    "e_ionic",
    "e_electronic",
    "n",
    "e_ij_max",
    "weighted_surface_energy_EV_PER_ANG2",
    "weighted_surface_energy",
    "weighted_work_function",
    "surface_anisotropy",
    "shape_factor",
    "has_reconstructed",
    "possible_species",
    "has_props",
    "theoretical",
    "database_IDs"
  ]
}
