{
  "builder_meta": null,
  "nsites": null,
  "elements": null,
  "nelements": null,
  "composition": null,
  "composition_reduced": null,
  "formula_pretty": "Mg3Rh",
  "formula_anonymous": "AB3",
  "chemsys": null,
  "volume": 441.70836185918864,
  "density": 3.965831315444523,
  "density_atomic": 18.404515077466193,
  "symmetry": null,
  "property_name": null,
  "material_id": "mp-542429",
  "deprecated": null,
  "deprecation_reasons": null,
  "last_updated": null,
  "origins": null,
  "warnings": null,
  "structure": {
    "@module": "pymatgen.core.structure",
    "@class": "Structure",
    "charge": 0,
    "lattice": {
      "matrix": [
        [7.8832860799999995, 0.0, 0.0],
        [-3.94164254, 6.8271261800000005, -0.0],
        [-0.0, 0.0, 8.20711283]
      ],
      "pbc": [true, true, true],
      "a": 7.8832860799999995,
      "b": 7.8832859767218295,
      "c": 8.20711283,
      "alpha": 90.0,
      "beta": 90.0,
      "gamma": 119.99999623718854,
      "volume": 441.70836185918864
    },
    "properties": {},
    "sites": [
      {
        "species": [{ "element": "Mg", "occu": 1 }],
        "abc": [-0.0, -0.0, 0.31541969000000003],
        "properties": { "magmom": 0.0 },
        "label": "Mg",
        "xyz": [0.0, 0.0, 2.588684984633623]
      },
      {
        "species": [{ "element": "Mg", "occu": 1 }],
        "abc": [-0.0, -0.0, 0.81541969],
        "properties": { "magmom": 0.0 },
        "label": "Mg",
        "xyz": [0.0, 0.0, 6.692241399633623]
      },
      {
        "species": [{ "element": "Mg", "occu": 1 }],
        "abc": [0.333333, 0.666667, 0.20288273],
        "properties": { "magmom": -0.0 },
        "label": "Mg",
        "xyz": [-3.608309540492627e-6, 4.551419729042061, 1.665081456368426]
      },
      {
        "species": [{ "element": "Mg", "occu": 1 }],
        "abc": [0.666667, 0.333333, 0.70288273],
        "properties": { "magmom": -0.0 },
        "label": "Mg",
        "xyz": [3.9416471483095394, 2.27570645095794, 5.768637871368425]
      },
      {
        "species": [{ "element": "Mg", "occu": 1 }],
        "abc": [0.333333, 0.666667, 0.70288273],
        "properties": { "magmom": -0.0 },
        "label": "Mg",
        "xyz": [-3.608309540492627e-6, 4.551419729042061, 5.768637871368425]
      },
      {
        "species": [{ "element": "Mg", "occu": 1 }],
        "abc": [0.666667, 0.333333, 0.20288273],
        "properties": { "magmom": -0.0 },
        "label": "Mg",
        "xyz": [3.9416471483095394, 2.27570645095794, 1.665081456368426]
      },
      {
        "species": [{ "element": "Mg", "occu": 1 }],
        "abc": [0.28331493, 0.28331493, 0.57730534],
        "properties": { "magmom": 0.0 },
        "label": "Mg",
        "xyz": [1.116726463620052, 1.9342267757878677, 4.7380100627415125]
      },
      {
        "species": [{ "element": "Mg", "occu": 1 }],
        "abc": [0.0, 0.28331493, 0.07730534],
        "properties": { "magmom": 0.0 },
        "label": "Mg",
        "xyz": [-1.1167261803051223, 1.9342267757878677, 0.6344536477415121]
      },
      {
        "species": [{ "element": "Mg", "occu": 1 }],
        "abc": [0.28331493, 0.0, 0.07730534],
        "properties": { "magmom": 0.0 },
        "label": "Mg",
        "xyz": [2.2334526439251743, 0.0, 0.6344536477415121]
      },
      {
        "species": [{ "element": "Mg", "occu": 1 }],
        "abc": [0.71668507, -0.0, 0.57730534],
        "properties": { "magmom": 0.0 },
        "label": "Mg",
        "xyz": [5.649833436074825, 0.0, 4.7380100627415125]
      },
      {
        "species": [{ "element": "Mg", "occu": 1 }],
        "abc": [-0.0, 0.71668507, 0.57730534],
        "properties": { "magmom": 0.0 },
        "label": "Mg",
        "xyz": [-2.824916359694878, 4.892899404212133, 4.7380100627415125]
      },
      {
        "species": [{ "element": "Mg", "occu": 1 }],
        "abc": [0.71668507, 0.71668507, 0.07730534],
        "properties": { "magmom": 0.0 },
        "label": "Mg",
        "xyz": [2.8249170763799474, 4.892899404212133, 0.6344536477415121]
      },
      {
        "species": [{ "element": "Mg", "occu": 1 }],
        "abc": [0.62483033, 0.62483033, 0.41945393000000003],
        "properties": { "magmom": 0.0 },
        "label": "Mg",
        "xyz": [2.4628584338405672, 4.26579550400104, 3.442505730496922]
      },
      {
        "species": [{ "element": "Mg", "occu": 1 }],
        "abc": [0.0, 0.62483033, 0.91945393],
        "properties": { "magmom": 0.0 },
        "label": "Mg",
        "xyz": [-2.4628578090102384, 4.26579550400104, 7.546062145496921]
      },
      {
        "species": [{ "element": "Mg", "occu": 1 }],
        "abc": [0.62483033, 0.0, 0.91945393],
        "properties": { "magmom": 0.0 },
        "label": "Mg",
        "xyz": [4.925716242850806, 0.0, 7.546062145496921]
      },
      {
        "species": [{ "element": "Mg", "occu": 1 }],
        "abc": [0.37516967, -0.0, 0.41945393000000003],
        "properties": { "magmom": 0.0 },
        "label": "Mg",
        "xyz": [2.9575698371491934, 0.0, 3.442505730496922]
      },
      {
        "species": [{ "element": "Mg", "occu": 1 }],
        "abc": [-0.0, 0.37516967, 0.41945393000000003],
        "properties": { "magmom": 0.0 },
        "label": "Mg",
        "xyz": [-1.478784730989762, 2.5613306759989607, 3.442505730496922]
      },
      {
        "species": [{ "element": "Mg", "occu": 1 }],
        "abc": [0.37516967, 0.37516967, 0.91945393],
        "properties": { "magmom": 0.0 },
        "label": "Mg",
        "xyz": [1.4787851061594315, 2.5613306759989607, 7.546062145496921]
      },
      {
        "species": [{ "element": "Rh", "occu": 1 }],
        "abc": [0.32743243, 0.32743243, 0.24767834],
        "properties": { "magmom": -0.0 },
        "label": "Rh",
        "xyz": [1.2906219224960018, 2.2354225150340175, 2.032724081927102]
      },
      {
        "species": [{ "element": "Rh", "occu": 1 }],
        "abc": [0.0, 0.32743243, 0.74767834],
        "properties": { "magmom": -0.0 },
        "label": "Rh",
        "xyz": [-1.2906215950635722, 2.2354225150340175, 6.136280496927102]
      },
      {
        "species": [{ "element": "Rh", "occu": 1 }],
        "abc": [0.32743243, 0.0, 0.74767834],
        "properties": { "magmom": -0.0 },
        "label": "Rh",
        "xyz": [2.581243517559574, 0.0, 6.136280496927102]
      },
      {
        "species": [{ "element": "Rh", "occu": 1 }],
        "abc": [0.67256757, -0.0, 0.24767834],
        "properties": { "magmom": -0.0 },
        "label": "Rh",
        "xyz": [5.302042562440425, 0.0, 2.032724081927102]
      },
      {
        "species": [{ "element": "Rh", "occu": 1 }],
        "abc": [-0.0, 0.67256757, 0.24767834],
        "properties": { "magmom": -0.0 },
        "label": "Rh",
        "xyz": [-2.6510209449364277, 4.591703664965983, 2.032724081927102]
      },
      {
        "species": [{ "element": "Rh", "occu": 1 }],
        "abc": [0.67256757, 0.67256757, 0.74767834],
        "properties": { "magmom": -0.0 },
        "label": "Rh",
        "xyz": [2.6510216175039973, 4.591703664965983, 6.136280496927102]
      }
    ]
  },
  "task_ids": null,
  "uncorrected_energy_per_atom": null,
  "energy_per_atom": -3.394260796666666,
  "formation_energy_per_atom": -0.33033131791666603,
  "energy_above_hull": 0.0,
  "is_stable": true,
  "equilibrium_reaction_energy_per_atom": null,
  "decomposes_to": null,
  "xas": null,
  "grain_boundaries": null,
  "band_gap": 0.0,
  "cbm": null,
  "vbm": null,
  "efermi": 4.18708994,
  "is_gap_direct": null,
  "is_metal": null,
  "es_source_calc_id": null,
  "bandstructure": null,
  "dos": null,
  "dos_energy_up": null,
  "dos_energy_down": null,
  "is_magnetic": null,
  "ordering": null,
  "total_magnetization": 0.0,
  "total_magnetization_normalized_vol": null,
  "total_magnetization_normalized_formula_units": null,
  "num_magnetic_sites": null,
  "num_unique_magnetic_sites": null,
  "types_of_magnetic_species": null,
  "bulk_modulus": null,
  "shear_modulus": null,
  "universal_anisotropy": null,
  "homogeneous_poisson": null,
  "e_total": null,
  "e_ionic": null,
  "e_electronic": null,
  "n": null,
  "e_ij_max": null,
  "weighted_surface_energy_EV_PER_ANG2": null,
  "weighted_surface_energy": null,
  "weighted_work_function": null,
  "surface_anisotropy": null,
  "shape_factor": null,
  "has_reconstructed": null,
  "possible_species": null,
  "has_props": null,
  "theoretical": null,
  "database_IDs": null,
  "fields_not_requested": [
    "builder_meta",
    "nsites",
    "elements",
    "nelements",
    "composition",
    "composition_reduced",
    "chemsys",
    "symmetry",
    "property_name",
    "deprecated",
    "deprecation_reasons",
    "last_updated",
    "origins",
    "warnings",
    "task_ids",
    "uncorrected_energy_per_atom",
    "equilibrium_reaction_energy_per_atom",
    "decomposes_to",
    "xas",
    "grain_boundaries",
    "cbm",
    "vbm",
    "is_gap_direct",
    "is_metal",
    "es_source_calc_id",
    "bandstructure",
    "dos",
    "dos_energy_up",
    "dos_energy_down",
    "is_magnetic",
    "ordering",
    "total_magnetization_normalized_vol",
    "total_magnetization_normalized_formula_units",
    "num_magnetic_sites",
    "num_unique_magnetic_sites",
    "types_of_magnetic_species",
    "bulk_modulus",
    "shear_modulus",
    "universal_anisotropy",
    "homogeneous_poisson",
    "e_total",
    "e_ionic",
    "e_electronic",
    "n",
    "e_ij_max",
    "weighted_surface_energy_EV_PER_ANG2",
    "weighted_surface_energy",
    "weighted_work_function",
    "surface_anisotropy",
    "shape_factor",
    "has_reconstructed",
    "possible_species",
    "has_props",
    "theoretical",
    "database_IDs"
  ]
}
