{
  "builder_meta": null,
  "nsites": null,
  "elements": null,
  "nelements": null,
  "composition": null,
  "composition_reduced": null,
  "formula_pretty": "Mg3Sb2",
  "formula_anonymous": "A2B3",
  "chemsys": null,
  "volume": 1177.5395959499585,
  "density": 3.569834467371242,
  "density_atomic": 29.438489898748962,
  "symmetry": null,
  "property_name": null,
  "material_id": "mp-1196139",
  "deprecated": null,
  "deprecation_reasons": null,
  "last_updated": null,
  "origins": null,
  "warnings": null,
  "structure": {
    "@module": "pymatgen.core.structure",
    "@class": "Structure",
    "charge": 0,
    "lattice": {
      "matrix": [
        [-6.65230025, -6.65230025, 6.65230025],
        [-6.65230025, 6.65230025, -6.65230025],
        [6.65230025, -6.65230025, -6.65230025]
      ],
      "pbc": [true, true, true],
      "a": 11.522122020203144,
      "b": 11.522122020203144,
      "c": 11.522122020203144,
      "alpha": 109.47122063449069,
      "beta": 109.47122063449069,
      "gamma": 109.47122063449069,
      "volume": 1177.5395959499585
    },
    "properties": {},
    "sites": [
      {
        "species": [{ "element": "Mg", "occu": 1 }],
        "abc": [0.99447688, 0.73907676, 0.97917287],
        "properties": { "magmom": 0.0 },
        "label": "Mg",
        "xyz": [-5.018367384866193, -8.212750210020246, -4.814753645768186]
      },
      {
        "species": [{ "element": "Mg", "occu": 1 }],
        "abc": [0.74009611, 0.76092324, 0.25540012],
        "properties": { "magmom": 0.0 },
        "label": "Mg",
        "xyz": [-8.286233115133808, -1.5604499600202468, -1.837546604231813]
      },
      {
        "species": [{ "element": "Mg", "occu": 1 }],
        "abc": [0.50552312, 0.98469599, 0.24459988],
        "properties": { "magmom": 0.0 },
        "label": "Mg",
        "xyz": [-8.286233115133808, 1.5604499600202477, -4.814753645768188]
      },
      {
        "species": [{ "element": "Mg", "occu": 1 }],
        "abc": [0.75990389, 0.51530401, 0.52082713],
        "properties": { "magmom": 0.0 },
        "label": "Mg",
        "xyz": [-5.018367384866194, -5.091850289979752, -1.8375466042318127]
      },
      {
        "species": [{ "element": "Mg", "occu": 1 }],
        "abc": [0.73907676, 0.97917287, 0.99447688],
        "properties": { "magmom": 0.0 },
        "label": "Mg",
        "xyz": [-4.814753645768186, -5.018367384866193, -8.212750210020246]
      },
      {
        "species": [{ "element": "Mg", "occu": 1 }],
        "abc": [0.76092324, 0.25540012, 0.74009611],
        "properties": { "magmom": 0.0 },
        "label": "Mg",
        "xyz": [-1.8375466042318127, -8.286233115133808, -1.5604499600202466]
      },
      {
        "species": [{ "element": "Mg", "occu": 1 }],
        "abc": [0.98469599, 0.24459988, 0.50552312],
        "properties": { "magmom": 0.0 },
        "label": "Mg",
        "xyz": [-4.814753645768188, -8.286233115133808, 1.5604499600202475]
      },
      {
        "species": [{ "element": "Mg", "occu": 1 }],
        "abc": [0.51530401, 0.52082713, 0.75990389],
        "properties": { "magmom": 0.0 },
        "label": "Mg",
        "xyz": [-1.8375466042318127, -5.018367384866193, -5.091850289979752]
      },
      {
        "species": [{ "element": "Mg", "occu": 1 }],
        "abc": [0.97917287, 0.99447688, 0.73907676],
        "properties": { "magmom": 0.0 },
        "label": "Mg",
        "xyz": [-8.212750210020246, -4.814753645768186, -5.018367384866193]
      },
      {
        "species": [{ "element": "Mg", "occu": 1 }],
        "abc": [0.25540012, 0.74009611, 0.76092324],
        "properties": { "magmom": 0.0 },
        "label": "Mg",
        "xyz": [-1.5604499600202466, -1.8375466042318127, -8.286233115133808]
      },
      {
        "species": [{ "element": "Mg", "occu": 1 }],
        "abc": [0.24459988, 0.50552312, 0.98469599],
        "properties": { "magmom": 0.0 },
        "label": "Mg",
        "xyz": [1.5604499600202475, -4.814753645768188, -8.286233115133808]
      },
      {
        "species": [{ "element": "Mg", "occu": 1 }],
        "abc": [0.52082713, 0.75990389, 0.51530401],
        "properties": { "magmom": 0.0 },
        "label": "Mg",
        "xyz": [-5.091850289979751, -1.8375466042318127, -5.018367384866193]
      },
      {
        "species": [{ "element": "Mg", "occu": 1 }],
        "abc": [0.00552312, 0.26092324, 0.02082713],
        "properties": { "magmom": 0.0 },
        "label": "Mg",
        "xyz": [-1.6339328651338074, 1.5604499600202475, -1.8375466042318123]
      },
      {
        "species": [{ "element": "Mg", "occu": 1 }],
        "abc": [0.25990389, 0.23907676, 0.74459988],
        "properties": { "magmom": 0.0 },
        "label": "Mg",
        "xyz": [1.6339328651338074, -5.091850289979753, -4.814753645768187]
      },
      {
        "species": [{ "element": "Mg", "occu": 1 }],
        "abc": [0.49447688, 0.01530401, 0.75540012],
        "properties": { "magmom": 0.0 },
        "label": "Mg",
        "xyz": [1.633932865133807, -8.212750210020246, -1.8375466042318118]
      },
      {
        "species": [{ "element": "Mg", "occu": 1 }],
        "abc": [0.24009611, 0.48469599, 0.47917287000000003],
        "properties": { "magmom": 0.0 },
        "label": "Mg",
        "xyz": [-1.633932865133807, -1.5604499600202477, -4.814753645768188]
      },
      {
        "species": [{ "element": "Mg", "occu": 1 }],
        "abc": [0.26092324, 0.02082713, 0.00552312],
        "properties": { "magmom": 0.0 },
        "label": "Mg",
        "xyz": [-1.8375466042318125, -1.6339328651338072, 1.5604499600202473]
      },
      {
        "species": [{ "element": "Mg", "occu": 1 }],
        "abc": [0.23907676, 0.74459988, 0.25990389],
        "properties": { "magmom": 0.0 },
        "label": "Mg",
        "xyz": [-4.814753645768187, 1.6339328651338074, -5.091850289979753]
      },
      {
        "species": [{ "element": "Mg", "occu": 1 }],
        "abc": [0.01530401, 0.75540012, 0.49447688],
        "properties": { "magmom": 0.0 },
        "label": "Mg",
        "xyz": [-1.8375466042318118, 1.633932865133807, -8.212750210020246]
      },
      {
        "species": [{ "element": "Mg", "occu": 1 }],
        "abc": [0.48469599, 0.47917287000000003, 0.24009611],
        "properties": { "magmom": 0.0 },
        "label": "Mg",
        "xyz": [-4.814753645768188, -1.6339328651338072, -1.5604499600202477]
      },
      {
        "species": [{ "element": "Mg", "occu": 1 }],
        "abc": [0.02082713, 0.00552312, 0.26092324],
        "properties": { "magmom": 0.0 },
        "label": "Mg",
        "xyz": [1.5604499600202473, -1.8375466042318123, -1.6339328651338074]
      },
      {
        "species": [{ "element": "Mg", "occu": 1 }],
        "abc": [0.74459988, 0.25990389, 0.23907676],
        "properties": { "magmom": 0.0 },
        "label": "Mg",
        "xyz": [-5.091850289979753, -4.814753645768187, 1.6339328651338074]
      },
      {
        "species": [{ "element": "Mg", "occu": 1 }],
        "abc": [0.75540012, 0.49447688, 0.01530401],
        "properties": { "magmom": 0.0 },
        "label": "Mg",
        "xyz": [-8.212750210020246, -1.8375466042318118, 1.633932865133807]
      },
      {
        "species": [{ "element": "Mg", "occu": 1 }],
        "abc": [0.47917287000000003, 0.24009611, 0.48469599],
        "properties": { "magmom": 0.0 },
        "label": "Mg",
        "xyz": [-1.5604499600202475, -4.814753645768188, -1.6339328651338072]
      },
      {
        "species": [{ "element": "Sb", "occu": 1 }],
        "abc": [0.0, 0.5, 0.0],
        "properties": { "magmom": 0.0 },
        "label": "Sb",
        "xyz": [-3.326150125, 3.326150125, -3.326150125]
      },
      {
        "species": [{ "element": "Sb", "occu": 1 }],
        "abc": [0.0, 0.0, 0.5],
        "properties": { "magmom": 0.0 },
        "label": "Sb",
        "xyz": [3.326150125, -3.326150125, -3.326150125]
      },
      {
        "species": [{ "element": "Sb", "occu": 1 }],
        "abc": [0.5, 0.0, 0.0],
        "properties": { "magmom": 0.0 },
        "label": "Sb",
        "xyz": [-3.326150125, -3.326150125, 3.326150125]
      },
      {
        "species": [{ "element": "Sb", "occu": 1 }],
        "abc": [0.5, 0.5, 0.5],
        "properties": { "magmom": 0.0 },
        "label": "Sb",
        "xyz": [-3.326150125, -3.326150125, -3.326150125]
      },
      {
        "species": [{ "element": "Sb", "occu": 1 }],
        "abc": [0.26450592, 0.75, 0.5145059200000001],
        "properties": { "magmom": -0.0 },
        "label": "Sb",
        "xyz": [-3.326150124999999, -0.19299547048496057, -6.65230025]
      },
      {
        "species": [{ "element": "Sb", "occu": 1 }],
        "abc": [0.23549408, 0.25, 0.98549408],
        "properties": { "magmom": -0.0 },
        "label": "Sb",
        "xyz": [3.3261501250000003, -6.4593047795150405, -6.65230025]
      },
      {
        "species": [{ "element": "Sb", "occu": 1 }],
        "abc": [0.75, 0.5145059200000001, 0.26450592],
        "properties": { "magmom": -0.0 },
        "label": "Sb",
        "xyz": [-6.65230025, -3.3261501249999994, -0.19299547048496057]
      },
      {
        "species": [{ "element": "Sb", "occu": 1 }],
        "abc": [0.25, 0.98549408, 0.23549408],
        "properties": { "magmom": -0.0 },
        "label": "Sb",
        "xyz": [-6.65230025, 3.3261501250000003, -6.4593047795150405]
      },
      {
        "species": [{ "element": "Sb", "occu": 1 }],
        "abc": [0.5145059200000001, 0.26450592, 0.75],
        "properties": { "magmom": -0.0 },
        "label": "Sb",
        "xyz": [-0.19299547048496013, -6.65230025, -3.3261501249999994]
      },
      {
        "species": [{ "element": "Sb", "occu": 1 }],
        "abc": [0.98549408, 0.23549408, 0.25],
        "properties": { "magmom": -0.0 },
        "label": "Sb",
        "xyz": [-6.45930477951504, -6.652300250000001, 3.3261501250000007]
      },
      {
        "species": [{ "element": "Sb", "occu": 1 }],
        "abc": [0.73549408, 0.25, 0.48549408],
        "properties": { "magmom": -0.0 },
        "label": "Sb",
        "xyz": [-3.3261501250000003, -6.4593047795150405, 4.440892098500626e-16]
      },
      {
        "species": [{ "element": "Sb", "occu": 1 }],
        "abc": [0.7645059200000001, 0.75, 0.01450592],
        "properties": { "magmom": -0.0 },
        "label": "Sb",
        "xyz": [-9.978450375000001, -0.19299547048496052, 5.134781488891349e-16]
      },
      {
        "species": [{ "element": "Sb", "occu": 1 }],
        "abc": [0.25, 0.48549408, 0.73549408],
        "properties": { "magmom": -0.0 },
        "label": "Sb",
        "xyz": [8.881784197001252e-16, -3.3261501250000003, -6.4593047795150405]
      },
      {
        "species": [{ "element": "Sb", "occu": 1 }],
        "abc": [0.75, 0.01450592, 0.7645059200000001],
        "properties": { "magmom": -0.0 },
        "label": "Sb",
        "xyz": [8.881784197001252e-16, -9.978450375000001, -0.19299547048496013]
      },
      {
        "species": [{ "element": "Sb", "occu": 1 }],
        "abc": [0.48549408, 0.73549408, 0.25],
        "properties": { "magmom": -0.0 },
        "label": "Sb",
        "xyz": [-6.45930477951504, 4.440892098500626e-16, -3.3261501250000003]
      },
      {
        "species": [{ "element": "Sb", "occu": 1 }],
        "abc": [0.01450592, 0.7645059200000001, 0.75],
        "properties": { "magmom": -0.0 },
        "label": "Sb",
        "xyz": [-0.19299547048496013, 8.881784197001252e-16, -9.978450375000001]
      }
    ]
  },
  "task_ids": null,
  "uncorrected_energy_per_atom": null,
  "energy_per_atom": -3.05801384425,
  "formation_energy_per_atom": -0.428131339249999,
  "energy_above_hull": 0.0,
  "is_stable": true,
  "equilibrium_reaction_energy_per_atom": null,
  "decomposes_to": null,
  "xas": null,
  "grain_boundaries": null,
  "band_gap": 1.3212000000000002,
  "cbm": null,
  "vbm": null,
  "efermi": 3.15037075,
  "is_gap_direct": null,
  "is_metal": null,
  "es_source_calc_id": null,
  "bandstructure": null,
  "dos": null,
  "dos_energy_up": null,
  "dos_energy_down": null,
  "is_magnetic": null,
  "ordering": null,
  "total_magnetization": 0.0,
  "total_magnetization_normalized_vol": null,
  "total_magnetization_normalized_formula_units": null,
  "num_magnetic_sites": null,
  "num_unique_magnetic_sites": null,
  "types_of_magnetic_species": null,
  "bulk_modulus": null,
  "shear_modulus": null,
  "universal_anisotropy": null,
  "homogeneous_poisson": null,
  "e_total": null,
  "e_ionic": null,
  "e_electronic": null,
  "n": null,
  "e_ij_max": null,
  "weighted_surface_energy_EV_PER_ANG2": null,
  "weighted_surface_energy": null,
  "weighted_work_function": null,
  "surface_anisotropy": null,
  "shape_factor": null,
  "has_reconstructed": null,
  "possible_species": null,
  "has_props": null,
  "theoretical": null,
  "database_IDs": null,
  "fields_not_requested": [
    "builder_meta",
    "nsites",
    "elements",
    "nelements",
    "composition",
    "composition_reduced",
    "chemsys",
    "symmetry",
    "property_name",
    "deprecated",
    "deprecation_reasons",
    "last_updated",
    "origins",
    "warnings",
    "task_ids",
    "uncorrected_energy_per_atom",
    "equilibrium_reaction_energy_per_atom",
    "decomposes_to",
    "xas",
    "grain_boundaries",
    "cbm",
    "vbm",
    "is_gap_direct",
    "is_metal",
    "es_source_calc_id",
    "bandstructure",
    "dos",
    "dos_energy_up",
    "dos_energy_down",
    "is_magnetic",
    "ordering",
    "total_magnetization_normalized_vol",
    "total_magnetization_normalized_formula_units",
    "num_magnetic_sites",
    "num_unique_magnetic_sites",
    "types_of_magnetic_species",
    "bulk_modulus",
    "shear_modulus",
    "universal_anisotropy",
    "homogeneous_poisson",
    "e_total",
    "e_ionic",
    "e_electronic",
    "n",
    "e_ij_max",
    "weighted_surface_energy_EV_PER_ANG2",
    "weighted_surface_energy",
    "weighted_work_function",
    "surface_anisotropy",
    "shape_factor",
    "has_reconstructed",
    "possible_species",
    "has_props",
    "theoretical",
    "database_IDs"
  ]
}
