{"builder_meta": null, "nsites": null, "elements": null, "nelements": null, "composition": null, "composition_reduced": null, "formula_pretty": "Mg3Si2", "formula_anonymous": "A2B3", "chemsys": null, "volume": 190.03959918039098, "density": 2.25587032256007, "density_atomic": 19.003959918039097, "symmetry": null, "property_name": null, "material_id": "mp-1075796", "deprecated": null, "deprecation_reasons": null, "last_updated": null, "origins": null, "warnings": null, "structure": {"@module": "pymatgen.core.structure", "@class": "Structure", "charge": 0, "lattice": {"matrix": [[3.651827, 3.907607, 0.0], [-3.651827, 3.907607, 0.0], [0.0, 1.692167, 6.658755]], "pbc": [true, true, true], "a": 5.34838600929084, "b": 5.34838600929084, "c": 6.870403722192314, "alpha": 79.63321897684055, "beta": 79.63321897684055, "gamma": 86.12417395031925, "volume": 190.03959918039098}, "properties": {}, "sites": [{"species": [{"element": "Mg", "occu": 1}], "abc": [0.639577, 0.735931, 0.518848], "properties": {"magmom": -0.0}, "label": "Mg", "xyz": [-0.3518681387579998, 6.252922152972, 3.45488171424]}, {"species": [{"element": "Mg", "occu": 1}], "abc": [0.360423, 0.264069, 0.481151999999999], "properties": {"magmom": -0.0}, "label": "Mg", "xyz": [0.35186813875799994, 3.2544588470279985, 3.2038732857599936]}, {"species": [{"element": "Mg", "occu": 1}], "abc": [0.842181, 0.157819, 0.75], "properties": {"magmom": -0.0}, "label": "Mg", "xyz": [2.4991716293739996, 5.17673225, 4.99406625]}, {"species": [{"element": "Mg", "occu": 1}], "abc": [0.157819, 0.842181, 0.25], "properties": {"magmom": -0.0}, "label": "Mg", "xyz": [-2.4991716293739996, 4.33064875, 1.66468875]}, {"species": [{"element": "Mg", "occu": 1}], "abc": [0.264069, 0.360423, 0.981151999999999], "properties": {"magmom": -0.0}, "label": "Mg", "xyz": [-0.35186813875799994, 4.100542347027998, 6.533250785759994]}, {"species": [{"element": "Mg", "occu": 1}], "abc": [0.735931, 0.639577, 0.018848], "properties": {"magmom": -0.0}, "label": "Mg", "xyz": [0.3518681387579998, 5.406838652972, 0.12550421424]}, {"species": [{"element": "Si", "occu": 1}], "abc": [0.337351, 0.900764999999999, 0.836428], "properties": {"magmom": 0.0}, "label": "Si", "xyz": [-2.0574904573779964, 6.253446607887996, 5.569569127139999]}, {"species": [{"element": "Si", "occu": 1}], "abc": [0.662648999999999, 0.099234999999999, 0.163572], "properties": {"magmom": 0.0}, "label": "Si", "xyz": [2.0574904573780004, 3.2539343921119928, 1.08918587286]}, {"species": [{"element": "Si", "occu": 1}], "abc": [0.099234999999999, 0.662648999999999, 0.663571999999999], "properties": {"magmom": 0.0}, "label": "Si", "xyz": [-2.0574904573780004, 4.100017892111991, 4.418563372859994]}, {"species": [{"element": "Si", "occu": 1}], "abc": [0.900764999999999, 0.337351, 0.336428], "properties": {"magmom": 0.0}, "label": "Si", "xyz": [2.0574904573779964, 5.4073631078879965, 2.24019162714]}]}, "task_ids": null, "uncorrected_energy_per_atom": null, "energy_per_atom": -3.138941231, "formation_energy_per_atom": 0.009467989999999002, "energy_above_hull": 0.107206877, "is_stable": false, "equilibrium_reaction_energy_per_atom": null, "decomposes_to": null, "xas": null, "grain_boundaries": null, "band_gap": 0.0, "cbm": null, "vbm": null, "efermi": 4.84287979, "is_gap_direct": null, "is_metal": null, "es_source_calc_id": null, "bandstructure": null, "dos": null, "dos_energy_up": null, "dos_energy_down": null, "is_magnetic": null, "ordering": null, "total_magnetization": 0.0082995, "total_magnetization_normalized_vol": null, "total_magnetization_normalized_formula_units": null, "num_magnetic_sites": null, "num_unique_magnetic_sites": null, "types_of_magnetic_species": null, "bulk_modulus": null, "shear_modulus": null, "universal_anisotropy": null, "homogeneous_poisson": null, "e_total": null, "e_ionic": null, "e_electronic": null, "n": null, "e_ij_max": null, "weighted_surface_energy_EV_PER_ANG2": null, "weighted_surface_energy": null, "weighted_work_function": null, "surface_anisotropy": null, "shape_factor": null, "has_reconstructed": null, "possible_species": null, "has_props": null, "theoretical": null, "database_IDs": null, "fields_not_requested": ["builder_meta", "nsites", "elements", "nelements", "composition", "composition_reduced", "chemsys", "symmetry", "property_name", "deprecated", "deprecation_reasons", "last_updated", "origins", "warnings", "task_ids", "uncorrected_energy_per_atom", "equilibrium_reaction_energy_per_atom", "decomposes_to", "xas", "grain_boundaries", "cbm", "vbm", "is_gap_direct", "is_metal", "es_source_calc_id", "bandstructure", "dos", "dos_energy_up", "dos_energy_down", "is_magnetic", "ordering", "total_magnetization_normalized_vol", "total_magnetization_normalized_formula_units", "num_magnetic_sites", "num_unique_magnetic_sites", "types_of_magnetic_species", "bulk_modulus", "shear_modulus", "universal_anisotropy", "homogeneous_poisson", "e_total", "e_ionic", "e_electronic", "n", "e_ij_max", "weighted_surface_energy_EV_PER_ANG2", "weighted_surface_energy", "weighted_work_function", "surface_anisotropy", "shape_factor", "has_reconstructed", "possible_species", "has_props", "theoretical", "database_IDs"]}