{"builder_meta": null, "nsites": null, "elements": null, "nelements": null, "composition": null, "composition_reduced": null, "formula_pretty": "Mg3Si4", "formula_anonymous": "A3B4", "chemsys": null, "volume": 279.9474700365099, "density": 2.197744354117552, "density_atomic": 19.996247859750707, "symmetry": null, "property_name": null, "material_id": "mp-1075152", "deprecated": null, "deprecation_reasons": null, "last_updated": null, "origins": null, "warnings": null, "structure": {"@module": "pymatgen.core.structure", "@class": "Structure", "charge": 0, "lattice": {"matrix": [[2.089773, 8.58437, 0.0], [-2.089773, 8.58437, 0.0], [0.0, 2.604168999999999, 7.802594]], "pbc": [true, true, true], "a": 8.83507552250851, "b": 8.83507552250851, "c": 8.225701751789753, "alpha": 72.08500251644712, "beta": 72.08500251644712, "gamma": 27.36382443702143, "volume": 279.9474700365099}, "properties": {}, "sites": [{"species": [{"element": "Mg", "occu": 1}], "abc": [0.285842, 0.285842, 0.676481999999999], "properties": {"magmom": 0.0}, "label": "Mg", "xyz": [0.0, 6.669220432537996, 5.278314394307992]}, {"species": [{"element": "Mg", "occu": 1}], "abc": [0.620811, 0.620811, 0.865804999999999], "properties": {"magmom": 0.0}, "label": "Mg", "xyz": [0.0, 12.913245189184995, 6.755524898169993]}, {"species": [{"element": "Mg", "occu": 1}], "abc": [0.475813, 0.475813, 0.672995], "properties": {"magmom": 0.0}, "label": "Mg", "xyz": [0.0, 9.921702401774997, 5.25110674903]}, {"species": [{"element": "Mg", "occu": 1}], "abc": [0.917447, 0.917447, 0.408605], "properties": {"magmom": 0.0}, "label": "Mg", "xyz": [0.0, 16.815485481025, 3.18817892137]}, {"species": [{"element": "Mg", "occu": 1}], "abc": [0.721001999999999, 0.721001999999999, 0.443084], "properties": {"magmom": 0.0}, "label": "Mg", "xyz": [0.0, 13.532561494675981, 3.4572045598959997]}, {"species": [{"element": "Mg", "occu": 1}], "abc": [0.972650999999999, 0.972650999999999, 0.946658], "properties": {"magmom": 0.0}, "label": "Mg", "xyz": [0.0, 19.164449546941984, 7.386388030852]}, {"species": [{"element": "Si", "occu": 1}], "abc": [0.112731, 0.112731, 0.37179], "properties": {"magmom": -0.0}, "label": "Si", "xyz": [0.0, 2.9036532214499995, 2.90092642326]}, {"species": [{"element": "Si", "occu": 1}], "abc": [0.5470200000000001, 0.5470200000000001, 0.340153], "properties": {"magmom": -0.0}, "label": "Si", "xyz": [0.0, 10.277460052657002, 2.654075756882]}, {"species": [{"element": "Si", "occu": 1}], "abc": [0.869335, 0.869335, 0.761072], "properties": {"magmom": -0.0}, "label": "Si", "xyz": [0.0, 16.907346697067997, 5.938335820768]}, {"species": [{"element": "Si", "occu": 1}], "abc": [0.334111, 0.334111, 0.315237], "properties": {"magmom": -0.0}, "label": "Si", "xyz": [0.0, 6.557195313193, 2.459666324778]}, {"species": [{"element": "Si", "occu": 1}], "abc": [0.124378999999999, 0.124378999999999, 0.655926999999999], "properties": {"magmom": -0.0}, "label": "Si", "xyz": [0.0, 3.84357547212298, 5.117932074637992]}, {"species": [{"element": "Si", "occu": 1}], "abc": [0.243411, 0.243411, 0.1524], "properties": {"magmom": -0.0}, "label": "Si", "xyz": [0.0, 4.57593552774, 1.1891153256]}, {"species": [{"element": "Si", "occu": 1}], "abc": [0.743954, 0.743954, 0.9939700000000001], "properties": {"magmom": -0.0}, "label": "Si", "xyz": [0.0, 15.361218658889998, 7.755544358180001]}, {"species": [{"element": "Si", "occu": 1}], "abc": [0.474817999999999, 0.474817999999999, 0.142222], "properties": {"magmom": -0.0}, "label": "Si", "xyz": [0.0, 8.522396912837984, 1.109700523868]}]}, "task_ids": null, "uncorrected_energy_per_atom": null, "energy_per_atom": -3.692420955714285, "formation_energy_per_atom": 0.10653363928571401, "energy_above_hull": 0.17634712999999902, "is_stable": false, "equilibrium_reaction_energy_per_atom": null, "decomposes_to": null, "xas": null, "grain_boundaries": null, "band_gap": 0.0, "cbm": null, "vbm": null, "efermi": 4.70329512, "is_gap_direct": null, "is_metal": null, "es_source_calc_id": null, "bandstructure": null, "dos": null, "dos_energy_up": null, "dos_energy_down": null, "is_magnetic": null, "ordering": null, "total_magnetization": 0.0015061999999990002, "total_magnetization_normalized_vol": null, "total_magnetization_normalized_formula_units": null, "num_magnetic_sites": null, "num_unique_magnetic_sites": null, "types_of_magnetic_species": null, "bulk_modulus": null, "shear_modulus": null, "universal_anisotropy": null, "homogeneous_poisson": null, "e_total": null, "e_ionic": null, "e_electronic": null, "n": null, "e_ij_max": null, "weighted_surface_energy_EV_PER_ANG2": null, "weighted_surface_energy": null, "weighted_work_function": null, "surface_anisotropy": null, "shape_factor": null, "has_reconstructed": null, "possible_species": null, "has_props": null, "theoretical": null, "database_IDs": null, "fields_not_requested": ["builder_meta", "nsites", "elements", "nelements", "composition", "composition_reduced", "chemsys", "symmetry", "property_name", "deprecated", "deprecation_reasons", "last_updated", "origins", "warnings", "task_ids", "uncorrected_energy_per_atom", "equilibrium_reaction_energy_per_atom", "decomposes_to", "xas", "grain_boundaries", "cbm", "vbm", "is_gap_direct", "is_metal", "es_source_calc_id", "bandstructure", "dos", "dos_energy_up", "dos_energy_down", "is_magnetic", "ordering", "total_magnetization_normalized_vol", "total_magnetization_normalized_formula_units", "num_magnetic_sites", "num_unique_magnetic_sites", "types_of_magnetic_species", "bulk_modulus", "shear_modulus", "universal_anisotropy", "homogeneous_poisson", "e_total", "e_ionic", "e_electronic", "n", "e_ij_max", "weighted_surface_energy_EV_PER_ANG2", "weighted_surface_energy", "weighted_work_function", "surface_anisotropy", "shape_factor", "has_reconstructed", "possible_species", "has_props", "theoretical", "database_IDs"]}