{"builder_meta": null, "nsites": null, "elements": null, "nelements": null, "composition": null, "composition_reduced": null, "formula_pretty": "Mg3Ti4", "formula_anonymous": "A3B4", "chemsys": null, "volume": 264.69093093443036, "density": 3.3172145225758563, "density_atomic": 18.906495066745027, "symmetry": null, "property_name": null, "material_id": "mp-1094398", "deprecated": null, "deprecation_reasons": null, "last_updated": null, "origins": null, "warnings": null, "structure": {"@module": "pymatgen.core.structure", "@class": "Structure", "charge": 0, "lattice": {"matrix": [[4.021596, -6.965609, 0.0], [4.021596, 6.965609, 0.0], [0.0, 0.0, 4.7244530000000005]], "pbc": [true, true, true], "a": 8.043192346829523, "b": 8.043192346829523, "c": 4.7244530000000005, "alpha": 90.0, "beta": 90.0, "gamma": 120.00000285285437, "volume": 264.6909309344304}, "properties": {}, "sites": [{"species": [{"element": "Mg", "occu": 1}], "abc": [0.752732, 0.803890999999999, 0.25], "properties": {"magmom": -0.0}, "label": "Mg", "xyz": [6.2601088303079955, 0.3563535908309934, 1.1811132500000001]}, {"species": [{"element": "Mg", "occu": 1}], "abc": [0.247268, 0.196108999999999, 0.75], "properties": {"magmom": 0.0}, "label": "Mg", "xyz": [1.783083169691996, -0.35635359083100693, 3.5433397500000003]}, {"species": [{"element": "Mg", "occu": 1}], "abc": [0.948840999999999, 0.752732, 0.75], "properties": {"magmom": 0.0}, "label": "Mg", "xyz": [6.843039170507995, -1.3660186153809937, 3.5433397500000003]}, {"species": [{"element": "Mg", "occu": 1}], "abc": [0.196108999999999, 0.948840999999999, 0.25], "properties": {"magmom": -0.0}, "label": "Mg", "xyz": [4.604526340199992, 5.243236793788, 1.1811132500000001]}, {"species": [{"element": "Mg", "occu": 1}], "abc": [0.803890999999999, 0.051158999999999004, 0.75], "properties": {"magmom": 0.0}, "label": "Mg", "xyz": [3.438665659799992, -5.243236793787999, 3.5433397500000003]}, {"species": [{"element": "Mg", "occu": 1}], "abc": [0.051158999999999004, 0.247268, 0.25], "properties": {"magmom": -0.0}, "label": "Mg", "xyz": [1.2001528294919959, 1.366018615381007, 1.1811132500000001]}, {"species": [{"element": "Ti", "occu": 1}], "abc": [0.514294, 0.619317999999999, 0.75], "properties": {"magmom": 0.003}, "label": "Ti", "xyz": [4.558929484751996, 0.731556119615993, 3.5433397500000003]}, {"species": [{"element": "Ti", "occu": 1}], "abc": [0.485705999999999, 0.380681999999999, 0.25], "properties": {"magmom": -0.001}, "label": "Ti", "xyz": [3.484262515247992, -0.7315561196160001, 1.1811132500000001]}, {"species": [{"element": "Ti", "occu": 1}], "abc": [0.666667, 0.333333, 0.75], "properties": {"magmom": 0.003}, "label": "Ti", "xyz": [4.021596, -2.321874310406, 3.5433397500000003]}, {"species": [{"element": "Ti", "occu": 1}], "abc": [0.894976, 0.514294, 0.25], "properties": {"magmom": 0.001}, "label": "Ti", "xyz": [5.66751459492, -2.6516819653379997, 1.1811132500000001]}, {"species": [{"element": "Ti", "occu": 1}], "abc": [0.380681999999999, 0.894976, 0.75], "properties": {"magmom": 0.001}, "label": "Ti", "xyz": [5.130181110167996, 3.5823709150460066, 3.5433397500000003]}, {"species": [{"element": "Ti", "occu": 1}], "abc": [0.619317999999999, 0.10502399999999901, 0.25], "properties": {"magmom": 0.001}, "label": "Ti", "xyz": [2.913010889831992, -3.582370915046, 1.1811132500000001]}, {"species": [{"element": "Ti", "occu": 1}], "abc": [0.10502399999999901, 0.485705999999999, 0.75], "properties": {"magmom": 0.002}, "label": "Ti", "xyz": [2.375677405079992, 2.651681965338, 3.5433397500000003]}, {"species": [{"element": "Ti", "occu": 1}], "abc": [0.333333, 0.666667, 0.25], "properties": {"magmom": 0.004}, "label": "Ti", "xyz": [4.021596, 2.321874310406, 1.1811132500000001]}]}, "task_ids": null, "uncorrected_energy_per_atom": null, "energy_per_atom": -5.076026898571428, "formation_energy_per_atom": 0.13445568880952302, "energy_above_hull": 0.13445568880952302, "is_stable": false, "equilibrium_reaction_energy_per_atom": null, "decomposes_to": null, "xas": null, "grain_boundaries": null, "band_gap": 0.0, "cbm": null, "vbm": null, "efermi": 4.76471993, "is_gap_direct": null, "is_metal": null, "es_source_calc_id": null, "bandstructure": null, "dos": null, "dos_energy_up": null, "dos_energy_down": null, "is_magnetic": null, "ordering": null, "total_magnetization": 0.0170852, "total_magnetization_normalized_vol": null, "total_magnetization_normalized_formula_units": null, "num_magnetic_sites": null, "num_unique_magnetic_sites": null, "types_of_magnetic_species": null, "bulk_modulus": null, "shear_modulus": null, "universal_anisotropy": null, "homogeneous_poisson": null, "e_total": null, "e_ionic": null, "e_electronic": null, "n": null, "e_ij_max": null, "weighted_surface_energy_EV_PER_ANG2": null, "weighted_surface_energy": null, "weighted_work_function": null, "surface_anisotropy": null, "shape_factor": null, "has_reconstructed": null, "possible_species": null, "has_props": null, "theoretical": null, "database_IDs": null, "fields_not_requested": ["builder_meta", "nsites", "elements", "nelements", "composition", "composition_reduced", "chemsys", "symmetry", "property_name", "deprecated", "deprecation_reasons", "last_updated", "origins", "warnings", "task_ids", "uncorrected_energy_per_atom", "equilibrium_reaction_energy_per_atom", "decomposes_to", "xas", "grain_boundaries", "cbm", "vbm", "is_gap_direct", "is_metal", "es_source_calc_id", "bandstructure", "dos", "dos_energy_up", "dos_energy_down", "is_magnetic", "ordering", "total_magnetization_normalized_vol", "total_magnetization_normalized_formula_units", "num_magnetic_sites", "num_unique_magnetic_sites", "types_of_magnetic_species", "bulk_modulus", "shear_modulus", "universal_anisotropy", "homogeneous_poisson", "e_total", "e_ionic", "e_electronic", "n", "e_ij_max", "weighted_surface_energy_EV_PER_ANG2", "weighted_surface_energy", "weighted_work_function", "surface_anisotropy", "shape_factor", "has_reconstructed", "possible_species", "has_props", "theoretical", "database_IDs"]}