{
  "builder_meta": null,
  "nsites": null,
  "elements": null,
  "nelements": null,
  "composition": null,
  "composition_reduced": null,
  "formula_pretty": "Mg3Tl",
  "formula_anonymous": "AB3",
  "chemsys": null,
  "volume": 178.50861129931565,
  "density": 5.159019017627997,
  "density_atomic": 22.313576412414456,
  "symmetry": null,
  "property_name": null,
  "material_id": "mp-864938",
  "deprecated": null,
  "deprecation_reasons": null,
  "last_updated": null,
  "origins": null,
  "warnings": null,
  "structure": {
    "@module": "pymatgen.core.structure",
    "@class": "Structure",
    "charge": 0,
    "lattice": {
      "matrix": [
        [6.31400941, -3.7930000000000004e-5, 0.0],
        [-3.15703305, 5.46802749, 0.0],
        [0.0, 0.0, 5.17040739]
      ],
      "pbc": [true, true, true],
      "a": 6.314009410113928,
      "b": 6.313967240189641,
      "c": 5.17040739,
      "alpha": 90.0,
      "beta": 90.0,
      "gamma": 120.00086213293989,
      "volume": 178.50861129931565
    },
    "properties": {},
    "sites": [
      {
        "species": [{ "element": "Mg", "occu": 1 }],
        "abc": [0.16590272, 0.33197332, 0.25],
        "properties": { "magmom": 0.0 },
        "label": "Mg",
        "xyz": [-0.0005394077336307035, 1.8152329470163973, 1.2926018475]
      },
      {
        "species": [{ "element": "Mg", "occu": 1 }],
        "abc": [0.16603612, 0.83393832, 0.25],
        "properties": { "magmom": -0.0 },
        "label": "Mg",
        "xyz": [-1.5844172138215868, 4.559991360974385, 1.2926018475]
      },
      {
        "species": [{ "element": "Mg", "occu": 1 }],
        "abc": [0.6679357, 0.83389988, 0.25],
        "properties": { "magmom": 0.0 },
        "label": "Mg",
        "xyz": [1.584702813523903, 4.5597621329466005, 1.2926018475]
      },
      {
        "species": [{ "element": "Mg", "occu": 1 }],
        "abc": [0.33204712000000003, 0.16609965000000002, 0.749999],
        "properties": { "magmom": 0.0 },
        "label": "Mg",
        "xyz": [1.572166555599967, 0.908224857732117, 3.87780037209261]
      },
      {
        "species": [{ "element": "Mg", "occu": 1 }],
        "abc": [0.8339788300000001, 0.16605887, 0.749999],
        "properties": { "magmom": -0.0 },
        "label": "Mg",
        "xyz": [4.741496839525136, 0.9079828333013144, 3.87780037209261]
      },
      {
        "species": [{ "element": "Mg", "occu": 1 }],
        "abc": [0.834094, 0.66800778, 0.749999],
        "properties": { "magmom": 0.0 },
        "label": "Mg",
        "xyz": [3.1575547257074104, 3.6526532673884526, 3.87780037209261]
      },
      {
        "species": [{ "element": "Tl", "occu": 1 }],
        "abc": [0.66658318, 0.33329241, 0.25],
        "properties": { "magmom": -0.0 },
        "label": "Tl",
        "xyz": [3.156597317383574, 1.8224267765883333, 1.2926018475]
      },
      {
        "species": [{ "element": "Tl", "occu": 1 }],
        "abc": [0.33342633, 0.66672577, 0.749999],
        "properties": { "magmom": 0.0 },
        "label": "Tl",
        "xyz": [0.00038169398506671115, 3.6456621917907204, 3.87780037209261]
      }
    ]
  },
  "task_ids": null,
  "uncorrected_energy_per_atom": null,
  "energy_per_atom": -1.829701476249999,
  "formation_energy_per_atom": -0.013980935833334,
  "energy_above_hull": 0.0,
  "is_stable": true,
  "equilibrium_reaction_energy_per_atom": null,
  "decomposes_to": null,
  "xas": null,
  "grain_boundaries": null,
  "band_gap": 0.0,
  "cbm": null,
  "vbm": null,
  "efermi": 4.86563399,
  "is_gap_direct": null,
  "is_metal": null,
  "es_source_calc_id": null,
  "bandstructure": null,
  "dos": null,
  "dos_energy_up": null,
  "dos_energy_down": null,
  "is_magnetic": null,
  "ordering": null,
  "total_magnetization": 0.0,
  "total_magnetization_normalized_vol": null,
  "total_magnetization_normalized_formula_units": null,
  "num_magnetic_sites": null,
  "num_unique_magnetic_sites": null,
  "types_of_magnetic_species": null,
  "bulk_modulus": null,
  "shear_modulus": null,
  "universal_anisotropy": null,
  "homogeneous_poisson": null,
  "e_total": null,
  "e_ionic": null,
  "e_electronic": null,
  "n": null,
  "e_ij_max": null,
  "weighted_surface_energy_EV_PER_ANG2": null,
  "weighted_surface_energy": null,
  "weighted_work_function": null,
  "surface_anisotropy": null,
  "shape_factor": null,
  "has_reconstructed": null,
  "possible_species": null,
  "has_props": null,
  "theoretical": null,
  "database_IDs": null,
  "fields_not_requested": [
    "builder_meta",
    "nsites",
    "elements",
    "nelements",
    "composition",
    "composition_reduced",
    "chemsys",
    "symmetry",
    "property_name",
    "deprecated",
    "deprecation_reasons",
    "last_updated",
    "origins",
    "warnings",
    "task_ids",
    "uncorrected_energy_per_atom",
    "equilibrium_reaction_energy_per_atom",
    "decomposes_to",
    "xas",
    "grain_boundaries",
    "cbm",
    "vbm",
    "is_gap_direct",
    "is_metal",
    "es_source_calc_id",
    "bandstructure",
    "dos",
    "dos_energy_up",
    "dos_energy_down",
    "is_magnetic",
    "ordering",
    "total_magnetization_normalized_vol",
    "total_magnetization_normalized_formula_units",
    "num_magnetic_sites",
    "num_unique_magnetic_sites",
    "types_of_magnetic_species",
    "bulk_modulus",
    "shear_modulus",
    "universal_anisotropy",
    "homogeneous_poisson",
    "e_total",
    "e_ionic",
    "e_electronic",
    "n",
    "e_ij_max",
    "weighted_surface_energy_EV_PER_ANG2",
    "weighted_surface_energy",
    "weighted_work_function",
    "surface_anisotropy",
    "shape_factor",
    "has_reconstructed",
    "possible_species",
    "has_props",
    "theoretical",
    "database_IDs"
  ]
}
