{
  "builder_meta": null,
  "nsites": null,
  "elements": null,
  "nelements": null,
  "composition": null,
  "composition_reduced": null,
  "formula_pretty": "Mg3Zn",
  "formula_anonymous": "AB3",
  "chemsys": null,
  "volume": 156.2380277627654,
  "density": 2.940288086548909,
  "density_atomic": 19.529753470345675,
  "symmetry": null,
  "property_name": null,
  "material_id": "mp-1094451",
  "deprecated": null,
  "deprecation_reasons": null,
  "last_updated": null,
  "origins": null,
  "warnings": null,
  "structure": {
    "@module": "pymatgen.core.structure",
    "@class": "Structure",
    "charge": 0,
    "lattice": {
      "matrix": [
        [3.06933423, -5.31624147, 0.0],
        [3.06933423, 5.31624147, -0.0],
        [0.0, -0.0, 4.7874899]
      ],
      "pbc": [true, true, true],
      "a": 6.138667280672365,
      "b": 6.138667280672365,
      "c": 4.7874899,
      "alpha": 90.0,
      "beta": 90.0,
      "gamma": 119.99998728979969,
      "volume": 156.2380277627654
    },
    "properties": {},
    "sites": [
      {
        "species": [{ "element": "Mg", "occu": 1 }],
        "abc": [0.65813068, 0.82906484, 0.75],
        "properties": { "magmom": 0.0 },
        "label": "Mg",
        "xyz": [4.564700116238649, 0.9087272700316156, 3.5906174249999996]
      },
      {
        "species": [{ "element": "Mg", "occu": 1 }],
        "abc": [0.17093516, 0.34186932000000003, 0.75],
        "properties": { "magmom": 0.0 },
        "label": "Mg",
        "xyz": [1.5739683437613503, 0.9087272700316152, 3.5906174249999996]
      },
      {
        "species": [{ "element": "Mg", "occu": 1 }],
        "abc": [0.17093516, 0.82906484, 0.75],
        "properties": { "magmom": 0.0 },
        "label": "Mg",
        "xyz": [3.06933423, 3.4987762974538295, 3.5906174249999996]
      },
      {
        "species": [{ "element": "Mg", "occu": 1 }],
        "abc": [0.82906484, 0.65813068, 0.25],
        "properties": { "magmom": 0.0 },
        "label": "Mg",
        "xyz": [4.564700116238649, -0.9087272700316156, 1.196872475]
      },
      {
        "species": [{ "element": "Mg", "occu": 1 }],
        "abc": [0.82906484, 0.17093516, 0.25],
        "properties": { "magmom": 0.0 },
        "label": "Mg",
        "xyz": [3.06933423, -3.4987762974538295, 1.196872475]
      },
      {
        "species": [{ "element": "Mg", "occu": 1 }],
        "abc": [0.34186932000000003, 0.17093516, 0.25],
        "properties": { "magmom": 0.0 },
        "label": "Mg",
        "xyz": [1.5739683437613503, -0.9087272700316152, 1.196872475]
      },
      {
        "species": [{ "element": "Zn", "occu": 1 }],
        "abc": [0.666667, 0.333333, 0.75],
        "properties": { "magmom": -0.0 },
        "label": "Zn",
        "xyz": [3.06933423, -1.77208403416098, 3.5906174249999996]
      },
      {
        "species": [{ "element": "Zn", "occu": 1 }],
        "abc": [0.333333, 0.666667, 0.25],
        "properties": { "magmom": -0.0 },
        "label": "Zn",
        "xyz": [3.06933423, 1.77208403416098, 1.196872475]
      }
    ]
  },
  "task_ids": null,
  "uncorrected_energy_per_atom": null,
  "energy_per_atom": -1.564121898749999,
  "formation_energy_per_atom": -0.026333484999999,
  "energy_above_hull": 0.026793507400000003,
  "is_stable": false,
  "equilibrium_reaction_energy_per_atom": null,
  "decomposes_to": null,
  "xas": null,
  "grain_boundaries": null,
  "band_gap": 0.0,
  "cbm": null,
  "vbm": null,
  "efermi": 3.44311386,
  "is_gap_direct": null,
  "is_metal": null,
  "es_source_calc_id": null,
  "bandstructure": null,
  "dos": null,
  "dos_energy_up": null,
  "dos_energy_down": null,
  "is_magnetic": null,
  "ordering": null,
  "total_magnetization": 0.0,
  "total_magnetization_normalized_vol": null,
  "total_magnetization_normalized_formula_units": null,
  "num_magnetic_sites": null,
  "num_unique_magnetic_sites": null,
  "types_of_magnetic_species": null,
  "bulk_modulus": null,
  "shear_modulus": null,
  "universal_anisotropy": null,
  "homogeneous_poisson": null,
  "e_total": null,
  "e_ionic": null,
  "e_electronic": null,
  "n": null,
  "e_ij_max": null,
  "weighted_surface_energy_EV_PER_ANG2": null,
  "weighted_surface_energy": null,
  "weighted_work_function": null,
  "surface_anisotropy": null,
  "shape_factor": null,
  "has_reconstructed": null,
  "possible_species": null,
  "has_props": null,
  "theoretical": null,
  "database_IDs": null,
  "fields_not_requested": [
    "builder_meta",
    "nsites",
    "elements",
    "nelements",
    "composition",
    "composition_reduced",
    "chemsys",
    "symmetry",
    "property_name",
    "deprecated",
    "deprecation_reasons",
    "last_updated",
    "origins",
    "warnings",
    "task_ids",
    "uncorrected_energy_per_atom",
    "equilibrium_reaction_energy_per_atom",
    "decomposes_to",
    "xas",
    "grain_boundaries",
    "cbm",
    "vbm",
    "is_gap_direct",
    "is_metal",
    "es_source_calc_id",
    "bandstructure",
    "dos",
    "dos_energy_up",
    "dos_energy_down",
    "is_magnetic",
    "ordering",
    "total_magnetization_normalized_vol",
    "total_magnetization_normalized_formula_units",
    "num_magnetic_sites",
    "num_unique_magnetic_sites",
    "types_of_magnetic_species",
    "bulk_modulus",
    "shear_modulus",
    "universal_anisotropy",
    "homogeneous_poisson",
    "e_total",
    "e_ionic",
    "e_electronic",
    "n",
    "e_ij_max",
    "weighted_surface_energy_EV_PER_ANG2",
    "weighted_surface_energy",
    "weighted_work_function",
    "surface_anisotropy",
    "shape_factor",
    "has_reconstructed",
    "possible_species",
    "has_props",
    "theoretical",
    "database_IDs"
  ]
}
