{
  "builder_meta": null,
  "nsites": null,
  "elements": null,
  "nelements": null,
  "composition": null,
  "composition_reduced": null,
  "formula_pretty": "Mg4Cu",
  "formula_anonymous": "AB4",
  "chemsys": null,
  "volume": 243.22543125923113,
  "density": 2.195150582724138,
  "density_atomic": 24.32254312592311,
  "symmetry": null,
  "property_name": null,
  "material_id": "mp-1210855",
  "deprecated": null,
  "deprecation_reasons": null,
  "last_updated": null,
  "origins": null,
  "warnings": null,
  "structure": {
    "@module": "pymatgen.core.structure",
    "@class": "Structure",
    "charge": 0,
    "lattice": {
      "matrix": [
        [-4.954422, -4.954422, 0.0],
        [-4.954422, 0.0, -4.954422],
        [0.0, -4.954422, -4.954422]
      ],
      "pbc": [true, true, true],
      "a": 7.0066107861196345,
      "b": 7.0066107861196345,
      "c": 7.0066107861196345,
      "alpha": 59.99999999999999,
      "beta": 59.99999999999999,
      "gamma": 59.99999999999999,
      "volume": 243.22543125923113
    },
    "properties": {},
    "sites": [
      {
        "species": [{ "element": "Mg", "occu": 1 }],
        "abc": [0.607437999999999, 0.607437999999999, 0.607437999999999],
        "properties": { "magmom": -0.0 },
        "label": "Mg",
        "xyz": [-6.01900838167199, -6.01900838167199, -6.01900838167199]
      },
      {
        "species": [{ "element": "Mg", "occu": 1 }],
        "abc": [0.177684999999999, 0.607437999999999, 0.607437999999999],
        "properties": { "magmom": 0.0 },
        "label": "Mg",
        "xyz": [-3.8898306639059905, -3.8898306639059905, -6.01900838167199]
      },
      {
        "species": [{ "element": "Mg", "occu": 1 }],
        "abc": [0.607437999999999, 0.177684999999999, 0.607437999999999],
        "properties": { "magmom": 0.0 },
        "label": "Mg",
        "xyz": [-3.8898306639059905, -6.01900838167199, -3.8898306639059905]
      },
      {
        "species": [{ "element": "Mg", "occu": 1 }],
        "abc": [0.572315, 0.142562, 0.142562],
        "properties": { "magmom": 0.0 },
        "label": "Mg",
        "xyz": [-3.5418023360940003, -3.5418023360940003, -1.412624618328]
      },
      {
        "species": [{ "element": "Mg", "occu": 1 }],
        "abc": [0.142562, 0.142562, 0.142562],
        "properties": { "magmom": -0.0 },
        "label": "Mg",
        "xyz": [-1.412624618328, -1.412624618328, -1.412624618328]
      },
      {
        "species": [{ "element": "Mg", "occu": 1 }],
        "abc": [0.607437999999999, 0.607437999999999, 0.177684999999999],
        "properties": { "magmom": -0.0 },
        "label": "Mg",
        "xyz": [-6.01900838167199, -3.8898306639059905, -3.8898306639059905]
      },
      {
        "species": [{ "element": "Mg", "occu": 1 }],
        "abc": [0.142562, 0.572315, 0.142562],
        "properties": { "magmom": 0.0 },
        "label": "Mg",
        "xyz": [-3.5418023360940003, -1.412624618328, -3.5418023360940003]
      },
      {
        "species": [{ "element": "Mg", "occu": 1 }],
        "abc": [0.142562, 0.142562, 0.572315],
        "properties": { "magmom": -0.0 },
        "label": "Mg",
        "xyz": [-1.412624618328, -3.5418023360940003, -3.5418023360940003]
      },
      {
        "species": [{ "element": "Cu", "occu": 1 }],
        "abc": [0.0, 0.0, 0.0],
        "properties": { "magmom": -0.0 },
        "label": "Cu",
        "xyz": [0.0, 0.0, 0.0]
      },
      {
        "species": [{ "element": "Cu", "occu": 1 }],
        "abc": [0.75, 0.75, 0.75],
        "properties": { "magmom": -0.0 },
        "label": "Cu",
        "xyz": [-7.431633, -7.431633, -7.431633]
      }
    ]
  },
  "task_ids": null,
  "uncorrected_energy_per_atom": null,
  "energy_per_atom": -5.1525096335,
  "formation_energy_per_atom": 0.35229243449999903,
  "energy_above_hull": 0.40478074749999904,
  "is_stable": false,
  "equilibrium_reaction_energy_per_atom": null,
  "decomposes_to": null,
  "xas": null,
  "grain_boundaries": null,
  "band_gap": 0.0,
  "cbm": null,
  "vbm": null,
  "efermi": 2.77576771,
  "is_gap_direct": null,
  "is_metal": null,
  "es_source_calc_id": null,
  "bandstructure": null,
  "dos": null,
  "dos_energy_up": null,
  "dos_energy_down": null,
  "is_magnetic": null,
  "ordering": null,
  "total_magnetization": 0.001667799999999,
  "total_magnetization_normalized_vol": null,
  "total_magnetization_normalized_formula_units": null,
  "num_magnetic_sites": null,
  "num_unique_magnetic_sites": null,
  "types_of_magnetic_species": null,
  "bulk_modulus": null,
  "shear_modulus": null,
  "universal_anisotropy": null,
  "homogeneous_poisson": null,
  "e_total": null,
  "e_ionic": null,
  "e_electronic": null,
  "n": null,
  "e_ij_max": null,
  "weighted_surface_energy_EV_PER_ANG2": null,
  "weighted_surface_energy": null,
  "weighted_work_function": null,
  "surface_anisotropy": null,
  "shape_factor": null,
  "has_reconstructed": null,
  "possible_species": null,
  "has_props": null,
  "theoretical": null,
  "database_IDs": null,
  "fields_not_requested": [
    "builder_meta",
    "nsites",
    "elements",
    "nelements",
    "composition",
    "composition_reduced",
    "chemsys",
    "symmetry",
    "property_name",
    "deprecated",
    "deprecation_reasons",
    "last_updated",
    "origins",
    "warnings",
    "task_ids",
    "uncorrected_energy_per_atom",
    "equilibrium_reaction_energy_per_atom",
    "decomposes_to",
    "xas",
    "grain_boundaries",
    "cbm",
    "vbm",
    "is_gap_direct",
    "is_metal",
    "es_source_calc_id",
    "bandstructure",
    "dos",
    "dos_energy_up",
    "dos_energy_down",
    "is_magnetic",
    "ordering",
    "total_magnetization_normalized_vol",
    "total_magnetization_normalized_formula_units",
    "num_magnetic_sites",
    "num_unique_magnetic_sites",
    "types_of_magnetic_species",
    "bulk_modulus",
    "shear_modulus",
    "universal_anisotropy",
    "homogeneous_poisson",
    "e_total",
    "e_ionic",
    "e_electronic",
    "n",
    "e_ij_max",
    "weighted_surface_energy_EV_PER_ANG2",
    "weighted_surface_energy",
    "weighted_work_function",
    "surface_anisotropy",
    "shape_factor",
    "has_reconstructed",
    "possible_species",
    "has_props",
    "theoretical",
    "database_IDs"
  ]
}
