{
  "builder_meta": null,
  "nsites": null,
  "elements": null,
  "nelements": null,
  "composition": null,
  "composition_reduced": null,
  "formula_pretty": "Mg4Si3",
  "formula_anonymous": "A3B4",
  "chemsys": null,
  "volume": 271.5086703850304,
  "density": 2.219809905094284,
  "density_atomic": 19.393476456073603,
  "symmetry": null,
  "property_name": null,
  "material_id": "mp-1074467",
  "deprecated": null,
  "deprecation_reasons": null,
  "last_updated": null,
  "origins": null,
  "warnings": null,
  "structure": {
    "@module": "pymatgen.core.structure",
    "@class": "Structure",
    "charge": 0,
    "lattice": {
      "matrix": [
        [5.621582, 0.0, 0.0],
        [-1.162747, 6.258254, 0.0],
        [-2.237437, -2.798064, 7.717417]
      ],
      "pbc": [true, true, true],
      "a": 5.621582,
      "b": 6.365353384889562,
      "c": 8.50845530216584,
      "alpha": 105.97918867016949,
      "beta": 105.24614489699833,
      "gamma": 100.52520773294246,
      "volume": 271.5086703850304
    },
    "properties": {},
    "sites": [
      {
        "species": [{ "element": "Mg", "occu": 1 }],
        "abc": [0.775799, 0.825604999999999, 0.320584],
        "properties": { "magmom": 0.0 },
        "label": "Mg",
        "xyz": [2.6839614538750016, 4.269831244293994, 2.474080411528]
      },
      {
        "species": [{ "element": "Mg", "occu": 1 }],
        "abc": [0.31270000000000003, 0.653276, 0.586241],
        "properties": { "magmom": 0.0 },
        "label": "Mg",
        "xyz": [-0.3134033220889998, 2.448027302679999, 4.524266259497]
      },
      {
        "species": [{ "element": "Mg", "occu": 1 }],
        "abc": [0.729524, 0.006247, 0.952568],
        "properties": { "magmom": 0.0 },
        "label": "Mg",
        "xyz": [1.9625044182429998, -2.626250915614, 7.351364476856]
      },
      {
        "species": [{ "element": "Mg", "occu": 1 }],
        "abc": [0.270476, 0.993753, 0.047431999999999],
        "properties": { "magmom": 0.0 },
        "label": "Mg",
        "xyz": [0.2588935817570024, 6.086440915614003, 0.36605252314399234]
      },
      {
        "species": [{ "element": "Mg", "occu": 1 }],
        "abc": [0.224200999999999, 0.174395, 0.679416],
        "properties": { "magmom": 0.0 },
        "label": "Mg",
        "xyz": [-0.4625634538750054, -0.8096412442940002, 5.243336588472]
      },
      {
        "species": [{ "element": "Mg", "occu": 1 }],
        "abc": [0.17763, 0.500864, 0.162358],
        "properties": { "magmom": 0.0 },
        "label": "Mg",
        "xyz": [0.05291770080600011, 2.6802460565439996, 1.252984389286]
      },
      {
        "species": [{ "element": "Mg", "occu": 1 }],
        "abc": [0.82237, 0.499135999999999, 0.837642],
        "properties": { "magmom": 0.0 },
        "label": "Mg",
        "xyz": [2.1684802991940018, 0.779943943455994, 6.464432610714]
      },
      {
        "species": [{ "element": "Mg", "occu": 1 }],
        "abc": [0.6873, 0.346724, 0.413759],
        "properties": { "magmom": 0.0 },
        "label": "Mg",
        "xyz": [2.5348013220890007, 1.0121626973199997, 3.193150740503]
      },
      {
        "species": [{ "element": "Si", "occu": 1 }],
        "abc": [0.094826, 0.20420000000000002, 0.322365],
        "properties": { "magmom": -0.0 },
        "label": "Si",
        "xyz": [-0.42563218117300006, 0.37593756544, 2.487825131205]
      },
      {
        "species": [{ "element": "Si", "occu": 1 }],
        "abc": [0.325323, 0.929848, 0.367639],
        "properties": { "magmom": -0.0 },
        "label": "Si",
        "xyz": [-0.07491715271300003, 4.790547514496001, 2.837223468463]
      },
      {
        "species": [{ "element": "Si", "occu": 1 }],
        "abc": [0.905173999999999, 0.7958000000000001, 0.677635],
        "properties": { "magmom": -0.0 },
        "label": "Si",
        "xyz": [2.6470301811729944, 3.08425243456, 5.229591868795]
      },
      {
        "species": [{ "element": "Si", "occu": 1 }],
        "abc": [0.622274, 0.403148, 0.085734999999999],
        "properties": { "magmom": -0.0 },
        "label": "Si",
        "xyz": [2.8375785287170023, 2.283110566552003, 0.6616527464949924]
      },
      {
        "species": [{ "element": "Si", "occu": 1 }],
        "abc": [0.674677, 0.070151999999999, 0.632361],
        "properties": { "magmom": -0.0 },
        "label": "Si",
        "xyz": [2.2963151527130012, -1.330357514496006, 4.8801935315369995]
      },
      {
        "species": [{ "element": "Si", "occu": 1 }],
        "abc": [0.377726, 0.596851999999999, 0.914265],
        "properties": { "magmom": -0.0 },
        "label": "Si",
        "xyz": [-0.6161805287169986, 1.177079433447994, 7.055764253505]
      }
    ]
  },
  "task_ids": null,
  "uncorrected_energy_per_atom": null,
  "energy_per_atom": -3.235956574285714,
  "formation_energy_per_atom": 0.020876875714285002,
  "energy_above_hull": 0.113961529999999,
  "is_stable": false,
  "equilibrium_reaction_energy_per_atom": null,
  "decomposes_to": null,
  "xas": null,
  "grain_boundaries": null,
  "band_gap": 0.0,
  "cbm": null,
  "vbm": null,
  "efermi": 4.7666365200000005,
  "is_gap_direct": null,
  "is_metal": null,
  "es_source_calc_id": null,
  "bandstructure": null,
  "dos": null,
  "dos_energy_up": null,
  "dos_energy_down": null,
  "is_magnetic": null,
  "ordering": null,
  "total_magnetization": 0.001162,
  "total_magnetization_normalized_vol": null,
  "total_magnetization_normalized_formula_units": null,
  "num_magnetic_sites": null,
  "num_unique_magnetic_sites": null,
  "types_of_magnetic_species": null,
  "bulk_modulus": null,
  "shear_modulus": null,
  "universal_anisotropy": null,
  "homogeneous_poisson": null,
  "e_total": null,
  "e_ionic": null,
  "e_electronic": null,
  "n": null,
  "e_ij_max": null,
  "weighted_surface_energy_EV_PER_ANG2": null,
  "weighted_surface_energy": null,
  "weighted_work_function": null,
  "surface_anisotropy": null,
  "shape_factor": null,
  "has_reconstructed": null,
  "possible_species": null,
  "has_props": null,
  "theoretical": null,
  "database_IDs": null,
  "fields_not_requested": [
    "builder_meta",
    "nsites",
    "elements",
    "nelements",
    "composition",
    "composition_reduced",
    "chemsys",
    "symmetry",
    "property_name",
    "deprecated",
    "deprecation_reasons",
    "last_updated",
    "origins",
    "warnings",
    "task_ids",
    "uncorrected_energy_per_atom",
    "equilibrium_reaction_energy_per_atom",
    "decomposes_to",
    "xas",
    "grain_boundaries",
    "cbm",
    "vbm",
    "is_gap_direct",
    "is_metal",
    "es_source_calc_id",
    "bandstructure",
    "dos",
    "dos_energy_up",
    "dos_energy_down",
    "is_magnetic",
    "ordering",
    "total_magnetization_normalized_vol",
    "total_magnetization_normalized_formula_units",
    "num_magnetic_sites",
    "num_unique_magnetic_sites",
    "types_of_magnetic_species",
    "bulk_modulus",
    "shear_modulus",
    "universal_anisotropy",
    "homogeneous_poisson",
    "e_total",
    "e_ionic",
    "e_electronic",
    "n",
    "e_ij_max",
    "weighted_surface_energy_EV_PER_ANG2",
    "weighted_surface_energy",
    "weighted_work_function",
    "surface_anisotropy",
    "shape_factor",
    "has_reconstructed",
    "possible_species",
    "has_props",
    "theoretical",
    "database_IDs"
  ]
}
