{
  "builder_meta": null,
  "nsites": null,
  "elements": null,
  "nelements": null,
  "composition": null,
  "composition_reduced": null,
  "formula_pretty": "Mg4Si7",
  "formula_anonymous": "A4B7",
  "chemsys": null,
  "volume": 398.851205962518,
  "density": 2.446511834218508,
  "density_atomic": 18.129600271023545,
  "symmetry": null,
  "property_name": null,
  "material_id": "mp-1074194",
  "deprecated": null,
  "deprecation_reasons": null,
  "last_updated": null,
  "origins": null,
  "warnings": null,
  "structure": {
    "@module": "pymatgen.core.structure",
    "@class": "Structure",
    "charge": 0,
    "lattice": {
      "matrix": [
        [-4.303004, 0.0, 0.0],
        [0.091332, 6.744065, 0.0],
        [-0.029148999999999002, -2.993486, -13.744135]
      ],
      "pbc": [true, true, true],
      "a": 4.303004,
      "b": 6.7446834068360095,
      "c": 14.066380308900438,
      "alpha": 102.2876594769168,
      "beta": 89.8812689664537,
      "gamma": 90.77588490924171,
      "volume": 398.851205962518
    },
    "properties": {},
    "sites": [
      {
        "species": [{ "element": "Mg", "occu": 1 }],
        "abc": [0.930786, 0.176605999999999, 0.941626],
        "properties": { "magmom": 0.0 },
        "label": "Mg",
        "xyz": [-4.016493558225999, -1.6277019048460066, -12.94183486351]
      },
      {
        "species": [{ "element": "Mg", "occu": 1 }],
        "abc": [0.932707, 0.292209, 0.509572999999999],
        "properties": { "magmom": -0.0 },
        "label": "Mg",
        "xyz": [-4.001607462817, 0.44527684810700285, -7.003640104354987]
      },
      {
        "species": [{ "element": "Mg", "occu": 1 }],
        "abc": [0.42587, 0.076018, 0.352564999999999],
        "properties": { "magmom": -0.0 },
        "label": "Mg",
        "xyz": [-1.8358543546889996, -0.5427280584199969, -4.845700956274986]
      },
      {
        "species": [{ "element": "Mg", "occu": 1 }],
        "abc": [0.438633999999999, 0.537516, 0.654399],
        "properties": { "magmom": -0.0 },
        "label": "Mg",
        "xyz": [-1.857426521674995, 1.6661085976260004, -8.994148199865]
      },
      {
        "species": [{ "element": "Mg", "occu": 1 }],
        "abc": [0.928698999999999, 0.646092999999999, 0.844545],
        "properties": { "magmom": -0.0 },
        "label": "Mg",
        "xyz": [-3.9618041881249946, 1.8291595541749932, -11.607540493575]
      },
      {
        "species": [{ "element": "Mg", "occu": 1 }],
        "abc": [0.9300400000000001, 0.710808999999999, 0.070964],
        "properties": { "magmom": 0.0 },
        "label": "Mg",
        "xyz": [-3.9391147622080003, 4.581312358080994, -0.97533879614]
      },
      {
        "species": [{ "element": "Mg", "occu": 1 }],
        "abc": [0.435558, 0.562497999999999, 0.418666],
        "properties": { "magmom": -0.0 },
        "label": "Mg",
        "xyz": [-1.8350374441299995, 2.5402522646939936, -5.75420202391]
      },
      {
        "species": [{ "element": "Mg", "occu": 1 }],
        "abc": [0.429398, 0.009779, 0.58169],
        "properties": { "magmom": -0.0 },
        "label": "Mg",
        "xyz": [-1.8637638577739992, -1.6753306597050002, -7.99482588815]
      },
      {
        "species": [{ "element": "Si", "occu": 1 }],
        "abc": [0.425745, 0.503524, 0.953152],
        "properties": { "magmom": 0.0 },
        "label": "Si",
        "xyz": [-1.8137780116599989, 0.5425514171879997, -13.10024976352]
      },
      {
        "species": [{ "element": "Si", "occu": 1 }],
        "abc": [0.430828, 0.8776, 0.965542999999999],
        "properties": { "magmom": 0.0 },
        "label": "Si",
        "xyz": [-1.8018462570189988, 3.0282519911020036, -13.270553340304987]
      },
      {
        "species": [{ "element": "Si", "occu": 1 }],
        "abc": [0.432616, 0.9758969999999991, 0.145931],
        "properties": { "magmom": 0.0 },
        "label": "Si",
        "xyz": [-1.776671496379, 6.144670395838994, -2.005695364685]
      },
      {
        "species": [{ "element": "Si", "occu": 1 }],
        "abc": [0.436021, 0.338941, 0.08917000000000001],
        "properties": { "magmom": 0.0 },
        "label": "Si",
        "xyz": [-1.8478431640019997, 2.018910988545, -1.22556451795]
      },
      {
        "species": [{ "element": "Si", "occu": 1 }],
        "abc": [0.943334999999999, 0.693851999999999, 0.557640999999999],
        "properties": { "magmom": -0.0 },
        "label": "Si",
        "xyz": [-4.012058064984995, 3.010092461853996, -7.664293185534987]
      },
      {
        "species": [{ "element": "Si", "occu": 1 }],
        "abc": [0.921563999999999, 0.895374999999999, 0.439473],
        "properties": { "magmom": -0.0 },
        "label": "Si",
        "xyz": [-3.8965273872329953, 4.7229109264969935, -6.040176240855]
      },
      {
        "species": [{ "element": "Si", "occu": 1 }],
        "abc": [0.936322, 0.169416999999999, 0.150414],
        "properties": { "magmom": 0.0 },
        "label": "Si",
        "xyz": [-4.017908535529999, 0.6922970569009934, -2.06731032189]
      },
      {
        "species": [{ "element": "Si", "occu": 1 }],
        "abc": [0.426882, 0.919531, 0.797095999999999],
        "properties": { "magmom": 0.0 },
        "label": "Si",
        "xyz": [-1.7761268995399988, 3.815281116859003, -10.955395031959986]
      },
      {
        "species": [{ "element": "Si", "occu": 1 }],
        "abc": [0.934713999999999, 0.272734, 0.705562999999999],
        "properties": { "magmom": 0.0 },
        "label": "Si",
        "xyz": [-4.017735195054994, -0.272757138907997, -9.697353123004987]
      },
      {
        "species": [{ "element": "Si", "occu": 1 }],
        "abc": [0.43328099999999903, 0.6637900000000001, 0.205686999999999],
        "properties": { "magmom": 0.0 },
        "label": "Si",
        "xyz": [-1.8097801782069953, 3.8609217514680036, -2.8269898957449864]
      },
      {
        "species": [{ "element": "Si", "occu": 1 }],
        "abc": [0.931037999999999, 0.323972, 0.320048],
        "properties": { "magmom": 0.0 },
        "label": "Si",
        "xyz": [-3.986000306599995, 1.226829018852, -4.39878291848]
      },
      {
        "species": [{ "element": "Si", "occu": 1 }],
        "abc": [0.433042, 0.284377999999999, 0.798026999999999],
        "properties": { "magmom": 0.0 },
        "label": "Si",
        "xyz": [-1.860670335694999, -0.4710189355520036, -10.968190821644987]
      },
      {
        "species": [{ "element": "Si", "occu": 1 }],
        "abc": [0.926002, 0.917226, 0.7127500000000001],
        "properties": { "magmom": 0.0 },
        "label": "Si",
        "xyz": [-3.921594174725999, 4.052224617189999, -9.796132221250001]
      },
      {
        "species": [{ "element": "Si", "occu": 1 }],
        "abc": [0.933245999999999, 0.655852, 0.289081],
        "properties": { "magmom": 0.0 },
        "label": "Si",
        "xyz": [-3.9642874181889955, 3.5577485920140006, -3.973168289935]
      }
    ]
  },
  "task_ids": null,
  "uncorrected_energy_per_atom": null,
  "energy_per_atom": -3.888242037727272,
  "formation_energy_per_atom": 0.157131259545454,
  "energy_above_hull": 0.21636694863636402,
  "is_stable": false,
  "equilibrium_reaction_energy_per_atom": null,
  "decomposes_to": null,
  "xas": null,
  "grain_boundaries": null,
  "band_gap": 0.0,
  "cbm": null,
  "vbm": null,
  "efermi": 6.05182643,
  "is_gap_direct": null,
  "is_metal": null,
  "es_source_calc_id": null,
  "bandstructure": null,
  "dos": null,
  "dos_energy_up": null,
  "dos_energy_down": null,
  "is_magnetic": null,
  "ordering": null,
  "total_magnetization": 0.0039841,
  "total_magnetization_normalized_vol": null,
  "total_magnetization_normalized_formula_units": null,
  "num_magnetic_sites": null,
  "num_unique_magnetic_sites": null,
  "types_of_magnetic_species": null,
  "bulk_modulus": null,
  "shear_modulus": null,
  "universal_anisotropy": null,
  "homogeneous_poisson": null,
  "e_total": null,
  "e_ionic": null,
  "e_electronic": null,
  "n": null,
  "e_ij_max": null,
  "weighted_surface_energy_EV_PER_ANG2": null,
  "weighted_surface_energy": null,
  "weighted_work_function": null,
  "surface_anisotropy": null,
  "shape_factor": null,
  "has_reconstructed": null,
  "possible_species": null,
  "has_props": null,
  "theoretical": null,
  "database_IDs": null,
  "fields_not_requested": [
    "builder_meta",
    "nsites",
    "elements",
    "nelements",
    "composition",
    "composition_reduced",
    "chemsys",
    "symmetry",
    "property_name",
    "deprecated",
    "deprecation_reasons",
    "last_updated",
    "origins",
    "warnings",
    "task_ids",
    "uncorrected_energy_per_atom",
    "equilibrium_reaction_energy_per_atom",
    "decomposes_to",
    "xas",
    "grain_boundaries",
    "cbm",
    "vbm",
    "is_gap_direct",
    "is_metal",
    "es_source_calc_id",
    "bandstructure",
    "dos",
    "dos_energy_up",
    "dos_energy_down",
    "is_magnetic",
    "ordering",
    "total_magnetization_normalized_vol",
    "total_magnetization_normalized_formula_units",
    "num_magnetic_sites",
    "num_unique_magnetic_sites",
    "types_of_magnetic_species",
    "bulk_modulus",
    "shear_modulus",
    "universal_anisotropy",
    "homogeneous_poisson",
    "e_total",
    "e_ionic",
    "e_electronic",
    "n",
    "e_ij_max",
    "weighted_surface_energy_EV_PER_ANG2",
    "weighted_surface_energy",
    "weighted_work_function",
    "surface_anisotropy",
    "shape_factor",
    "has_reconstructed",
    "possible_species",
    "has_props",
    "theoretical",
    "database_IDs"
  ]
}
