{
  "builder_meta": null,
  "nsites": null,
  "elements": null,
  "nelements": null,
  "composition": null,
  "composition_reduced": null,
  "formula_pretty": "Mg4Sc",
  "formula_anonymous": "AB4",
  "chemsys": null,
  "volume": 117.12830108181876,
  "density": 2.015641429312343,
  "density_atomic": 23.425660216363752,
  "symmetry": null,
  "property_name": null,
  "material_id": "mp-1222127",
  "deprecated": null,
  "deprecation_reasons": null,
  "last_updated": null,
  "origins": null,
  "warnings": null,
  "structure": {
    "@module": "pymatgen.core.structure",
    "@class": "Structure",
    "charge": 0,
    "lattice": {
      "matrix": [
        [13.235785, -1.600261999999999, 0.0],
        [13.235785, 1.600261999999999, 0.0],
        [13.042306, 0.0, 2.764974]
      ],
      "pbc": [true, true, true],
      "a": 13.332173230005264,
      "b": 13.332173230005264,
      "c": 13.3321726293321,
      "alpha": 13.787679002348716,
      "beta": 13.787679002348716,
      "gamma": 13.78767873204732,
      "volume": 117.12830108181869
    },
    "properties": {},
    "sites": [
      {
        "species": [{ "element": "Mg", "occu": 1 }],
        "abc": [0.599707, 0.599707, 0.599707],
        "properties": { "magmom": 0.006 },
        "label": "Mg",
        "xyz": [23.696748034332, 0.0, 1.658174262618]
      },
      {
        "species": [{ "element": "Mg", "occu": 1 }],
        "abc": [0.199931, 0.199931, 0.199931],
        "properties": { "magmom": 0.002 },
        "label": "Mg",
        "xyz": [7.900048742555999, 0.0, 0.552804016794]
      },
      {
        "species": [{ "element": "Mg", "occu": 1 }],
        "abc": [0.800068999999999, 0.800068999999999, 0.800068999999999],
        "properties": { "magmom": 0.002 },
        "label": "Mg",
        "xyz": [31.613827257443965, 0.0, 2.2121699832059973]
      },
      {
        "species": [{ "element": "Mg", "occu": 1 }],
        "abc": [0.400292999999999, 0.400292999999999, 0.400292999999999],
        "properties": { "magmom": 0.006 },
        "label": "Mg",
        "xyz": [15.81712796566796, 0.0, 1.1067997373819973]
      },
      {
        "species": [{ "element": "Sc", "occu": 1 }],
        "abc": [0.0, 0.0, 0.0],
        "properties": { "magmom": 0.272 },
        "label": "Sc",
        "xyz": [0.0, 0.0, 0.0]
      }
    ]
  },
  "task_ids": null,
  "uncorrected_energy_per_atom": null,
  "energy_per_atom": -2.5188119440000003,
  "formation_energy_per_atom": 0.052057889,
  "energy_above_hull": 0.065259755,
  "is_stable": false,
  "equilibrium_reaction_energy_per_atom": null,
  "decomposes_to": null,
  "xas": null,
  "grain_boundaries": null,
  "band_gap": 0.0,
  "cbm": null,
  "vbm": null,
  "efermi": 3.47238075,
  "is_gap_direct": null,
  "is_metal": null,
  "es_source_calc_id": null,
  "bandstructure": null,
  "dos": null,
  "dos_energy_up": null,
  "dos_energy_down": null,
  "is_magnetic": null,
  "ordering": null,
  "total_magnetization": 0.5775037,
  "total_magnetization_normalized_vol": null,
  "total_magnetization_normalized_formula_units": null,
  "num_magnetic_sites": null,
  "num_unique_magnetic_sites": null,
  "types_of_magnetic_species": null,
  "bulk_modulus": null,
  "shear_modulus": null,
  "universal_anisotropy": null,
  "homogeneous_poisson": null,
  "e_total": null,
  "e_ionic": null,
  "e_electronic": null,
  "n": null,
  "e_ij_max": null,
  "weighted_surface_energy_EV_PER_ANG2": null,
  "weighted_surface_energy": null,
  "weighted_work_function": null,
  "surface_anisotropy": null,
  "shape_factor": null,
  "has_reconstructed": null,
  "possible_species": null,
  "has_props": null,
  "theoretical": null,
  "database_IDs": null,
  "fields_not_requested": [
    "builder_meta",
    "nsites",
    "elements",
    "nelements",
    "composition",
    "composition_reduced",
    "chemsys",
    "symmetry",
    "property_name",
    "deprecated",
    "deprecation_reasons",
    "last_updated",
    "origins",
    "warnings",
    "task_ids",
    "uncorrected_energy_per_atom",
    "equilibrium_reaction_energy_per_atom",
    "decomposes_to",
    "xas",
    "grain_boundaries",
    "cbm",
    "vbm",
    "is_gap_direct",
    "is_metal",
    "es_source_calc_id",
    "bandstructure",
    "dos",
    "dos_energy_up",
    "dos_energy_down",
    "is_magnetic",
    "ordering",
    "total_magnetization_normalized_vol",
    "total_magnetization_normalized_formula_units",
    "num_magnetic_sites",
    "num_unique_magnetic_sites",
    "types_of_magnetic_species",
    "bulk_modulus",
    "shear_modulus",
    "universal_anisotropy",
    "homogeneous_poisson",
    "e_total",
    "e_ionic",
    "e_electronic",
    "n",
    "e_ij_max",
    "weighted_surface_energy_EV_PER_ANG2",
    "weighted_surface_energy",
    "weighted_work_function",
    "surface_anisotropy",
    "shape_factor",
    "has_reconstructed",
    "possible_species",
    "has_props",
    "theoretical",
    "database_IDs"
  ]
}
