{"builder_meta": null, "nsites": null, "elements": null, "nelements": null, "composition": null, "composition_reduced": null, "formula_pretty": "Mg4Ti3", "formula_anonymous": "A3B4", "chemsys": null, "volume": 284.00188290207154, "density": 2.816126952901704, "density_atomic": 20.285848778719394, "symmetry": null, "property_name": null, "material_id": "mp-1094481", "deprecated": null, "deprecation_reasons": null, "last_updated": null, "origins": null, "warnings": null, "structure": {"@module": "pymatgen.core.structure", "@class": "Structure", "charge": 0, "lattice": {"matrix": [[4.097049, -7.096297, 0.0], [4.097049, 7.096297, 0.0], [0.0, 0.0, 4.884142]], "pbc": [true, true, true], "a": 8.1940979747993, "b": 8.1940979747993, "c": 4.884142, "alpha": 90.0, "beta": 90.0, "gamma": 119.9999997965286, "volume": 284.00188290207154}, "properties": {}, "sites": [{"species": [{"element": "Mg", "occu": 1}], "abc": [0.625831, 0.53668, 0.75], "properties": {"magmom": -0.004}, "label": "Mg", "xyz": [4.762864530039001, -0.6326419738469995, 3.6631064999999996]}, {"species": [{"element": "Mg", "occu": 1}], "abc": [0.374169, 0.46332000000000007, 0.25], "properties": {"magmom": -0.004}, "label": "Mg", "xyz": [3.4312334699610005, 0.6326419738470008, 1.2210355]}, {"species": [{"element": "Mg", "occu": 1}], "abc": [0.333333, 0.666667, 0.75], "properties": {"magmom": -0.003}, "label": "Mg", "xyz": [4.097049, 2.365437064198, 3.6631064999999996]}, {"species": [{"element": "Mg", "occu": 1}], "abc": [0.53668, 0.910848999999999, 0.25], "properties": {"magmom": -0.003}, "label": "Mg", "xyz": [5.930597241920997, 2.6552143521929925, 1.2210355]}, {"species": [{"element": "Mg", "occu": 1}], "abc": [0.910848999999999, 0.374169, 0.75], "properties": {"magmom": -0.004}, "label": "Mg", "xyz": [5.264781711881996, -3.808440673959993, 3.6631064999999996]}, {"species": [{"element": "Mg", "occu": 1}], "abc": [0.089151, 0.625831, 0.25], "properties": {"magmom": -0.004}, "label": "Mg", "xyz": [2.929316288118, 3.80844067396, 1.2210355]}, {"species": [{"element": "Mg", "occu": 1}], "abc": [0.46332000000000007, 0.089151, 0.75], "properties": {"magmom": -0.003}, "label": "Mg", "xyz": [2.2635007580790005, -2.6552143521930005, 3.6631064999999996]}, {"species": [{"element": "Mg", "occu": 1}], "abc": [0.666667, 0.333333, 0.25], "properties": {"magmom": -0.003}, "label": "Mg", "xyz": [4.097049, -2.365437064198, 1.2210355]}, {"species": [{"element": "Ti", "occu": 1}], "abc": [0.829133999999999, 0.787706, 0.25], "properties": {"magmom": 0.392}, "label": "Ti", "xyz": [6.6242727051599966, -0.29398539211599317, 1.2210355]}, {"species": [{"element": "Ti", "occu": 1}], "abc": [0.170866, 0.212293999999999, 0.75], "properties": {"magmom": 0.392}, "label": "Ti", "xyz": [1.569825294839996, 0.29398539211599295, 3.6631064999999996]}, {"species": [{"element": "Ti", "occu": 1}], "abc": [0.787706, 0.958572, 0.75], "properties": {"magmom": 0.399}, "label": "Ti", "xyz": [7.154586533622, 1.2125158832019993, 3.6631064999999996]}, {"species": [{"element": "Ti", "occu": 1}], "abc": [0.958572, 0.170866, 0.25], "properties": {"magmom": 0.357}, "label": "Ti", "xyz": [4.627362828462, -5.589795724681999, 1.2210355]}, {"species": [{"element": "Ti", "occu": 1}], "abc": [0.041428, 0.829133999999999, 0.75], "properties": {"magmom": 0.357}, "label": "Ti", "xyz": [3.5667351715379962, 5.589795724681993, 3.6631064999999996]}, {"species": [{"element": "Ti", "occu": 1}], "abc": [0.212293999999999, 0.041428, 0.25], "properties": {"magmom": 0.399}, "label": "Ti", "xyz": [1.039511466377996, -1.2125158832019929, 1.2210355]}]}, "task_ids": null, "uncorrected_energy_per_atom": null, "energy_per_atom": -4.168028795714286, "formation_energy_per_atom": 0.147450648571428, "energy_above_hull": 0.147450648571427, "is_stable": false, "equilibrium_reaction_energy_per_atom": null, "decomposes_to": null, "xas": null, "grain_boundaries": null, "band_gap": 0.0, "cbm": null, "vbm": null, "efermi": 4.22456944, "is_gap_direct": null, "is_metal": null, "es_source_calc_id": null, "bandstructure": null, "dos": null, "dos_energy_up": null, "dos_energy_down": null, "is_magnetic": null, "ordering": null, "total_magnetization": 2.723626099999999, "total_magnetization_normalized_vol": null, "total_magnetization_normalized_formula_units": null, "num_magnetic_sites": null, "num_unique_magnetic_sites": null, "types_of_magnetic_species": null, "bulk_modulus": null, "shear_modulus": null, "universal_anisotropy": null, "homogeneous_poisson": null, "e_total": null, "e_ionic": null, "e_electronic": null, "n": null, "e_ij_max": null, "weighted_surface_energy_EV_PER_ANG2": null, "weighted_surface_energy": null, "weighted_work_function": null, "surface_anisotropy": null, "shape_factor": null, "has_reconstructed": null, "possible_species": null, "has_props": null, "theoretical": null, "database_IDs": null, "fields_not_requested": ["builder_meta", "nsites", "elements", "nelements", "composition", "composition_reduced", "chemsys", "symmetry", "property_name", "deprecated", "deprecation_reasons", "last_updated", "origins", "warnings", "task_ids", "uncorrected_energy_per_atom", "equilibrium_reaction_energy_per_atom", "decomposes_to", "xas", "grain_boundaries", "cbm", "vbm", "is_gap_direct", "is_metal", "es_source_calc_id", "bandstructure", "dos", "dos_energy_up", "dos_energy_down", "is_magnetic", "ordering", "total_magnetization_normalized_vol", "total_magnetization_normalized_formula_units", "num_magnetic_sites", "num_unique_magnetic_sites", "types_of_magnetic_species", "bulk_modulus", "shear_modulus", "universal_anisotropy", "homogeneous_poisson", "e_total", "e_ionic", "e_electronic", "n", "e_ij_max", "weighted_surface_energy_EV_PER_ANG2", "weighted_surface_energy", "weighted_work_function", "surface_anisotropy", "shape_factor", "has_reconstructed", "possible_species", "has_props", "theoretical", "database_IDs"]}