{"builder_meta": null, "nsites": null, "elements": null, "nelements": null, "composition": null, "composition_reduced": null, "formula_pretty": "Mg5Ag", "formula_anonymous": "AB5", "chemsys": null, "volume": 124.1558567379672, "density": 3.068049951250522, "density_atomic": 20.6926427896612, "symmetry": null, "property_name": null, "material_id": "mp-1185802", "deprecated": null, "deprecation_reasons": null, "last_updated": null, "origins": null, "warnings": null, "structure": {"@module": "pymatgen.core.structure", "@class": "Structure", "charge": 0, "lattice": {"matrix": [[1.56426088, -7.96766207, 0.0], [1.56426088, 7.96766207, 0.0], [0.0, 0.0, 4.98077731]], "pbc": [true, true, true], "a": 8.119762986837427, "b": 8.119762986837427, "c": 4.98077731, "alpha": 90.0, "beta": 90.0, "gamma": 157.78521336530773, "volume": 124.1558567379672}, "properties": {}, "sites": [{"species": [{"element": "Mg", "occu": 1}], "abc": [0.99904662, 0.00095338, 0.5], "properties": {"magmom": -0.0}, "label": "Mg", "xyz": [1.56426088, -7.952469650671406, 2.490388655]}, {"species": [{"element": "Mg", "occu": 1}], "abc": [0.67122843, 0.32877157, 0.5], "properties": {"magmom": 0.0}, "label": "Mg", "xyz": [1.56426088, -2.7285805340333, 2.490388655]}, {"species": [{"element": "Mg", "occu": 1}], "abc": [0.33147429, 0.66852571, 0.5], "properties": {"magmom": -0.0}, "label": "Mg", "xyz": [1.56426088, 2.6855118147736396, 2.490388655]}, {"species": [{"element": "Mg", "occu": 1}], "abc": [0.56216931, 0.43783069, 0.0], "properties": {"magmom": 0.0}, "label": "Mg", "xyz": [1.56426088, -0.9906881064101438, 0.0]}, {"species": [{"element": "Mg", "occu": 1}], "abc": [0.88022705, 0.11977295, -0.0], "properties": {"magmom": -0.0}, "label": "Mg", "xyz": [1.56426088, -6.059041288545987, 0.0]}, {"species": [{"element": "Ag", "occu": 1}], "abc": [0.22252629000000002, 0.77747371, 0.0], "properties": {"magmom": 0.0}, "label": "Ag", "xyz": [1.56426088, 4.421633509178359, 0.0]}]}, "task_ids": null, "uncorrected_energy_per_atom": null, "energy_per_atom": -1.8912777866666661, "formation_energy_per_atom": -0.05872982777777701, "energy_above_hull": 0.018076413333333003, "is_stable": false, "equilibrium_reaction_energy_per_atom": null, "decomposes_to": null, "xas": null, "grain_boundaries": null, "band_gap": 0.0, "cbm": null, "vbm": null, "efermi": 3.594027129999999, "is_gap_direct": null, "is_metal": null, "es_source_calc_id": null, "bandstructure": null, "dos": null, "dos_energy_up": null, "dos_energy_down": null, "is_magnetic": null, "ordering": null, "total_magnetization": 0.0, "total_magnetization_normalized_vol": null, "total_magnetization_normalized_formula_units": null, "num_magnetic_sites": null, "num_unique_magnetic_sites": null, "types_of_magnetic_species": null, "bulk_modulus": null, "shear_modulus": null, "universal_anisotropy": null, "homogeneous_poisson": null, "e_total": null, "e_ionic": null, "e_electronic": null, "n": null, "e_ij_max": null, "weighted_surface_energy_EV_PER_ANG2": null, "weighted_surface_energy": null, "weighted_work_function": null, "surface_anisotropy": null, "shape_factor": null, "has_reconstructed": null, "possible_species": null, "has_props": null, "theoretical": null, "database_IDs": null, "fields_not_requested": ["builder_meta", "nsites", "elements", "nelements", "composition", "composition_reduced", "chemsys", "symmetry", "property_name", "deprecated", "deprecation_reasons", "last_updated", "origins", "warnings", "task_ids", "uncorrected_energy_per_atom", "equilibrium_reaction_energy_per_atom", "decomposes_to", "xas", "grain_boundaries", "cbm", "vbm", "is_gap_direct", "is_metal", "es_source_calc_id", "bandstructure", "dos", "dos_energy_up", "dos_energy_down", "is_magnetic", "ordering", "total_magnetization_normalized_vol", "total_magnetization_normalized_formula_units", "num_magnetic_sites", "num_unique_magnetic_sites", "types_of_magnetic_species", "bulk_modulus", "shear_modulus", "universal_anisotropy", "homogeneous_poisson", "e_total", "e_ionic", "e_electronic", "n", "e_ij_max", "weighted_surface_energy_EV_PER_ANG2", "weighted_surface_energy", "weighted_work_function", "surface_anisotropy", "shape_factor", "has_reconstructed", "possible_species", "has_props", "theoretical", "database_IDs"]}