{
  "builder_meta": null,
  "nsites": null,
  "elements": null,
  "nelements": null,
  "composition": null,
  "composition_reduced": null,
  "formula_pretty": "Mg5Au",
  "formula_anonymous": "AB5",
  "chemsys": null,
  "volume": 123.4762935612347,
  "density": 4.283151667853975,
  "density_atomic": 20.579382260205783,
  "symmetry": null,
  "property_name": null,
  "material_id": "mp-1185813",
  "deprecated": null,
  "deprecation_reasons": null,
  "last_updated": null,
  "origins": null,
  "warnings": null,
  "structure": {
    "@module": "pymatgen.core.structure",
    "@class": "Structure",
    "charge": 0,
    "lattice": {
      "matrix": [
        [5.185585, -2.683813, 0.0],
        [5.185585, 2.683813, 0.0],
        [3.796571, 0.0, 4.436123]
      ],
      "pbc": [true, true, true],
      "a": 5.838933465213831,
      "b": 5.838933465213831,
      "c": 5.8389330043399195,
      "alpha": 54.72787640864872,
      "beta": 54.72787640864872,
      "gamma": 54.727883839141604,
      "volume": 123.4762935612347
    },
    "properties": {},
    "sites": [
      {
        "species": [{ "element": "Mg", "occu": 1 }],
        "abc": [0.5, 0.155146, 0.844854],
        "properties": { "magmom": 0.0 },
        "label": "Mg",
        "xyz": [6.604863466044, -0.925523648302, 3.7478762610420002]
      },
      {
        "species": [{ "element": "Mg", "occu": 1 }],
        "abc": [0.844854, 0.5, 0.155146],
        "properties": { "magmom": 0.0 },
        "label": "Mg",
        "xyz": [7.562877533956, -0.9255236483019997, 0.688246738958]
      },
      {
        "species": [{ "element": "Mg", "occu": 1 }],
        "abc": [0.155146, 0.844854, 0.5],
        "properties": { "magmom": 0.0 },
        "label": "Mg",
        "xyz": [7.0838705, 1.8510472966039997, 2.2180615]
      },
      {
        "species": [{ "element": "Mg", "occu": 1 }],
        "abc": [0.664864999999999, 0.664864999999999, 0.664864999999999],
        "properties": { "magmom": 0.0 },
        "label": "Mg",
        "xyz": [9.419635119964987, 0.0, 2.949422918394996]
      },
      {
        "species": [{ "element": "Mg", "occu": 1 }],
        "abc": [0.335134999999999, 0.335134999999999, 0.335134999999999],
        "properties": { "magmom": 0.0 },
        "label": "Mg",
        "xyz": [4.748105880034986, 0.0, 1.4867000816049958]
      },
      {
        "species": [{ "element": "Au", "occu": 1 }],
        "abc": [0.0, 0.0, 0.0],
        "properties": { "magmom": 0.0 },
        "label": "Au",
        "xyz": [0.0, 0.0, 0.0]
      }
    ]
  },
  "task_ids": null,
  "uncorrected_energy_per_atom": null,
  "energy_per_atom": -2.08270316,
  "formation_energy_per_atom": -0.178331147499999,
  "energy_above_hull": 0.08340869944444301,
  "is_stable": false,
  "equilibrium_reaction_energy_per_atom": null,
  "decomposes_to": null,
  "xas": null,
  "grain_boundaries": null,
  "band_gap": 0.0,
  "cbm": null,
  "vbm": null,
  "efermi": 4.11238514,
  "is_gap_direct": null,
  "is_metal": null,
  "es_source_calc_id": null,
  "bandstructure": null,
  "dos": null,
  "dos_energy_up": null,
  "dos_energy_down": null,
  "is_magnetic": null,
  "ordering": null,
  "total_magnetization": 0.0041458,
  "total_magnetization_normalized_vol": null,
  "total_magnetization_normalized_formula_units": null,
  "num_magnetic_sites": null,
  "num_unique_magnetic_sites": null,
  "types_of_magnetic_species": null,
  "bulk_modulus": null,
  "shear_modulus": null,
  "universal_anisotropy": null,
  "homogeneous_poisson": null,
  "e_total": null,
  "e_ionic": null,
  "e_electronic": null,
  "n": null,
  "e_ij_max": null,
  "weighted_surface_energy_EV_PER_ANG2": null,
  "weighted_surface_energy": null,
  "weighted_work_function": null,
  "surface_anisotropy": null,
  "shape_factor": null,
  "has_reconstructed": null,
  "possible_species": null,
  "has_props": null,
  "theoretical": null,
  "database_IDs": null,
  "fields_not_requested": [
    "builder_meta",
    "nsites",
    "elements",
    "nelements",
    "composition",
    "composition_reduced",
    "chemsys",
    "symmetry",
    "property_name",
    "deprecated",
    "deprecation_reasons",
    "last_updated",
    "origins",
    "warnings",
    "task_ids",
    "uncorrected_energy_per_atom",
    "equilibrium_reaction_energy_per_atom",
    "decomposes_to",
    "xas",
    "grain_boundaries",
    "cbm",
    "vbm",
    "is_gap_direct",
    "is_metal",
    "es_source_calc_id",
    "bandstructure",
    "dos",
    "dos_energy_up",
    "dos_energy_down",
    "is_magnetic",
    "ordering",
    "total_magnetization_normalized_vol",
    "total_magnetization_normalized_formula_units",
    "num_magnetic_sites",
    "num_unique_magnetic_sites",
    "types_of_magnetic_species",
    "bulk_modulus",
    "shear_modulus",
    "universal_anisotropy",
    "homogeneous_poisson",
    "e_total",
    "e_ionic",
    "e_electronic",
    "n",
    "e_ij_max",
    "weighted_surface_energy_EV_PER_ANG2",
    "weighted_surface_energy",
    "weighted_work_function",
    "surface_anisotropy",
    "shape_factor",
    "has_reconstructed",
    "possible_species",
    "has_props",
    "theoretical",
    "database_IDs"
  ]
}
