{"builder_meta": null, "nsites": null, "elements": null, "nelements": null, "composition": null, "composition_reduced": null, "formula_pretty": "Mg5As", "formula_anonymous": "AB5", "chemsys": null, "volume": 131.09296655827865, "density": 2.488365793871366, "density_atomic": 21.848827759713107, "symmetry": null, "property_name": null, "material_id": "mp-1185806", "deprecated": null, "deprecation_reasons": null, "last_updated": null, "origins": null, "warnings": null, "structure": {"@module": "pymatgen.core.structure", "@class": "Structure", "charge": 0, "lattice": {"matrix": [[1.653246, -7.715773, 0.0], [1.653246, 7.715773, 0.0], [0.0, 0.0, 5.138454]], "pbc": [true, true, true], "a": 7.890904594787914, "b": 7.890904594787914, "c": 5.138454, "alpha": 90.0, "beta": 90.0, "gamma": 155.81238758175365, "volume": 131.09296655827865}, "properties": {}, "sites": [{"species": [{"element": "Mg", "occu": 1}], "abc": [0.328733, 0.671267, 0.0], "properties": {"magmom": -0.0}, "label": "Mg", "xyz": [1.6532459999999998, 2.6429145887819994, 0.0]}, {"species": [{"element": "Mg", "occu": 1}], "abc": [0.66788, 0.33212, 0.0], "properties": {"magmom": -0.0}, "label": "Mg", "xyz": [1.6532460000000002, -2.59064794248, 0.0]}, {"species": [{"element": "Mg", "occu": 1}], "abc": [0.000321, 0.999679, 0.0], "properties": {"magmom": -0.0}, "label": "Mg", "xyz": [1.653246, 7.710819473734, 0.0]}, {"species": [{"element": "Mg", "occu": 1}], "abc": [0.440928, 0.559072, 0.5], "properties": {"magmom": -0.0}, "label": "Mg", "xyz": [1.653246, 0.9115722853119999, 2.569227]}, {"species": [{"element": "Mg", "occu": 1}], "abc": [0.12007000000000001, 0.8799300000000001, 0.5], "properties": {"magmom": -0.0}, "label": "Mg", "xyz": [1.6532460000000002, 5.862907271780001, 2.569227]}, {"species": [{"element": "As", "occu": 1}], "abc": [0.775397, 0.224603, 0.5], "properties": {"magmom": -0.0}, "label": "As", "xyz": [1.6532459999999998, -4.249801473762, 2.569227]}]}, "task_ids": null, "uncorrected_energy_per_atom": null, "energy_per_atom": -6.0927662346875, "formation_energy_per_atom": -0.16709141593749902, "energy_above_hull": 0.16105655875000002, "is_stable": false, "equilibrium_reaction_energy_per_atom": null, "decomposes_to": null, "xas": null, "grain_boundaries": null, "band_gap": 0.0, "cbm": null, "vbm": null, "efermi": 4.1577778, "is_gap_direct": null, "is_metal": null, "es_source_calc_id": null, "bandstructure": null, "dos": null, "dos_energy_up": null, "dos_energy_down": null, "is_magnetic": null, "ordering": null, "total_magnetization": 0.007871, "total_magnetization_normalized_vol": null, "total_magnetization_normalized_formula_units": null, "num_magnetic_sites": null, "num_unique_magnetic_sites": null, "types_of_magnetic_species": null, "bulk_modulus": null, "shear_modulus": null, "universal_anisotropy": null, "homogeneous_poisson": null, "e_total": null, "e_ionic": null, "e_electronic": null, "n": null, "e_ij_max": null, "weighted_surface_energy_EV_PER_ANG2": null, "weighted_surface_energy": null, "weighted_work_function": null, "surface_anisotropy": null, "shape_factor": null, "has_reconstructed": null, "possible_species": null, "has_props": null, "theoretical": null, "database_IDs": null, "fields_not_requested": ["builder_meta", "nsites", "elements", "nelements", "composition", "composition_reduced", "chemsys", "symmetry", "property_name", "deprecated", "deprecation_reasons", "last_updated", "origins", "warnings", "task_ids", "uncorrected_energy_per_atom", "equilibrium_reaction_energy_per_atom", "decomposes_to", "xas", "grain_boundaries", "cbm", "vbm", "is_gap_direct", "is_metal", "es_source_calc_id", "bandstructure", "dos", "dos_energy_up", "dos_energy_down", "is_magnetic", "ordering", "total_magnetization_normalized_vol", "total_magnetization_normalized_formula_units", "num_magnetic_sites", "num_unique_magnetic_sites", "types_of_magnetic_species", "bulk_modulus", "shear_modulus", "universal_anisotropy", "homogeneous_poisson", "e_total", "e_ionic", "e_electronic", "n", "e_ij_max", "weighted_surface_energy_EV_PER_ANG2", "weighted_surface_energy", "weighted_work_function", "surface_anisotropy", "shape_factor", "has_reconstructed", "possible_species", "has_props", "theoretical", "database_IDs"]}