{"builder_meta": null, "nsites": null, "elements": null, "nelements": null, "composition": null, "composition_reduced": null, "formula_pretty": "Mg5Bi", "formula_anonymous": "AB5", "chemsys": null, "volume": 143.5310490666654, "density": 3.8236822763508993, "density_atomic": 23.921841511110898, "symmetry": null, "property_name": null, "material_id": "mp-1094714", "deprecated": null, "deprecation_reasons": null, "last_updated": null, "origins": null, "warnings": null, "structure": {"@module": "pymatgen.core.structure", "@class": "Structure", "charge": 0.0, "lattice": {"matrix": [[1.67888195, -8.20957832, 0.0], [1.67888195, 8.20957832, 0.0], [0.0, 0.0, 5.20684744]], "pbc": [true, true, true], "a": 8.379488098580357, "b": 8.379488098580357, "c": 5.20684744, "alpha": 90.0, "beta": 90.0, "gamma": 156.88442737629222, "volume": 143.5310490666654}, "properties": {}, "sites": [{"species": [{"element": "Mg", "occu": 1}], "abc": [0.99990652, 9.348000000000003e-05, 0.0], "properties": {"magmom": -0.0}, "label": "Mg", "xyz": [1.67888195, -8.208043457237293, 0.0]}, {"species": [{"element": "Mg", "occu": 1}], "abc": [0.33481844, 0.6651815600000001, 0.0], "properties": {"magmom": 0.0}, "label": "Mg", "xyz": [1.6788819500000003, 2.712141907679559, 0.0]}, {"species": [{"element": "Mg", "occu": 1}], "abc": [0.66178947, 0.33821053, 0.0], "properties": {"magmom": -0.0}, "label": "Mg", "xyz": [1.67888195, -2.656446650632581, 0.0]}, {"species": [{"element": "Mg", "occu": 1}], "abc": [0.45061136, 0.54938864, 0.5], "properties": {"magmom": 0.0}, "label": "Mg", "xyz": [1.67888195, 0.8109198163965696, 2.60342372]}, {"species": [{"element": "Mg", "occu": 1}], "abc": [0.10877518, 0.89122482, 0.5], "properties": {"magmom": 0.0}, "label": "Mg", "xyz": [1.67888195, 6.423581601035805, 2.60342372]}, {"species": [{"element": "Bi", "occu": 1}], "abc": [0.77743203, 0.22256797, 0.5], "properties": {"magmom": -0.0}, "label": "Bi", "xyz": [1.6788819500000003, -4.55519995752318, 2.60342372]}]}, "task_ids": null, "uncorrected_energy_per_atom": null, "energy_per_atom": -2.009647303333333, "formation_energy_per_atom": -0.0025832391666670003, "energy_above_hull": 0.07186090208333201, "is_stable": false, "equilibrium_reaction_energy_per_atom": null, "decomposes_to": null, "xas": null, "grain_boundaries": null, "band_gap": 0.0, "cbm": null, "vbm": null, "efermi": 4.12091517, "is_gap_direct": null, "is_metal": null, "es_source_calc_id": null, "bandstructure": null, "dos": null, "dos_energy_up": null, "dos_energy_down": null, "is_magnetic": null, "ordering": null, "total_magnetization": 3e-07, "total_magnetization_normalized_vol": null, "total_magnetization_normalized_formula_units": null, "num_magnetic_sites": null, "num_unique_magnetic_sites": null, "types_of_magnetic_species": null, "bulk_modulus": null, "shear_modulus": null, "universal_anisotropy": null, "homogeneous_poisson": null, "e_total": null, "e_ionic": null, "e_electronic": null, "n": null, "e_ij_max": null, "weighted_surface_energy_EV_PER_ANG2": null, "weighted_surface_energy": null, "weighted_work_function": null, "surface_anisotropy": null, "shape_factor": null, "has_reconstructed": null, "possible_species": null, "has_props": null, "theoretical": null, "database_IDs": null, "fields_not_requested": ["builder_meta", "nsites", "elements", "nelements", "composition", "composition_reduced", "chemsys", "symmetry", "property_name", "deprecated", "deprecation_reasons", "last_updated", "origins", "warnings", "task_ids", "uncorrected_energy_per_atom", "equilibrium_reaction_energy_per_atom", "decomposes_to", "xas", "grain_boundaries", "cbm", "vbm", "is_gap_direct", "is_metal", "es_source_calc_id", "bandstructure", "dos", "dos_energy_up", "dos_energy_down", "is_magnetic", "ordering", "total_magnetization_normalized_vol", "total_magnetization_normalized_formula_units", "num_magnetic_sites", "num_unique_magnetic_sites", "types_of_magnetic_species", "bulk_modulus", "shear_modulus", "universal_anisotropy", "homogeneous_poisson", "e_total", "e_ionic", "e_electronic", "n", "e_ij_max", "weighted_surface_energy_EV_PER_ANG2", "weighted_surface_energy", "weighted_work_function", "surface_anisotropy", "shape_factor", "has_reconstructed", "possible_species", "has_props", "theoretical", "database_IDs"]}