{"builder_meta": null, "nsites": null, "elements": null, "nelements": null, "composition": null, "composition_reduced": null, "formula_pretty": "Mg5Cu", "formula_anonymous": "AB5", "chemsys": null, "volume": 119.33879052668998, "density": 2.5751696010862233, "density_atomic": 19.889798421114996, "symmetry": null, "property_name": null, "material_id": "mp-1185803", "deprecated": null, "deprecation_reasons": null, "last_updated": null, "origins": null, "warnings": null, "structure": {"@module": "pymatgen.core.structure", "@class": "Structure", "charge": 0, "lattice": {"matrix": [[2.65632, -4.600881, 0.0], [2.65632, 4.600881, 0.0], [0.0, 0.0, 4.882365]], "pbc": [true, true, true], "a": 5.312639825789153, "b": 5.312639825789153, "c": 4.882365, "alpha": 90.0, "beta": 90.0, "gamma": 119.99999783051416, "volume": 119.33879052668998}, "properties": {}, "sites": [{"species": [{"element": "Mg", "occu": 1}], "abc": [0.666667, 0.333333, 0.5], "properties": {"magmom": 0.0}, "label": "Mg", "xyz": [2.65632, -1.5336300672540002, 2.4411825]}, {"species": [{"element": "Mg", "occu": 1}], "abc": [0.31656, 0.0, 0.0], "properties": {"magmom": 0.0}, "label": "Mg", "xyz": [0.8408846592, -1.45645488936, 0.0]}, {"species": [{"element": "Mg", "occu": 1}], "abc": [0.68344, 0.68344, 0.0], "properties": {"magmom": 0.0}, "label": "Mg", "xyz": [3.6308706816000003, 0.0, 0.0]}, {"species": [{"element": "Mg", "occu": 1}], "abc": [0.0, 0.31656, 0.0], "properties": {"magmom": 0.0}, "label": "Mg", "xyz": [0.8408846592, 1.45645488936, 0.0]}, {"species": [{"element": "Mg", "occu": 1}], "abc": [0.333333, 0.666667, 0.5], "properties": {"magmom": 0.0}, "label": "Mg", "xyz": [2.65632, 1.5336300672540002, 2.4411825]}, {"species": [{"element": "Cu", "occu": 1}], "abc": [0.0, 0.0, 0.5], "properties": {"magmom": -0.0}, "label": "Cu", "xyz": [0.0, 0.0, 2.4411825]}]}, "task_ids": null, "uncorrected_energy_per_atom": null, "energy_per_atom": -5.25350624125, "formation_energy_per_atom": 0.028712746249999, "energy_above_hull": 0.07245300708333301, "is_stable": false, "equilibrium_reaction_energy_per_atom": null, "decomposes_to": null, "xas": null, "grain_boundaries": null, "band_gap": 0.0, "cbm": null, "vbm": null, "efermi": 3.99772347, "is_gap_direct": null, "is_metal": null, "es_source_calc_id": null, "bandstructure": null, "dos": null, "dos_energy_up": null, "dos_energy_down": null, "is_magnetic": null, "ordering": null, "total_magnetization": 0.0011784, "total_magnetization_normalized_vol": null, "total_magnetization_normalized_formula_units": null, "num_magnetic_sites": null, "num_unique_magnetic_sites": null, "types_of_magnetic_species": null, "bulk_modulus": null, "shear_modulus": null, "universal_anisotropy": null, "homogeneous_poisson": null, "e_total": null, "e_ionic": null, "e_electronic": null, "n": null, "e_ij_max": null, "weighted_surface_energy_EV_PER_ANG2": null, "weighted_surface_energy": null, "weighted_work_function": null, "surface_anisotropy": null, "shape_factor": null, "has_reconstructed": null, "possible_species": null, "has_props": null, "theoretical": null, "database_IDs": null, "fields_not_requested": ["builder_meta", "nsites", "elements", "nelements", "composition", "composition_reduced", "chemsys", "symmetry", "property_name", "deprecated", "deprecation_reasons", "last_updated", "origins", "warnings", "task_ids", "uncorrected_energy_per_atom", "equilibrium_reaction_energy_per_atom", "decomposes_to", "xas", "grain_boundaries", "cbm", "vbm", "is_gap_direct", "is_metal", "es_source_calc_id", "bandstructure", "dos", "dos_energy_up", "dos_energy_down", "is_magnetic", "ordering", "total_magnetization_normalized_vol", "total_magnetization_normalized_formula_units", "num_magnetic_sites", "num_unique_magnetic_sites", "types_of_magnetic_species", "bulk_modulus", "shear_modulus", "universal_anisotropy", "homogeneous_poisson", "e_total", "e_ionic", "e_electronic", "n", "e_ij_max", "weighted_surface_energy_EV_PER_ANG2", "weighted_surface_energy", "weighted_work_function", "surface_anisotropy", "shape_factor", "has_reconstructed", "possible_species", "has_props", "theoretical", "database_IDs"]}