{
  "builder_meta": null,
  "nsites": null,
  "elements": null,
  "nelements": null,
  "composition": null,
  "composition_reduced": null,
  "formula_pretty": "Mg5Cd",
  "formula_anonymous": "AB5",
  "chemsys": null,
  "volume": 131.69088479923403,
  "density": 2.949785535091166,
  "density_atomic": 21.94848079987234,
  "symmetry": null,
  "property_name": null,
  "material_id": "mp-1094951",
  "deprecated": null,
  "deprecation_reasons": null,
  "last_updated": null,
  "origins": null,
  "warnings": null,
  "structure": {
    "@module": "pymatgen.core.structure",
    "@class": "Structure",
    "charge": 0,
    "lattice": {
      "matrix": [
        [1.57521794, -8.17350503, 0.0],
        [1.57521794, 8.17350503, 0.0],
        [0.0, 0.0, 5.11418856]
      ],
      "pbc": [true, true, true],
      "a": 8.323911101996053,
      "b": 8.323911101996053,
      "c": 5.11418856,
      "alpha": 90.0,
      "beta": 90.0,
      "gamma": 158.18311633997092,
      "volume": 131.69088479923403
    },
    "properties": {},
    "sites": [
      {
        "species": [{ "element": "Mg", "occu": 1 }],
        "abc": [0.00079393, 0.9992060700000001, -0.0],
        "properties": { "magmom": 0.0 },
        "label": "Mg",
        "xyz": [1.57521794, 8.160526648303064, 0.0]
      },
      {
        "species": [{ "element": "Mg", "occu": 1 }],
        "abc": [0.33181993, 0.66818007, -0.0],
        "properties": { "magmom": 0.0 },
        "label": "Mg",
        "xyz": [1.57521794, 2.749241296181504, 0.0]
      },
      {
        "species": [{ "element": "Mg", "occu": 1 }],
        "abc": [0.66725115, 0.33274885, -0.0],
        "properties": { "magmom": -0.0 },
        "label": "Mg",
        "xyz": [1.57521794, -2.734056231596569, 0.0]
      },
      {
        "species": [{ "element": "Mg", "occu": 1 }],
        "abc": [0.11379135, 0.88620865, 0.5],
        "properties": { "magmom": -0.0 },
        "label": "Mg",
        "xyz": [1.57521794, 6.313356686809019, 2.55709428]
      },
      {
        "species": [{ "element": "Mg", "occu": 1 }],
        "abc": [0.44247789, 0.55752211, 0.5],
        "properties": { "magmom": -0.0 },
        "label": "Mg",
        "xyz": [1.57521794, 0.940314510842426, 2.55709428]
      },
      {
        "species": [{ "element": "Cd", "occu": 1 }],
        "abc": [0.77719874, 0.22280126, 0.5],
        "properties": { "magmom": -0.0 },
        "label": "Cd",
        "xyz": [1.57521794, -4.531370591399323, 2.55709428]
      }
    ]
  },
  "task_ids": null,
  "uncorrected_energy_per_atom": null,
  "energy_per_atom": -1.547069661666667,
  "formation_energy_per_atom": -0.028342950833333002,
  "energy_above_hull": 0.005569181666665,
  "is_stable": false,
  "equilibrium_reaction_energy_per_atom": null,
  "decomposes_to": null,
  "xas": null,
  "grain_boundaries": null,
  "band_gap": 0.0,
  "cbm": null,
  "vbm": null,
  "efermi": 3.62063688,
  "is_gap_direct": null,
  "is_metal": null,
  "es_source_calc_id": null,
  "bandstructure": null,
  "dos": null,
  "dos_energy_up": null,
  "dos_energy_down": null,
  "is_magnetic": null,
  "ordering": null,
  "total_magnetization": 0.0,
  "total_magnetization_normalized_vol": null,
  "total_magnetization_normalized_formula_units": null,
  "num_magnetic_sites": null,
  "num_unique_magnetic_sites": null,
  "types_of_magnetic_species": null,
  "bulk_modulus": null,
  "shear_modulus": null,
  "universal_anisotropy": null,
  "homogeneous_poisson": null,
  "e_total": null,
  "e_ionic": null,
  "e_electronic": null,
  "n": null,
  "e_ij_max": null,
  "weighted_surface_energy_EV_PER_ANG2": null,
  "weighted_surface_energy": null,
  "weighted_work_function": null,
  "surface_anisotropy": null,
  "shape_factor": null,
  "has_reconstructed": null,
  "possible_species": null,
  "has_props": null,
  "theoretical": null,
  "database_IDs": null,
  "fields_not_requested": [
    "builder_meta",
    "nsites",
    "elements",
    "nelements",
    "composition",
    "composition_reduced",
    "chemsys",
    "symmetry",
    "property_name",
    "deprecated",
    "deprecation_reasons",
    "last_updated",
    "origins",
    "warnings",
    "task_ids",
    "uncorrected_energy_per_atom",
    "equilibrium_reaction_energy_per_atom",
    "decomposes_to",
    "xas",
    "grain_boundaries",
    "cbm",
    "vbm",
    "is_gap_direct",
    "is_metal",
    "es_source_calc_id",
    "bandstructure",
    "dos",
    "dos_energy_up",
    "dos_energy_down",
    "is_magnetic",
    "ordering",
    "total_magnetization_normalized_vol",
    "total_magnetization_normalized_formula_units",
    "num_magnetic_sites",
    "num_unique_magnetic_sites",
    "types_of_magnetic_species",
    "bulk_modulus",
    "shear_modulus",
    "universal_anisotropy",
    "homogeneous_poisson",
    "e_total",
    "e_ionic",
    "e_electronic",
    "n",
    "e_ij_max",
    "weighted_surface_energy_EV_PER_ANG2",
    "weighted_surface_energy",
    "weighted_work_function",
    "surface_anisotropy",
    "shape_factor",
    "has_reconstructed",
    "possible_species",
    "has_props",
    "theoretical",
    "database_IDs"
  ]
}
