{"builder_meta": null, "nsites": null, "elements": null, "nelements": null, "composition": null, "composition_reduced": null, "formula_pretty": "Mg5Ga", "formula_anonymous": "AB5", "chemsys": null, "volume": 126.10980986641451, "density": 2.518240061939012, "density_atomic": 21.018301644402417, "symmetry": null, "property_name": null, "material_id": "mp-1094657", "deprecated": null, "deprecation_reasons": null, "last_updated": null, "origins": null, "warnings": null, "structure": {"@module": "pymatgen.core.structure", "@class": "Structure", "charge": 0, "lattice": {"matrix": [[5.26970379, -2.68861149, -0.0546064], [5.26970379, 2.68861149, -0.0546064], [3.94422826, 0.0, 4.40958573]], "pbc": [true, true, true], "a": 5.916197396759285, "b": 5.916197396759285, "c": 5.916196656400315, "alpha": 54.05901284312507, "beta": 54.05901284312507, "gamma": 54.059007646800154, "volume": 126.10980986641451}, "properties": {}, "sites": [{"species": [{"element": "Mg", "occu": 1}], "abc": [0.0, 0.66027161, 0.33972839], "properties": {"magmom": 0.0}, "label": "Mg", "xyz": [4.819402122208704, 1.775213837166799, 1.4620064049755706]}, {"species": [{"element": "Mg", "occu": 1}], "abc": [0.83349447, 0.83349447, 0.83349447], "properties": {"magmom": -0.0}, "label": "Mg", "xyz": [12.072030378133807, 0.0, 3.584337056092697]}, {"species": [{"element": "Mg", "occu": 1}], "abc": [0.66027161, 0.33972839, -0.0], "properties": {"magmom": 0.0}, "label": "Mg", "xyz": [5.26970379, -0.8618161843335979, -0.0546064]}, {"species": [{"element": "Mg", "occu": 1}], "abc": [0.33972839, -0.0, 0.66027161], "properties": {"magmom": 0.0}, "label": "Mg", "xyz": [4.394529927791297, -0.9133976528332011, 2.8929729250244294]}, {"species": [{"element": "Mg", "occu": 1}], "abc": [0.16650553, 0.16650553, 0.16650553], "properties": {"magmom": -0.0}, "label": "Mg", "xyz": [2.4116054618661957, 0.0, 0.7160358739073029]}, {"species": [{"element": "Ga", "occu": 1}], "abc": [0.5, 0.5, 0.5], "properties": {"magmom": 0.0}, "label": "Ga", "xyz": [7.241817920000001, 0.0, 2.150186465]}]}, "task_ids": null, "uncorrected_energy_per_atom": null, "energy_per_atom": -1.871685154999999, "formation_energy_per_atom": -0.008277472083332, "energy_above_hull": 0.054249881666667006, "is_stable": false, "equilibrium_reaction_energy_per_atom": null, "decomposes_to": null, "xas": null, "grain_boundaries": null, "band_gap": 0.0, "cbm": null, "vbm": null, "efermi": 3.7514172, "is_gap_direct": null, "is_metal": null, "es_source_calc_id": null, "bandstructure": null, "dos": null, "dos_energy_up": null, "dos_energy_down": null, "is_magnetic": null, "ordering": null, "total_magnetization": 0.0, "total_magnetization_normalized_vol": null, "total_magnetization_normalized_formula_units": null, "num_magnetic_sites": null, "num_unique_magnetic_sites": null, "types_of_magnetic_species": null, "bulk_modulus": null, "shear_modulus": null, "universal_anisotropy": null, "homogeneous_poisson": null, "e_total": null, "e_ionic": null, "e_electronic": null, "n": null, "e_ij_max": null, "weighted_surface_energy_EV_PER_ANG2": null, "weighted_surface_energy": null, "weighted_work_function": null, "surface_anisotropy": null, "shape_factor": null, "has_reconstructed": null, "possible_species": null, "has_props": null, "theoretical": null, "database_IDs": null, "fields_not_requested": ["builder_meta", "nsites", "elements", "nelements", "composition", "composition_reduced", "chemsys", "symmetry", "property_name", "deprecated", "deprecation_reasons", "last_updated", "origins", "warnings", "task_ids", "uncorrected_energy_per_atom", "equilibrium_reaction_energy_per_atom", "decomposes_to", "xas", "grain_boundaries", "cbm", "vbm", "is_gap_direct", "is_metal", "es_source_calc_id", "bandstructure", "dos", "dos_energy_up", "dos_energy_down", "is_magnetic", "ordering", "total_magnetization_normalized_vol", "total_magnetization_normalized_formula_units", "num_magnetic_sites", "num_unique_magnetic_sites", "types_of_magnetic_species", "bulk_modulus", "shear_modulus", "universal_anisotropy", "homogeneous_poisson", "e_total", "e_ionic", "e_electronic", "n", "e_ij_max", "weighted_surface_energy_EV_PER_ANG2", "weighted_surface_energy", "weighted_work_function", "surface_anisotropy", "shape_factor", "has_reconstructed", "possible_species", "has_props", "theoretical", "database_IDs"]}