{"builder_meta": null, "nsites": null, "elements": null, "nelements": null, "composition": null, "composition_reduced": null, "formula_pretty": "Mg5Ge", "formula_anonymous": "AB5", "chemsys": null, "volume": 128.94056789480706, "density": 2.5005207680597943, "density_atomic": 21.49009464913451, "symmetry": null, "property_name": null, "material_id": "mp-1185811", "deprecated": null, "deprecation_reasons": null, "last_updated": null, "origins": null, "warnings": null, "structure": {"@module": "pymatgen.core.structure", "@class": "Structure", "charge": 0, "lattice": {"matrix": [[5.314368, -2.707044, 0.0], [5.314368, 2.707044, 0.0], [3.935448, 0.0, 4.481389]], "pbc": [true, true, true], "a": 5.964108856934119, "b": 5.964108856934119, "c": 5.964109181598288, "alpha": 53.986963884618206, "beta": 53.986963884618206, "gamma": 53.986959417784846, "volume": 128.94056789480706}, "properties": {}, "sites": [{"species": [{"element": "Mg", "occu": 1}], "abc": [0.161155, 0.838845, 0.5], "properties": {"magmom": 0.0}, "label": "Mg", "xyz": [7.2820920000000005, 1.8345366483599996, 2.2406945]}, {"species": [{"element": "Mg", "occu": 1}], "abc": [0.5, 0.161155, 0.838845], "properties": {"magmom": 0.0}, "label": "Mg", "xyz": [6.8148518525999995, -0.9172683241799999, 3.7591907557049997]}, {"species": [{"element": "Mg", "occu": 1}], "abc": [0.838845, 0.5, 0.161155], "properties": {"magmom": 0.0}, "label": "Mg", "xyz": [7.7493321474, -0.9172683241799997, 0.722198244295]}, {"species": [{"element": "Mg", "occu": 1}], "abc": [0.332891999999999, 0.332891999999999, 0.332891999999999], "properties": {"magmom": 0.0}, "label": "Mg", "xyz": [4.848300340127986, 0.0, 1.4918185469879957]}, {"species": [{"element": "Mg", "occu": 1}], "abc": [0.667107999999999, 0.667107999999999, 0.667107999999999], "properties": {"magmom": 0.0}, "label": "Mg", "xyz": [9.715883659871986, 0.0, 2.9895704530119955]}, {"species": [{"element": "Ge", "occu": 1}], "abc": [0.0, 0.0, 0.0], "properties": {"magmom": -0.0}, "label": "Ge", "xyz": [0.0, 0.0, 0.0]}]}, "task_ids": null, "uncorrected_energy_per_atom": null, "energy_per_atom": -5.841094452499999, "formation_energy_per_atom": -0.054678534999999, "energy_above_hull": 0.117269828333333, "is_stable": false, "equilibrium_reaction_energy_per_atom": null, "decomposes_to": null, "xas": null, "grain_boundaries": null, "band_gap": 0.0, "cbm": null, "vbm": null, "efermi": 3.87458416, "is_gap_direct": null, "is_metal": null, "es_source_calc_id": null, "bandstructure": null, "dos": null, "dos_energy_up": null, "dos_energy_down": null, "is_magnetic": null, "ordering": null, "total_magnetization": 0.0017898999999990002, "total_magnetization_normalized_vol": null, "total_magnetization_normalized_formula_units": null, "num_magnetic_sites": null, "num_unique_magnetic_sites": null, "types_of_magnetic_species": null, "bulk_modulus": null, "shear_modulus": null, "universal_anisotropy": null, "homogeneous_poisson": null, "e_total": null, "e_ionic": null, "e_electronic": null, "n": null, "e_ij_max": null, "weighted_surface_energy_EV_PER_ANG2": null, "weighted_surface_energy": null, "weighted_work_function": null, "surface_anisotropy": null, "shape_factor": null, "has_reconstructed": null, "possible_species": null, "has_props": null, "theoretical": null, "database_IDs": null, "fields_not_requested": ["builder_meta", "nsites", "elements", "nelements", "composition", "composition_reduced", "chemsys", "symmetry", "property_name", "deprecated", "deprecation_reasons", "last_updated", "origins", "warnings", "task_ids", "uncorrected_energy_per_atom", "equilibrium_reaction_energy_per_atom", "decomposes_to", "xas", "grain_boundaries", "cbm", "vbm", "is_gap_direct", "is_metal", "es_source_calc_id", "bandstructure", "dos", "dos_energy_up", "dos_energy_down", "is_magnetic", "ordering", "total_magnetization_normalized_vol", "total_magnetization_normalized_formula_units", "num_magnetic_sites", "num_unique_magnetic_sites", "types_of_magnetic_species", "bulk_modulus", "shear_modulus", "universal_anisotropy", "homogeneous_poisson", "e_total", "e_ionic", "e_electronic", "n", "e_ij_max", "weighted_surface_energy_EV_PER_ANG2", "weighted_surface_energy", "weighted_work_function", "surface_anisotropy", "shape_factor", "has_reconstructed", "possible_species", "has_props", "theoretical", "database_IDs"]}