{"builder_meta": null, "nsites": null, "elements": null, "nelements": null, "composition": null, "composition_reduced": null, "formula_pretty": "Mg5Ga2", "formula_anonymous": "A2B5", "chemsys": null, "volume": 281.3089933998069, "density": 3.080971820433566, "density_atomic": 20.093499528557636, "symmetry": null, "property_name": null, "material_id": "mp-1770", "deprecated": null, "deprecation_reasons": null, "last_updated": null, "origins": null, "warnings": null, "structure": {"@module": "pymatgen.core.structure", "@class": "Structure", "charge": 0, "lattice": {"matrix": [[5.56477376, 0.00139062, -2.17494962], [-1.15055229, 6.2111773, -2.94761817], [-0.016535499999999002, -0.03457134, 8.16382601]], "pbc": [true, true, true], "a": 5.974706250799839, "b": 6.970720687287196, "c": 8.163915955095456, "alpha": 115.23242509710305, "beta": 111.46357457094294, "gamma": 89.97661943385529, "volume": 281.308993399807}, "properties": {}, "sites": [{"species": [{"element": "Mg", "occu": 1}], "abc": [0.41605026, 0.5698272, 0.83212831], "properties": {"magmom": 0.0}, "label": "Mg", "xyz": [1.6458499221548855, 3.511108546646486, 4.208829377467217]}, {"species": [{"element": "Mg", "occu": 1}], "abc": [0.58394974, 0.430172799999999, 0.16787169], "properties": {"magmom": 0.0}, "label": "Mg", "xyz": [2.7518360478451163, 2.666888033353508, -1.1675711574672154]}, {"species": [{"element": "Mg", "occu": 1}], "abc": [0.08437542, 0.73708157, 0.16812513], "properties": {"magmom": -0.0}, "label": "Mg", "xyz": [-0.3813007981624309, 4.5724493389471474, -0.9836030069418358]}, {"species": [{"element": "Mg", "occu": 1}], "abc": [0.91562458, 0.26291843, 0.83187487], "properties": {"magmom": -0.0}, "label": "Mg", "xyz": [4.778986768162431, 1.6055472410528528, 4.024861226941836]}, {"species": [{"element": "Mg", "occu": 1}], "abc": [0.74999921, -1.3810000000000002e-05, 6.743000000000002e-05], "properties": {"magmom": -0.0}, "label": "Mg", "xyz": [4.173590697967089, 0.000954856397441, -1.6306193033950183]}, {"species": [{"element": "Mg", "occu": 1}], "abc": [0.25000079000000003, 1.3810000000000002e-05, -6.743000000000002e-05], "properties": {"magmom": -0.0}, "label": "Mg", "xyz": [1.3911830620329106, 0.000435763602559, -0.5443303166049819]}, {"species": [{"element": "Mg", "occu": 1}], "abc": [0.51814168, 0.76772241, 0.53547694], "properties": {"magmom": 0.0}, "label": "Mg", "xyz": [1.9911820689751283, 4.750668388521435, 0.9816559952728579]}, {"species": [{"element": "Mg", "occu": 1}], "abc": [0.981289299999999, 0.23200626, 0.46334957], "properties": {"magmom": -0.0}, "label": "Mg", "xyz": [5.186055897056693, 1.42637800057294, 0.964584613613507]}, {"species": [{"element": "Mg", "occu": 1}], "abc": [0.48185832, 0.23227759, 0.46452306], "properties": {"magmom": 0.0}, "label": "Mg", "xyz": [2.4065039010248723, 1.4273281914785652, 2.0596022247271417]}, {"species": [{"element": "Mg", "occu": 1}], "abc": [0.0187107, 0.76799374, 0.53665043], "properties": {"magmom": -0.0}, "label": "Mg", "xyz": [-0.788369927056697, 4.75161857942706, 2.0766736063864943]}, {"species": [{"element": "Ga", "occu": 1}], "abc": [0.37773266, 0.14178868, 0.75516128], "properties": {"magmom": -0.0}, "label": "Ga", "xyz": [1.926374534847485, 0.855092975838898, 4.925516904611988]}, {"species": [{"element": "Ga", "occu": 1}], "abc": [0.6222673400000001, 0.85821132, 0.24483872], "properties": {"magmom": -0.0}, "label": "Ga", "xyz": [2.471311435152516, 5.322903604161103, -1.8842586846119884]}, {"species": [{"element": "Ga", "occu": 1}], "abc": [0.12241379000000001, 0.38651074, 0.24480945], "properties": {"magmom": 0.0}, "label": "Ga", "xyz": [0.23245618277708097, 2.392393574827689, 0.5930518492363885]}, {"species": [{"element": "Ga", "occu": 1}], "abc": [0.87758621, 0.61348926, 0.75519055], "properties": {"magmom": 0.0}, "label": "Ga", "xyz": [4.16522978722292, 3.7856030051723115, 2.4482063707636104]}]}, "task_ids": null, "uncorrected_energy_per_atom": null, "energy_per_atom": -2.136981480714285, "formation_energy_per_atom": -0.10718974928571301, "energy_above_hull": 0.0, "is_stable": true, "equilibrium_reaction_energy_per_atom": null, "decomposes_to": null, "xas": null, "grain_boundaries": null, "band_gap": 0.0, "cbm": null, "vbm": null, "efermi": 3.57061276, "is_gap_direct": null, "is_metal": null, "es_source_calc_id": null, "bandstructure": null, "dos": null, "dos_energy_up": null, "dos_energy_down": null, "is_magnetic": null, "ordering": null, "total_magnetization": 0.0, "total_magnetization_normalized_vol": null, "total_magnetization_normalized_formula_units": null, "num_magnetic_sites": null, "num_unique_magnetic_sites": null, "types_of_magnetic_species": null, "bulk_modulus": null, "shear_modulus": null, "universal_anisotropy": null, "homogeneous_poisson": null, "e_total": null, "e_ionic": null, "e_electronic": null, "n": null, "e_ij_max": null, "weighted_surface_energy_EV_PER_ANG2": null, "weighted_surface_energy": null, "weighted_work_function": null, "surface_anisotropy": null, "shape_factor": null, "has_reconstructed": null, "possible_species": null, "has_props": null, "theoretical": null, "database_IDs": null, "fields_not_requested": ["builder_meta", "nsites", "elements", "nelements", "composition", "composition_reduced", "chemsys", "symmetry", "property_name", "deprecated", "deprecation_reasons", "last_updated", "origins", "warnings", "task_ids", "uncorrected_energy_per_atom", "equilibrium_reaction_energy_per_atom", "decomposes_to", "xas", "grain_boundaries", "cbm", "vbm", "is_gap_direct", "is_metal", "es_source_calc_id", "bandstructure", "dos", "dos_energy_up", "dos_energy_down", "is_magnetic", "ordering", "total_magnetization_normalized_vol", "total_magnetization_normalized_formula_units", "num_magnetic_sites", "num_unique_magnetic_sites", "types_of_magnetic_species", "bulk_modulus", "shear_modulus", "universal_anisotropy", "homogeneous_poisson", "e_total", "e_ionic", "e_electronic", "n", "e_ij_max", "weighted_surface_energy_EV_PER_ANG2", "weighted_surface_energy", "weighted_work_function", "surface_anisotropy", "shape_factor", "has_reconstructed", "possible_species", "has_props", "theoretical", "database_IDs"]}