{"builder_meta": null, "nsites": null, "elements": null, "nelements": null, "composition": null, "composition_reduced": null, "formula_pretty": "Mg5Hg", "formula_anonymous": "AB5", "chemsys": null, "volume": 129.14981414371562, "density": 4.141581968075068, "density_atomic": 21.524969023952604, "symmetry": null, "property_name": null, "material_id": "mp-1185805", "deprecated": null, "deprecation_reasons": null, "last_updated": null, "origins": null, "warnings": null, "structure": {"@module": "pymatgen.core.structure", "@class": "Structure", "charge": 0, "lattice": {"matrix": [[1.63363251, -7.95627205, 0.0], [1.63363251, 7.95627205, 0.0], [0.0, 0.0, 4.9682083200000005]], "pbc": [true, true, true], "a": 8.122254619952523, "b": 8.122254619952523, "c": 4.9682083200000005, "alpha": 90.0, "beta": 90.0, "gamma": 156.793858216876, "volume": 129.14981414371564}, "properties": {}, "sites": [{"species": [{"element": "Mg", "occu": 1}], "abc": [-1.9240000000000002e-05, 1.9240000000000002e-05, 0.5], "properties": {"magmom": 0.0}, "label": "Mg", "xyz": [0.0, 0.00030615734848400006, 2.4841041600000002]}, {"species": [{"element": "Mg", "occu": 1}], "abc": [0.67166725, 0.32833275, 0.5], "properties": {"magmom": -0.0}, "label": "Mg", "xyz": [1.63363251, -2.7316626861507256, 2.4841041600000002]}, {"species": [{"element": "Mg", "occu": 1}], "abc": [0.334123699999999, 0.6658763, 0.5], "properties": {"magmom": -0.0}, "label": "Mg", "xyz": [1.6336325099999984, 2.639513938894838, 2.4841041600000002]}, {"species": [{"element": "Mg", "occu": 1}], "abc": [0.55720433, 0.44279567000000003, -0.0], "properties": {"magmom": -0.0}, "label": "Mg", "xyz": [1.63363251, -0.910266423835953, 0.0]}, {"species": [{"element": "Mg", "occu": 1}], "abc": [0.88198993, 0.11801007000000001, 0.0], "properties": {"magmom": 0.0}, "label": "Mg", "xyz": [1.63363251, -6.078431606880913, 0.0]}, {"species": [{"element": "Hg", "occu": 1}], "abc": [0.22170503, 0.77829497, -0.0], "properties": {"magmom": -0.0}, "label": "Hg", "xyz": [1.63363251, 4.428380982933177, 0.0]}]}, "task_ids": null, "uncorrected_energy_per_atom": null, "energy_per_atom": -1.469534040000001, "formation_energy_per_atom": -0.05919702125000201, "energy_above_hull": 0.028821280833331003, "is_stable": false, "equilibrium_reaction_energy_per_atom": null, "decomposes_to": null, "xas": null, "grain_boundaries": null, "band_gap": 0.0, "cbm": null, "vbm": null, "efermi": 3.86493724, "is_gap_direct": null, "is_metal": null, "es_source_calc_id": null, "bandstructure": null, "dos": null, "dos_energy_up": null, "dos_energy_down": null, "is_magnetic": null, "ordering": null, "total_magnetization": 0.0, "total_magnetization_normalized_vol": null, "total_magnetization_normalized_formula_units": null, "num_magnetic_sites": null, "num_unique_magnetic_sites": null, "types_of_magnetic_species": null, "bulk_modulus": null, "shear_modulus": null, "universal_anisotropy": null, "homogeneous_poisson": null, "e_total": null, "e_ionic": null, "e_electronic": null, "n": null, "e_ij_max": null, "weighted_surface_energy_EV_PER_ANG2": null, "weighted_surface_energy": null, "weighted_work_function": null, "surface_anisotropy": null, "shape_factor": null, "has_reconstructed": null, "possible_species": null, "has_props": null, "theoretical": null, "database_IDs": null, "fields_not_requested": ["builder_meta", "nsites", "elements", "nelements", "composition", "composition_reduced", "chemsys", "symmetry", "property_name", "deprecated", "deprecation_reasons", "last_updated", "origins", "warnings", "task_ids", "uncorrected_energy_per_atom", "equilibrium_reaction_energy_per_atom", "decomposes_to", "xas", "grain_boundaries", "cbm", "vbm", "is_gap_direct", "is_metal", "es_source_calc_id", "bandstructure", "dos", "dos_energy_up", "dos_energy_down", "is_magnetic", "ordering", "total_magnetization_normalized_vol", "total_magnetization_normalized_formula_units", "num_magnetic_sites", "num_unique_magnetic_sites", "types_of_magnetic_species", "bulk_modulus", "shear_modulus", "universal_anisotropy", "homogeneous_poisson", "e_total", "e_ionic", "e_electronic", "n", "e_ij_max", "weighted_surface_energy_EV_PER_ANG2", "weighted_surface_energy", "weighted_work_function", "surface_anisotropy", "shape_factor", "has_reconstructed", "possible_species", "has_props", "theoretical", "database_IDs"]}