{
  "builder_meta": null,
  "nsites": null,
  "elements": null,
  "nelements": null,
  "composition": null,
  "composition_reduced": null,
  "formula_pretty": "Mg5Hg3",
  "formula_anonymous": "A3B5",
  "chemsys": null,
  "volume": 344.0030800337208,
  "density": 6.982842153963932,
  "density_atomic": 21.50019250210755,
  "symmetry": null,
  "property_name": null,
  "material_id": "mp-11465",
  "deprecated": null,
  "deprecation_reasons": null,
  "last_updated": null,
  "origins": null,
  "warnings": null,
  "structure": {
    "@module": "pymatgen.core.structure",
    "@class": "Structure",
    "charge": 0,
    "lattice": {
      "matrix": [
        [8.22667506, -0.0, 0.0],
        [-4.11333753, 7.12450851, 0.0],
        [0.0, -0.0, 5.86925634]
      ],
      "pbc": [true, true, true],
      "a": 8.22667506,
      "b": 8.226674124138437,
      "c": 5.86925634,
      "alpha": 90.0,
      "beta": 90.0,
      "gamma": 120.00000376313095,
      "volume": 344.0030800337208
    },
    "properties": {},
    "sites": [
      {
        "species": [{ "element": "Mg", "occu": 1 }],
        "abc": [0.74290892, -0.0, 0.75],
        "properties": { "magmom": -0.0 },
        "label": "Mg",
        "xyz": [6.111670284015535, 0.0, 4.401942255]
      },
      {
        "species": [{ "element": "Mg", "occu": 1 }],
        "abc": [0.74290892, 0.74290892, 0.25],
        "properties": { "magmom": -0.0 },
        "label": "Mg",
        "xyz": [3.0558351420077674, 5.292860922694909, 1.467314085]
      },
      {
        "species": [{ "element": "Mg", "occu": 1 }],
        "abc": [-0.0, 0.25709108, 0.25],
        "properties": { "magmom": -0.0 },
        "label": "Mg",
        "xyz": [-1.0575023879922325, 1.831647587305091, 1.467314085]
      },
      {
        "species": [{ "element": "Mg", "occu": 1 }],
        "abc": [0.0, 0.74290892, 0.75],
        "properties": { "magmom": -0.0 },
        "label": "Mg",
        "xyz": [-3.0558351420077674, 5.292860922694909, 4.401942255]
      },
      {
        "species": [{ "element": "Mg", "occu": 1 }],
        "abc": [0.25709108, 0.25709108, 0.75],
        "properties": { "magmom": -0.0 },
        "label": "Mg",
        "xyz": [1.0575023879922325, 1.831647587305091, 4.401942255]
      },
      {
        "species": [{ "element": "Mg", "occu": 1 }],
        "abc": [0.25709108, 0.0, 0.25],
        "properties": { "magmom": -0.0 },
        "label": "Mg",
        "xyz": [2.115004775984465, 0.0, 1.467314085]
      },
      {
        "species": [{ "element": "Mg", "occu": 1 }],
        "abc": [0.333333, 0.666667, -0.0],
        "properties": { "magmom": 0.0 },
        "label": "Mg",
        "xyz": [-4.113337530142758e-6, 4.74967471483617, 0.0]
      },
      {
        "species": [{ "element": "Mg", "occu": 1 }],
        "abc": [0.666667, 0.333333, 0.5],
        "properties": { "magmom": 0.0 },
        "label": "Mg",
        "xyz": [4.11334164333753, 2.37483379516383, 2.93462817]
      },
      {
        "species": [{ "element": "Mg", "occu": 1 }],
        "abc": [0.666667, 0.333333, -0.0],
        "properties": { "magmom": 0.0 },
        "label": "Mg",
        "xyz": [4.11334164333753, 2.37483379516383, 0.0]
      },
      {
        "species": [{ "element": "Mg", "occu": 1 }],
        "abc": [0.333333, 0.666667, 0.5],
        "properties": { "magmom": 0.0 },
        "label": "Mg",
        "xyz": [-4.113337530142758e-6, 4.74967471483617, 2.93462817]
      },
      {
        "species": [{ "element": "Hg", "occu": 1 }],
        "abc": [0.38604492, 0.0, 0.75],
        "properties": { "magmom": -0.0 },
        "label": "Hg",
        "xyz": [3.175866115403695, 0.0, 4.401942255]
      },
      {
        "species": [{ "element": "Hg", "occu": 1 }],
        "abc": [0.38604492, 0.38604492, 0.25],
        "properties": { "magmom": -0.0 },
        "label": "Hg",
        "xyz": [1.5879330577018476, 2.750380317782269, 1.467314085]
      },
      {
        "species": [{ "element": "Hg", "occu": 1 }],
        "abc": [0.0, 0.61395508, 0.25],
        "properties": { "magmom": -0.0 },
        "label": "Hg",
        "xyz": [-2.525404472298152, 4.37412819221773, 1.467314085]
      },
      {
        "species": [{ "element": "Hg", "occu": 1 }],
        "abc": [-0.0, 0.38604492, 0.75],
        "properties": { "magmom": -0.0 },
        "label": "Hg",
        "xyz": [-1.5879330577018476, 2.750380317782269, 4.401942255]
      },
      {
        "species": [{ "element": "Hg", "occu": 1 }],
        "abc": [0.61395508, 0.61395508, 0.75],
        "properties": { "magmom": -0.0 },
        "label": "Hg",
        "xyz": [2.525404472298152, 4.37412819221773, 4.401942255]
      },
      {
        "species": [{ "element": "Hg", "occu": 1 }],
        "abc": [0.61395508, -0.0, 0.25],
        "properties": { "magmom": -0.0 },
        "label": "Hg",
        "xyz": [5.050808944596304, 0.0, 1.467314085]
      }
    ]
  },
  "task_ids": null,
  "uncorrected_energy_per_atom": null,
  "energy_per_atom": -1.332314666874999,
  "formation_energy_per_atom": -0.19714389343750202,
  "energy_above_hull": 0.0,
  "is_stable": true,
  "equilibrium_reaction_energy_per_atom": null,
  "decomposes_to": null,
  "xas": null,
  "grain_boundaries": null,
  "band_gap": 0.0,
  "cbm": null,
  "vbm": null,
  "efermi": 3.78529048,
  "is_gap_direct": null,
  "is_metal": null,
  "es_source_calc_id": null,
  "bandstructure": null,
  "dos": null,
  "dos_energy_up": null,
  "dos_energy_down": null,
  "is_magnetic": null,
  "ordering": null,
  "total_magnetization": 0.0,
  "total_magnetization_normalized_vol": null,
  "total_magnetization_normalized_formula_units": null,
  "num_magnetic_sites": null,
  "num_unique_magnetic_sites": null,
  "types_of_magnetic_species": null,
  "bulk_modulus": null,
  "shear_modulus": null,
  "universal_anisotropy": null,
  "homogeneous_poisson": null,
  "e_total": null,
  "e_ionic": null,
  "e_electronic": null,
  "n": null,
  "e_ij_max": null,
  "weighted_surface_energy_EV_PER_ANG2": null,
  "weighted_surface_energy": null,
  "weighted_work_function": null,
  "surface_anisotropy": null,
  "shape_factor": null,
  "has_reconstructed": null,
  "possible_species": null,
  "has_props": null,
  "theoretical": null,
  "database_IDs": null,
  "fields_not_requested": [
    "builder_meta",
    "nsites",
    "elements",
    "nelements",
    "composition",
    "composition_reduced",
    "chemsys",
    "symmetry",
    "property_name",
    "deprecated",
    "deprecation_reasons",
    "last_updated",
    "origins",
    "warnings",
    "task_ids",
    "uncorrected_energy_per_atom",
    "equilibrium_reaction_energy_per_atom",
    "decomposes_to",
    "xas",
    "grain_boundaries",
    "cbm",
    "vbm",
    "is_gap_direct",
    "is_metal",
    "es_source_calc_id",
    "bandstructure",
    "dos",
    "dos_energy_up",
    "dos_energy_down",
    "is_magnetic",
    "ordering",
    "total_magnetization_normalized_vol",
    "total_magnetization_normalized_formula_units",
    "num_magnetic_sites",
    "num_unique_magnetic_sites",
    "types_of_magnetic_species",
    "bulk_modulus",
    "shear_modulus",
    "universal_anisotropy",
    "homogeneous_poisson",
    "e_total",
    "e_ionic",
    "e_electronic",
    "n",
    "e_ij_max",
    "weighted_surface_energy_EV_PER_ANG2",
    "weighted_surface_energy",
    "weighted_work_function",
    "surface_anisotropy",
    "shape_factor",
    "has_reconstructed",
    "possible_species",
    "has_props",
    "theoretical",
    "database_IDs"
  ]
}
