{
  "builder_meta": null,
  "nsites": null,
  "elements": null,
  "nelements": null,
  "composition": null,
  "composition_reduced": null,
  "formula_pretty": "Mg5In",
  "formula_anonymous": "AB5",
  "chemsys": null,
  "volume": 134.37641631391037,
  "density": 2.9205778467900503,
  "density_atomic": 22.396069385651728,
  "symmetry": null,
  "property_name": null,
  "material_id": "mp-1185835",
  "deprecated": null,
  "deprecation_reasons": null,
  "last_updated": null,
  "origins": null,
  "warnings": null,
  "structure": {
    "@module": "pymatgen.core.structure",
    "@class": "Structure",
    "charge": 0,
    "lattice": {
      "matrix": [
        [5.40779441, -2.73870617, -0.0585689],
        [5.40779441, 2.73870617, -0.0585689],
        [4.07010348, 0.0, 4.49248713]
      ],
      "pbc": [true, true, true],
      "a": 6.062027893574108,
      "b": 6.062027893574108,
      "c": 6.062027956973124,
      "alpha": 53.71595019728965,
      "beta": 53.71595019728965,
      "gamma": 53.71595673310661,
      "volume": 134.37641631391037
    },
    "properties": {},
    "sites": [
      {
        "species": [{ "element": "Mg", "occu": 1 }],
        "abc": [0.5, 0.16638943, 0.83361057],
        "properties": { "magmom": 0.0 },
        "label": "Mg",
        "xyz": [6.996578316358871, -0.9136613264362169, 3.705955061270237]
      },
      {
        "species": [{ "element": "Mg", "occu": 1 }],
        "abc": [0.16638943, 0.83361057, 0.5],
        "properties": { "magmom": 0.0 },
        "label": "Mg",
        "xyz": [7.442846150000001, 1.827322652872434, 2.187674665]
      },
      {
        "species": [{ "element": "Mg", "occu": 1 }],
        "abc": [0.83361057, 0.5, 0.16638943],
        "properties": { "magmom": 0.0 },
        "label": "Mg",
        "xyz": [7.88911398364113, -0.9136613264362172, 0.6693942687297629]
      },
      {
        "species": [{ "element": "Mg", "occu": 1 }],
        "abc": [0.33268671, 0.33268671, 0.33268671],
        "properties": { "magmom": -0.0 },
        "label": "Mg",
        "xyz": [4.9522719973593325, 0.0, 1.4556205736984043]
      },
      {
        "species": [{ "element": "Mg", "occu": 1 }],
        "abc": [0.6673132900000001, 0.6673132900000001, 0.6673132900000001],
        "properties": { "magmom": -0.0 },
        "label": "Mg",
        "xyz": [9.933420302640668, 0.0, 2.9197287563015957]
      },
      {
        "species": [{ "element": "In", "occu": 1 }],
        "abc": [-0.0, 0.0, 0.0],
        "properties": { "magmom": -0.0 },
        "label": "In",
        "xyz": [0.0, 0.0, 0.0]
      }
    ]
  },
  "task_ids": null,
  "uncorrected_energy_per_atom": null,
  "energy_per_atom": -1.825166768333333,
  "formation_energy_per_atom": -0.006579465277777001,
  "energy_above_hull": 0.042902828333332005,
  "is_stable": false,
  "equilibrium_reaction_energy_per_atom": null,
  "decomposes_to": null,
  "xas": null,
  "grain_boundaries": null,
  "band_gap": 0.0,
  "cbm": null,
  "vbm": null,
  "efermi": 4.53691122,
  "is_gap_direct": null,
  "is_metal": null,
  "es_source_calc_id": null,
  "bandstructure": null,
  "dos": null,
  "dos_energy_up": null,
  "dos_energy_down": null,
  "is_magnetic": null,
  "ordering": null,
  "total_magnetization": 0.0,
  "total_magnetization_normalized_vol": null,
  "total_magnetization_normalized_formula_units": null,
  "num_magnetic_sites": null,
  "num_unique_magnetic_sites": null,
  "types_of_magnetic_species": null,
  "bulk_modulus": null,
  "shear_modulus": null,
  "universal_anisotropy": null,
  "homogeneous_poisson": null,
  "e_total": null,
  "e_ionic": null,
  "e_electronic": null,
  "n": null,
  "e_ij_max": null,
  "weighted_surface_energy_EV_PER_ANG2": null,
  "weighted_surface_energy": null,
  "weighted_work_function": null,
  "surface_anisotropy": null,
  "shape_factor": null,
  "has_reconstructed": null,
  "possible_species": null,
  "has_props": null,
  "theoretical": null,
  "database_IDs": null,
  "fields_not_requested": [
    "builder_meta",
    "nsites",
    "elements",
    "nelements",
    "composition",
    "composition_reduced",
    "chemsys",
    "symmetry",
    "property_name",
    "deprecated",
    "deprecation_reasons",
    "last_updated",
    "origins",
    "warnings",
    "task_ids",
    "uncorrected_energy_per_atom",
    "equilibrium_reaction_energy_per_atom",
    "decomposes_to",
    "xas",
    "grain_boundaries",
    "cbm",
    "vbm",
    "is_gap_direct",
    "is_metal",
    "es_source_calc_id",
    "bandstructure",
    "dos",
    "dos_energy_up",
    "dos_energy_down",
    "is_magnetic",
    "ordering",
    "total_magnetization_normalized_vol",
    "total_magnetization_normalized_formula_units",
    "num_magnetic_sites",
    "num_unique_magnetic_sites",
    "types_of_magnetic_species",
    "bulk_modulus",
    "shear_modulus",
    "universal_anisotropy",
    "homogeneous_poisson",
    "e_total",
    "e_ionic",
    "e_electronic",
    "n",
    "e_ij_max",
    "weighted_surface_energy_EV_PER_ANG2",
    "weighted_surface_energy",
    "weighted_work_function",
    "surface_anisotropy",
    "shape_factor",
    "has_reconstructed",
    "possible_species",
    "has_props",
    "theoretical",
    "database_IDs"
  ]
}
