{
  "builder_meta": null,
  "nsites": null,
  "elements": null,
  "nelements": null,
  "composition": null,
  "composition_reduced": null,
  "formula_pretty": "Mg5In2",
  "formula_anonymous": "A2B5",
  "chemsys": null,
  "volume": 319.13799178372136,
  "density": 3.654322419635318,
  "density_atomic": 22.79557084169438,
  "symmetry": null,
  "property_name": null,
  "material_id": "mp-22570",
  "deprecated": null,
  "deprecation_reasons": null,
  "last_updated": null,
  "origins": null,
  "warnings": null,
  "structure": {
    "@module": "pymatgen.core.structure",
    "@class": "Structure",
    "charge": 0,
    "lattice": {
      "matrix": [
        [5.80877144, -0.0, -2.24436716],
        [-1.2105411400000001, 6.5213635100000005, -3.13306965],
        [-0.06436897, -0.04164387, 8.47259089]
      ],
      "pbc": [true, true, true],
      "a": 6.2272794694831335,
      "b": 7.335510705666181,
      "c": 8.472937741156748,
      "alpha": 115.48077438513504,
      "beta": 111.56032468000284,
      "gamma": 89.99999770281977,
      "volume": 319.1379917837214
    },
    "properties": {},
    "sites": [
      {
        "species": [{ "element": "Mg", "occu": 1 }],
        "abc": [0.41087538, 0.0757543, 0.82175277],
        "properties": { "magmom": 0.0 },
        "label": "Mg",
        "xyz": [2.2420820966616986, 0.4598003622195731, 5.8028763250227495]
      },
      {
        "species": [{ "element": "Mg", "occu": 1 }],
        "abc": [0.58912462, 0.9242457, 0.17824723],
        "properties": { "magmom": 0.0 },
        "label": "Mg",
        "xyz": [2.291779233338302, 6.019919277780427, -2.707722245022749]
      },
      {
        "species": [{ "element": "Mg", "occu": 1 }],
        "abc": [0.08879203000000001, 0.25190399, 0.17758607],
        "properties": { "magmom": 0.0 },
        "label": "Mg",
        "xyz": [0.19940143232622665, 1.6353621171965143, 0.516099456888264]
      },
      {
        "species": [{ "element": "Mg", "occu": 1 }],
        "abc": [0.91120797, 0.7480970100000001, 0.8224139300000001],
        "properties": { "magmom": 0.0 },
        "label": "Mg",
        "xyz": [4.334458687132632, 4.844364044166997, 2.579051490042086]
      },
      {
        "species": [{ "element": "Mg", "occu": 1 }],
        "abc": [0.24964523, 0.5, -0.0],
        "properties": { "magmom": -0.0 },
        "label": "Mg",
        "xyz": [0.8448615121562311, 3.2606817550000002, -2.1268303808626468]
      },
      {
        "species": [{ "element": "Mg", "occu": 1 }],
        "abc": [0.7503547700000001, 0.5, 0.0],
        "properties": { "magmom": -0.0 },
        "label": "Mg",
        "xyz": [3.753368787843769, 3.2606817550000002, -3.2506064291373535]
      },
      {
        "species": [{ "element": "Mg", "occu": 1 }],
        "abc": [0.48128134, 0.73074318, 0.46253898],
        "properties": { "magmom": 0.0 },
        "label": "Mg",
        "xyz": [1.881285462505054, 4.7461799960803095, 0.5492622347986105]
      },
      {
        "species": [{ "element": "Mg", "occu": 1 }],
        "abc": [0.01874236, 0.26925682, 0.53746102],
        "properties": { "magmom": 0.0 },
        "label": "Mg",
        "xyz": [-0.2516721846219258, 1.7335396439196908, 3.668022233699696]
      },
      {
        "species": [{ "element": "Mg", "occu": 1 }],
        "abc": [0.51871866, 0.26925682, 0.53746102],
        "properties": { "magmom": 0.0 },
        "label": "Mg",
        "xyz": [2.652575867494946, 1.7335396439196908, 2.545891845201388]
      },
      {
        "species": [{ "element": "Mg", "occu": 1 }],
        "abc": [0.98125764, 0.73074318, 0.46253898],
        "properties": { "magmom": 0.0 },
        "label": "Mg",
        "xyz": [4.785533514621926, 4.7461799960803095, -0.5728681536996971]
      },
      {
        "species": [{ "element": "In", "occu": 1 }],
        "abc": [0.37821378, 0.6472298400000001, 0.75642856],
        "properties": { "magmom": -0.0 },
        "label": "In",
        "xyz": [1.3647685278370425, 4.189320448542212, 3.532242970821997]
      },
      {
        "species": [{ "element": "In", "occu": 1 }],
        "abc": [0.6217862200000001, 0.35277016, 0.24357144],
        "properties": { "magmom": -0.0 },
        "label": "In",
        "xyz": [3.169092802162958, 2.290399191457789, -0.43708889082199764]
      },
      {
        "species": [{ "element": "In", "occu": 1 }],
        "abc": [0.1224788, 0.89117601, 0.2449586],
        "properties": { "magmom": -0.0 },
        "label": "In",
        "xyz": [-0.38312160041522164, 5.8014816885076135, -0.9915699034681507]
      },
      {
        "species": [{ "element": "In", "occu": 1 }],
        "abc": [0.8775212, 0.10882399, 0.7550414],
        "properties": { "magmom": -0.0 },
        "label": "In",
        "xyz": [4.916982930415221, 0.6782379514923869, 4.08672398346815]
      }
    ]
  },
  "task_ids": null,
  "uncorrected_energy_per_atom": null,
  "energy_per_atom": -2.001876042857143,
  "formation_energy_per_atom": -0.048919248333333006,
  "energy_above_hull": 0.025559807142855002,
  "is_stable": false,
  "equilibrium_reaction_energy_per_atom": null,
  "decomposes_to": null,
  "xas": null,
  "grain_boundaries": null,
  "band_gap": 0.0,
  "cbm": null,
  "vbm": null,
  "efermi": 4.72710212,
  "is_gap_direct": null,
  "is_metal": null,
  "es_source_calc_id": null,
  "bandstructure": null,
  "dos": null,
  "dos_energy_up": null,
  "dos_energy_down": null,
  "is_magnetic": null,
  "ordering": null,
  "total_magnetization": 0.0,
  "total_magnetization_normalized_vol": null,
  "total_magnetization_normalized_formula_units": null,
  "num_magnetic_sites": null,
  "num_unique_magnetic_sites": null,
  "types_of_magnetic_species": null,
  "bulk_modulus": null,
  "shear_modulus": null,
  "universal_anisotropy": null,
  "homogeneous_poisson": null,
  "e_total": null,
  "e_ionic": null,
  "e_electronic": null,
  "n": null,
  "e_ij_max": null,
  "weighted_surface_energy_EV_PER_ANG2": null,
  "weighted_surface_energy": null,
  "weighted_work_function": null,
  "surface_anisotropy": null,
  "shape_factor": null,
  "has_reconstructed": null,
  "possible_species": null,
  "has_props": null,
  "theoretical": null,
  "database_IDs": null,
  "fields_not_requested": [
    "builder_meta",
    "nsites",
    "elements",
    "nelements",
    "composition",
    "composition_reduced",
    "chemsys",
    "symmetry",
    "property_name",
    "deprecated",
    "deprecation_reasons",
    "last_updated",
    "origins",
    "warnings",
    "task_ids",
    "uncorrected_energy_per_atom",
    "equilibrium_reaction_energy_per_atom",
    "decomposes_to",
    "xas",
    "grain_boundaries",
    "cbm",
    "vbm",
    "is_gap_direct",
    "is_metal",
    "es_source_calc_id",
    "bandstructure",
    "dos",
    "dos_energy_up",
    "dos_energy_down",
    "is_magnetic",
    "ordering",
    "total_magnetization_normalized_vol",
    "total_magnetization_normalized_formula_units",
    "num_magnetic_sites",
    "num_unique_magnetic_sites",
    "types_of_magnetic_species",
    "bulk_modulus",
    "shear_modulus",
    "universal_anisotropy",
    "homogeneous_poisson",
    "e_total",
    "e_ionic",
    "e_electronic",
    "n",
    "e_ij_max",
    "weighted_surface_energy_EV_PER_ANG2",
    "weighted_surface_energy",
    "weighted_work_function",
    "surface_anisotropy",
    "shape_factor",
    "has_reconstructed",
    "possible_species",
    "has_props",
    "theoretical",
    "database_IDs"
  ]
}
