{
  "builder_meta": null,
  "nsites": null,
  "elements": null,
  "nelements": null,
  "composition": null,
  "composition_reduced": null,
  "formula_pretty": "Mg5Mn3",
  "formula_anonymous": "A3B5",
  "chemsys": null,
  "volume": 301.77304591624784,
  "density": 3.151224580182766,
  "density_atomic": 18.86081536976549,
  "symmetry": null,
  "property_name": null,
  "material_id": "mp-1237317",
  "deprecated": null,
  "deprecation_reasons": null,
  "last_updated": null,
  "origins": null,
  "warnings": null,
  "structure": {
    "@module": "pymatgen.core.structure",
    "@class": "Structure",
    "charge": 0,
    "lattice": {
      "matrix": [
        [4.6279129999999995, 0.07807, -1.361046],
        [0.122081, 5.929157, 0.06897299999999901],
        [-1.831378, 0.13969499999999901, 11.54315]
      ],
      "pbc": [true, true, true],
      "a": 4.8245331250375925,
      "b": 5.930814764932302,
      "c": 11.688360534925717,
      "alpha": 88.8420765649522,
      "beta": 115.3856931309055,
      "gamma": 88.12942868943215,
      "volume": 301.7730459162477
    },
    "properties": {},
    "sites": [
      {
        "species": [{ "element": "Mg", "occu": 1 }],
        "abc": [0.537705, 0.268413, 0.875389],
        "properties": { "magmom": -0.042 },
        "label": "Mg",
        "xyz": [0.918051931076, 1.7557289135459992, 9.391418545769]
      },
      {
        "species": [{ "element": "Mg", "occu": 1 }],
        "abc": [0.031717999999999004, 0.266663, 0.368285],
        "properties": { "magmom": -0.033 },
        "label": "Mg",
        "xyz": [-0.4951264164930046, 1.6350105904259995, 4.226391887821001]
      },
      {
        "species": [{ "element": "Mg", "occu": 1 }],
        "abc": [0.296602, 0.503742999999999, 0.614441],
        "properties": { "magmom": -0.031 },
        "label": "Mg",
        "xyz": [0.3088719711109995, 3.095761388285994, 6.723640329397001]
      },
      {
        "species": [{ "element": "Mg", "occu": 1 }],
        "abc": [0.304538, 0.005473, 0.630660999999999],
        "properties": { "magmom": -0.026000000000000002 },
        "label": "Mg",
        "xyz": [0.25506483764900145, 0.14432574631599923, 6.865701784630989]
      },
      {
        "species": [{ "element": "Mg", "occu": 1 }],
        "abc": [0.906708, 0.712473999999999, 0.723117],
        "properties": { "magmom": -0.034 },
        "label": "Mg",
        "xyz": [2.958844713571999, 4.396172727292993, 7.162118171183999]
      },
      {
        "species": [{ "element": "Mg", "occu": 1 }],
        "abc": [0.759973999999999, 0.537246, 0.11101899999999901],
        "properties": { "magmom": -0.034 },
        "label": "Mg",
        "xyz": [3.379363329005997, 3.260255851007, 0.28420486540398937]
      },
      {
        "species": [{ "element": "Mg", "occu": 1 }],
        "abc": [0.369735, 0.746120999999999, 0.219392999999999],
        "properties": { "magmom": -0.031 },
        "label": "Mg",
        "xyz": [1.4003970973020015, 4.483381866581994, 2.0807221688729878]
      },
      {
        "species": [{ "element": "Mg", "occu": 1 }],
        "abc": [0.12858, 0.9822019999999991, 0.958473999999999],
        "properties": { "magmom": -0.042 },
        "label": "Mg",
        "xyz": [-1.0403629412699984, 5.967562129743994, 10.956551276965989]
      },
      {
        "species": [{ "element": "Mg", "occu": 1 }],
        "abc": [0.362132, 0.244372999999999, 0.203429],
        "properties": { "magmom": -0.026000000000000002 },
        "label": "Mg",
        "xyz": [1.3331932955669996, 1.505615542955994, 1.8721882902069997]
      },
      {
        "species": [{ "element": "Mg", "occu": 1 }],
        "abc": [0.634903, 0.983096, 0.465761999999999],
        "properties": { "magmom": -0.033 },
        "label": "Mg",
        "xyz": [2.2053069101790017, 5.943562029872, 4.580035522169988]
      },
      {
        "species": [{ "element": "Mn", "occu": 1 }],
        "abc": [0.886139, 0.238696, 0.712737],
        "properties": { "magmom": 3.551 },
        "label": "Mn",
        "xyz": [2.8248235826970003, 1.5840127262169992, 7.0376177393639985]
      },
      {
        "species": [{ "element": "Mn", "occu": 1 }],
        "abc": [0.551468, 0.763408, 0.8754400000000001],
        "properties": { "magmom": 3.55 },
        "label": "Mn",
        "xyz": [1.0420819820119993, 4.691713584615999, 9.407416460456002]
      },
      {
        "species": [{ "element": "Mn", "occu": 1 }],
        "abc": [0.028742999999999002, 0.764621, 0.366679],
        "properties": { "magmom": 3.628 },
        "label": "Mn",
        "xyz": [-0.4451620540020046, 4.587025143411999, 4.246248357905001]
      },
      {
        "species": [{ "element": "Mn", "occu": 1 }],
        "abc": [0.780042999999999, 0.011068, 0.121145999999999],
        "properties": { "magmom": 3.55 },
        "label": "Mn",
        "xyz": [3.389458213578997, 0.14344535715599968, 0.33749543808599003]
      },
      {
        "species": [{ "element": "Mn", "occu": 1 }],
        "abc": [0.115419, 0.487255999999999, 0.958816999999999],
        "properties": { "magmom": 3.55 },
        "label": "Mn",
        "xyz": [-1.1623225695429984, 3.031970025336993, 10.94428539336399]
      },
      {
        "species": [{ "element": "Mn", "occu": 1 }],
        "abc": [0.637595, 0.485147, 0.467209],
        "properties": { "magmom": 3.628 },
        "label": "Mn",
        "xyz": [2.1543251361399998, 2.991556533984, 4.558729488011]
      }
    ]
  },
  "task_ids": null,
  "uncorrected_energy_per_atom": null,
  "energy_per_atom": -4.1728130525000005,
  "formation_energy_per_atom": 0.28198644140086204,
  "energy_above_hull": 0.28198644140086204,
  "is_stable": false,
  "equilibrium_reaction_energy_per_atom": null,
  "decomposes_to": null,
  "xas": null,
  "grain_boundaries": null,
  "band_gap": 0.0,
  "cbm": null,
  "vbm": null,
  "efermi": 3.87836305,
  "is_gap_direct": null,
  "is_metal": null,
  "es_source_calc_id": null,
  "bandstructure": null,
  "dos": null,
  "dos_energy_up": null,
  "dos_energy_down": null,
  "is_magnetic": null,
  "ordering": null,
  "total_magnetization": 21.5629042,
  "total_magnetization_normalized_vol": null,
  "total_magnetization_normalized_formula_units": null,
  "num_magnetic_sites": null,
  "num_unique_magnetic_sites": null,
  "types_of_magnetic_species": null,
  "bulk_modulus": null,
  "shear_modulus": null,
  "universal_anisotropy": null,
  "homogeneous_poisson": null,
  "e_total": null,
  "e_ionic": null,
  "e_electronic": null,
  "n": null,
  "e_ij_max": null,
  "weighted_surface_energy_EV_PER_ANG2": null,
  "weighted_surface_energy": null,
  "weighted_work_function": null,
  "surface_anisotropy": null,
  "shape_factor": null,
  "has_reconstructed": null,
  "possible_species": null,
  "has_props": null,
  "theoretical": null,
  "database_IDs": null,
  "fields_not_requested": [
    "builder_meta",
    "nsites",
    "elements",
    "nelements",
    "composition",
    "composition_reduced",
    "chemsys",
    "symmetry",
    "property_name",
    "deprecated",
    "deprecation_reasons",
    "last_updated",
    "origins",
    "warnings",
    "task_ids",
    "uncorrected_energy_per_atom",
    "equilibrium_reaction_energy_per_atom",
    "decomposes_to",
    "xas",
    "grain_boundaries",
    "cbm",
    "vbm",
    "is_gap_direct",
    "is_metal",
    "es_source_calc_id",
    "bandstructure",
    "dos",
    "dos_energy_up",
    "dos_energy_down",
    "is_magnetic",
    "ordering",
    "total_magnetization_normalized_vol",
    "total_magnetization_normalized_formula_units",
    "num_magnetic_sites",
    "num_unique_magnetic_sites",
    "types_of_magnetic_species",
    "bulk_modulus",
    "shear_modulus",
    "universal_anisotropy",
    "homogeneous_poisson",
    "e_total",
    "e_ionic",
    "e_electronic",
    "n",
    "e_ij_max",
    "weighted_surface_energy_EV_PER_ANG2",
    "weighted_surface_energy",
    "weighted_work_function",
    "surface_anisotropy",
    "shape_factor",
    "has_reconstructed",
    "possible_species",
    "has_props",
    "theoretical",
    "database_IDs"
  ]
}
