{"builder_meta": null, "nsites": null, "elements": null, "nelements": null, "composition": null, "composition_reduced": null, "formula_pretty": "Mg5Pt", "formula_anonymous": "AB5", "chemsys": null, "volume": 121.11381655960629, "density": 4.340888828967049, "density_atomic": 20.185636093267714, "symmetry": null, "property_name": null, "material_id": "mp-1185838", "deprecated": null, "deprecation_reasons": null, "last_updated": null, "origins": null, "warnings": null, "structure": {"@module": "pymatgen.core.structure", "@class": "Structure", "charge": 0, "lattice": {"matrix": [[1.665968, 5.264895, 0.0], [-1.665968, 5.264895, 0.0], [0.0, 2.576968, 6.904104]], "pbc": [true, true, true], "a": 5.522188763348189, "b": 5.522188763348189, "c": 7.369356560503774, "alpha": 70.5250858889389, "beta": 70.5250858889389, "gamma": 35.11781364565075, "volume": 121.11381655960629}, "properties": {}, "sites": [{"species": [{"element": "Mg", "occu": 1}], "abc": [0.661387, 0.661387, 0.702923], "properties": {"magmom": 0.0}, "label": "Mg", "xyz": [0.0, 8.775676296194, 4.8530534959919995]}, {"species": [{"element": "Mg", "occu": 1}], "abc": [0.0, 0.0, 0.5], "properties": {"magmom": -0.0}, "label": "Mg", "xyz": [0.0, 1.288484, 3.452052]}, {"species": [{"element": "Mg", "occu": 1}], "abc": [0.338613, 0.338613, 0.297077], "properties": {"magmom": 0.0}, "label": "Mg", "xyz": [0.0, 4.331081703806, 2.051050504008]}, {"species": [{"element": "Mg", "occu": 1}], "abc": [0.644708, 0.644708, 0.144715999999999], "properties": {"magmom": 0.0}, "label": "Mg", "xyz": [0.0, 7.161568352407997, 0.9991343144639933]}, {"species": [{"element": "Mg", "occu": 1}], "abc": [0.355292, 0.355292, 0.855283999999999], "properties": {"magmom": 0.0}, "label": "Mg", "xyz": [0.0, 5.945189647591997, 5.904969685535994]}, {"species": [{"element": "Pt", "occu": 1}], "abc": [0.0, 0.0, 0.0], "properties": {"magmom": -0.0}, "label": "Pt", "xyz": [0.0, 0.0, 0.0]}]}, "task_ids": null, "uncorrected_energy_per_atom": null, "energy_per_atom": -2.65030204, "formation_energy_per_atom": -0.27972147416666604, "energy_above_hull": 0.09478724388888801, "is_stable": false, "equilibrium_reaction_energy_per_atom": null, "decomposes_to": null, "xas": null, "grain_boundaries": null, "band_gap": 0.0, "cbm": null, "vbm": null, "efermi": 4.30540008, "is_gap_direct": null, "is_metal": null, "es_source_calc_id": null, "bandstructure": null, "dos": null, "dos_energy_up": null, "dos_energy_down": null, "is_magnetic": null, "ordering": null, "total_magnetization": 0.0010697, "total_magnetization_normalized_vol": null, "total_magnetization_normalized_formula_units": null, "num_magnetic_sites": null, "num_unique_magnetic_sites": null, "types_of_magnetic_species": null, "bulk_modulus": null, "shear_modulus": null, "universal_anisotropy": null, "homogeneous_poisson": null, "e_total": null, "e_ionic": null, "e_electronic": null, "n": null, "e_ij_max": null, "weighted_surface_energy_EV_PER_ANG2": null, "weighted_surface_energy": null, "weighted_work_function": null, "surface_anisotropy": null, "shape_factor": null, "has_reconstructed": null, "possible_species": null, "has_props": null, "theoretical": null, "database_IDs": null, "fields_not_requested": ["builder_meta", "nsites", "elements", "nelements", "composition", "composition_reduced", "chemsys", "symmetry", "property_name", "deprecated", "deprecation_reasons", "last_updated", "origins", "warnings", "task_ids", "uncorrected_energy_per_atom", "equilibrium_reaction_energy_per_atom", "decomposes_to", "xas", "grain_boundaries", "cbm", "vbm", "is_gap_direct", "is_metal", "es_source_calc_id", "bandstructure", "dos", "dos_energy_up", "dos_energy_down", "is_magnetic", "ordering", "total_magnetization_normalized_vol", "total_magnetization_normalized_formula_units", "num_magnetic_sites", "num_unique_magnetic_sites", "types_of_magnetic_species", "bulk_modulus", "shear_modulus", "universal_anisotropy", "homogeneous_poisson", "e_total", "e_ionic", "e_electronic", "n", "e_ij_max", "weighted_surface_energy_EV_PER_ANG2", "weighted_surface_energy", "weighted_work_function", "surface_anisotropy", "shape_factor", "has_reconstructed", "possible_species", "has_props", "theoretical", "database_IDs"]}