{"builder_meta": null, "nsites": null, "elements": null, "nelements": null, "composition": null, "composition_reduced": null, "formula_pretty": "Mg5Pb", "formula_anonymous": "AB5", "chemsys": null, "volume": 140.14859279467942, "density": 3.894871106324857, "density_atomic": 23.358098799113236, "symmetry": null, "property_name": null, "material_id": "mp-1185832", "deprecated": null, "deprecation_reasons": null, "last_updated": null, "origins": null, "warnings": null, "structure": {"@module": "pymatgen.core.structure", "@class": "Structure", "charge": 0, "lattice": {"matrix": [[5.47921792, -2.77889306, 0.01141865], [5.47921792, 2.77889306, 0.01141865], [4.06026335, -0.0, 4.61069176]], "pbc": [true, true, true], "a": 6.143631339796775, "b": 6.143631339796775, "c": 6.14363222996666, "alpha": 53.785381560368016, "beta": 53.785381560368016, "gamma": 53.7853807892009, "volume": 140.14859279467942}, "properties": {}, "sites": [{"species": [{"element": "Mg", "occu": 1}], "abc": [0.0, 0.66687502, 0.33312498], "properties": {"magmom": -0.0}, "label": "Mg", "xyz": [5.006528707247841, 1.8531743649653611, 1.5435514127832877]}, {"species": [{"element": "Mg", "occu": 1}], "abc": [0.66687502, 0.33312498, -0.0], "properties": {"magmom": -0.0}, "label": "Mg", "xyz": [5.47921792, -0.9274556699307223, 0.01141865]}, {"species": [{"element": "Mg", "occu": 1}], "abc": [0.33312498, -0.0, 0.66687502], "properties": {"magmom": -0.0}, "label": "Mg", "xyz": [4.5329525627521585, -0.9257186950346389, 3.078558997216712]}, {"species": [{"element": "Mg", "occu": 1}], "abc": [0.8325486, 0.8325486, 0.8325486], "properties": {"magmom": -0.0}, "label": "Mg", "xyz": [12.503796984455633, 0.0, 3.8576381319623154]}, {"species": [{"element": "Mg", "occu": 1}], "abc": [0.1674514, 0.1674514, 0.1674514], "properties": {"magmom": -0.0}, "label": "Mg", "xyz": [2.5149022055443657, 0.0, 0.775890928037684]}, {"species": [{"element": "Pb", "occu": 1}], "abc": [0.5, 0.5, 0.5], "properties": {"magmom": 0.0}, "label": "Pb", "xyz": [7.509349595, 0.0, 2.31676453]}]}, "task_ids": null, "uncorrected_energy_per_atom": null, "energy_per_atom": -1.9671504533333342, "formation_energy_per_atom": 0.010349070833332, "energy_above_hull": 0.028536022499997003, "is_stable": false, "equilibrium_reaction_energy_per_atom": null, "decomposes_to": null, "xas": null, "grain_boundaries": null, "band_gap": 0.0, "cbm": null, "vbm": null, "efermi": 4.41909651, "is_gap_direct": null, "is_metal": null, "es_source_calc_id": null, "bandstructure": null, "dos": null, "dos_energy_up": null, "dos_energy_down": null, "is_magnetic": null, "ordering": null, "total_magnetization": 0.0, "total_magnetization_normalized_vol": null, "total_magnetization_normalized_formula_units": null, "num_magnetic_sites": null, "num_unique_magnetic_sites": null, "types_of_magnetic_species": null, "bulk_modulus": null, "shear_modulus": null, "universal_anisotropy": null, "homogeneous_poisson": null, "e_total": null, "e_ionic": null, "e_electronic": null, "n": null, "e_ij_max": null, "weighted_surface_energy_EV_PER_ANG2": null, "weighted_surface_energy": null, "weighted_work_function": null, "surface_anisotropy": null, "shape_factor": null, "has_reconstructed": null, "possible_species": null, "has_props": null, "theoretical": null, "database_IDs": null, "fields_not_requested": ["builder_meta", "nsites", "elements", "nelements", "composition", "composition_reduced", "chemsys", "symmetry", "property_name", "deprecated", "deprecation_reasons", "last_updated", "origins", "warnings", "task_ids", "uncorrected_energy_per_atom", "equilibrium_reaction_energy_per_atom", "decomposes_to", "xas", "grain_boundaries", "cbm", "vbm", "is_gap_direct", "is_metal", "es_source_calc_id", "bandstructure", "dos", "dos_energy_up", "dos_energy_down", "is_magnetic", "ordering", "total_magnetization_normalized_vol", "total_magnetization_normalized_formula_units", "num_magnetic_sites", "num_unique_magnetic_sites", "types_of_magnetic_species", "bulk_modulus", "shear_modulus", "universal_anisotropy", "homogeneous_poisson", "e_total", "e_ionic", "e_electronic", "n", "e_ij_max", "weighted_surface_energy_EV_PER_ANG2", "weighted_surface_energy", "weighted_work_function", "surface_anisotropy", "shape_factor", "has_reconstructed", "possible_species", "has_props", "theoretical", "database_IDs"]}