{"builder_meta": null, "nsites": null, "elements": null, "nelements": null, "composition": null, "composition_reduced": null, "formula_pretty": "Mg5Pd2", "formula_anonymous": "A2B5", "chemsys": null, "volume": 527.3614038516828, "density": 4.211352146353607, "density_atomic": 18.834335851845815, "symmetry": null, "property_name": null, "material_id": "mp-2406", "deprecated": null, "deprecation_reasons": null, "last_updated": null, "origins": null, "warnings": null, "structure": {"@module": "pymatgen.core.structure", "@class": "Structure", "charge": 0, "lattice": {"matrix": [[8.63939111, -4.1910000000000004e-05, -0.0], [-4.3197315, 7.4819106, 0.0], [-0.0, 0.0, 8.15856745]], "pbc": [true, true, true], "a": 8.639391110101654, "b": 8.639390398545757, "c": 8.15856745, "alpha": 90.0, "beta": 90.0, "gamma": 120.00055593112918, "volume": 527.3614038516828}, "properties": {}, "sites": [{"species": [{"element": "Mg", "occu": 1}], "abc": [0.0, 0.0, -0.0], "properties": {"magmom": 0.0}, "label": "Mg", "xyz": [0.0, 0.0, 0.0]}, {"species": [{"element": "Mg", "occu": 1}], "abc": [0.0, 0.0, 0.5], "properties": {"magmom": 0.0}, "label": "Mg", "xyz": [0.0, 0.0, 4.079283725]}, {"species": [{"element": "Mg", "occu": 1}], "abc": [0.46006923, 0.92016631, 0.25], "properties": {"magmom": 0.0}, "label": "Mg", "xyz": [-0.000153378899219625, 6.884582787050457, 2.0396418625]}, {"species": [{"element": "Mg", "occu": 1}], "abc": [0.53989623, 0.46010477, 0.75], "properties": {"magmom": -0.0}, "label": "Mg", "xyz": [2.6768456215152607, 3.4424401287225628, 6.1189255875]}, {"species": [{"element": "Mg", "occu": 1}], "abc": [0.92016631, 0.46006923, 0.75], "properties": {"magmom": 0.0}, "label": "Mg", "xyz": [5.9623010933237595, 3.442158284500786, 6.1189255875]}, {"species": [{"element": "Mg", "occu": 1}], "abc": [0.07983369, 0.53993077, 0.25], "properties": {"magmom": 0.0}, "label": "Mg", "xyz": [-1.642641483323759, 4.039710405499214, 2.0396418625]}, {"species": [{"element": "Mg", "occu": 1}], "abc": [0.46010477, 0.53989623, 0.25], "properties": {"magmom": -0.0}, "label": "Mg", "xyz": [1.6428183081443501, 4.039436043146127, 2.0396418625]}, {"species": [{"element": "Mg", "occu": 1}], "abc": [0.53993077, 0.07983369, 0.75], "properties": {"magmom": 0.0}, "label": "Mg", "xyz": [4.319812988899219, 0.5972859029495433, 6.1189255875]}, {"species": [{"element": "Mg", "occu": 1}], "abc": [0.19309296, 0.38619265, 0.93659696], "properties": {"magmom": 0.0}, "label": "Mg", "xyz": [-4.295324588921012e-05, 2.8894507891511365, 7.641289471624952]}, {"species": [{"element": "Mg", "occu": 1}], "abc": [0.80690265, 0.19309735, 0.43661277], "properties": {"magmom": 0.0}, "label": "Mg", "xyz": [6.137018875683918, 1.4447032925068484, 3.562134733576336]}, {"species": [{"element": "Mg", "occu": 1}], "abc": [0.38619265, 0.19309296, 0.43659696000000003], "properties": {"magmom": 0.0}, "label": "Mg", "xyz": [2.5023596054171016, 1.4446880788754146, 3.562005746624952]}, {"species": [{"element": "Mg", "occu": 1}], "abc": [0.61380835, 0.80690704, 0.93659696], "properties": {"magmom": 0.0}, "label": "Mg", "xyz": [1.817308643974009, 6.037180611082675, 7.641289471624952]}, {"species": [{"element": "Mg", "occu": 1}], "abc": [0.19309735, 0.80690265, 0.93661277], "properties": {"magmom": 0.0}, "label": "Mg", "xyz": [-1.8173592656839166, 6.037165397493152, 7.641418458576336]}, {"species": [{"element": "Mg", "occu": 1}], "abc": [0.80690704, 0.61380835, 0.06340304000000001], "properties": {"magmom": 0.0}, "label": "Mg", "xyz": [4.31969824351439, 4.592425382759464, 0.5172779783750481]}, {"species": [{"element": "Mg", "occu": 1}], "abc": [0.80690265, 0.19309735, 0.06338723], "properties": {"magmom": 0.0}, "label": "Mg", "xyz": [6.137018875683918, 1.4447032925068484, 0.5171489914236636]}, {"species": [{"element": "Mg", "occu": 1}], "abc": [0.80690704, 0.61380835, 0.43659696000000003], "properties": {"magmom": 0.0}, "label": "Mg", "xyz": [4.31969824351439, 4.592425382759464, 3.562005746624952]}, {"species": [{"element": "Mg", "occu": 1}], "abc": [0.38619265, 0.19309296, 0.06340304000000001], "properties": {"magmom": 0.0}, "label": "Mg", "xyz": [2.5023596054171016, 1.4446880788754146, 0.5172779783750481]}, {"species": [{"element": "Mg", "occu": 1}], "abc": [0.61380835, 0.80690704, 0.56340304], "properties": {"magmom": 0.0}, "label": "Mg", "xyz": [1.817308643974009, 6.037180611082675, 4.596561703375047]}, {"species": [{"element": "Mg", "occu": 1}], "abc": [0.19309296, 0.38619265, 0.56340304], "properties": {"magmom": 0.0}, "label": "Mg", "xyz": [-4.295324588921012e-05, 2.8894507891511365, 4.596561703375047]}, {"species": [{"element": "Mg", "occu": 1}], "abc": [0.19309735, 0.80690265, 0.56338723], "properties": {"magmom": 0.0}, "label": "Mg", "xyz": [-1.8173592656839166, 6.037165397493152, 4.596432716423664]}, {"species": [{"element": "Pd", "occu": 1}], "abc": [0.33333702, 0.66666298, 0.75], "properties": {"magmom": -0.0}, "label": "Pd", "xyz": [2.3812632022224278e-05, 4.987898846535081, 6.1189255875]}, {"species": [{"element": "Pd", "occu": 1}], "abc": [0.66666298, 0.33333702, 0.25], "properties": {"magmom": -0.0}, "label": "Pd", "xyz": [4.319635797367978, 2.49396984346492, 2.0396418625]}, {"species": [{"element": "Pd", "occu": 1}], "abc": [0.12252001, 0.24503969, 0.25], "properties": {"magmom": -0.0}, "label": "Pd", "xyz": [-7.38245212383859e-06, 1.833359919218095, 2.0396418625]}, {"species": [{"element": "Pd", "occu": 1}], "abc": [0.87748053, 0.12252047, 0.75], "properties": {"magmom": -0.0}, "label": "Pd", "xyz": [7.051641956426284, 0.9166504280009697, 6.1189255875]}, {"species": [{"element": "Pd", "occu": 1}], "abc": [0.24503969, 0.12252001, 0.75], "properties": {"magmom": -0.0}, "label": "Pd", "xyz": [1.5877401728058411, 0.9166734919176981, 6.1189255875]}, {"species": [{"element": "Pd", "occu": 1}], "abc": [0.75496131, 0.87748099, 0.25], "properties": {"magmom": -0.0}, "label": "Pd", "xyz": [2.73192375685377, 6.565202679950992, 2.0396418625]}, {"species": [{"element": "Pd", "occu": 1}], "abc": [0.12252047, 0.87748053, 0.25], "properties": {"magmom": -0.0}, "label": "Pd", "xyz": [-2.731978026766673, 6.565225743867721, 2.0396418625]}, {"species": [{"element": "Pd", "occu": 1}], "abc": [0.87748099, 0.75496131, 0.75], "properties": {"magmom": -0.0}, "label": "Pd", "xyz": [4.319671312111735, 5.6485162526505945, 6.1189255875]}]}, "task_ids": null, "uncorrected_energy_per_atom": null, "energy_per_atom": -3.095166015357143, "formation_energy_per_atom": -0.450578344642856, "energy_above_hull": 0.0, "is_stable": true, "equilibrium_reaction_energy_per_atom": null, "decomposes_to": null, "xas": null, "grain_boundaries": null, "band_gap": 0.0, "cbm": null, "vbm": null, "efermi": 3.9890448, "is_gap_direct": null, "is_metal": null, "es_source_calc_id": null, "bandstructure": null, "dos": null, "dos_energy_up": null, "dos_energy_down": null, "is_magnetic": null, "ordering": null, "total_magnetization": 0.0, "total_magnetization_normalized_vol": null, "total_magnetization_normalized_formula_units": null, "num_magnetic_sites": null, "num_unique_magnetic_sites": null, "types_of_magnetic_species": null, "bulk_modulus": null, "shear_modulus": null, "universal_anisotropy": null, "homogeneous_poisson": null, "e_total": null, "e_ionic": null, "e_electronic": null, "n": null, "e_ij_max": null, "weighted_surface_energy_EV_PER_ANG2": null, "weighted_surface_energy": null, "weighted_work_function": null, "surface_anisotropy": null, "shape_factor": null, "has_reconstructed": null, "possible_species": null, "has_props": null, "theoretical": null, "database_IDs": null, "fields_not_requested": ["builder_meta", "nsites", "elements", "nelements", "composition", "composition_reduced", "chemsys", "symmetry", "property_name", "deprecated", "deprecation_reasons", "last_updated", "origins", "warnings", "task_ids", "uncorrected_energy_per_atom", "equilibrium_reaction_energy_per_atom", "decomposes_to", "xas", "grain_boundaries", "cbm", "vbm", "is_gap_direct", "is_metal", "es_source_calc_id", "bandstructure", "dos", "dos_energy_up", "dos_energy_down", "is_magnetic", "ordering", "total_magnetization_normalized_vol", "total_magnetization_normalized_formula_units", "num_magnetic_sites", "num_unique_magnetic_sites", "types_of_magnetic_species", "bulk_modulus", "shear_modulus", "universal_anisotropy", "homogeneous_poisson", "e_total", "e_ionic", "e_electronic", "n", "e_ij_max", "weighted_surface_energy_EV_PER_ANG2", "weighted_surface_energy", "weighted_work_function", "surface_anisotropy", "shape_factor", "has_reconstructed", "possible_species", "has_props", "theoretical", "database_IDs"]}