{"builder_meta": null, "nsites": null, "elements": null, "nelements": null, "composition": null, "composition_reduced": null, "formula_pretty": "Mg5Rh2", "formula_anonymous": "A2B5", "chemsys": null, "volume": 504.7281538647321, "density": 4.307698801761321, "density_atomic": 18.026005495169006, "symmetry": null, "property_name": null, "material_id": "mp-30778", "deprecated": null, "deprecation_reasons": null, "last_updated": null, "origins": null, "warnings": null, "structure": {"@module": "pymatgen.core.structure", "@class": "Structure", "charge": 0, "lattice": {"matrix": [[8.51484029, -1e-08, 0.0], [-4.25742166, 7.37406884, 0.0], [-0.0, 0.0, 8.03847817]], "pbc": [true, true, true], "a": 8.51484029, "b": 8.514841774695295, "c": 8.03847817, "alpha": 90.0, "beta": 90.0, "gamma": 120.00000607072087, "volume": 504.7281538647321}, "properties": {}, "sites": [{"species": [{"element": "Mg", "occu": 1}], "abc": [0.0, 0.0, 0.0], "properties": {"magmom": 0.0}, "label": "Mg", "xyz": [0.0, 0.0, 0.0]}, {"species": [{"element": "Mg", "occu": 1}], "abc": [0.0, 0.0, 0.5], "properties": {"magmom": 0.0}, "label": "Mg", "xyz": [0.0, 0.0, 4.019239085]}, {"species": [{"element": "Mg", "occu": 1}], "abc": [0.45971702000000003, 0.91943504, 0.25], "properties": {"magmom": -0.0}, "label": "Mg", "xyz": [-5.650364230280758e-06, 6.779977274270983, 2.0096195425]}, {"species": [{"element": "Mg", "occu": 1}], "abc": [0.54028298, 0.45971702000000003, 0.75], "properties": {"magmom": -0.0}, "label": "Mg", "xyz": [2.6432140876866104, 3.3899849469968273, 6.0288586275]}, {"species": [{"element": "Mg", "occu": 1}], "abc": [0.91943504, 0.45971702000000003, 0.75], "properties": {"magmom": -0.0}, "label": "Mg", "xyz": [5.871633324211108, 3.3899849432053064, 6.0288586275]}, {"species": [{"element": "Mg", "occu": 1}], "abc": [0.08056496, 0.54028298, 0.25], "properties": {"magmom": -0.0}, "label": "Mg", "xyz": [-1.6142146942111082, 3.984083886794693, 2.0096195425]}, {"species": [{"element": "Mg", "occu": 1}], "abc": [0.45971702000000003, 0.54028298, 0.25], "properties": {"magmom": -0.0}, "label": "Mg", "xyz": [1.6142045423133897, 3.9840838830031724, 2.0096195425]}, {"species": [{"element": "Mg", "occu": 1}], "abc": [0.54028298, 0.08056496, 0.75], "properties": {"magmom": -0.0}, "label": "Mg", "xyz": [4.257424280364231, 0.5940915557290165, 6.0288586275]}, {"species": [{"element": "Mg", "occu": 1}], "abc": [0.19170929, 0.38341857, 0.93630833], "properties": {"magmom": 0.0}, "label": "Mg", "xyz": [-5.383049319629407e-07, 2.8273549277972663, 7.526494071094156]}, {"species": [{"element": "Mg", "occu": 1}], "abc": [0.80829071, 0.19170929, 0.43630833], "properties": {"magmom": 0.0}, "label": "Mg", "xyz": [6.066279019871485, 1.4136774936446166, 3.507254986094156]}, {"species": [{"element": "Mg", "occu": 1}], "abc": [0.38341857, 0.19170929, 0.43630833], "properties": {"magmom": 0.0}, "label": "Mg", "xyz": [2.4485606041009644, 1.413677497893338, 3.507254986094156]}, {"species": [{"element": "Mg", "occu": 1}], "abc": [0.61658143, 0.80829071, 0.93630833], "properties": {"magmom": 0.0}, "label": "Mg", "xyz": [1.8088580258990365, 5.960391332106662, 7.526494071094156]}, {"species": [{"element": "Mg", "occu": 1}], "abc": [0.19170929, 0.80829071, 0.93630833], "properties": {"magmom": 0.0}, "label": "Mg", "xyz": [-1.8088603898714843, 5.960391336355383, 7.526494071094156]}, {"species": [{"element": "Mg", "occu": 1}], "abc": [0.80829071, 0.61658143, 0.06369167], "properties": {"magmom": 0.0}, "label": "Mg", "xyz": [4.257419168304932, 4.546713902202734, 0.511984098905844]}, {"species": [{"element": "Mg", "occu": 1}], "abc": [0.80829071, 0.19170929, 0.06369167], "properties": {"magmom": 0.0}, "label": "Mg", "xyz": [6.066279019871485, 1.4136774936446166, 0.511984098905844]}, {"species": [{"element": "Mg", "occu": 1}], "abc": [0.80829071, 0.61658143, 0.43630833], "properties": {"magmom": 0.0}, "label": "Mg", "xyz": [4.257419168304932, 4.546713902202734, 3.507254986094156]}, {"species": [{"element": "Mg", "occu": 1}], "abc": [0.38341857, 0.19170929, 0.06369167], "properties": {"magmom": 0.0}, "label": "Mg", "xyz": [2.4485606041009644, 1.413677497893338, 0.511984098905844]}, {"species": [{"element": "Mg", "occu": 1}], "abc": [0.61658143, 0.80829071, 0.56369167], "properties": {"magmom": 0.0}, "label": "Mg", "xyz": [1.8088580258990365, 5.960391332106662, 4.531223183905843]}, {"species": [{"element": "Mg", "occu": 1}], "abc": [0.19170929, 0.38341857, 0.56369167], "properties": {"magmom": 0.0}, "label": "Mg", "xyz": [-5.383049319629407e-07, 2.8273549277972663, 4.531223183905843]}, {"species": [{"element": "Mg", "occu": 1}], "abc": [0.19170929, 0.80829071, 0.56369167], "properties": {"magmom": 0.0}, "label": "Mg", "xyz": [-1.8088603898714843, 5.960391336355383, 4.531223183905843]}, {"species": [{"element": "Rh", "occu": 1}], "abc": [0.333333, 0.666667, 0.75], "properties": {"magmom": -0.0}, "label": "Rh", "xyz": [-5.267420650323373e-06, 4.91604834802295, 6.0288586275]}, {"species": [{"element": "Rh", "occu": 1}], "abc": [0.666667, 0.333333, 0.25], "properties": {"magmom": -0.0}, "label": "Rh", "xyz": [4.257423897420651, 2.45802048197705, 2.0096195425]}, {"species": [{"element": "Rh", "occu": 1}], "abc": [0.12082046, 0.24163893, 0.25], "properties": {"magmom": 0.0}, "label": "Rh", "xyz": [8.106183109646281e-06, 1.7818621030357364, 2.0096195425]}, {"species": [{"element": "Rh", "occu": 1}], "abc": [0.87917954, 0.12082046, 0.75], "properties": {"magmom": 0.0}, "label": "Rh", "xyz": [6.971689725960504, 0.890938380528671, 6.0288586275]}, {"species": [{"element": "Rh", "occu": 1}], "abc": [0.24163893, 0.12082046, 0.75], "properties": {"magmom": 0.0}, "label": "Rh", "xyz": [1.543133253421326, 0.8909383869040771, 6.0288586275]}, {"species": [{"element": "Rh", "occu": 1}], "abc": [0.75836107, 0.87917954, 0.25], "properties": {"magmom": 0.0}, "label": "Rh", "xyz": [2.714285376578674, 6.483130443095922, 2.0096195425]}, {"species": [{"element": "Rh", "occu": 1}], "abc": [0.12082046, 0.87917954, 0.25], "properties": {"magmom": 0.0}, "label": "Rh", "xyz": [-2.7142710959605028, 6.483130449471329, 2.0096195425]}, {"species": [{"element": "Rh", "occu": 1}], "abc": [0.87917954, 0.75836107, 0.75], "properties": {"magmom": 0.0}, "label": "Rh", "xyz": [4.2574105238168904, 5.592206726964262, 6.0288586275]}]}, "task_ids": null, "uncorrected_energy_per_atom": null, "energy_per_atom": -3.6296955100000012, "formation_energy_per_atom": -0.360986107857143, "energy_above_hull": 0.0, "is_stable": true, "equilibrium_reaction_energy_per_atom": null, "decomposes_to": null, "xas": null, "grain_boundaries": null, "band_gap": 0.0, "cbm": null, "vbm": null, "efermi": 4.23040902, "is_gap_direct": null, "is_metal": null, "es_source_calc_id": null, "bandstructure": null, "dos": null, "dos_energy_up": null, "dos_energy_down": null, "is_magnetic": null, "ordering": null, "total_magnetization": 8e-07, "total_magnetization_normalized_vol": null, "total_magnetization_normalized_formula_units": null, "num_magnetic_sites": null, "num_unique_magnetic_sites": null, "types_of_magnetic_species": null, "bulk_modulus": null, "shear_modulus": null, "universal_anisotropy": null, "homogeneous_poisson": null, "e_total": null, "e_ionic": null, "e_electronic": null, "n": null, "e_ij_max": null, "weighted_surface_energy_EV_PER_ANG2": null, "weighted_surface_energy": null, "weighted_work_function": null, "surface_anisotropy": null, "shape_factor": null, "has_reconstructed": null, "possible_species": null, "has_props": null, "theoretical": null, "database_IDs": null, "fields_not_requested": ["builder_meta", "nsites", "elements", "nelements", "composition", "composition_reduced", "chemsys", "symmetry", "property_name", "deprecated", "deprecation_reasons", "last_updated", "origins", "warnings", "task_ids", "uncorrected_energy_per_atom", "equilibrium_reaction_energy_per_atom", "decomposes_to", "xas", "grain_boundaries", "cbm", "vbm", "is_gap_direct", "is_metal", "es_source_calc_id", "bandstructure", "dos", "dos_energy_up", "dos_energy_down", "is_magnetic", "ordering", "total_magnetization_normalized_vol", "total_magnetization_normalized_formula_units", "num_magnetic_sites", "num_unique_magnetic_sites", "types_of_magnetic_species", "bulk_modulus", "shear_modulus", "universal_anisotropy", "homogeneous_poisson", "e_total", "e_ionic", "e_electronic", "n", "e_ij_max", "weighted_surface_energy_EV_PER_ANG2", "weighted_surface_energy", "weighted_work_function", "surface_anisotropy", "shape_factor", "has_reconstructed", "possible_species", "has_props", "theoretical", "database_IDs"]}