{"builder_meta": null, "nsites": null, "elements": null, "nelements": null, "composition": null, "composition_reduced": null, "formula_pretty": "Mg5Si6", "formula_anonymous": "A5B6", "chemsys": null, "volume": 197.5137610854099, "density": 2.438409491834174, "density_atomic": 17.95579646230999, "symmetry": null, "property_name": null, "material_id": "mp-568306", "deprecated": null, "deprecation_reasons": null, "last_updated": null, "origins": null, "warnings": null, "structure": {"@module": "pymatgen.core.structure", "@class": "Structure", "charge": 0.0, "lattice": {"matrix": [[4.14246855, 0.05680425, 0.00497195], [-0.20708501, 6.81161917, 0.00771365], [-2.0014096, -2.63646155, 6.99146708]], "pbc": [true, true, true], "a": 4.142860983770029, "b": 6.814770679844958, "c": 7.73544968455773, "alpha": 109.3771874073237, "beta": 105.20635267568747, "gamma": 90.95564721576982, "volume": 197.5137610854099}, "properties": {}, "sites": [{"species": [{"element": "Mg", "occu": 1}], "abc": [0.5, 0.5, 0.5], "properties": {"magmom": 0.0}, "label": "Mg", "xyz": [0.96698697, 2.115980935, 3.50207634]}, {"species": [{"element": "Mg", "occu": 1}], "abc": [0.14765949, 0.43508738, 0.80721822], "properties": {"magmom": -0.0}, "label": "Mg", "xyz": [-1.0939995758070464, 0.8438374253284664, 5.647729878876239]}, {"species": [{"element": "Mg", "occu": 1}], "abc": [0.85234051, 0.56491262, 0.19278178], "properties": {"magmom": -0.0}, "label": "Mg", "xyz": [3.027973515807046, 3.3881244446715337, 1.35642280112376]}, {"species": [{"element": "Mg", "occu": 1}], "abc": [0.08554875, 0.87276128, 0.6566179600000001], "properties": {"magmom": -0.0}, "label": "Mg", "xyz": [-1.1405142607060164, 4.218628993684487, 4.597880370631792]}, {"species": [{"element": "Mg", "occu": 1}], "abc": [0.91445125, 0.12723872, 0.34338204], "properties": {"magmom": -0.0}, "label": "Mg", "xyz": [3.074488200706017, 0.013332876315512943, 2.4062723093682084]}, {"species": [{"element": "Si", "occu": 1}], "abc": [0.45333886, 0.82975605, 0.38363648], "properties": {"magmom": -0.0}, "label": "Si", "xyz": [0.9382981961488347, 4.66629096184429, 2.690836246507138]}, {"species": [{"element": "Si", "occu": 1}], "abc": [0.54666114, 0.17024395, 0.61636352], "properties": {"magmom": -0.0}, "label": "Si", "xyz": [0.9956757438511656, -0.43432909184428947, 4.3133164334928615]}, {"species": [{"element": "Si", "occu": 1}], "abc": [0.30883102, 0.23787111, 0.10823951], "properties": {"magmom": 0.0}, "label": "Si", "xyz": [1.013431652008064, 1.3524610210271732, 0.7601233177978712]}, {"species": [{"element": "Si", "occu": 1}], "abc": [0.28644031000000003, 0.86619681, 0.08067359], "properties": {"magmom": 0.0}, "label": "Si", "xyz": [0.8457327030739685, 5.703781004832701, 0.5721324546331783]}, {"species": [{"element": "Si", "occu": 1}], "abc": [0.69116898, 0.7621288900000001, 0.89176049], "properties": {"magmom": 0.0}, "label": "Si", "xyz": [0.9205422879919363, 2.8795008489728273, 6.244029362202129]}, {"species": [{"element": "Si", "occu": 1}], "abc": [0.71355969, 0.13380319000000002, 0.91932641], "properties": {"magmom": 0.0}, "label": "Si", "xyz": [1.0882412369260317, -1.4718191348327005, 6.432020225366822]}]}, "task_ids": null, "uncorrected_energy_per_atom": null, "energy_per_atom": -3.621059395454545, "formation_energy_per_atom": 0.07932771863636301, "energy_above_hull": 0.15337233, "is_stable": false, "equilibrium_reaction_energy_per_atom": null, "decomposes_to": null, "xas": null, "grain_boundaries": null, "band_gap": 0.0, "cbm": null, "vbm": null, "efermi": 6.2662876, "is_gap_direct": null, "is_metal": null, "es_source_calc_id": null, "bandstructure": null, "dos": null, "dos_energy_up": null, "dos_energy_down": null, "is_magnetic": null, "ordering": null, "total_magnetization": 3e-07, "total_magnetization_normalized_vol": null, "total_magnetization_normalized_formula_units": null, "num_magnetic_sites": null, "num_unique_magnetic_sites": null, "types_of_magnetic_species": null, "bulk_modulus": null, "shear_modulus": null, "universal_anisotropy": null, "homogeneous_poisson": null, "e_total": null, "e_ionic": null, "e_electronic": null, "n": null, "e_ij_max": null, "weighted_surface_energy_EV_PER_ANG2": null, "weighted_surface_energy": null, "weighted_work_function": null, "surface_anisotropy": null, "shape_factor": null, "has_reconstructed": null, "possible_species": null, "has_props": null, "theoretical": null, "database_IDs": null, "fields_not_requested": ["builder_meta", "nsites", "elements", "nelements", "composition", "composition_reduced", "chemsys", "symmetry", "property_name", "deprecated", "deprecation_reasons", "last_updated", "origins", "warnings", "task_ids", "uncorrected_energy_per_atom", "equilibrium_reaction_energy_per_atom", "decomposes_to", "xas", "grain_boundaries", "cbm", "vbm", "is_gap_direct", "is_metal", "es_source_calc_id", "bandstructure", "dos", "dos_energy_up", "dos_energy_down", "is_magnetic", "ordering", "total_magnetization_normalized_vol", "total_magnetization_normalized_formula_units", "num_magnetic_sites", "num_unique_magnetic_sites", "types_of_magnetic_species", "bulk_modulus", "shear_modulus", "universal_anisotropy", "homogeneous_poisson", "e_total", "e_ionic", "e_electronic", "n", "e_ij_max", "weighted_surface_energy_EV_PER_ANG2", "weighted_surface_energy", "weighted_work_function", "surface_anisotropy", "shape_factor", "has_reconstructed", "possible_species", "has_props", "theoretical", "database_IDs"]}