{"builder_meta": null, "nsites": null, "elements": null, "nelements": null, "composition": null, "composition_reduced": null, "formula_pretty": "Mg5Sn", "formula_anonymous": "AB5", "chemsys": null, "volume": 136.0575592887924, "density": 2.931991465596661, "density_atomic": 22.6762598814654, "symmetry": null, "property_name": null, "material_id": "mp-1094199", "deprecated": null, "deprecation_reasons": null, "last_updated": null, "origins": null, "warnings": null, "structure": {"@module": "pymatgen.core.structure", "@class": "Structure", "charge": 0, "lattice": {"matrix": [[5.42186436, -2.7526092, -0.01090786], [5.42186436, 2.7526092, -0.01090786], [4.0335758, -0.0, 4.55014914]], "pbc": [true, true, true], "a": 6.080591215299103, "b": 6.080591215299103, "c": 6.0805913306674695, "alpha": 53.83253049575159, "beta": 53.83253049575159, "gamma": 53.832517745865914, "volume": 136.0575592887924}, "properties": {}, "sites": [{"species": [{"element": "Mg", "occu": 1}], "abc": [0.0, 0.66590682, 0.33409318], "properties": {"magmom": -0.0}, "label": "Mg", "xyz": [4.958046620231979, 1.8329812390747442, 1.51291017729126]}, {"species": [{"element": "Mg", "occu": 1}], "abc": [0.8328661900000001, 0.8328661900000001, 0.8328661900000001], "properties": {"magmom": 0.0}, "label": "Mg", "xyz": [12.39080393304218, 0.0, 3.77149580256507]}, {"species": [{"element": "Mg", "occu": 1}], "abc": [0.66590682, 0.33409318, -0.0], "properties": {"magmom": -0.0}, "label": "Mg", "xyz": [5.42186436, -0.9133532781494882, -0.01090786]}, {"species": [{"element": "Mg", "occu": 1}], "abc": [0.33409318, -0.0, 0.66590682], "properties": {"magmom": -0.0}, "label": "Mg", "xyz": [4.497393539768021, -0.919627960925256, 3.0263311027087405]}, {"species": [{"element": "Mg", "occu": 1}], "abc": [0.16713381, 0.16713381, 0.16713381], "properties": {"magmom": 0.0}, "label": "Mg", "xyz": [2.486500586957821, 0.0, 0.7568376174349302]}, {"species": [{"element": "Sn", "occu": 1}], "abc": [0.5, 0.5, 0.5], "properties": {"magmom": 0.0}, "label": "Sn", "xyz": [7.43865226, 0.0, 2.26416671]}]}, "task_ids": null, "uncorrected_energy_per_atom": null, "energy_per_atom": -2.047826046666666, "formation_energy_per_atom": -0.020839058333332, "energy_above_hull": 0.06271033083333301, "is_stable": false, "equilibrium_reaction_energy_per_atom": null, "decomposes_to": null, "xas": null, "grain_boundaries": null, "band_gap": 0.0, "cbm": null, "vbm": null, "efermi": 4.65082167, "is_gap_direct": null, "is_metal": null, "es_source_calc_id": null, "bandstructure": null, "dos": null, "dos_energy_up": null, "dos_energy_down": null, "is_magnetic": null, "ordering": null, "total_magnetization": 0.0, "total_magnetization_normalized_vol": null, "total_magnetization_normalized_formula_units": null, "num_magnetic_sites": null, "num_unique_magnetic_sites": null, "types_of_magnetic_species": null, "bulk_modulus": null, "shear_modulus": null, "universal_anisotropy": null, "homogeneous_poisson": null, "e_total": null, "e_ionic": null, "e_electronic": null, "n": null, "e_ij_max": null, "weighted_surface_energy_EV_PER_ANG2": null, "weighted_surface_energy": null, "weighted_work_function": null, "surface_anisotropy": null, "shape_factor": null, "has_reconstructed": null, "possible_species": null, "has_props": null, "theoretical": null, "database_IDs": null, "fields_not_requested": ["builder_meta", "nsites", "elements", "nelements", "composition", "composition_reduced", "chemsys", "symmetry", "property_name", "deprecated", "deprecation_reasons", "last_updated", "origins", "warnings", "task_ids", "uncorrected_energy_per_atom", "equilibrium_reaction_energy_per_atom", "decomposes_to", "xas", "grain_boundaries", "cbm", "vbm", "is_gap_direct", "is_metal", "es_source_calc_id", "bandstructure", "dos", "dos_energy_up", "dos_energy_down", "is_magnetic", "ordering", "total_magnetization_normalized_vol", "total_magnetization_normalized_formula_units", "num_magnetic_sites", "num_unique_magnetic_sites", "types_of_magnetic_species", "bulk_modulus", "shear_modulus", "universal_anisotropy", "homogeneous_poisson", "e_total", "e_ionic", "e_electronic", "n", "e_ij_max", "weighted_surface_energy_EV_PER_ANG2", "weighted_surface_energy", "weighted_work_function", "surface_anisotropy", "shape_factor", "has_reconstructed", "possible_species", "has_props", "theoretical", "database_IDs"]}