{
  "builder_meta": null,
  "nsites": null,
  "elements": null,
  "nelements": null,
  "composition": null,
  "composition_reduced": null,
  "formula_pretty": "Mg5Sb",
  "formula_anonymous": "AB5",
  "chemsys": null,
  "volume": 140.60828232641742,
  "density": 2.87311842612475,
  "density_atomic": 23.43471372106957,
  "symmetry": null,
  "property_name": null,
  "material_id": "mp-1094555",
  "deprecated": null,
  "deprecation_reasons": null,
  "last_updated": null,
  "origins": null,
  "warnings": null,
  "structure": {
    "@module": "pymatgen.core.structure",
    "@class": "Structure",
    "charge": 0,
    "lattice": {
      "matrix": [
        [1.628188999999999, -8.117159, 0.0],
        [1.628188999999999, 8.117159, 0.0],
        [0.0, 0.0, 5.319515]
      ],
      "pbc": [true, true, true],
      "a": 8.278844705090318,
      "b": 8.278844705090318,
      "c": 5.319515,
      "alpha": 90.0,
      "beta": 90.0,
      "gamma": 157.31556700421174,
      "volume": 140.60828232641734
    },
    "properties": {},
    "sites": [
      {
        "species": [{ "element": "Mg", "occu": 1 }],
        "abc": [0.000655, 0.999344999999999, 0.5],
        "properties": { "magmom": -0.0 },
        "label": "Mg",
        "xyz": [1.6281889999999974, 8.106525521709992, 2.6597575]
      },
      {
        "species": [{ "element": "Mg", "occu": 1 }],
        "abc": [0.333261, 0.666739, 0.5],
        "properties": { "magmom": -0.0 },
        "label": "Mg",
        "xyz": [1.628188999999999, 2.706893949002, 2.6597575]
      },
      {
        "species": [{ "element": "Mg", "occu": 1 }],
        "abc": [0.665737, 0.334263, 0.5],
        "properties": { "magmom": -0.0 },
        "label": "Mg",
        "xyz": [1.628188999999999, -2.6906271623660003, 2.6597575]
      },
      {
        "species": [{ "element": "Mg", "occu": 1 }],
        "abc": [0.109857, 0.890142999999999, 0.0],
        "properties": { "magmom": -0.0 },
        "label": "Mg",
        "xyz": [1.6281889999999972, 6.333705527473991, 0.0]
      },
      {
        "species": [{ "element": "Mg", "occu": 1 }],
        "abc": [0.446747, 0.553253, 0.0],
        "properties": { "magmom": -0.0 },
        "label": "Mg",
        "xyz": [1.628188999999999, 0.8645261364539998, 0.0]
      },
      {
        "species": [{ "element": "Sb", "occu": 1 }],
        "abc": [0.777076, 0.222923999999999, 0.0],
        "properties": { "magmom": -0.0 },
        "label": "Sb",
        "xyz": [1.6281889999999972, -4.498139894168008, 0.0]
      }
    ]
  },
  "task_ids": null,
  "uncorrected_energy_per_atom": null,
  "energy_per_atom": -2.133790845,
  "formation_energy_per_atom": -0.08689895916666601,
  "energy_above_hull": 0.091489098854166,
  "is_stable": false,
  "equilibrium_reaction_energy_per_atom": null,
  "decomposes_to": null,
  "xas": null,
  "grain_boundaries": null,
  "band_gap": 0.0,
  "cbm": null,
  "vbm": null,
  "efermi": 4.5412696,
  "is_gap_direct": null,
  "is_metal": null,
  "es_source_calc_id": null,
  "bandstructure": null,
  "dos": null,
  "dos_energy_up": null,
  "dos_energy_down": null,
  "is_magnetic": null,
  "ordering": null,
  "total_magnetization": 0.0166453,
  "total_magnetization_normalized_vol": null,
  "total_magnetization_normalized_formula_units": null,
  "num_magnetic_sites": null,
  "num_unique_magnetic_sites": null,
  "types_of_magnetic_species": null,
  "bulk_modulus": null,
  "shear_modulus": null,
  "universal_anisotropy": null,
  "homogeneous_poisson": null,
  "e_total": null,
  "e_ionic": null,
  "e_electronic": null,
  "n": null,
  "e_ij_max": null,
  "weighted_surface_energy_EV_PER_ANG2": null,
  "weighted_surface_energy": null,
  "weighted_work_function": null,
  "surface_anisotropy": null,
  "shape_factor": null,
  "has_reconstructed": null,
  "possible_species": null,
  "has_props": null,
  "theoretical": null,
  "database_IDs": null,
  "fields_not_requested": [
    "builder_meta",
    "nsites",
    "elements",
    "nelements",
    "composition",
    "composition_reduced",
    "chemsys",
    "symmetry",
    "property_name",
    "deprecated",
    "deprecation_reasons",
    "last_updated",
    "origins",
    "warnings",
    "task_ids",
    "uncorrected_energy_per_atom",
    "equilibrium_reaction_energy_per_atom",
    "decomposes_to",
    "xas",
    "grain_boundaries",
    "cbm",
    "vbm",
    "is_gap_direct",
    "is_metal",
    "es_source_calc_id",
    "bandstructure",
    "dos",
    "dos_energy_up",
    "dos_energy_down",
    "is_magnetic",
    "ordering",
    "total_magnetization_normalized_vol",
    "total_magnetization_normalized_formula_units",
    "num_magnetic_sites",
    "num_unique_magnetic_sites",
    "types_of_magnetic_species",
    "bulk_modulus",
    "shear_modulus",
    "universal_anisotropy",
    "homogeneous_poisson",
    "e_total",
    "e_ionic",
    "e_electronic",
    "n",
    "e_ij_max",
    "weighted_surface_energy_EV_PER_ANG2",
    "weighted_surface_energy",
    "weighted_work_function",
    "surface_anisotropy",
    "shape_factor",
    "has_reconstructed",
    "possible_species",
    "has_props",
    "theoretical",
    "database_IDs"
  ]
}
