{"builder_meta": null, "nsites": null, "elements": null, "nelements": null, "composition": null, "composition_reduced": null, "formula_pretty": "Mg5Se", "formula_anonymous": "AB5", "chemsys": null, "volume": 140.84895526972642, "density": 2.363618346545565, "density_atomic": 23.474825878287735, "symmetry": null, "property_name": null, "material_id": "mp-1185834", "deprecated": null, "deprecation_reasons": null, "last_updated": null, "origins": null, "warnings": null, "structure": {"@module": "pymatgen.core.structure", "@class": "Structure", "charge": 0, "lattice": {"matrix": [[1.720511999999999, 5.420468, 0.0], [-1.720511999999999, 5.420468, 0.0], [0.0, 2.390487, 7.551429]], "pbc": [true, true, true], "a": 5.686970624257522, "b": 5.686970624257522, "c": 7.920764359530588, "alpha": 73.28225830764787, "beta": 73.28225830764787, "gamma": 35.219941598421926, "volume": 140.84895526972633}, "properties": {}, "sites": [{"species": [{"element": "Mg", "occu": 1}], "abc": [0.023861999999999002, 0.023861999999999002, 0.060585999999999], "properties": {"magmom": 0.0}, "label": "Mg", "xyz": [0.0, 0.4035164602139868, 0.45751087739399243]}, {"species": [{"element": "Mg", "occu": 1}], "abc": [0.339645, 0.339645, 0.8953300000000001], "properties": {"magmom": 0.0}, "label": "Mg", "xyz": [0.0, 5.822344433429999, 6.7610209265700005]}, {"species": [{"element": "Mg", "occu": 1}], "abc": [0.656875, 0.656875, 0.70833], "properties": {"magmom": 0.0}, "label": "Mg", "xyz": [0.0, 8.81439349171, 5.34890370357]}, {"species": [{"element": "Mg", "occu": 1}], "abc": [0.95013, 0.95013, 0.545601], "properties": {"magmom": 0.0}, "label": "Mg", "xyz": [0.0, 11.604550619367, 4.1200672138289995]}, {"species": [{"element": "Mg", "occu": 1}], "abc": [0.279588, 0.279588, 0.327011999999999], "properties": {"magmom": 0.0}, "label": "Mg", "xyz": [0.0, 3.8127135492119977, 2.4694079001479925]}, {"species": [{"element": "Se", "occu": 1}], "abc": [0.583233, 0.583233, 0.296473999999999], "properties": {"magmom": 0.0}, "label": "Se", "xyz": [0.0, 7.0315088689259975, 2.2388023613459924]}]}, "task_ids": null, "uncorrected_energy_per_atom": null, "energy_per_atom": -2.188048046666666, "formation_energy_per_atom": -0.246671121223958, "energy_above_hull": 0.24476111666666603, "is_stable": false, "equilibrium_reaction_energy_per_atom": null, "decomposes_to": null, "xas": null, "grain_boundaries": null, "band_gap": 0.0, "cbm": null, "vbm": null, "efermi": 3.5734133200000002, "is_gap_direct": null, "is_metal": null, "es_source_calc_id": null, "bandstructure": null, "dos": null, "dos_energy_up": null, "dos_energy_down": null, "is_magnetic": null, "ordering": null, "total_magnetization": 4.3400000000000005e-05, "total_magnetization_normalized_vol": null, "total_magnetization_normalized_formula_units": null, "num_magnetic_sites": null, "num_unique_magnetic_sites": null, "types_of_magnetic_species": null, "bulk_modulus": null, "shear_modulus": null, "universal_anisotropy": null, "homogeneous_poisson": null, "e_total": null, "e_ionic": null, "e_electronic": null, "n": null, "e_ij_max": null, "weighted_surface_energy_EV_PER_ANG2": null, "weighted_surface_energy": null, "weighted_work_function": null, "surface_anisotropy": null, "shape_factor": null, "has_reconstructed": null, "possible_species": null, "has_props": null, "theoretical": null, "database_IDs": null, "fields_not_requested": ["builder_meta", "nsites", "elements", "nelements", "composition", "composition_reduced", "chemsys", "symmetry", "property_name", "deprecated", "deprecation_reasons", "last_updated", "origins", "warnings", "task_ids", "uncorrected_energy_per_atom", "equilibrium_reaction_energy_per_atom", "decomposes_to", "xas", "grain_boundaries", "cbm", "vbm", "is_gap_direct", "is_metal", "es_source_calc_id", "bandstructure", "dos", "dos_energy_up", "dos_energy_down", "is_magnetic", "ordering", "total_magnetization_normalized_vol", "total_magnetization_normalized_formula_units", "num_magnetic_sites", "num_unique_magnetic_sites", "types_of_magnetic_species", "bulk_modulus", "shear_modulus", "universal_anisotropy", "homogeneous_poisson", "e_total", "e_ionic", "e_electronic", "n", "e_ij_max", "weighted_surface_energy_EV_PER_ANG2", "weighted_surface_energy", "weighted_work_function", "surface_anisotropy", "shape_factor", "has_reconstructed", "possible_species", "has_props", "theoretical", "database_IDs"]}