{
  "builder_meta": null,
  "nsites": null,
  "elements": null,
  "nelements": null,
  "composition": null,
  "composition_reduced": null,
  "formula_pretty": "Mg5Te",
  "formula_anonymous": "AB5",
  "chemsys": null,
  "volume": 142.3931201814251,
  "density": 2.9052091452146502,
  "density_atomic": 23.732186696904183,
  "symmetry": null,
  "property_name": null,
  "material_id": "mp-1185828",
  "deprecated": null,
  "deprecation_reasons": null,
  "last_updated": null,
  "origins": null,
  "warnings": null,
  "structure": {
    "@module": "pymatgen.core.structure",
    "@class": "Structure",
    "charge": 0,
    "lattice": {
      "matrix": [
        [5.524828, -2.788862, 0.0],
        [5.524828, 2.788862, 0.0],
        [4.117046, 0.0, 4.620758]
      ],
      "pbc": [true, true, true],
      "a": 6.1888186016903095,
      "b": 6.1888186016903095,
      "c": 6.188818325066588,
      "alpha": 53.56811420717406,
      "beta": 53.56811420717406,
      "gamma": 53.568112088016996,
      "volume": 142.3931201814251
    },
    "properties": {},
    "sites": [
      {
        "species": [{ "element": "Mg", "occu": 1 }],
        "abc": [0.668453, 0.331547, 0.0],
        "properties": { "magmom": -0.0 },
        "label": "Mg",
        "xyz": [5.524827999999999, -0.939584340972, 0.0]
      },
      {
        "species": [{ "element": "Mg", "occu": 1 }],
        "abc": [0.0, 0.668453, 0.331547],
        "properties": { "magmom": -0.0 },
        "label": "Mg",
        "xyz": [5.058082101246, 1.864223170486, 1.531998452626]
      },
      {
        "species": [{ "element": "Mg", "occu": 1 }],
        "abc": [0.331547, 0.0, 0.668453],
        "properties": { "magmom": -0.0 },
        "label": "Mg",
        "xyz": [4.583791898754, -0.9246388295139999, 3.088759547374]
      },
      {
        "species": [{ "element": "Mg", "occu": 1 }],
        "abc": [0.829808, 0.829808, 0.829808],
        "properties": { "magmom": 0.0 },
        "label": "Mg",
        "xyz": [12.585450653216, 0.0, 3.834341954464]
      },
      {
        "species": [{ "element": "Mg", "occu": 1 }],
        "abc": [0.170191999999999, 0.170191999999999, 0.170191999999999],
        "properties": { "magmom": 0.0 },
        "label": "Mg",
        "xyz": [2.581251346783985, 0.0, 0.7864160455359955]
      },
      {
        "species": [{ "element": "Te", "occu": 1 }],
        "abc": [0.5, 0.5, 0.5],
        "properties": { "magmom": -0.0 },
        "label": "Te",
        "xyz": [7.583351, 0.0, 2.310379]
      }
    ]
  },
  "task_ids": null,
  "uncorrected_energy_per_atom": null,
  "energy_per_atom": -2.015474506666666,
  "formation_energy_per_atom": -0.13286517861111002,
  "energy_above_hull": 0.22432475583333403,
  "is_stable": false,
  "equilibrium_reaction_energy_per_atom": null,
  "decomposes_to": null,
  "xas": null,
  "grain_boundaries": null,
  "band_gap": 0.0,
  "cbm": null,
  "vbm": null,
  "efermi": 4.5490524,
  "is_gap_direct": null,
  "is_metal": null,
  "es_source_calc_id": null,
  "bandstructure": null,
  "dos": null,
  "dos_energy_up": null,
  "dos_energy_down": null,
  "is_magnetic": null,
  "ordering": null,
  "total_magnetization": 0.0006552999999990001,
  "total_magnetization_normalized_vol": null,
  "total_magnetization_normalized_formula_units": null,
  "num_magnetic_sites": null,
  "num_unique_magnetic_sites": null,
  "types_of_magnetic_species": null,
  "bulk_modulus": null,
  "shear_modulus": null,
  "universal_anisotropy": null,
  "homogeneous_poisson": null,
  "e_total": null,
  "e_ionic": null,
  "e_electronic": null,
  "n": null,
  "e_ij_max": null,
  "weighted_surface_energy_EV_PER_ANG2": null,
  "weighted_surface_energy": null,
  "weighted_work_function": null,
  "surface_anisotropy": null,
  "shape_factor": null,
  "has_reconstructed": null,
  "possible_species": null,
  "has_props": null,
  "theoretical": null,
  "database_IDs": null,
  "fields_not_requested": [
    "builder_meta",
    "nsites",
    "elements",
    "nelements",
    "composition",
    "composition_reduced",
    "chemsys",
    "symmetry",
    "property_name",
    "deprecated",
    "deprecation_reasons",
    "last_updated",
    "origins",
    "warnings",
    "task_ids",
    "uncorrected_energy_per_atom",
    "equilibrium_reaction_energy_per_atom",
    "decomposes_to",
    "xas",
    "grain_boundaries",
    "cbm",
    "vbm",
    "is_gap_direct",
    "is_metal",
    "es_source_calc_id",
    "bandstructure",
    "dos",
    "dos_energy_up",
    "dos_energy_down",
    "is_magnetic",
    "ordering",
    "total_magnetization_normalized_vol",
    "total_magnetization_normalized_formula_units",
    "num_magnetic_sites",
    "num_unique_magnetic_sites",
    "types_of_magnetic_species",
    "bulk_modulus",
    "shear_modulus",
    "universal_anisotropy",
    "homogeneous_poisson",
    "e_total",
    "e_ionic",
    "e_electronic",
    "n",
    "e_ij_max",
    "weighted_surface_energy_EV_PER_ANG2",
    "weighted_surface_energy",
    "weighted_work_function",
    "surface_anisotropy",
    "shape_factor",
    "has_reconstructed",
    "possible_species",
    "has_props",
    "theoretical",
    "database_IDs"
  ]
}
