{
  "builder_meta": null,
  "nsites": null,
  "elements": null,
  "nelements": null,
  "composition": null,
  "composition_reduced": null,
  "formula_pretty": "Mg5Tl2",
  "formula_anonymous": "A2B5",
  "chemsys": null,
  "volume": 319.77794914292065,
  "density": 5.507383613222569,
  "density_atomic": 22.84128208163719,
  "symmetry": null,
  "property_name": null,
  "material_id": "mp-570849",
  "deprecated": null,
  "deprecation_reasons": null,
  "last_updated": null,
  "origins": null,
  "warnings": null,
  "structure": {
    "@module": "pymatgen.core.structure",
    "@class": "Structure",
    "charge": 0,
    "lattice": {
      "matrix": [
        [5.79852051, 0.00440527, -2.23330841],
        [-1.20396759, 6.52398415, -3.12471321],
        [-0.04298575, -0.06337569, 8.503354]
      ],
      "pbc": [true, true, true],
      "a": 6.213736876105325,
      "b": 7.333194378439054,
      "c": 8.503698812993205,
      "alpha": 115.58746566877528,
      "beta": 111.35359472534937,
      "gamma": 89.96736088066294,
      "volume": 319.77794914292065
    },
    "properties": {},
    "sites": [
      {
        "species": [{ "element": "Mg", "occu": 1 }],
        "abc": [0.410744699999999, 0.07532053, 0.82471541],
        "properties": { "magmom": 0.0 },
        "label": "Mg",
        "xyz": [2.255577079906762, 0.4409324770317856, 5.860172432537015]
      },
      {
        "species": [{ "element": "Mg", "occu": 1 }],
        "abc": [0.48385514, 0.73317284, 0.46636823],
        "properties": { "magmom": 0.0 },
        "label": "Mg",
        "xyz": [1.9028804277879434, 4.755783091532745, 0.5941415422984759]
      },
      {
        "species": [{ "element": "Mg", "occu": 1 }],
        "abc": [0.25070193, 0.50103036, 0.00196217],
        "properties": { "magmom": 0.0 },
        "label": "Mg",
        "xyz": [0.8503916226064745, 3.269694183122318, -2.108785887057107]
      },
      {
        "species": [{ "element": "Mg", "occu": 1 }],
        "abc": [0.08889926000000001, 0.24993322, 0.17600263],
        "properties": { "magmom": 0.0 },
        "label": "Mg",
        "xyz": [0.20700708083696037, 1.6197977029634987, 0.5171035686684071]
      },
      {
        "species": [{ "element": "Mg", "occu": 1 }],
        "abc": [0.589255299999999, 0.9246794700000001, 0.17528459],
        "properties": { "magmom": 0.0 },
        "label": "Mg",
        "xyz": [2.2959900900932277, 6.024081252968215, -2.71484005253701]
      },
      {
        "species": [{ "element": "Mg", "occu": 1 }],
        "abc": [0.51614486, 0.26682716, 0.5336317700000001],
        "properties": { "magmom": 0.0 },
        "label": "Mg",
        "xyz": [2.6486867422120572, 1.7092306384672549, 2.5511908377015238]
      },
      {
        "species": [{ "element": "Mg", "occu": 1 }],
        "abc": [0.01900742, 0.26708537, 0.53733862],
        "properties": { "magmom": -0.0 },
        "label": "Mg",
        "xyz": [-0.23444511811563912, 1.7084902475878414, 3.69216588895634]
      },
      {
        "species": [{ "element": "Mg", "occu": 1 }],
        "abc": [0.98099258, 0.73291463, 0.46266138],
        "properties": { "magmom": -0.0 },
        "label": "Mg",
        "xyz": [4.786012288115639, 4.756523482412159, -0.5468335089563396]
      },
      {
        "species": [{ "element": "Mg", "occu": 1 }],
        "abc": [0.91110074, 0.75006678, 0.8239973700000001],
        "properties": { "magmom": 0.0 },
        "label": "Mg",
        "xyz": [4.34456008916304, 4.845216027036503, 2.628228811331593]
      },
      {
        "species": [{ "element": "Mg", "occu": 1 }],
        "abc": [0.74929807, 0.49896964, 0.99803783],
        "properties": { "magmom": 0.0 },
        "label": "Mg",
        "xyz": [3.7011755473935257, 3.1953195468776823, 5.254118267057106]
      },
      {
        "species": [{ "element": "Tl", "occu": 1 }],
        "abc": [0.62272989, 0.35367052, 0.24415462000000002],
        "properties": { "magmom": -0.0 },
        "label": "Tl",
        "xyz": [3.1746090262799322, 2.2946106925955903, -0.4197336817314641]
      },
      {
        "species": [{ "element": "Tl", "occu": 1 }],
        "abc": [0.87790089, 0.1100457, 0.75668067],
        "properties": { "magmom": -0.0 },
        "label": "Tl",
        "xyz": [4.9255083740829395, 0.673848633458433, 4.129838908689998]
      },
      {
        "species": [{ "element": "Tl", "occu": 1 }],
        "abc": [0.12209911, 0.8899543, 0.24331933],
        "properties": { "magmom": -0.0 },
        "label": "Tl",
        "xyz": [-0.37394120408293824, 5.791165096541567, -0.9845065286899977]
      },
      {
        "species": [{ "element": "Tl", "occu": 1 }],
        "abc": [0.37727011, 0.64632948, 0.75584538],
        "properties": { "magmom": -0.0 },
        "label": "Tl",
        "xyz": [1.3769581437200682, 4.17040303740441, 3.5650660617314642]
      }
    ]
  },
  "task_ids": null,
  "uncorrected_energy_per_atom": null,
  "energy_per_atom": -1.847725064285717,
  "formation_energy_per_atom": -0.005540163095243001,
  "energy_above_hull": 0.008870449642853,
  "is_stable": false,
  "equilibrium_reaction_energy_per_atom": null,
  "decomposes_to": null,
  "xas": null,
  "grain_boundaries": null,
  "band_gap": 0.0,
  "cbm": null,
  "vbm": null,
  "efermi": 4.67820216,
  "is_gap_direct": null,
  "is_metal": null,
  "es_source_calc_id": null,
  "bandstructure": null,
  "dos": null,
  "dos_energy_up": null,
  "dos_energy_down": null,
  "is_magnetic": null,
  "ordering": null,
  "total_magnetization": 1e-7,
  "total_magnetization_normalized_vol": null,
  "total_magnetization_normalized_formula_units": null,
  "num_magnetic_sites": null,
  "num_unique_magnetic_sites": null,
  "types_of_magnetic_species": null,
  "bulk_modulus": null,
  "shear_modulus": null,
  "universal_anisotropy": null,
  "homogeneous_poisson": null,
  "e_total": null,
  "e_ionic": null,
  "e_electronic": null,
  "n": null,
  "e_ij_max": null,
  "weighted_surface_energy_EV_PER_ANG2": null,
  "weighted_surface_energy": null,
  "weighted_work_function": null,
  "surface_anisotropy": null,
  "shape_factor": null,
  "has_reconstructed": null,
  "possible_species": null,
  "has_props": null,
  "theoretical": null,
  "database_IDs": null,
  "fields_not_requested": [
    "builder_meta",
    "nsites",
    "elements",
    "nelements",
    "composition",
    "composition_reduced",
    "chemsys",
    "symmetry",
    "property_name",
    "deprecated",
    "deprecation_reasons",
    "last_updated",
    "origins",
    "warnings",
    "task_ids",
    "uncorrected_energy_per_atom",
    "equilibrium_reaction_energy_per_atom",
    "decomposes_to",
    "xas",
    "grain_boundaries",
    "cbm",
    "vbm",
    "is_gap_direct",
    "is_metal",
    "es_source_calc_id",
    "bandstructure",
    "dos",
    "dos_energy_up",
    "dos_energy_down",
    "is_magnetic",
    "ordering",
    "total_magnetization_normalized_vol",
    "total_magnetization_normalized_formula_units",
    "num_magnetic_sites",
    "num_unique_magnetic_sites",
    "types_of_magnetic_species",
    "bulk_modulus",
    "shear_modulus",
    "universal_anisotropy",
    "homogeneous_poisson",
    "e_total",
    "e_ionic",
    "e_electronic",
    "n",
    "e_ij_max",
    "weighted_surface_energy_EV_PER_ANG2",
    "weighted_surface_energy",
    "weighted_work_function",
    "surface_anisotropy",
    "shape_factor",
    "has_reconstructed",
    "possible_species",
    "has_props",
    "theoretical",
    "database_IDs"
  ]
}
