{"builder_meta": null, "nsites": null, "elements": null, "nelements": null, "composition": null, "composition_reduced": null, "formula_pretty": "Mg5Zn", "formula_anonymous": "AB5", "chemsys": null, "volume": 123.90816500043216, "density": 2.50517155083946, "density_atomic": 20.65136083340536, "symmetry": null, "property_name": null, "material_id": "mp-1094434", "deprecated": null, "deprecation_reasons": null, "last_updated": null, "origins": null, "warnings": null, "structure": {"@module": "pymatgen.core.structure", "@class": "Structure", "charge": 0, "lattice": {"matrix": [[1.5745201, -7.93283496, 0.0], [1.5745201, 7.93283496, 0.0], [0.0, 0.0, 4.9601327699999995]], "pbc": [true, true, true], "a": 8.087582089098213, "b": 8.087582089098213, "c": 4.9601327699999995, "alpha": 90.0, "beta": 90.0, "gamma": 157.54751076029993, "volume": 123.90816500043215}, "properties": {}, "sites": [{"species": [{"element": "Mg", "occu": 1}], "abc": [0.00144924, 0.99855076, 0.5], "properties": {"magmom": 0.0}, "label": "Mg", "xyz": [1.5745201, 7.909841796525139, 2.4800663849999998]}, {"species": [{"element": "Mg", "occu": 1}], "abc": [0.32852549000000003, 0.67147451, 0.5], "properties": {"magmom": 0.0}, "label": "Mg", "xyz": [1.5745201, 2.720557975353739, 2.4800663849999998]}, {"species": [{"element": "Mg", "occu": 1}], "abc": [0.66878003, 0.33121997000000003, 0.5], "properties": {"magmom": 0.0}, "label": "Mg", "xyz": [1.5745201, -2.6778082450676974, 2.4800663849999998]}, {"species": [{"element": "Mg", "occu": 1}], "abc": [0.43790188, 0.56209812, 0.0], "properties": {"magmom": 0.0}, "label": "Mg", "xyz": [1.5745201, 0.9852282745725507, 0.0]}, {"species": [{"element": "Mg", "occu": 1}], "abc": [0.11978833, 0.88021167, -0.0], "properties": {"magmom": 0.0}, "label": "Mg", "xyz": [1.5745201, 6.032312855951967, 0.0]}, {"species": [{"element": "Zn", "occu": 1}], "abc": [0.77688702, 0.22311298000000002, 0.0], "properties": {"magmom": 0.0}, "label": "Zn", "xyz": [1.5745201, -4.392998064452438, 0.0]}]}, "task_ids": null, "uncorrected_energy_per_atom": null, "energy_per_atom": -1.573196818333333, "formation_energy_per_atom": -0.004514537499999, "energy_above_hull": 0.030903457433334003, "is_stable": false, "equilibrium_reaction_energy_per_atom": null, "decomposes_to": null, "xas": null, "grain_boundaries": null, "band_gap": 0.0, "cbm": null, "vbm": null, "efermi": 3.63010327, "is_gap_direct": null, "is_metal": null, "es_source_calc_id": null, "bandstructure": null, "dos": null, "dos_energy_up": null, "dos_energy_down": null, "is_magnetic": null, "ordering": null, "total_magnetization": 4e-07, "total_magnetization_normalized_vol": null, "total_magnetization_normalized_formula_units": null, "num_magnetic_sites": null, "num_unique_magnetic_sites": null, "types_of_magnetic_species": null, "bulk_modulus": null, "shear_modulus": null, "universal_anisotropy": null, "homogeneous_poisson": null, "e_total": null, "e_ionic": null, "e_electronic": null, "n": null, "e_ij_max": null, "weighted_surface_energy_EV_PER_ANG2": null, "weighted_surface_energy": null, "weighted_work_function": null, "surface_anisotropy": null, "shape_factor": null, "has_reconstructed": null, "possible_species": null, "has_props": null, "theoretical": null, "database_IDs": null, "fields_not_requested": ["builder_meta", "nsites", "elements", "nelements", "composition", "composition_reduced", "chemsys", "symmetry", "property_name", "deprecated", "deprecation_reasons", "last_updated", "origins", "warnings", "task_ids", "uncorrected_energy_per_atom", "equilibrium_reaction_energy_per_atom", "decomposes_to", "xas", "grain_boundaries", "cbm", "vbm", "is_gap_direct", "is_metal", "es_source_calc_id", "bandstructure", "dos", "dos_energy_up", "dos_energy_down", "is_magnetic", "ordering", "total_magnetization_normalized_vol", "total_magnetization_normalized_formula_units", "num_magnetic_sites", "num_unique_magnetic_sites", "types_of_magnetic_species", "bulk_modulus", "shear_modulus", "universal_anisotropy", "homogeneous_poisson", "e_total", "e_ionic", "e_electronic", "n", "e_ij_max", "weighted_surface_energy_EV_PER_ANG2", "weighted_surface_energy", "weighted_work_function", "surface_anisotropy", "shape_factor", "has_reconstructed", "possible_species", "has_props", "theoretical", "database_IDs"]}