{
  "builder_meta": null,
  "nsites": null,
  "elements": null,
  "nelements": null,
  "composition": null,
  "composition_reduced": null,
  "formula_pretty": "Mg6Si5",
  "formula_anonymous": "A5B6",
  "chemsys": null,
  "volume": 425.53659522412386,
  "density": 2.23408170856325,
  "density_atomic": 19.34257251018745,
  "symmetry": null,
  "property_name": null,
  "material_id": "mp-1073910",
  "deprecated": null,
  "deprecation_reasons": null,
  "last_updated": null,
  "origins": null,
  "warnings": null,
  "structure": {
    "@module": "pymatgen.core.structure",
    "@class": "Structure",
    "charge": 0,
    "lattice": {
      "matrix": [
        [4.260885, 0.0, 0.0],
        [-0.113734999999999, 7.20454, 0.0],
        [-0.27376, -3.346393, 13.862158]
      ],
      "pbc": [true, true, true],
      "a": 4.260885,
      "b": 7.2054376870406,
      "c": 14.262984086964867,
      "alpha": 103.54969323555848,
      "beta": 91.09978779612729,
      "gamma": 90.90442890488916,
      "volume": 425.53659522412386
    },
    "properties": {},
    "sites": [
      {
        "species": [{ "element": "Mg", "occu": 1 }],
        "abc": [0.418968, 0.550076999999999, 0.053945],
        "properties": { "magmom": -0.0 },
        "label": "Mg",
        "xyz": [1.7078434758850005, 3.782530579194993, 0.74779411331]
      },
      {
        "species": [{ "element": "Mg", "occu": 1 }],
        "abc": [0.460984, 0.240046999999999, 0.444586],
        "properties": { "magmom": 0.0 },
        "label": "Mg",
        "xyz": [1.8151882019350003, 0.24166873508199282, 6.162921376588]
      },
      {
        "species": [{ "element": "Mg", "occu": 1 }],
        "abc": [0.911553, 0.742227, 0.746848],
        "properties": { "magmom": -0.0 },
        "label": "Mg",
        "xyz": [3.5951482080800004, 2.8481571913159995, 10.352924977984]
      },
      {
        "species": [{ "element": "Mg", "occu": 1 }],
        "abc": [0.434913, 0.010059, 0.220601],
        "properties": { "magmom": 0.0 },
        "label": "Mg",
        "xyz": [1.79157848788, -0.665747174333, 3.0580059169580003]
      },
      {
        "species": [{ "element": "Mg", "occu": 1 }],
        "abc": [0.437617, 0.532574, 0.292193],
        "properties": { "magmom": 0.0 },
        "label": "Mg",
        "xyz": [1.7240726514750007, 2.859158076111, 4.050425532494]
      },
      {
        "species": [{ "element": "Mg", "occu": 1 }],
        "abc": [0.396142, 0.397335999999999, 0.78656],
        "properties": { "magmom": -0.0 },
        "label": "Mg",
        "xyz": [1.4273958301100005, 0.23048422735999274, 10.903418996480001]
      },
      {
        "species": [{ "element": "Mg", "occu": 1 }],
        "abc": [0.014747, 0.021922, 0.592595],
        "properties": { "magmom": 0.0 },
        "label": "Mg",
        "xyz": [-0.10188683477499996, -1.8251178339549998, 8.21464552001]
      },
      {
        "species": [{ "element": "Mg", "occu": 1 }],
        "abc": [0.955399, 0.587034, 0.473327],
        "properties": { "magmom": 0.0 },
        "label": "Mg",
        "xyz": [3.8745009566050004, 2.645371774849, 6.561333659666]
      },
      {
        "species": [{ "element": "Mg", "occu": 1 }],
        "abc": [0.926178, 0.320482, 0.144992999999999],
        "properties": { "magmom": -0.0 },
        "label": "Mg",
        "xyz": [3.8701946435800005, 1.8237218280310032, 2.0099158748939865]
      },
      {
        "species": [{ "element": "Mg", "occu": 1 }],
        "abc": [0.409644, 0.813006, 0.902337],
        "properties": { "magmom": -0.0 },
        "label": "Mg",
        "xyz": [1.4059549604100008, 2.837760026799, 12.508338063246]
      },
      {
        "species": [{ "element": "Mg", "occu": 1 }],
        "abc": [0.89551, 0.178242999999999, 0.8977700000000001],
        "properties": { "magmom": -0.0 },
        "label": "Mg",
        "xyz": [3.5496191435450006, -1.7201324203900072, 12.445029587660002]
      },
      {
        "species": [{ "element": "Mg", "occu": 1 }],
        "abc": [0.919612, 0.894030999999999, 0.056991999999999],
        "properties": { "magmom": -0.0 },
        "label": "Mg",
        "xyz": [3.8010762309150015, 6.250364470883996, 0.7900321087359862]
      },
      {
        "species": [{ "element": "Si", "occu": 1 }],
        "abc": [0.445861, 0.861977, 0.441],
        "properties": { "magmom": 0.0 },
        "label": "Si",
        "xyz": [1.6809973328900008, 4.734388462579999, 6.113211678000001]
      },
      {
        "species": [{ "element": "Si", "occu": 1 }],
        "abc": [0.513023, 0.823661, 0.607534],
        "properties": { "magmom": 0.0 },
        "label": "Si",
        "xyz": [1.925934413680001, 3.9010510960779996, 8.421732298372001]
      },
      {
        "species": [{ "element": "Si", "occu": 1 }],
        "abc": [0.906204999999999, 0.571396, 0.908604],
        "properties": { "magmom": 0.0 },
        "label": "Si",
        "xyz": [3.5475081363249963, 1.0760992724679999, 12.595212207432]
      },
      {
        "species": [{ "element": "Si", "occu": 1 }],
        "abc": [0.924377999999999, 0.711081, 0.199602],
        "properties": { "magmom": 0.0 },
        "label": "Si",
        "xyz": [3.8031505134749963, 4.4550647721539995, 2.7669144611160004]
      },
      {
        "species": [{ "element": "Si", "occu": 1 }],
        "abc": [0.947156, 0.264179, 0.324683],
        "properties": { "magmom": -0.0 },
        "label": "Si",
        "xyz": [3.9167911764149994, 0.8167712542409999, 4.500807045914001]
      },
      {
        "species": [{ "element": "Si", "occu": 1 }],
        "abc": [0.414888, 0.512155, 0.611474],
        "properties": { "magmom": 0.0 },
        "label": "Si",
        "xyz": [1.5421429847150006, 1.6436088704180003, 8.476349200892]
      },
      {
        "species": [{ "element": "Si", "occu": 1 }],
        "abc": [0.913176, 0.372864, 0.624221],
        "properties": { "magmom": -0.0 },
        "label": "Si",
        "xyz": [3.6776434927600006, 0.5974248177069996, 8.653050128918]
      },
      {
        "species": [{ "element": "Si", "occu": 1 }],
        "abc": [0.950473, 0.933431, 0.357454999999999],
        "properties": { "magmom": 0.0 },
        "label": "Si",
        "xyz": [3.8458354930200014, 5.528756066925004, 4.955097687889987]
      },
      {
        "species": [{ "element": "Si", "occu": 1 }],
        "abc": [0.416539, 0.1434, 0.042377],
        "properties": { "magmom": 0.0 },
        "label": "Si",
        "xyz": [1.746914050495, 0.8913209398389998, 0.587436669566]
      },
      {
        "species": [{ "element": "Si", "occu": 1 }],
        "abc": [0.390601, 0.015162, 0.766683],
        "properties": { "magmom": 0.0 },
        "label": "Si",
        "xyz": [1.4526943537349999, -2.456387388939, 10.627880881914]
      }
    ]
  },
  "task_ids": null,
  "uncorrected_energy_per_atom": null,
  "energy_per_atom": -3.305880505454546,
  "formation_energy_per_atom": 0.049520425454544006,
  "energy_above_hull": 0.13837395909090802,
  "is_stable": false,
  "equilibrium_reaction_energy_per_atom": null,
  "decomposes_to": null,
  "xas": null,
  "grain_boundaries": null,
  "band_gap": 0.0,
  "cbm": null,
  "vbm": null,
  "efermi": 4.81911219,
  "is_gap_direct": null,
  "is_metal": null,
  "es_source_calc_id": null,
  "bandstructure": null,
  "dos": null,
  "dos_energy_up": null,
  "dos_energy_down": null,
  "is_magnetic": null,
  "ordering": null,
  "total_magnetization": 0.0024036,
  "total_magnetization_normalized_vol": null,
  "total_magnetization_normalized_formula_units": null,
  "num_magnetic_sites": null,
  "num_unique_magnetic_sites": null,
  "types_of_magnetic_species": null,
  "bulk_modulus": null,
  "shear_modulus": null,
  "universal_anisotropy": null,
  "homogeneous_poisson": null,
  "e_total": null,
  "e_ionic": null,
  "e_electronic": null,
  "n": null,
  "e_ij_max": null,
  "weighted_surface_energy_EV_PER_ANG2": null,
  "weighted_surface_energy": null,
  "weighted_work_function": null,
  "surface_anisotropy": null,
  "shape_factor": null,
  "has_reconstructed": null,
  "possible_species": null,
  "has_props": null,
  "theoretical": null,
  "database_IDs": null,
  "fields_not_requested": [
    "builder_meta",
    "nsites",
    "elements",
    "nelements",
    "composition",
    "composition_reduced",
    "chemsys",
    "symmetry",
    "property_name",
    "deprecated",
    "deprecation_reasons",
    "last_updated",
    "origins",
    "warnings",
    "task_ids",
    "uncorrected_energy_per_atom",
    "equilibrium_reaction_energy_per_atom",
    "decomposes_to",
    "xas",
    "grain_boundaries",
    "cbm",
    "vbm",
    "is_gap_direct",
    "is_metal",
    "es_source_calc_id",
    "bandstructure",
    "dos",
    "dos_energy_up",
    "dos_energy_down",
    "is_magnetic",
    "ordering",
    "total_magnetization_normalized_vol",
    "total_magnetization_normalized_formula_units",
    "num_magnetic_sites",
    "num_unique_magnetic_sites",
    "types_of_magnetic_species",
    "bulk_modulus",
    "shear_modulus",
    "universal_anisotropy",
    "homogeneous_poisson",
    "e_total",
    "e_ionic",
    "e_electronic",
    "n",
    "e_ij_max",
    "weighted_surface_energy_EV_PER_ANG2",
    "weighted_surface_energy",
    "weighted_work_function",
    "surface_anisotropy",
    "shape_factor",
    "has_reconstructed",
    "possible_species",
    "has_props",
    "theoretical",
    "database_IDs"
  ]
}
