{"builder_meta": null, "nsites": null, "elements": null, "nelements": null, "composition": null, "composition_reduced": null, "formula_pretty": "Mg7Al", "formula_anonymous": "AB7", "chemsys": null, "volume": 172.07459839547073, "density": 1.902196582589161, "density_atomic": 21.50932479943384, "symmetry": null, "property_name": null, "material_id": "mp-1016271", "deprecated": null, "deprecation_reasons": null, "last_updated": null, "origins": null, "warnings": null, "structure": {"@module": "pymatgen.core.structure", "@class": "Structure", "charge": 0, "lattice": {"matrix": [[6.27124172, -7.09e-06, 0.0], [-3.1356264400000002, 5.43105134, -0.0], [-0.0, -0.0, 5.05218912]], "pbc": [true, true, true], "a": 6.271241720004008, "b": 6.271241649700868, "c": 5.05218912, "alpha": 90.0, "beta": 90.0, "gamma": 120.0001240141158, "volume": 172.07459839547073}, "properties": {}, "sites": [{"species": [{"element": "Mg", "occu": 1}], "abc": [0.16627446, 0.83313773, 0.25], "properties": {"magmom": 0.0}, "label": "Mg", "xyz": [-1.5696613638271104, 4.524812606035137, 1.26304728]}, {"species": [{"element": "Mg", "occu": 1}], "abc": [0.66686227, 0.33372554, 0.25], "properties": {"magmom": 0.0}, "label": "Mg", "xyz": [3.135615862190627, 1.8124758131557293, 1.26304728]}, {"species": [{"element": "Mg", "occu": 1}], "abc": [0.66686227, 0.83313773, 0.25], "properties": {"magmom": 0.0}, "label": "Mg", "xyz": [1.5696457947683227, 4.524809056867563, 1.26304728]}, {"species": [{"element": "Mg", "occu": 1}], "abc": [0.33159639, 0.16840361, 0.75], "properties": {"magmom": 0.0}, "label": "Mg", "xyz": [1.5514703030619428, 0.9146063007329324, 3.78914184]}, {"species": [{"element": "Mg", "occu": 1}], "abc": [0.33159639, 0.6631937800000001, 0.75], "properties": {"magmom": 0.0}, "label": "Mg", "xyz": [-6.836242152363781e-06, 3.6018371165302603, 3.78914184]}, {"species": [{"element": "Mg", "occu": 1}], "abc": [0.83680622, 0.16840361, 0.75], "properties": {"magmom": 0.0}, "label": "Mg", "xyz": [4.71976326631205, 0.9146027187952376, 3.78914184]}, {"species": [{"element": "Mg", "occu": 1}], "abc": [0.833333, 0.666667, 0.75], "properties": {"magmom": -0.0}, "label": "Mg", "xyz": [3.1356140043772793, 3.62069679535281, 3.78914184]}, {"species": [{"element": "Al", "occu": 1}], "abc": [0.166666999999999, 0.333333, 0.25], "properties": {"magmom": -0.0}, "label": "Al", "xyz": [1.2756227136812015e-06, 1.8103474546471898, 1.26304728]}]}, "task_ids": null, "uncorrected_energy_per_atom": null, "energy_per_atom": -1.8536331962500001, "formation_energy_per_atom": 0.041225045625000005, "energy_above_hull": 0.04404400276041601, "is_stable": false, "equilibrium_reaction_energy_per_atom": null, "decomposes_to": null, "xas": null, "grain_boundaries": null, "band_gap": 0.0, "cbm": null, "vbm": null, "efermi": 3.90286068, "is_gap_direct": null, "is_metal": null, "es_source_calc_id": null, "bandstructure": null, "dos": null, "dos_energy_up": null, "dos_energy_down": null, "is_magnetic": null, "ordering": null, "total_magnetization": 0.0, "total_magnetization_normalized_vol": null, "total_magnetization_normalized_formula_units": null, "num_magnetic_sites": null, "num_unique_magnetic_sites": null, "types_of_magnetic_species": null, "bulk_modulus": null, "shear_modulus": null, "universal_anisotropy": null, "homogeneous_poisson": null, "e_total": null, "e_ionic": null, "e_electronic": null, "n": null, "e_ij_max": null, "weighted_surface_energy_EV_PER_ANG2": null, "weighted_surface_energy": null, "weighted_work_function": null, "surface_anisotropy": null, "shape_factor": null, "has_reconstructed": null, "possible_species": null, "has_props": null, "theoretical": null, "database_IDs": null, "fields_not_requested": ["builder_meta", "nsites", "elements", "nelements", "composition", "composition_reduced", "chemsys", "symmetry", "property_name", "deprecated", "deprecation_reasons", "last_updated", "origins", "warnings", "task_ids", "uncorrected_energy_per_atom", "equilibrium_reaction_energy_per_atom", "decomposes_to", "xas", "grain_boundaries", "cbm", "vbm", "is_gap_direct", "is_metal", "es_source_calc_id", "bandstructure", "dos", "dos_energy_up", "dos_energy_down", "is_magnetic", "ordering", "total_magnetization_normalized_vol", "total_magnetization_normalized_formula_units", "num_magnetic_sites", "num_unique_magnetic_sites", "types_of_magnetic_species", "bulk_modulus", "shear_modulus", "universal_anisotropy", "homogeneous_poisson", "e_total", "e_ionic", "e_electronic", "n", "e_ij_max", "weighted_surface_energy_EV_PER_ANG2", "weighted_surface_energy", "weighted_work_function", "surface_anisotropy", "shape_factor", "has_reconstructed", "possible_species", "has_props", "theoretical", "database_IDs"]}