{
  "builder_meta": null,
  "nsites": null,
  "elements": null,
  "nelements": null,
  "composition": null,
  "composition_reduced": null,
  "formula_pretty": "Mg7B",
  "formula_anonymous": "AB7",
  "chemsys": null,
  "volume": 160.83680794580047,
  "density": 1.868153849747233,
  "density_atomic": 20.10460099322506,
  "symmetry": null,
  "property_name": null,
  "material_id": "mp-1016262",
  "deprecated": null,
  "deprecation_reasons": null,
  "last_updated": null,
  "origins": null,
  "warnings": null,
  "structure": {
    "@module": "pymatgen.core.structure",
    "@class": "Structure",
    "charge": 0,
    "lattice": {
      "matrix": [
        [3.083256, -5.340356, 0.0],
        [3.083256, 5.340356, 0.0],
        [0.0, 0.0, 4.884]
      ],
      "pbc": [true, true, true],
      "a": 6.16651196125265,
      "b": 6.16651196125265,
      "c": 4.884,
      "alpha": 90.0,
      "beta": 90.0,
      "gamma": 119.99999958428621,
      "volume": 160.83680794580047
    },
    "properties": {},
    "sites": [
      {
        "species": [{ "element": "Mg", "occu": 1 }],
        "abc": [0.998927999999999, 0.499463999999999, 0.0],
        "properties": { "magmom": 0.0 },
        "label": "Mg",
        "xyz": [4.619926124351994, -2.6673155691840003, 0.0]
      },
      {
        "species": [{ "element": "Mg", "occu": 1 }],
        "abc": [0.500536, 0.499463999999999, 0.0],
        "properties": { "magmom": 0.0 },
        "label": "Mg",
        "xyz": [3.083255999999997, -0.005724861632004696, 0.0]
      },
      {
        "species": [{ "element": "Mg", "occu": 1 }],
        "abc": [0.500536, 0.001072, 0.0],
        "properties": { "magmom": 0.0 },
        "label": "Mg",
        "xyz": [1.5465858756479998, -2.667315569184, 0.0]
      },
      {
        "species": [{ "element": "Mg", "occu": 1 }],
        "abc": [0.159671999999999, 0.319345, 0.5],
        "properties": { "magmom": 0.0 },
        "label": "Mg",
        "xyz": [1.476932039351997, 0.8527106635880052, 2.442]
      },
      {
        "species": [{ "element": "Mg", "occu": 1 }],
        "abc": [0.159671999999999, 0.840328, 0.5],
        "properties": { "magmom": 0.0 },
        "label": "Mg",
        "xyz": [3.083255999999997, 3.6349453535360046, 2.442]
      },
      {
        "species": [{ "element": "Mg", "occu": 1 }],
        "abc": [0.680655, 0.840328, 0.5],
        "properties": { "magmom": 0.0 },
        "label": "Mg",
        "xyz": [4.689579960648, 0.8527106635879993, 2.442]
      },
      {
        "species": [{ "element": "Mg", "occu": 1 }],
        "abc": [0.666667, 0.333333, 0.5],
        "properties": { "magmom": 0.0 },
        "label": "Mg",
        "xyz": [3.083256, -1.780122226904, 2.442]
      },
      {
        "species": [{ "element": "B", "occu": 1 }],
        "abc": [0.0, 0.0, 0.0],
        "properties": { "magmom": -0.0 },
        "label": "B",
        "xyz": [0.0, 0.0, 0.0]
      }
    ]
  },
  "task_ids": null,
  "uncorrected_energy_per_atom": null,
  "energy_per_atom": -4.2175010471875,
  "formation_energy_per_atom": 0.348933864374998,
  "energy_above_hull": 0.38191598812499905,
  "is_stable": false,
  "equilibrium_reaction_energy_per_atom": null,
  "decomposes_to": null,
  "xas": null,
  "grain_boundaries": null,
  "band_gap": 0.0,
  "cbm": null,
  "vbm": null,
  "efermi": 3.80694319,
  "is_gap_direct": null,
  "is_metal": null,
  "es_source_calc_id": null,
  "bandstructure": null,
  "dos": null,
  "dos_energy_up": null,
  "dos_energy_down": null,
  "is_magnetic": null,
  "ordering": null,
  "total_magnetization": 0.0028733,
  "total_magnetization_normalized_vol": null,
  "total_magnetization_normalized_formula_units": null,
  "num_magnetic_sites": null,
  "num_unique_magnetic_sites": null,
  "types_of_magnetic_species": null,
  "bulk_modulus": null,
  "shear_modulus": null,
  "universal_anisotropy": null,
  "homogeneous_poisson": null,
  "e_total": null,
  "e_ionic": null,
  "e_electronic": null,
  "n": null,
  "e_ij_max": null,
  "weighted_surface_energy_EV_PER_ANG2": null,
  "weighted_surface_energy": null,
  "weighted_work_function": null,
  "surface_anisotropy": null,
  "shape_factor": null,
  "has_reconstructed": null,
  "possible_species": null,
  "has_props": null,
  "theoretical": null,
  "database_IDs": null,
  "fields_not_requested": [
    "builder_meta",
    "nsites",
    "elements",
    "nelements",
    "composition",
    "composition_reduced",
    "chemsys",
    "symmetry",
    "property_name",
    "deprecated",
    "deprecation_reasons",
    "last_updated",
    "origins",
    "warnings",
    "task_ids",
    "uncorrected_energy_per_atom",
    "equilibrium_reaction_energy_per_atom",
    "decomposes_to",
    "xas",
    "grain_boundaries",
    "cbm",
    "vbm",
    "is_gap_direct",
    "is_metal",
    "es_source_calc_id",
    "bandstructure",
    "dos",
    "dos_energy_up",
    "dos_energy_down",
    "is_magnetic",
    "ordering",
    "total_magnetization_normalized_vol",
    "total_magnetization_normalized_formula_units",
    "num_magnetic_sites",
    "num_unique_magnetic_sites",
    "types_of_magnetic_species",
    "bulk_modulus",
    "shear_modulus",
    "universal_anisotropy",
    "homogeneous_poisson",
    "e_total",
    "e_ionic",
    "e_electronic",
    "n",
    "e_ij_max",
    "weighted_surface_energy_EV_PER_ANG2",
    "weighted_surface_energy",
    "weighted_work_function",
    "surface_anisotropy",
    "shape_factor",
    "has_reconstructed",
    "possible_species",
    "has_props",
    "theoretical",
    "database_IDs"
  ]
}
