{"builder_meta": null, "nsites": null, "elements": null, "nelements": null, "composition": null, "composition_reduced": null, "formula_pretty": "Mg7Bi", "formula_anonymous": "AB7", "chemsys": null, "volume": 187.5597154725468, "density": 3.356456000498844, "density_atomic": 23.44496443406835, "symmetry": null, "property_name": null, "material_id": "mp-1016327", "deprecated": null, "deprecation_reasons": null, "last_updated": null, "origins": null, "warnings": null, "structure": {"@module": "pymatgen.core.structure", "@class": "Structure", "charge": 0, "lattice": {"matrix": [[3.18021395, -5.50829035, -0.0], [3.18021395, 5.50829035, 0.0], [-0.0, -0.0, 5.3534827400000005]], "pbc": [true, true, true], "a": 6.36042634952074, "b": 6.36042634952074, "c": 5.3534827400000005, "alpha": 90.0, "beta": 90.0, "gamma": 119.99998387232544, "volume": 187.55971547254683}, "properties": {}, "sites": [{"species": [{"element": "Mg", "occu": 1}], "abc": [0.50063355, 0.00126511, 0.5], "properties": {"magmom": -0.0}, "label": "Mg", "xyz": [1.596145120018307, -2.750666359146554, 2.6767413700000002]}, {"species": [{"element": "Mg", "occu": 1}], "abc": [0.99873489, 0.49936645, 0.5], "properties": {"magmom": -0.0}, "label": "Mg", "xyz": [4.764282779981693, -2.750666359146554, 2.6767413700000002]}, {"species": [{"element": "Mg", "occu": 1}], "abc": [0.50063355, 0.49936645, 0.5], "properties": {"magmom": -0.0}, "label": "Mg", "xyz": [3.18021395, -0.0069795547024851246, 2.6767413700000002]}, {"species": [{"element": "Mg", "occu": 1}], "abc": [0.16926491, 0.83073509, 0.0], "properties": {"magmom": -0.0}, "label": "Mg", "xyz": [3.18021395, 3.6435698093067637, 0.0]}, {"species": [{"element": "Mg", "occu": 1}], "abc": [0.66147118, 0.83073509, -0.0], "properties": {"magmom": -0.0}, "label": "Mg", "xyz": [4.745535196131467, 0.9323547620562689, 0.0]}, {"species": [{"element": "Mg", "occu": 1}], "abc": [0.16926491, 0.33852882, -0.0], "properties": {"magmom": -0.0}, "label": "Mg", "xyz": [1.6148927038685335, 0.9323547620562687, 0.0]}, {"species": [{"element": "Mg", "occu": 1}], "abc": [0.666667, 0.333333, 0.0], "properties": {"magmom": 0.0}, "label": "Mg", "xyz": [3.18021395, -1.8361004555269, 0.0]}, {"species": [{"element": "Bi", "occu": 1}], "abc": [0.0, 0.0, 0.5], "properties": {"magmom": 0.0}, "label": "Bi", "xyz": [0.0, 0.0, 2.6767413700000002]}]}, "task_ids": null, "uncorrected_energy_per_atom": null, "energy_per_atom": -1.9129170025, "formation_energy_per_atom": -1.450625000565253e-06, "energy_above_hull": 0.05583165531249801, "is_stable": false, "equilibrium_reaction_energy_per_atom": null, "decomposes_to": null, "xas": null, "grain_boundaries": null, "band_gap": 0.0, "cbm": null, "vbm": null, "efermi": 4.12147589, "is_gap_direct": null, "is_metal": null, "es_source_calc_id": null, "bandstructure": null, "dos": null, "dos_energy_up": null, "dos_energy_down": null, "is_magnetic": null, "ordering": null, "total_magnetization": 1e-07, "total_magnetization_normalized_vol": null, "total_magnetization_normalized_formula_units": null, "num_magnetic_sites": null, "num_unique_magnetic_sites": null, "types_of_magnetic_species": null, "bulk_modulus": null, "shear_modulus": null, "universal_anisotropy": null, "homogeneous_poisson": null, "e_total": null, "e_ionic": null, "e_electronic": null, "n": null, "e_ij_max": null, "weighted_surface_energy_EV_PER_ANG2": null, "weighted_surface_energy": null, "weighted_work_function": null, "surface_anisotropy": null, "shape_factor": null, "has_reconstructed": null, "possible_species": null, "has_props": null, "theoretical": null, "database_IDs": null, "fields_not_requested": ["builder_meta", "nsites", "elements", "nelements", "composition", "composition_reduced", "chemsys", "symmetry", "property_name", "deprecated", "deprecation_reasons", "last_updated", "origins", "warnings", "task_ids", "uncorrected_energy_per_atom", "equilibrium_reaction_energy_per_atom", "decomposes_to", "xas", "grain_boundaries", "cbm", "vbm", "is_gap_direct", "is_metal", "es_source_calc_id", "bandstructure", "dos", "dos_energy_up", "dos_energy_down", "is_magnetic", "ordering", "total_magnetization_normalized_vol", "total_magnetization_normalized_formula_units", "num_magnetic_sites", "num_unique_magnetic_sites", "types_of_magnetic_species", "bulk_modulus", "shear_modulus", "universal_anisotropy", "homogeneous_poisson", "e_total", "e_ionic", "e_electronic", "n", "e_ij_max", "weighted_surface_energy_EV_PER_ANG2", "weighted_surface_energy", "weighted_work_function", "surface_anisotropy", "shape_factor", "has_reconstructed", "possible_species", "has_props", "theoretical", "database_IDs"]}