{
  "builder_meta": null,
  "nsites": null,
  "elements": null,
  "nelements": null,
  "composition": null,
  "composition_reduced": null,
  "formula_pretty": "Mg7Cr",
  "formula_anonymous": "AB7",
  "chemsys": null,
  "volume": 173.84528475271367,
  "density": 2.121756537610511,
  "density_atomic": 21.73066059408921,
  "symmetry": null,
  "property_name": null,
  "material_id": "mp-1016326",
  "deprecated": null,
  "deprecation_reasons": null,
  "last_updated": null,
  "origins": null,
  "warnings": null,
  "structure": {
    "@module": "pymatgen.core.structure",
    "@class": "Structure",
    "charge": 0,
    "lattice": {
      "matrix": [
        [3.145956, -5.448956, 0.0],
        [3.145956, 5.448956, 0.0],
        [0.0, 0.0, 5.070689]
      ],
      "pbc": [true, true, true],
      "a": 6.291912320103642,
      "b": 6.291912320103642,
      "c": 5.070689,
      "alpha": 90.0,
      "beta": 90.0,
      "gamma": 120.00000336589025,
      "volume": 173.84528475271367
    },
    "properties": {},
    "sites": [
      {
        "species": [{ "element": "Mg", "occu": 1 }],
        "abc": [0.832866, 0.665732, 0.5],
        "properties": { "magmom": -0.012 },
        "label": "Mg",
        "xyz": [4.714523369688, -0.9107058121039997, 2.5353445]
      },
      {
        "species": [{ "element": "Mg", "occu": 1 }],
        "abc": [0.334268, 0.167134, 0.5],
        "properties": { "magmom": -0.011 },
        "label": "Mg",
        "xyz": [1.577388630312, -0.910705812104, 2.5353445]
      },
      {
        "species": [{ "element": "Mg", "occu": 1 }],
        "abc": [0.832866, 0.167134, 0.5],
        "properties": { "magmom": -0.011 },
        "label": "Mg",
        "xyz": [3.145956, -3.6275443757919996, 2.5353445]
      },
      {
        "species": [{ "element": "Mg", "occu": 1 }],
        "abc": [0.496695, 0.503305, 0.0],
        "properties": { "magmom": -0.005 },
        "label": "Mg",
        "xyz": [3.145956, 0.036017599160000024, 0.0]
      },
      {
        "species": [{ "element": "Mg", "occu": 1 }],
        "abc": [0.00661, 0.503305, 0.0],
        "properties": { "magmom": -0.006 },
        "label": "Mg",
        "xyz": [1.60417015374, 2.70646920042, 0.0]
      },
      {
        "species": [{ "element": "Mg", "occu": 1 }],
        "abc": [0.496695, 0.9933900000000001, 0.0],
        "properties": { "magmom": -0.006 },
        "label": "Mg",
        "xyz": [4.68774184626, 2.706469200420001, 0.0]
      },
      {
        "species": [{ "element": "Mg", "occu": 1 }],
        "abc": [0.0, 0.0, 0.0],
        "properties": { "magmom": 0.01 },
        "label": "Mg",
        "xyz": [0.0, 0.0, 0.0]
      },
      {
        "species": [{ "element": "Cr", "occu": 1 }],
        "abc": [0.333333, 0.666667, 0.5],
        "properties": { "magmom": 3.735999999999999 },
        "label": "Cr",
        "xyz": [3.145956, 1.816322299304, 2.5353445]
      }
    ]
  },
  "task_ids": null,
  "uncorrected_energy_per_atom": null,
  "energy_per_atom": -2.4697425275000002,
  "formation_energy_per_atom": 0.163549669374999,
  "energy_above_hull": 0.163549669374999,
  "is_stable": false,
  "equilibrium_reaction_energy_per_atom": null,
  "decomposes_to": null,
  "xas": null,
  "grain_boundaries": null,
  "band_gap": 0.0,
  "cbm": null,
  "vbm": null,
  "efermi": 3.56442294,
  "is_gap_direct": null,
  "is_metal": null,
  "es_source_calc_id": null,
  "bandstructure": null,
  "dos": null,
  "dos_energy_up": null,
  "dos_energy_down": null,
  "is_magnetic": null,
  "ordering": null,
  "total_magnetization": 4.2728016,
  "total_magnetization_normalized_vol": null,
  "total_magnetization_normalized_formula_units": null,
  "num_magnetic_sites": null,
  "num_unique_magnetic_sites": null,
  "types_of_magnetic_species": null,
  "bulk_modulus": null,
  "shear_modulus": null,
  "universal_anisotropy": null,
  "homogeneous_poisson": null,
  "e_total": null,
  "e_ionic": null,
  "e_electronic": null,
  "n": null,
  "e_ij_max": null,
  "weighted_surface_energy_EV_PER_ANG2": null,
  "weighted_surface_energy": null,
  "weighted_work_function": null,
  "surface_anisotropy": null,
  "shape_factor": null,
  "has_reconstructed": null,
  "possible_species": null,
  "has_props": null,
  "theoretical": null,
  "database_IDs": null,
  "fields_not_requested": [
    "builder_meta",
    "nsites",
    "elements",
    "nelements",
    "composition",
    "composition_reduced",
    "chemsys",
    "symmetry",
    "property_name",
    "deprecated",
    "deprecation_reasons",
    "last_updated",
    "origins",
    "warnings",
    "task_ids",
    "uncorrected_energy_per_atom",
    "equilibrium_reaction_energy_per_atom",
    "decomposes_to",
    "xas",
    "grain_boundaries",
    "cbm",
    "vbm",
    "is_gap_direct",
    "is_metal",
    "es_source_calc_id",
    "bandstructure",
    "dos",
    "dos_energy_up",
    "dos_energy_down",
    "is_magnetic",
    "ordering",
    "total_magnetization_normalized_vol",
    "total_magnetization_normalized_formula_units",
    "num_magnetic_sites",
    "num_unique_magnetic_sites",
    "types_of_magnetic_species",
    "bulk_modulus",
    "shear_modulus",
    "universal_anisotropy",
    "homogeneous_poisson",
    "e_total",
    "e_ionic",
    "e_electronic",
    "n",
    "e_ij_max",
    "weighted_surface_energy_EV_PER_ANG2",
    "weighted_surface_energy",
    "weighted_work_function",
    "surface_anisotropy",
    "shape_factor",
    "has_reconstructed",
    "possible_species",
    "has_props",
    "theoretical",
    "database_IDs"
  ]
}
