{"builder_meta": null, "nsites": null, "elements": null, "nelements": null, "composition": null, "composition_reduced": null, "formula_pretty": "Mg7Co", "formula_anonymous": "AB7", "chemsys": null, "volume": 161.24626540225157, "density": 2.358979823589361, "density_atomic": 20.155783175281446, "symmetry": null, "property_name": null, "material_id": "mp-1016310", "deprecated": null, "deprecation_reasons": null, "last_updated": null, "origins": null, "warnings": null, "structure": {"@module": "pymatgen.core.structure", "@class": "Structure", "charge": 0, "lattice": {"matrix": [[3.08064, -5.335825, 0.0], [3.08064, 5.335825, 0.0], [0.0, 0.0, 4.9047529999999995]], "pbc": [true, true, true], "a": 6.1612800001481025, "b": 6.1612800001481025, "c": 4.9047529999999995, "alpha": 90.0, "beta": 90.0, "gamma": 120.00000000159031, "volume": 161.24626540225154}, "properties": {}, "sites": [{"species": [{"element": "Mg", "occu": 1}], "abc": [0.000531, 0.500266, 0.5], "properties": {"magmom": -0.002}, "label": "Mg", "xyz": [1.54277527008, 2.666498506375, 2.4523764999999997]}, {"species": [{"element": "Mg", "occu": 1}], "abc": [0.499733999999999, 0.500266, 0.5], "properties": {"magmom": -0.003}, "label": "Mg", "xyz": [3.080639999999997, 0.002838658900005342, 2.4523764999999997]}, {"species": [{"element": "Mg", "occu": 1}], "abc": [0.499733999999999, 0.999468999999999, 0.5], "properties": {"magmom": -0.004}, "label": "Mg", "xyz": [4.618504729919994, 2.6664985063750004, 2.4523764999999997]}, {"species": [{"element": "Mg", "occu": 1}], "abc": [0.15631899999999901, 0.312637, 0.0], "properties": {"magmom": -0.005}, "label": "Mg", "xyz": [1.444684611839997, 0.8340854923500053, 0.0]}, {"species": [{"element": "Mg", "occu": 1}], "abc": [0.15631899999999901, 0.843681, 0.0], "properties": {"magmom": -0.006}, "label": "Mg", "xyz": [3.0806399999999967, 3.6676433436500058, 0.0]}, {"species": [{"element": "Mg", "occu": 1}], "abc": [0.687363, 0.843681, 0.0], "properties": {"magmom": -0.003}, "label": "Mg", "xyz": [4.71659538816, 0.8340854923500007, 0.0]}, {"species": [{"element": "Mg", "occu": 1}], "abc": [0.666667, 0.333333, 0.0], "properties": {"magmom": 0.007}, "label": "Mg", "xyz": [3.08064, -1.77861189055, 0.0]}, {"species": [{"element": "Co", "occu": 1}], "abc": [0.0, 0.0, 0.5], "properties": {"magmom": 1.212}, "label": "Co", "xyz": [0.0, 0.0, 2.4523764999999997]}]}, "task_ids": null, "uncorrected_energy_per_atom": null, "energy_per_atom": -5.1780823646875, "formation_energy_per_atom": 0.12433716343749901, "energy_above_hull": 0.12433716343749901, "is_stable": false, "equilibrium_reaction_energy_per_atom": null, "decomposes_to": null, "xas": null, "grain_boundaries": null, "band_gap": 0.0, "cbm": null, "vbm": null, "efermi": 3.73802917, "is_gap_direct": null, "is_metal": null, "es_source_calc_id": null, "bandstructure": null, "dos": null, "dos_energy_up": null, "dos_energy_down": null, "is_magnetic": null, "ordering": null, "total_magnetization": 1.1231734, "total_magnetization_normalized_vol": null, "total_magnetization_normalized_formula_units": null, "num_magnetic_sites": null, "num_unique_magnetic_sites": null, "types_of_magnetic_species": null, "bulk_modulus": null, "shear_modulus": null, "universal_anisotropy": null, "homogeneous_poisson": null, "e_total": null, "e_ionic": null, "e_electronic": null, "n": null, "e_ij_max": null, "weighted_surface_energy_EV_PER_ANG2": null, "weighted_surface_energy": null, "weighted_work_function": null, "surface_anisotropy": null, "shape_factor": null, "has_reconstructed": null, "possible_species": null, "has_props": null, "theoretical": null, "database_IDs": null, "fields_not_requested": ["builder_meta", "nsites", "elements", "nelements", "composition", "composition_reduced", "chemsys", "symmetry", "property_name", "deprecated", "deprecation_reasons", "last_updated", "origins", "warnings", "task_ids", "uncorrected_energy_per_atom", "equilibrium_reaction_energy_per_atom", "decomposes_to", "xas", "grain_boundaries", "cbm", "vbm", "is_gap_direct", "is_metal", "es_source_calc_id", "bandstructure", "dos", "dos_energy_up", "dos_energy_down", "is_magnetic", "ordering", "total_magnetization_normalized_vol", "total_magnetization_normalized_formula_units", "num_magnetic_sites", "num_unique_magnetic_sites", "types_of_magnetic_species", "bulk_modulus", "shear_modulus", "universal_anisotropy", "homogeneous_poisson", "e_total", "e_ionic", "e_electronic", "n", "e_ij_max", "weighted_surface_energy_EV_PER_ANG2", "weighted_surface_energy", "weighted_work_function", "surface_anisotropy", "shape_factor", "has_reconstructed", "possible_species", "has_props", "theoretical", "database_IDs"]}