{"builder_meta": null, "nsites": null, "elements": null, "nelements": null, "composition": null, "composition_reduced": null, "formula_pretty": "Mg7Ga", "formula_anonymous": "AB7", "chemsys": null, "volume": 171.0328235844312, "density": 2.32875521253336, "density_atomic": 21.3791029480539, "symmetry": null, "property_name": null, "material_id": "mp-1016252", "deprecated": null, "deprecation_reasons": null, "last_updated": null, "origins": null, "warnings": null, "structure": {"@module": "pymatgen.core.structure", "@class": "Structure", "charge": 0, "lattice": {"matrix": [[3.12876914, -5.41918702, 0.0], [3.12876914, 5.41918702, 0.0], [-0.0, 0.0, 5.04361365]], "pbc": [true, true, true], "a": 6.257538197178889, "b": 6.257538197178889, "c": 5.04361365, "alpha": 90.0, "beta": 90.0, "gamma": 119.99999912435203, "volume": 171.0328235844312}, "properties": {}, "sites": [{"species": [{"element": "Mg", "occu": 1}], "abc": [0.8334607900000001, 0.66692058, 0.0], "properties": {"magmom": -0.0}, "label": "Mg", "xyz": [4.694346928686922, -0.9025125443400746, 0.0]}, {"species": [{"element": "Mg", "occu": 1}], "abc": [0.33307942, 0.16653921, 0.0], "properties": {"magmom": -0.0}, "label": "Mg", "xyz": [1.5631913513130784, -0.9025125443400743, 0.0]}, {"species": [{"element": "Mg", "occu": 1}], "abc": [0.8334607900000001, 0.16653921, -0.0], "properties": {"magmom": -0.0}, "label": "Mg", "xyz": [3.1287691400000006, -3.6141727696938917, 0.0]}, {"species": [{"element": "Mg", "occu": 1}], "abc": [0.49867874, 0.50132126, 0.5], "properties": {"magmom": 0.0}, "label": "Mg", "xyz": [3.12876914, 0.014320310084090515, 2.521806825]}, {"species": [{"element": "Mg", "occu": 1}], "abc": [0.0026435300000000003, 0.50132126, 0.5], "properties": {"magmom": 0.0}, "label": "Mg", "xyz": [1.5767894825985806, 2.7024278815790646, 2.521806825]}, {"species": [{"element": "Mg", "occu": 1}], "abc": [0.49867874, 0.99735647, 0.5], "properties": {"magmom": 0.0}, "label": "Mg", "xyz": [4.68074879740142, 2.702427881579065, 2.521806825]}, {"species": [{"element": "Mg", "occu": 1}], "abc": [0.0, -0.0, 0.5], "properties": {"magmom": -0.0}, "label": "Mg", "xyz": [0.0, 0.0, 2.521806825]}, {"species": [{"element": "Ga", "occu": 1}], "abc": [0.333333, 0.666667, 0.0], "properties": {"magmom": 0.0}, "label": "Ga", "xyz": [3.12876914, 1.8063992861246803, 0.0]}]}, "task_ids": null, "uncorrected_energy_per_atom": null, "energy_per_atom": -1.806792074999999, "formation_energy_per_atom": -0.001618809062499, "energy_above_hull": 0.04527670625000001, "is_stable": false, "equilibrium_reaction_energy_per_atom": null, "decomposes_to": null, "xas": null, "grain_boundaries": null, "band_gap": 0.0, "cbm": null, "vbm": null, "efermi": 3.567357529999999, "is_gap_direct": null, "is_metal": null, "es_source_calc_id": null, "bandstructure": null, "dos": null, "dos_energy_up": null, "dos_energy_down": null, "is_magnetic": null, "ordering": null, "total_magnetization": 0.0, "total_magnetization_normalized_vol": null, "total_magnetization_normalized_formula_units": null, "num_magnetic_sites": null, "num_unique_magnetic_sites": null, "types_of_magnetic_species": null, "bulk_modulus": null, "shear_modulus": null, "universal_anisotropy": null, "homogeneous_poisson": null, "e_total": null, "e_ionic": null, "e_electronic": null, "n": null, "e_ij_max": null, "weighted_surface_energy_EV_PER_ANG2": null, "weighted_surface_energy": null, "weighted_work_function": null, "surface_anisotropy": null, "shape_factor": null, "has_reconstructed": null, "possible_species": null, "has_props": null, "theoretical": null, "database_IDs": null, "fields_not_requested": ["builder_meta", "nsites", "elements", "nelements", "composition", "composition_reduced", "chemsys", "symmetry", "property_name", "deprecated", "deprecation_reasons", "last_updated", "origins", "warnings", "task_ids", "uncorrected_energy_per_atom", "equilibrium_reaction_energy_per_atom", "decomposes_to", "xas", "grain_boundaries", "cbm", "vbm", "is_gap_direct", "is_metal", "es_source_calc_id", "bandstructure", "dos", "dos_energy_up", "dos_energy_down", "is_magnetic", "ordering", "total_magnetization_normalized_vol", "total_magnetization_normalized_formula_units", "num_magnetic_sites", "num_unique_magnetic_sites", "types_of_magnetic_species", "bulk_modulus", "shear_modulus", "universal_anisotropy", "homogeneous_poisson", "e_total", "e_ionic", "e_electronic", "n", "e_ij_max", "weighted_surface_energy_EV_PER_ANG2", "weighted_surface_energy", "weighted_work_function", "surface_anisotropy", "shape_factor", "has_reconstructed", "possible_species", "has_props", "theoretical", "database_IDs"]}