{"builder_meta": null, "nsites": null, "elements": null, "nelements": null, "composition": null, "composition_reduced": null, "formula_pretty": "Mg7Mn", "formula_anonymous": "AB7", "chemsys": null, "volume": 161.38906792382713, "density": 2.315786247910669, "density_atomic": 20.17363349047839, "symmetry": null, "property_name": null, "material_id": "mp-1016282", "deprecated": null, "deprecation_reasons": null, "last_updated": null, "origins": null, "warnings": null, "structure": {"@module": "pymatgen.core.structure", "@class": "Structure", "charge": 0, "lattice": {"matrix": [[3.081603, -5.337493, 0.0], [3.081603, 5.337493, 0.0], [0.0, 0.0, 4.906029]], "pbc": [true, true, true], "a": 6.163206030521615, "b": 6.163206030521615, "c": 4.906029, "alpha": 90.0, "beta": 90.0, "gamma": 120.00000032763691, "volume": 161.38906792382713}, "properties": {}, "sites": [{"species": [{"element": "Mg", "occu": 1}], "abc": [0.832498, 0.664997, 0.5], "properties": {"magmom": -0.018000000000000002}, "label": "Mg", "xyz": [4.614685084485, -0.8940354149930001, 2.4530145]}, {"species": [{"element": "Mg", "occu": 1}], "abc": [0.335003, 0.167501999999999, 0.5], "properties": {"magmom": -0.015}, "label": "Mg", "xyz": [1.5485209155149968, -0.8940354149930052, 2.4530145]}, {"species": [{"element": "Mg", "occu": 1}], "abc": [0.832498, 0.167501999999999, 0.5], "properties": {"magmom": -0.019}, "label": "Mg", "xyz": [3.0816029999999968, -3.5494114950280053, 2.4530145]}, {"species": [{"element": "Mg", "occu": 1}], "abc": [0.489795, 0.510205, 0.0], "properties": {"magmom": -0.016}, "label": "Mg", "xyz": [3.081603, 0.10893823212999987, 0.0]}, {"species": [{"element": "Mg", "occu": 1}], "abc": [0.020411, 0.510205, 0.0], "properties": {"magmom": -0.011}, "label": "Mg", "xyz": [1.635147857448, 2.614272046442, 0.0]}, {"species": [{"element": "Mg", "occu": 1}], "abc": [0.489795, 0.979588999999999, 0.0], "properties": {"magmom": -0.014}, "label": "Mg", "xyz": [4.528058142551997, 2.6142720464419953, 0.0]}, {"species": [{"element": "Mg", "occu": 1}], "abc": [0.0, 0.0, 0.0], "properties": {"magmom": 0.012}, "label": "Mg", "xyz": [0.0, 0.0, 0.0]}, {"species": [{"element": "Mn", "occu": 1}], "abc": [0.333333, 0.666667, 0.5], "properties": {"magmom": 3.583}, "label": "Mn", "xyz": [3.081603, 1.7791678916620004, 2.4530145]}]}, "task_ids": null, "uncorrected_energy_per_atom": null, "energy_per_atom": -2.43085234, "formation_energy_per_atom": 0.14106083463362, "energy_above_hull": 0.14106083463362, "is_stable": false, "equilibrium_reaction_energy_per_atom": null, "decomposes_to": null, "xas": null, "grain_boundaries": null, "band_gap": 0.0, "cbm": null, "vbm": null, "efermi": 3.96706617, "is_gap_direct": null, "is_metal": null, "es_source_calc_id": null, "bandstructure": null, "dos": null, "dos_energy_up": null, "dos_energy_down": null, "is_magnetic": null, "ordering": null, "total_magnetization": 3.5332855, "total_magnetization_normalized_vol": null, "total_magnetization_normalized_formula_units": null, "num_magnetic_sites": null, "num_unique_magnetic_sites": null, "types_of_magnetic_species": null, "bulk_modulus": null, "shear_modulus": null, "universal_anisotropy": null, "homogeneous_poisson": null, "e_total": null, "e_ionic": null, "e_electronic": null, "n": null, "e_ij_max": null, "weighted_surface_energy_EV_PER_ANG2": null, "weighted_surface_energy": null, "weighted_work_function": null, "surface_anisotropy": null, "shape_factor": null, "has_reconstructed": null, "possible_species": null, "has_props": null, "theoretical": null, "database_IDs": null, "fields_not_requested": ["builder_meta", "nsites", "elements", "nelements", "composition", "composition_reduced", "chemsys", "symmetry", "property_name", "deprecated", "deprecation_reasons", "last_updated", "origins", "warnings", "task_ids", "uncorrected_energy_per_atom", "equilibrium_reaction_energy_per_atom", "decomposes_to", "xas", "grain_boundaries", "cbm", "vbm", "is_gap_direct", "is_metal", "es_source_calc_id", "bandstructure", "dos", "dos_energy_up", "dos_energy_down", "is_magnetic", "ordering", "total_magnetization_normalized_vol", "total_magnetization_normalized_formula_units", "num_magnetic_sites", "num_unique_magnetic_sites", "types_of_magnetic_species", "bulk_modulus", "shear_modulus", "universal_anisotropy", "homogeneous_poisson", "e_total", "e_ionic", "e_electronic", "n", "e_ij_max", "weighted_surface_energy_EV_PER_ANG2", "weighted_surface_energy", "weighted_work_function", "surface_anisotropy", "shape_factor", "has_reconstructed", "possible_species", "has_props", "theoretical", "database_IDs"]}