{"builder_meta": null, "nsites": null, "elements": null, "nelements": null, "composition": null, "composition_reduced": null, "formula_pretty": "Mg7Mo", "formula_anonymous": "AB7", "chemsys": null, "volume": 165.19790319705353, "density": 2.6745371678148233, "density_atomic": 20.649737899631692, "symmetry": null, "property_name": null, "material_id": "mp-1016281", "deprecated": null, "deprecation_reasons": null, "last_updated": null, "origins": null, "warnings": null, "structure": {"@module": "pymatgen.core.structure", "@class": "Structure", "charge": 0, "lattice": {"matrix": [[3.108864, -5.384711, 0.0], [3.108864, 5.384711, 0.0], [0.0, 0.0, 4.934128]], "pbc": [true, true, true], "a": 6.217728518037516, "b": 6.217728518037516, "c": 4.934128, "alpha": 90.0, "beta": 90.0, "gamma": 120.0000055121554, "volume": 165.19790319705353}, "properties": {}, "sites": [{"species": [{"element": "Mg", "occu": 1}], "abc": [0.834506, 0.669011, 0.0], "properties": {"magmom": -0.005}, "label": "Mg", "xyz": [4.674229874688, -0.8911427469449995, 0.0]}, {"species": [{"element": "Mg", "occu": 1}], "abc": [0.834506, 0.165494, 0.0], "properties": {"magmom": -0.006}, "label": "Mg", "xyz": [3.1088639999999996, -3.6024362755319994, 0.0]}, {"species": [{"element": "Mg", "occu": 1}], "abc": [0.330989, 0.165494, 0.0], "properties": {"magmom": -0.005}, "label": "Mg", "xyz": [1.543498125312, -0.8911427469449998, 0.0]}, {"species": [{"element": "Mg", "occu": 1}], "abc": [0.648552999999999, 0.824276, 0.5], "properties": {"magmom": -0.001}, "label": "Mg", "xyz": [4.578825056255997, 0.9462175710530052, 2.467064]}, {"species": [{"element": "Mg", "occu": 1}], "abc": [0.175724, 0.824276, 0.5], "properties": {"magmom": -0.003}, "label": "Mg", "xyz": [3.108864, 3.492265088472, 2.467064]}, {"species": [{"element": "Mg", "occu": 1}], "abc": [0.175724, 0.351447, 0.5], "properties": {"magmom": -0.003}, "label": "Mg", "xyz": [1.6389029437440001, 0.9462175710530002, 2.467064]}, {"species": [{"element": "Mg", "occu": 1}], "abc": [0.666667, 0.333333, 0.5], "properties": {"magmom": 0.004}, "label": "Mg", "xyz": [3.108864, -1.7949072564740003, 2.467064]}, {"species": [{"element": "Mo", "occu": 1}], "abc": [0.333333, 0.666667, 0.0], "properties": {"magmom": 0.55}, "label": "Mo", "xyz": [3.108864, 1.7949072564740003, 0.0]}]}, "task_ids": null, "uncorrected_energy_per_atom": null, "energy_per_atom": -2.5487962250000002, "formation_energy_per_atom": 0.23357130187500003, "energy_above_hull": 0.23357130187500003, "is_stable": false, "equilibrium_reaction_energy_per_atom": null, "decomposes_to": null, "xas": null, "grain_boundaries": null, "band_gap": 0.0, "cbm": null, "vbm": null, "efermi": 4.01946202, "is_gap_direct": null, "is_metal": null, "es_source_calc_id": null, "bandstructure": null, "dos": null, "dos_energy_up": null, "dos_energy_down": null, "is_magnetic": null, "ordering": null, "total_magnetization": 0.5761632, "total_magnetization_normalized_vol": null, "total_magnetization_normalized_formula_units": null, "num_magnetic_sites": null, "num_unique_magnetic_sites": null, "types_of_magnetic_species": null, "bulk_modulus": null, "shear_modulus": null, "universal_anisotropy": null, "homogeneous_poisson": null, "e_total": null, "e_ionic": null, "e_electronic": null, "n": null, "e_ij_max": null, "weighted_surface_energy_EV_PER_ANG2": null, "weighted_surface_energy": null, "weighted_work_function": null, "surface_anisotropy": null, "shape_factor": null, "has_reconstructed": null, "possible_species": null, "has_props": null, "theoretical": null, "database_IDs": null, "fields_not_requested": ["builder_meta", "nsites", "elements", "nelements", "composition", "composition_reduced", "chemsys", "symmetry", "property_name", "deprecated", "deprecation_reasons", "last_updated", "origins", "warnings", "task_ids", "uncorrected_energy_per_atom", "equilibrium_reaction_energy_per_atom", "decomposes_to", "xas", "grain_boundaries", "cbm", "vbm", "is_gap_direct", "is_metal", "es_source_calc_id", "bandstructure", "dos", "dos_energy_up", "dos_energy_down", "is_magnetic", "ordering", "total_magnetization_normalized_vol", "total_magnetization_normalized_formula_units", "num_magnetic_sites", "num_unique_magnetic_sites", "types_of_magnetic_species", "bulk_modulus", "shear_modulus", "universal_anisotropy", "homogeneous_poisson", "e_total", "e_ionic", "e_electronic", "n", "e_ij_max", "weighted_surface_energy_EV_PER_ANG2", "weighted_surface_energy", "weighted_work_function", "surface_anisotropy", "shape_factor", "has_reconstructed", "possible_species", "has_props", "theoretical", "database_IDs"]}