{
  "builder_meta": null,
  "nsites": null,
  "elements": null,
  "nelements": null,
  "composition": null,
  "composition_reduced": null,
  "formula_pretty": "Mg7Ni",
  "formula_anonymous": "AB7",
  "chemsys": null,
  "volume": 157.8508460666375,
  "density": 2.407199626837359,
  "density_atomic": 19.731355758329688,
  "symmetry": null,
  "property_name": null,
  "material_id": "mp-1016301",
  "deprecated": null,
  "deprecation_reasons": null,
  "last_updated": null,
  "origins": null,
  "warnings": null,
  "structure": {
    "@module": "pymatgen.core.structure",
    "@class": "Structure",
    "charge": 0.0,
    "lattice": {
      "matrix": [
        [3.05657298, -5.29414021, -0.0],
        [3.05657298, 5.29414021, -0.0],
        [0.0, -0.0, 4.87738131]
      ],
      "pbc": [true, true, true],
      "a": 6.113146403056688,
      "b": 6.113146403056688,
      "c": 4.87738131,
      "alpha": 90.0,
      "beta": 90.0,
      "gamma": 120.00000479497665,
      "volume": 157.8508460666375
    },
    "properties": {},
    "sites": [
      {
        "species": [{ "element": "Mg", "occu": 1 }],
        "abc": [0.16690935, 0.33381869000000003, -0.0],
        "properties": { "magmom": -0.0 },
        "label": "Mg",
        "xyz": [1.5305117973923592, 0.8836414483185616, 0.0]
      },
      {
        "species": [{ "element": "Mg", "occu": 1 }],
        "abc": [0.66618131, 0.83309065, 0.0],
        "properties": { "magmom": -0.0 },
        "label": "Mg",
        "xyz": [4.582634162607641, 0.8836414483185617, 0.0]
      },
      {
        "species": [{ "element": "Mg", "occu": 1 }],
        "abc": [0.16690935, 0.83309065, 0.0],
        "properties": { "magmom": -0.0 },
        "label": "Mg",
        "xyz": [3.05657298, 3.5268572074800733, 0.0]
      },
      {
        "species": [{ "element": "Mg", "occu": 1 }],
        "abc": [0.825363699999999, 0.1746363, 0.5],
        "properties": { "magmom": 0.0 },
        "label": "Mg",
        "xyz": [3.0565729799999968, -3.445042094088749, 2.438690655]
      },
      {
        "species": [{ "element": "Mg", "occu": 1 }],
        "abc": [0.34927161, 0.1746363, 0.5],
        "properties": { "magmom": 0.0 },
        "label": "Mg",
        "xyz": [1.6013627617142718, -0.9245438167568152, 2.438690655]
      },
      {
        "species": [{ "element": "Mg", "occu": 1 }],
        "abc": [0.825363699999999, 0.65072839, 0.5],
        "properties": { "magmom": 0.0 },
        "label": "Mg",
        "xyz": [4.511783198285725, -0.9245438167568101, 2.438690655]
      },
      {
        "species": [{ "element": "Mg", "occu": 1 }],
        "abc": [0.333333, 0.666667, 0.5],
        "properties": { "magmom": -0.0 },
        "label": "Mg",
        "xyz": [3.0565729799999994, 1.7647169327601402, 2.438690655]
      },
      {
        "species": [{ "element": "Ni", "occu": 1 }],
        "abc": [0.666667, 0.333333, -0.0],
        "properties": { "magmom": -0.0 },
        "label": "Ni",
        "xyz": [3.0565729799999994, -1.7647169327601402, 0.0]
      }
    ]
  },
  "task_ids": null,
  "uncorrected_energy_per_atom": null,
  "energy_per_atom": -2.0948678225,
  "formation_energy_per_atom": 0.054310525625,
  "energy_above_hull": 0.111698149791667,
  "is_stable": false,
  "equilibrium_reaction_energy_per_atom": null,
  "decomposes_to": null,
  "xas": null,
  "grain_boundaries": null,
  "band_gap": 0.0,
  "cbm": null,
  "vbm": null,
  "efermi": 3.88895269,
  "is_gap_direct": null,
  "is_metal": null,
  "es_source_calc_id": null,
  "bandstructure": null,
  "dos": null,
  "dos_energy_up": null,
  "dos_energy_down": null,
  "is_magnetic": null,
  "ordering": null,
  "total_magnetization": 2.6800000000000004e-5,
  "total_magnetization_normalized_vol": null,
  "total_magnetization_normalized_formula_units": null,
  "num_magnetic_sites": null,
  "num_unique_magnetic_sites": null,
  "types_of_magnetic_species": null,
  "bulk_modulus": null,
  "shear_modulus": null,
  "universal_anisotropy": null,
  "homogeneous_poisson": null,
  "e_total": null,
  "e_ionic": null,
  "e_electronic": null,
  "n": null,
  "e_ij_max": null,
  "weighted_surface_energy_EV_PER_ANG2": null,
  "weighted_surface_energy": null,
  "weighted_work_function": null,
  "surface_anisotropy": null,
  "shape_factor": null,
  "has_reconstructed": null,
  "possible_species": null,
  "has_props": null,
  "theoretical": null,
  "database_IDs": null,
  "fields_not_requested": [
    "builder_meta",
    "nsites",
    "elements",
    "nelements",
    "composition",
    "composition_reduced",
    "chemsys",
    "symmetry",
    "property_name",
    "deprecated",
    "deprecation_reasons",
    "last_updated",
    "origins",
    "warnings",
    "task_ids",
    "uncorrected_energy_per_atom",
    "equilibrium_reaction_energy_per_atom",
    "decomposes_to",
    "xas",
    "grain_boundaries",
    "cbm",
    "vbm",
    "is_gap_direct",
    "is_metal",
    "es_source_calc_id",
    "bandstructure",
    "dos",
    "dos_energy_up",
    "dos_energy_down",
    "is_magnetic",
    "ordering",
    "total_magnetization_normalized_vol",
    "total_magnetization_normalized_formula_units",
    "num_magnetic_sites",
    "num_unique_magnetic_sites",
    "types_of_magnetic_species",
    "bulk_modulus",
    "shear_modulus",
    "universal_anisotropy",
    "homogeneous_poisson",
    "e_total",
    "e_ionic",
    "e_electronic",
    "n",
    "e_ij_max",
    "weighted_surface_energy_EV_PER_ANG2",
    "weighted_surface_energy",
    "weighted_work_function",
    "surface_anisotropy",
    "shape_factor",
    "has_reconstructed",
    "possible_species",
    "has_props",
    "theoretical",
    "database_IDs"
  ]
}
