{
  "builder_meta": null,
  "nsites": null,
  "elements": null,
  "nelements": null,
  "composition": null,
  "composition_reduced": null,
  "formula_pretty": "Mg7Sb",
  "formula_anonymous": "AB7",
  "chemsys": null,
  "volume": 184.50446350046033,
  "density": 2.627053251988116,
  "density_atomic": 23.06305793755754,
  "symmetry": null,
  "property_name": null,
  "material_id": "mp-1016270",
  "deprecated": null,
  "deprecation_reasons": null,
  "last_updated": null,
  "origins": null,
  "warnings": null,
  "structure": {
    "@module": "pymatgen.core.structure",
    "@class": "Structure",
    "charge": 0,
    "lattice": {
      "matrix": [
        [3.164166, -5.480495, 0.0],
        [3.164166, 5.480495, 0.0],
        [0.0, 0.0, 5.319831]
      ],
      "pbc": [true, true, true],
      "a": 6.328330895313629,
      "b": 6.328330895313629,
      "c": 5.319831,
      "alpha": 90.0,
      "beta": 90.0,
      "gamma": 119.99998845106785,
      "volume": 184.50446350046033
    },
    "properties": {},
    "sites": [
      {
        "species": [{ "element": "Mg", "occu": 1 }],
        "abc": [0.833818, 0.667636999999999, 0.5],
        "properties": { "magmom": -0.0 },
        "label": "Mg",
        "xyz": [4.750852861529996, -0.9107541395950052, 2.6599155]
      },
      {
        "species": [{ "element": "Mg", "occu": 1 }],
        "abc": [0.332362999999999, 0.166182, 0.5],
        "properties": { "magmom": -0.0 },
        "label": "Mg",
        "xyz": [1.5774791384699969, -0.9107541395949948, 2.6599155]
      },
      {
        "species": [{ "element": "Mg", "occu": 1 }],
        "abc": [0.833818, 0.166182, 0.5],
        "properties": { "magmom": -0.0 },
        "label": "Mg",
        "xyz": [3.164166, -3.65897575982, 2.6599155]
      },
      {
        "species": [{ "element": "Mg", "occu": 1 }],
        "abc": [0.500703, 0.499297, 0.0],
        "properties": { "magmom": -0.0 },
        "label": "Mg",
        "xyz": [3.164166, -0.007705575970000211, 0.0]
      },
      {
        "species": [{ "element": "Mg", "occu": 1 }],
        "abc": [0.9985949999999991, 0.499297, 0.0],
        "properties": { "magmom": -0.0 },
        "label": "Mg",
        "xyz": [4.739578938071997, -2.7364001925099957, 0.0]
      },
      {
        "species": [{ "element": "Mg", "occu": 1 }],
        "abc": [0.500703, 0.001405, 0.0],
        "properties": { "magmom": -0.0 },
        "label": "Mg",
        "xyz": [1.588753061928, -2.73640019251, 0.0]
      },
      {
        "species": [{ "element": "Mg", "occu": 1 }],
        "abc": [0.0, 0.0, 0.0],
        "properties": { "magmom": -0.0 },
        "label": "Mg",
        "xyz": [0.0, 0.0, 0.0]
      },
      {
        "species": [{ "element": "Sb", "occu": 1 }],
        "abc": [0.333333, 0.666667, 0.5],
        "properties": { "magmom": -0.0 },
        "label": "Sb",
        "xyz": [3.164166, 1.82683532033, 2.6599155]
      }
    ]
  },
  "task_ids": null,
  "uncorrected_energy_per_atom": null,
  "energy_per_atom": -1.9982714925,
  "formation_energy_per_atom": -0.055485074374999006,
  "energy_above_hull": 0.078305969140625,
  "is_stable": false,
  "equilibrium_reaction_energy_per_atom": null,
  "decomposes_to": null,
  "xas": null,
  "grain_boundaries": null,
  "band_gap": 0.0,
  "cbm": null,
  "vbm": null,
  "efermi": 4.37457159,
  "is_gap_direct": null,
  "is_metal": null,
  "es_source_calc_id": null,
  "bandstructure": null,
  "dos": null,
  "dos_energy_up": null,
  "dos_energy_down": null,
  "is_magnetic": null,
  "ordering": null,
  "total_magnetization": 0.0011556,
  "total_magnetization_normalized_vol": null,
  "total_magnetization_normalized_formula_units": null,
  "num_magnetic_sites": null,
  "num_unique_magnetic_sites": null,
  "types_of_magnetic_species": null,
  "bulk_modulus": null,
  "shear_modulus": null,
  "universal_anisotropy": null,
  "homogeneous_poisson": null,
  "e_total": null,
  "e_ionic": null,
  "e_electronic": null,
  "n": null,
  "e_ij_max": null,
  "weighted_surface_energy_EV_PER_ANG2": null,
  "weighted_surface_energy": null,
  "weighted_work_function": null,
  "surface_anisotropy": null,
  "shape_factor": null,
  "has_reconstructed": null,
  "possible_species": null,
  "has_props": null,
  "theoretical": null,
  "database_IDs": null,
  "fields_not_requested": [
    "builder_meta",
    "nsites",
    "elements",
    "nelements",
    "composition",
    "composition_reduced",
    "chemsys",
    "symmetry",
    "property_name",
    "deprecated",
    "deprecation_reasons",
    "last_updated",
    "origins",
    "warnings",
    "task_ids",
    "uncorrected_energy_per_atom",
    "equilibrium_reaction_energy_per_atom",
    "decomposes_to",
    "xas",
    "grain_boundaries",
    "cbm",
    "vbm",
    "is_gap_direct",
    "is_metal",
    "es_source_calc_id",
    "bandstructure",
    "dos",
    "dos_energy_up",
    "dos_energy_down",
    "is_magnetic",
    "ordering",
    "total_magnetization_normalized_vol",
    "total_magnetization_normalized_formula_units",
    "num_magnetic_sites",
    "num_unique_magnetic_sites",
    "types_of_magnetic_species",
    "bulk_modulus",
    "shear_modulus",
    "universal_anisotropy",
    "homogeneous_poisson",
    "e_total",
    "e_ionic",
    "e_electronic",
    "n",
    "e_ij_max",
    "weighted_surface_energy_EV_PER_ANG2",
    "weighted_surface_energy",
    "weighted_work_function",
    "surface_anisotropy",
    "shape_factor",
    "has_reconstructed",
    "possible_species",
    "has_props",
    "theoretical",
    "database_IDs"
  ]
}
