{
  "builder_meta": null,
  "nsites": null,
  "elements": null,
  "nelements": null,
  "composition": null,
  "composition_reduced": null,
  "formula_pretty": "Mg7Si",
  "formula_anonymous": "AB7",
  "chemsys": null,
  "volume": 169.8351976309605,
  "density": 1.938072252644651,
  "density_atomic": 21.22939970387006,
  "symmetry": null,
  "property_name": null,
  "material_id": "mp-1016319",
  "deprecated": null,
  "deprecation_reasons": null,
  "last_updated": null,
  "origins": null,
  "warnings": null,
  "structure": {
    "@module": "pymatgen.core.structure",
    "@class": "Structure",
    "charge": 0,
    "lattice": {
      "matrix": [
        [3.131568, -5.424034, 0.0],
        [3.131568, 5.424034, 0.0],
        [0.0, 0.0, 4.999349]
      ],
      "pbc": [true, true, true],
      "a": 6.263135234990539,
      "b": 6.263135234990539,
      "c": 4.999349,
      "alpha": 90.0,
      "beta": 90.0,
      "gamma": 119.99999191896428,
      "volume": 169.8351976309605
    },
    "properties": {},
    "sites": [
      {
        "species": [{ "element": "Mg", "occu": 1 }],
        "abc": [0.833648, 0.667296, 0.0],
        "properties": { "magmom": -0.0 },
        "label": "Mg",
        "xyz": [4.700308200192, -0.902298903968, 0.0]
      },
      {
        "species": [{ "element": "Mg", "occu": 1 }],
        "abc": [0.332704, 0.166352, 0.0],
        "properties": { "magmom": -0.0 },
        "label": "Mg",
        "xyz": [1.562827799808, -0.9022989039679999, 0.0]
      },
      {
        "species": [{ "element": "Mg", "occu": 1 }],
        "abc": [0.833648, 0.166352, 0.0],
        "properties": { "magmom": -0.0 },
        "label": "Mg",
        "xyz": [3.1315679999999997, -3.6194361920639997, 0.0]
      },
      {
        "species": [{ "element": "Mg", "occu": 1 }],
        "abc": [0.497436, 0.502564, 0.5],
        "properties": { "magmom": -0.0 },
        "label": "Mg",
        "xyz": [3.131568, 0.027814446352000033, 2.4996745]
      },
      {
        "species": [{ "element": "Mg", "occu": 1 }],
        "abc": [0.005128, 0.502564, 0.5],
        "properties": { "magmom": -0.0 },
        "label": "Mg",
        "xyz": [1.589872021056, 2.698109776824, 2.4996745]
      },
      {
        "species": [{ "element": "Mg", "occu": 1 }],
        "abc": [0.497436, 0.994872, 0.5],
        "properties": { "magmom": -0.0 },
        "label": "Mg",
        "xyz": [4.673263978944, 2.698109776824, 2.4996745]
      },
      {
        "species": [{ "element": "Mg", "occu": 1 }],
        "abc": [0.0, 0.0, 0.5],
        "properties": { "magmom": -0.0 },
        "label": "Mg",
        "xyz": [0.0, 0.0, 2.4996745]
      },
      {
        "species": [{ "element": "Si", "occu": 1 }],
        "abc": [0.333333, 0.666667, 0.0],
        "properties": { "magmom": 0.0 },
        "label": "Si",
        "xyz": [3.131568, 1.808014949356, 0.0]
      }
    ]
  },
  "task_ids": null,
  "uncorrected_energy_per_atom": null,
  "energy_per_atom": -2.024755019999999,
  "formation_energy_per_atom": 0.08007099687500001,
  "energy_above_hull": 0.12079553312500001,
  "is_stable": false,
  "equilibrium_reaction_energy_per_atom": null,
  "decomposes_to": null,
  "xas": null,
  "grain_boundaries": null,
  "band_gap": 0.0,
  "cbm": null,
  "vbm": null,
  "efermi": 4.16526405,
  "is_gap_direct": null,
  "is_metal": null,
  "es_source_calc_id": null,
  "bandstructure": null,
  "dos": null,
  "dos_energy_up": null,
  "dos_energy_down": null,
  "is_magnetic": null,
  "ordering": null,
  "total_magnetization": 0.0011233,
  "total_magnetization_normalized_vol": null,
  "total_magnetization_normalized_formula_units": null,
  "num_magnetic_sites": null,
  "num_unique_magnetic_sites": null,
  "types_of_magnetic_species": null,
  "bulk_modulus": null,
  "shear_modulus": null,
  "universal_anisotropy": null,
  "homogeneous_poisson": null,
  "e_total": null,
  "e_ionic": null,
  "e_electronic": null,
  "n": null,
  "e_ij_max": null,
  "weighted_surface_energy_EV_PER_ANG2": null,
  "weighted_surface_energy": null,
  "weighted_work_function": null,
  "surface_anisotropy": null,
  "shape_factor": null,
  "has_reconstructed": null,
  "possible_species": null,
  "has_props": null,
  "theoretical": null,
  "database_IDs": null,
  "fields_not_requested": [
    "builder_meta",
    "nsites",
    "elements",
    "nelements",
    "composition",
    "composition_reduced",
    "chemsys",
    "symmetry",
    "property_name",
    "deprecated",
    "deprecation_reasons",
    "last_updated",
    "origins",
    "warnings",
    "task_ids",
    "uncorrected_energy_per_atom",
    "equilibrium_reaction_energy_per_atom",
    "decomposes_to",
    "xas",
    "grain_boundaries",
    "cbm",
    "vbm",
    "is_gap_direct",
    "is_metal",
    "es_source_calc_id",
    "bandstructure",
    "dos",
    "dos_energy_up",
    "dos_energy_down",
    "is_magnetic",
    "ordering",
    "total_magnetization_normalized_vol",
    "total_magnetization_normalized_formula_units",
    "num_magnetic_sites",
    "num_unique_magnetic_sites",
    "types_of_magnetic_species",
    "bulk_modulus",
    "shear_modulus",
    "universal_anisotropy",
    "homogeneous_poisson",
    "e_total",
    "e_ionic",
    "e_electronic",
    "n",
    "e_ij_max",
    "weighted_surface_energy_EV_PER_ANG2",
    "weighted_surface_energy",
    "weighted_work_function",
    "surface_anisotropy",
    "shape_factor",
    "has_reconstructed",
    "possible_species",
    "has_props",
    "theoretical",
    "database_IDs"
  ]
}
