{
  "builder_meta": null,
  "nsites": null,
  "elements": null,
  "nelements": null,
  "composition": null,
  "composition_reduced": null,
  "formula_pretty": "Mg7Si4",
  "formula_anonymous": "A4B7",
  "chemsys": null,
  "volume": 444.95105964549975,
  "density": 2.108385107745016,
  "density_atomic": 20.225048165704536,
  "symmetry": null,
  "property_name": null,
  "material_id": "mp-1074788",
  "deprecated": null,
  "deprecation_reasons": null,
  "last_updated": null,
  "origins": null,
  "warnings": null,
  "structure": {
    "@module": "pymatgen.core.structure",
    "@class": "Structure",
    "charge": 0,
    "lattice": {
      "matrix": [
        [-5.453032, 0.0, 0.0],
        [-0.004425999999999, -6.206953, 0.0],
        [1.390218, 3.018789, 13.146064]
      ],
      "pbc": [true, true, true],
      "a": 5.453032,
      "b": 6.20695457802657,
      "c": 13.559675210201055,
      "alpha": 102.86783953887473,
      "beta": 95.88464209817583,
      "gamma": 89.95914403135586,
      "volume": 444.95105964549975
    },
    "properties": {},
    "sites": [
      {
        "species": [{ "element": "Mg", "occu": 1 }],
        "abc": [0.009694, 0.722847, 0.8096],
        "properties": { "magmom": 0.0 },
        "label": "Mg",
        "xyz": [1.0694594797700008, -2.0426657807910007, 10.6430534144]
      },
      {
        "species": [{ "element": "Mg", "occu": 1 }],
        "abc": [0.181045999999999, 0.201021999999999, 0.756976],
        "properties": { "magmom": 0.0 },
        "label": "Mg",
        "xyz": [0.06422230592400557, 1.037416716098006, 9.951254942464]
      },
      {
        "species": [{ "element": "Mg", "occu": 1 }],
        "abc": [0.745583, 0.902405, 0.608789],
        "properties": { "magmom": 0.0 },
        "label": "Mg",
        "xyz": [-3.2233325761839993, -3.763379885444001, 8.003179156496001]
      },
      {
        "species": [{ "element": "Mg", "occu": 1 }],
        "abc": [0.568381999999999, 0.412362, 0.654389],
        "properties": { "magmom": 0.0 },
        "label": "Mg",
        "xyz": [-2.1914869816339944, -0.5840492380650002, 8.602639674896]
      },
      {
        "species": [{ "element": "Mg", "occu": 1 }],
        "abc": [0.008576, 0.35113000000000005, 0.987298],
        "properties": { "magmom": -0.0 },
        "label": "Mg",
        "xyz": [1.3242401471520004, 0.8009969352319994, 12.979082695072002]
      },
      {
        "species": [{ "element": "Mg", "occu": 1 }],
        "abc": [0.719028999999999, 0.758842999999999, 0.380334],
        "properties": { "magmom": 0.0 },
        "label": "Mg",
        "xyz": [-3.395499612233994, -3.5619547398529945, 4.999895105376001]
      },
      {
        "species": [{ "element": "Mg", "occu": 1 }],
        "abc": [0.238059, 0.699307, 0.237906999999999],
        "properties": { "magmom": 0.0 },
        "label": "Mg",
        "xyz": [-0.9704958839440005, -3.6223746469480034, 3.127540648047987]
      },
      {
        "species": [{ "element": "Mg", "occu": 1 }],
        "abc": [0.7349100000000001, 0.270252999999999, 0.435573],
        "properties": { "magmom": 0.0 },
        "label": "Mg",
        "xyz": [-3.4031424619840007, -0.36254468801199424, 5.726070534672]
      },
      {
        "species": [{ "element": "Mg", "occu": 1 }],
        "abc": [0.503499, 0.557257999999999, 0.918349],
        "properties": { "magmom": -0.0 },
        "label": "Mg",
        "xyz": [-1.471357272794, -0.6865723555129946, 12.072674728336]
      },
      {
        "species": [{ "element": "Mg", "occu": 1 }],
        "abc": [0.481234999999999, 0.084471999999999, 0.969546999999999],
        "properties": { "magmom": -0.0 },
        "label": "Mg",
        "xyz": [-1.2766820363459959, 2.402544084767003, 12.745726913007989]
      },
      {
        "species": [{ "element": "Mg", "occu": 1 }],
        "abc": [0.023138, 0.876494999999999, 0.045753999999999004],
        "properties": { "magmom": -0.0 },
        "label": "Mg",
        "xyz": [-0.06644358691400051, -5.302241597828997, 0.6014850122559869]
      },
      {
        "species": [{ "element": "Mg", "occu": 1 }],
        "abc": [0.364214, 0.203142, 0.234294],
        "properties": { "magmom": 0.0 },
        "label": "Mg",
        "xyz": [-1.6612499672479997, -0.5536086963600001, 3.080043918816]
      },
      {
        "species": [{ "element": "Mg", "occu": 1 }],
        "abc": [0.246075, 0.526767, 0.435237999999999],
        "properties": { "magmom": 0.0 },
        "label": "Mg",
        "xyz": [-0.7391106182580008, -1.955726324169003, 5.721666603231988]
      },
      {
        "species": [{ "element": "Mg", "occu": 1 }],
        "abc": [0.24936599999999903, 0.040472, 0.475775],
        "properties": { "magmom": 0.0 },
        "label": "Mg",
        "xyz": [-0.6985489378339946, 1.185056534659, 6.254568599600001]
      },
      {
        "species": [{ "element": "Si", "occu": 1 }],
        "abc": [0.548725, 0.833558999999999, 0.113851],
        "properties": { "magmom": -0.0 },
        "label": "Si",
        "xyz": [-2.8376266068159994, -4.830169389287994, 1.496692532464]
      },
      {
        "species": [{ "element": "Si", "occu": 1 }],
        "abc": [0.509487, 0.820538, 0.782104999999999],
        "properties": { "magmom": -0.0 },
        "label": "Si",
        "xyz": [-1.6945841668820008, -2.7320308298690033, 10.281602384719989]
      },
      {
        "species": [{ "element": "Si", "occu": 1 }],
        "abc": [0.705688, 0.177059, 0.803281999999999],
        "properties": { "magmom": -0.0 },
        "label": "Si",
        "xyz": [-2.7321858136740014, 1.3259419742709972, 10.559996582047988]
      },
      {
        "species": [{ "element": "Si", "occu": 1 }],
        "abc": [0.897675, 0.390204999999999, 0.256836],
        "properties": { "magmom": 0.0 },
        "label": "Si",
        "xyz": [-4.539719517681999, -1.6466504037609941, 3.3763824935040003]
      },
      {
        "species": [{ "element": "Si", "occu": 1 }],
        "abc": [0.609552, 0.453030999999999, 0.118287999999999],
        "properties": { "magmom": -0.0 },
        "label": "Si",
        "xyz": [-3.1614655700860013, -2.4548556113109967, 1.555021618431987]
      },
      {
        "species": [{ "element": "Si", "occu": 1 }],
        "abc": [0.240085, 0.794184, 0.625873],
        "properties": { "magmom": -0.0 },
        "label": "Si",
        "xyz": [-0.4426063357899991, -3.040084233555, 8.227766513872]
      },
      {
        "species": [{ "element": "Si", "occu": 1 }],
        "abc": [0.046624, 0.433465999999999, 0.605715999999999],
        "properties": { "magmom": -0.0 },
        "label": "Si",
        "xyz": [0.5859166016039989, -0.8619742911739969, 7.962781301823988]
      },
      {
        "species": [{ "element": "Si", "occu": 1 }],
        "abc": [0.869458, 0.002281999999999, 0.247925999999999],
        "properties": { "magmom": -0.0 },
        "label": "Si",
        "xyz": [-4.396521208920002, 0.7342720148680032, 3.2592510632639873]
      }
    ]
  },
  "task_ids": null,
  "uncorrected_energy_per_atom": null,
  "energy_per_atom": -2.9413566640909092,
  "formation_energy_per_atom": 0.06905808363636301,
  "energy_above_hull": 0.17272053954545302,
  "is_stable": false,
  "equilibrium_reaction_energy_per_atom": null,
  "decomposes_to": null,
  "xas": null,
  "grain_boundaries": null,
  "band_gap": 0.0,
  "cbm": null,
  "vbm": null,
  "efermi": 4.24274032,
  "is_gap_direct": null,
  "is_metal": null,
  "es_source_calc_id": null,
  "bandstructure": null,
  "dos": null,
  "dos_energy_up": null,
  "dos_energy_down": null,
  "is_magnetic": null,
  "ordering": null,
  "total_magnetization": 0.004812299999999,
  "total_magnetization_normalized_vol": null,
  "total_magnetization_normalized_formula_units": null,
  "num_magnetic_sites": null,
  "num_unique_magnetic_sites": null,
  "types_of_magnetic_species": null,
  "bulk_modulus": null,
  "shear_modulus": null,
  "universal_anisotropy": null,
  "homogeneous_poisson": null,
  "e_total": null,
  "e_ionic": null,
  "e_electronic": null,
  "n": null,
  "e_ij_max": null,
  "weighted_surface_energy_EV_PER_ANG2": null,
  "weighted_surface_energy": null,
  "weighted_work_function": null,
  "surface_anisotropy": null,
  "shape_factor": null,
  "has_reconstructed": null,
  "possible_species": null,
  "has_props": null,
  "theoretical": null,
  "database_IDs": null,
  "fields_not_requested": [
    "builder_meta",
    "nsites",
    "elements",
    "nelements",
    "composition",
    "composition_reduced",
    "chemsys",
    "symmetry",
    "property_name",
    "deprecated",
    "deprecation_reasons",
    "last_updated",
    "origins",
    "warnings",
    "task_ids",
    "uncorrected_energy_per_atom",
    "equilibrium_reaction_energy_per_atom",
    "decomposes_to",
    "xas",
    "grain_boundaries",
    "cbm",
    "vbm",
    "is_gap_direct",
    "is_metal",
    "es_source_calc_id",
    "bandstructure",
    "dos",
    "dos_energy_up",
    "dos_energy_down",
    "is_magnetic",
    "ordering",
    "total_magnetization_normalized_vol",
    "total_magnetization_normalized_formula_units",
    "num_magnetic_sites",
    "num_unique_magnetic_sites",
    "types_of_magnetic_species",
    "bulk_modulus",
    "shear_modulus",
    "universal_anisotropy",
    "homogeneous_poisson",
    "e_total",
    "e_ionic",
    "e_electronic",
    "n",
    "e_ij_max",
    "weighted_surface_energy_EV_PER_ANG2",
    "weighted_surface_energy",
    "weighted_work_function",
    "surface_anisotropy",
    "shape_factor",
    "has_reconstructed",
    "possible_species",
    "has_props",
    "theoretical",
    "database_IDs"
  ]
}
