{"builder_meta": null, "nsites": null, "elements": null, "nelements": null, "composition": null, "composition_reduced": null, "formula_pretty": "Mg7V", "formula_anonymous": "AB7", "chemsys": null, "volume": 173.43494071722748, "density": 2.116679392509112, "density_atomic": 21.679367589653435, "symmetry": null, "property_name": null, "material_id": "mp-1016298", "deprecated": null, "deprecation_reasons": null, "last_updated": null, "origins": null, "warnings": null, "structure": {"@module": "pymatgen.core.structure", "@class": "Structure", "charge": 0, "lattice": {"matrix": [[3.145385, -5.447967, 0.0], [3.145385, 5.447967, 0.0], [0.0, 0.0, 5.060557]], "pbc": [true, true, true], "a": 6.2907703209793, "b": 6.2907703209793, "c": 5.060557, "alpha": 90.0, "beta": 90.0, "gamma": 120.00000337571048, "volume": 173.43494071722748}, "properties": {}, "sites": [{"species": [{"element": "Mg", "occu": 1}], "abc": [0.834506, 0.669011999999999, 0.0], "properties": {"magmom": -0.01}, "label": "Mg", "xyz": [4.729142964429997, -0.9016058506980054, 0.0]}, {"species": [{"element": "Mg", "occu": 1}], "abc": [0.834506, 0.165494, 0.0], "properties": {"magmom": -0.01}, "label": "Mg", "xyz": [3.145385, -3.644755298604, 0.0]}, {"species": [{"element": "Mg", "occu": 1}], "abc": [0.330988, 0.165494, 0.0], "properties": {"magmom": -0.01}, "label": "Mg", "xyz": [1.56162703557, -0.901605850698, 0.0]}, {"species": [{"element": "Mg", "occu": 1}], "abc": [0.654926, 0.827463, 0.5], "properties": {"magmom": -0.004}, "label": "Mg", "xyz": [4.662684124765, 0.9399758822789996, 2.5302785]}, {"species": [{"element": "Mg", "occu": 1}], "abc": [0.172537, 0.827463, 0.5], "properties": {"magmom": 0.0}, "label": "Mg", "xyz": [3.1453849999999997, 3.5680152354419996, 2.5302785]}, {"species": [{"element": "Mg", "occu": 1}], "abc": [0.172537, 0.345074, 0.5], "properties": {"magmom": -0.002}, "label": "Mg", "xyz": [1.628085875235, 0.939975882279, 2.5302785]}, {"species": [{"element": "Mg", "occu": 1}], "abc": [0.666667, 0.333333, 0.5], "properties": {"magmom": 0.003}, "label": "Mg", "xyz": [3.145385, -1.8159926319780002, 2.5302785]}, {"species": [{"element": "V", "occu": 1}], "abc": [0.333333, 0.666667, 0.0], "properties": {"magmom": 2.625}, "label": "V", "xyz": [3.145385, 1.8159926319780002, 0.0]}]}, "task_ids": null, "uncorrected_energy_per_atom": null, "energy_per_atom": -2.3781889375, "formation_energy_per_atom": 0.18396058437499901, "energy_above_hull": 0.18396058437499901, "is_stable": false, "equilibrium_reaction_energy_per_atom": null, "decomposes_to": null, "xas": null, "grain_boundaries": null, "band_gap": 0.0, "cbm": null, "vbm": null, "efermi": 3.5978086300000003, "is_gap_direct": null, "is_metal": null, "es_source_calc_id": null, "bandstructure": null, "dos": null, "dos_energy_up": null, "dos_energy_down": null, "is_magnetic": null, "ordering": null, "total_magnetization": 3.2424374, "total_magnetization_normalized_vol": null, "total_magnetization_normalized_formula_units": null, "num_magnetic_sites": null, "num_unique_magnetic_sites": null, "types_of_magnetic_species": null, "bulk_modulus": null, "shear_modulus": null, "universal_anisotropy": null, "homogeneous_poisson": null, "e_total": null, "e_ionic": null, "e_electronic": null, "n": null, "e_ij_max": null, "weighted_surface_energy_EV_PER_ANG2": null, "weighted_surface_energy": null, "weighted_work_function": null, "surface_anisotropy": null, "shape_factor": null, "has_reconstructed": null, "possible_species": null, "has_props": null, "theoretical": null, "database_IDs": null, "fields_not_requested": ["builder_meta", "nsites", "elements", "nelements", "composition", "composition_reduced", "chemsys", "symmetry", "property_name", "deprecated", "deprecation_reasons", "last_updated", "origins", "warnings", "task_ids", "uncorrected_energy_per_atom", "equilibrium_reaction_energy_per_atom", "decomposes_to", "xas", "grain_boundaries", "cbm", "vbm", "is_gap_direct", "is_metal", "es_source_calc_id", "bandstructure", "dos", "dos_energy_up", "dos_energy_down", "is_magnetic", "ordering", "total_magnetization_normalized_vol", "total_magnetization_normalized_formula_units", "num_magnetic_sites", "num_unique_magnetic_sites", "types_of_magnetic_species", "bulk_modulus", "shear_modulus", "universal_anisotropy", "homogeneous_poisson", "e_total", "e_ionic", "e_electronic", "n", "e_ij_max", "weighted_surface_energy_EV_PER_ANG2", "weighted_surface_energy", "weighted_work_function", "surface_anisotropy", "shape_factor", "has_reconstructed", "possible_species", "has_props", "theoretical", "database_IDs"]}