{"builder_meta": null, "nsites": null, "elements": null, "nelements": null, "composition": null, "composition_reduced": null, "formula_pretty": "Mg7W", "formula_anonymous": "AB7", "chemsys": null, "volume": 164.67111737008327, "density": 3.569474267783902, "density_atomic": 20.58388967126041, "symmetry": null, "property_name": null, "material_id": "mp-1016269", "deprecated": null, "deprecation_reasons": null, "last_updated": null, "origins": null, "warnings": null, "structure": {"@module": "pymatgen.core.structure", "@class": "Structure", "charge": 0, "lattice": {"matrix": [[3.100889, -5.370897, 0.0], [3.100889, 5.370897, 0.0], [0.0, 0.0, 4.943726]], "pbc": [true, true, true], "a": 6.201777743109632, "b": 6.201777743109632, "c": 4.943726, "alpha": 90.0, "beta": 90.0, "gamma": 119.999997259539, "volume": 164.67111737008327}, "properties": {}, "sites": [{"species": [{"element": "Mg", "occu": 1}], "abc": [0.1655, 0.330999, 0.5], "properties": {"magmom": -0.0}, "label": "Mg", "xyz": [1.539588287611, 0.8888780826029998, 2.471863]}, {"species": [{"element": "Mg", "occu": 1}], "abc": [0.669001, 0.8345, 0.5], "properties": {"magmom": -0.0}, "label": "Mg", "xyz": [4.662189712389, 0.888878082603, 2.471863]}, {"species": [{"element": "Mg", "occu": 1}], "abc": [0.1655, 0.8345, 0.5], "properties": {"magmom": -0.0}, "label": "Mg", "xyz": [3.100889, 3.593130093, 2.471863]}, {"species": [{"element": "Mg", "occu": 1}], "abc": [0.822915, 0.177085, 0.0], "properties": {"magmom": -0.0}, "label": "Mg", "xyz": [3.1008889999999996, -3.46868640951, 0.0]}, {"species": [{"element": "Mg", "occu": 1}], "abc": [0.35417000000000004, 0.177085, 0.0], "properties": {"magmom": 0.0}, "label": "Mg", "xyz": [1.647362785695, -0.9511052952450004, 0.0]}, {"species": [{"element": "Mg", "occu": 1}], "abc": [0.822915, 0.64583, 0.0], "properties": {"magmom": -0.0}, "label": "Mg", "xyz": [4.554415214304999, -0.9511052952450001, 0.0]}, {"species": [{"element": "Mg", "occu": 1}], "abc": [0.333333, 0.666667, 0.0], "properties": {"magmom": 0.0}, "label": "Mg", "xyz": [3.100889, 1.7903025805980004, 0.0]}, {"species": [{"element": "W", "occu": 1}], "abc": [0.666667, 0.333333, 0.5], "properties": {"magmom": 0.003}, "label": "W", "xyz": [3.100889, -1.7903025805980004, 2.471863]}]}, "task_ids": null, "uncorrected_energy_per_atom": null, "energy_per_atom": -9.780132574375, "formation_energy_per_atom": 0.28898236000000005, "energy_above_hull": 0.28898236000000005, "is_stable": false, "equilibrium_reaction_energy_per_atom": null, "decomposes_to": null, "xas": null, "grain_boundaries": null, "band_gap": 0.0, "cbm": null, "vbm": null, "efermi": 3.92763122, "is_gap_direct": null, "is_metal": null, "es_source_calc_id": null, "bandstructure": null, "dos": null, "dos_energy_up": null, "dos_energy_down": null, "is_magnetic": null, "ordering": null, "total_magnetization": 0.003385699999999, "total_magnetization_normalized_vol": null, "total_magnetization_normalized_formula_units": null, "num_magnetic_sites": null, "num_unique_magnetic_sites": null, "types_of_magnetic_species": null, "bulk_modulus": null, "shear_modulus": null, "universal_anisotropy": null, "homogeneous_poisson": null, "e_total": null, "e_ionic": null, "e_electronic": null, "n": null, "e_ij_max": null, "weighted_surface_energy_EV_PER_ANG2": null, "weighted_surface_energy": null, "weighted_work_function": null, "surface_anisotropy": null, "shape_factor": null, "has_reconstructed": null, "possible_species": null, "has_props": null, "theoretical": null, "database_IDs": null, "fields_not_requested": ["builder_meta", "nsites", "elements", "nelements", "composition", "composition_reduced", "chemsys", "symmetry", "property_name", "deprecated", "deprecation_reasons", "last_updated", "origins", "warnings", "task_ids", "uncorrected_energy_per_atom", "equilibrium_reaction_energy_per_atom", "decomposes_to", "xas", "grain_boundaries", "cbm", "vbm", "is_gap_direct", "is_metal", "es_source_calc_id", "bandstructure", "dos", "dos_energy_up", "dos_energy_down", "is_magnetic", "ordering", "total_magnetization_normalized_vol", "total_magnetization_normalized_formula_units", "num_magnetic_sites", "num_unique_magnetic_sites", "types_of_magnetic_species", "bulk_modulus", "shear_modulus", "universal_anisotropy", "homogeneous_poisson", "e_total", "e_ionic", "e_electronic", "n", "e_ij_max", "weighted_surface_energy_EV_PER_ANG2", "weighted_surface_energy", "weighted_work_function", "surface_anisotropy", "shape_factor", "has_reconstructed", "possible_species", "has_props", "theoretical", "database_IDs"]}