{"builder_meta": null, "nsites": null, "elements": null, "nelements": null, "composition": null, "composition_reduced": null, "formula_pretty": "Mg7Zn", "formula_anonymous": "AB7", "chemsys": null, "volume": 168.4386808725853, "density": 2.322091409627571, "density_atomic": 21.054835109073164, "symmetry": null, "property_name": null, "material_id": "mp-1016279", "deprecated": null, "deprecation_reasons": null, "last_updated": null, "origins": null, "warnings": null, "structure": {"@module": "pymatgen.core.structure", "@class": "Structure", "charge": 0, "lattice": {"matrix": [[3.14001236, -5.43867715, -0.0], [3.14001236, 5.43867715, 0.0], [0.0, -0.0, 4.93159268]], "pbc": [true, true, true], "a": 6.280038754887178, "b": 6.280038754887178, "c": 4.93159268, "alpha": 90.0, "beta": 90.0, "gamma": 120.0001478558257, "volume": 168.4386808725853}, "properties": {}, "sites": [{"species": [{"element": "Mg", "occu": 1}], "abc": [0.99951046, 0.49975573, 0.5], "properties": {"magmom": 0.0}, "label": "Mg", "xyz": [4.707714367530109, -2.71800463065542, 2.46579634]}, {"species": [{"element": "Mg", "occu": 1}], "abc": [0.50024527, 0.49975473000000004, 0.5], "properties": {"magmom": 0.0}, "label": "Mg", "xyz": [3.14001236, -0.002667888689160236, 2.46579634]}, {"species": [{"element": "Mg", "occu": 1}], "abc": [0.50024427, 0.00048954, 0.5], "properties": {"magmom": 0.0}, "label": "Mg", "xyz": [1.5723103524698918, -2.7180046306554195, 2.46579634]}, {"species": [{"element": "Mg", "occu": 1}], "abc": [0.162123699999999, 0.3242464, 0.0], "properties": {"magmom": 0.0}, "label": "Mg", "xyz": [1.527208125534433, 0.8817330239863104, 0.0]}, {"species": [{"element": "Mg", "occu": 1}], "abc": [0.162122699999999, 0.837877299999999, -0.0], "properties": {"magmom": 0.0}, "label": "Mg", "xyz": [3.140012359999994, 3.67521110202739, 0.0]}, {"species": [{"element": "Mg", "occu": 1}], "abc": [0.6757536, 0.837876299999999, 0.0], "properties": {"magmom": 0.0}, "label": "Mg", "xyz": [4.7528165944655605, 0.8817330239862997, 0.0]}, {"species": [{"element": "Mg", "occu": 1}], "abc": [0.666667, 0.333333, -0.0], "properties": {"magmom": -0.0}, "label": "Mg", "xyz": [3.14001236, -1.8128960091181003, 0.0]}, {"species": [{"element": "Zn", "occu": 1}], "abc": [-0.0, 0.0, 0.5], "properties": {"magmom": -0.0}, "label": "Zn", "xyz": [0.0, 0.0, 2.46579634]}]}, "task_ids": null, "uncorrected_energy_per_atom": null, "energy_per_atom": -1.5566761587500002, "formation_energy_per_atom": 0.027453055625000004, "energy_above_hull": 0.054016551824999, "is_stable": false, "equilibrium_reaction_energy_per_atom": null, "decomposes_to": null, "xas": null, "grain_boundaries": null, "band_gap": 0.0, "cbm": null, "vbm": null, "efermi": 3.47956213, "is_gap_direct": null, "is_metal": null, "es_source_calc_id": null, "bandstructure": null, "dos": null, "dos_energy_up": null, "dos_energy_down": null, "is_magnetic": null, "ordering": null, "total_magnetization": 0.0, "total_magnetization_normalized_vol": null, "total_magnetization_normalized_formula_units": null, "num_magnetic_sites": null, "num_unique_magnetic_sites": null, "types_of_magnetic_species": null, "bulk_modulus": null, "shear_modulus": null, "universal_anisotropy": null, "homogeneous_poisson": null, "e_total": null, "e_ionic": null, "e_electronic": null, "n": null, "e_ij_max": null, "weighted_surface_energy_EV_PER_ANG2": null, "weighted_surface_energy": null, "weighted_work_function": null, "surface_anisotropy": null, "shape_factor": null, "has_reconstructed": null, "possible_species": null, "has_props": null, "theoretical": null, "database_IDs": null, "fields_not_requested": ["builder_meta", "nsites", "elements", "nelements", "composition", "composition_reduced", "chemsys", "symmetry", "property_name", "deprecated", "deprecation_reasons", "last_updated", "origins", "warnings", "task_ids", "uncorrected_energy_per_atom", "equilibrium_reaction_energy_per_atom", "decomposes_to", "xas", "grain_boundaries", "cbm", "vbm", "is_gap_direct", "is_metal", "es_source_calc_id", "bandstructure", "dos", "dos_energy_up", "dos_energy_down", "is_magnetic", "ordering", "total_magnetization_normalized_vol", "total_magnetization_normalized_formula_units", "num_magnetic_sites", "num_unique_magnetic_sites", "types_of_magnetic_species", "bulk_modulus", "shear_modulus", "universal_anisotropy", "homogeneous_poisson", "e_total", "e_ionic", "e_electronic", "n", "e_ij_max", "weighted_surface_energy_EV_PER_ANG2", "weighted_surface_energy", "weighted_work_function", "surface_anisotropy", "shape_factor", "has_reconstructed", "possible_species", "has_props", "theoretical", "database_IDs"]}