{
  "builder_meta": null,
  "nsites": null,
  "elements": null,
  "nelements": null,
  "composition": null,
  "composition_reduced": null,
  "formula_pretty": "Mg7Zr",
  "formula_anonymous": "AB7",
  "chemsys": null,
  "volume": 181.40314242190217,
  "density": 2.39244383594046,
  "density_atomic": 22.675392802737772,
  "symmetry": null,
  "property_name": null,
  "material_id": "mp-1016284",
  "deprecated": null,
  "deprecation_reasons": null,
  "last_updated": null,
  "origins": null,
  "warnings": null,
  "structure": {
    "@module": "pymatgen.core.structure",
    "@class": "Structure",
    "charge": 0,
    "lattice": {
      "matrix": [
        [3.215907999999999, -5.570116, 0.0],
        [3.215907999999999, 5.570116, 0.0],
        [0.0, 0.0, 5.063455]
      ],
      "pbc": [true, true, true],
      "a": 6.431815958026162,
      "b": 6.431815958026162,
      "c": 5.063455,
      "alpha": 90.0,
      "beta": 90.0,
      "gamma": 119.99999956824531,
      "volume": 181.4031424219021
    },
    "properties": {},
    "sites": [
      {
        "species": [{ "element": "Mg", "occu": 1 }],
        "abc": [0.83218, 0.6643600000000001, 0.5],
        "properties": { "magmom": 0.001 },
        "label": "Mg",
        "xyz": [4.812734958319998, -0.9347768671199996, 2.5317275]
      },
      {
        "species": [{ "element": "Mg", "occu": 1 }],
        "abc": [0.33564000000000005, 0.16782000000000002, 0.5],
        "properties": { "magmom": 0.001 },
        "label": "Mg",
        "xyz": [1.6190810416799997, -0.9347768671200001, 2.5317275]
      },
      {
        "species": [{ "element": "Mg", "occu": 1 }],
        "abc": [0.83218, 0.16782000000000002, 0.5],
        "properties": { "magmom": 0.001 },
        "label": "Mg",
        "xyz": [3.215907999999999, -3.7005622657599995, 2.5317275]
      },
      {
        "species": [{ "element": "Mg", "occu": 1 }],
        "abc": [0.497457, 0.502543, 0.0],
        "properties": { "magmom": 0.002 },
        "label": "Mg",
        "xyz": [3.215907999999999, 0.02832960997599976, 0.0]
      },
      {
        "species": [{ "element": "Mg", "occu": 1 }],
        "abc": [0.005085, 0.502543, 0.0],
        "properties": { "magmom": 0.0 },
        "label": "Mg",
        "xyz": [1.6324849462239994, 2.7708987651279995, 0.0]
      },
      {
        "species": [{ "element": "Mg", "occu": 1 }],
        "abc": [0.497457, 0.994915, 0.0],
        "properties": { "magmom": 0.001 },
        "label": "Mg",
        "xyz": [4.799331053775998, 2.7708987651279995, 0.0]
      },
      {
        "species": [{ "element": "Mg", "occu": 1 }],
        "abc": [0.0, 0.0, 0.0],
        "properties": { "magmom": -0.001 },
        "label": "Mg",
        "xyz": [0.0, 0.0, 0.0]
      },
      {
        "species": [{ "element": "Zr", "occu": 1 }],
        "abc": [0.333333, 0.666667, 0.5],
        "properties": { "magmom": 0.126 },
        "label": "Zr",
        "xyz": [3.215907999999999, 1.8567090467440002, 2.5317275]
      }
    ]
  },
  "task_ids": null,
  "uncorrected_energy_per_atom": null,
  "energy_per_atom": -2.41066144375,
  "formation_energy_per_atom": 0.084462398125,
  "energy_above_hull": 0.084462398125,
  "is_stable": false,
  "equilibrium_reaction_energy_per_atom": null,
  "decomposes_to": null,
  "xas": null,
  "grain_boundaries": null,
  "band_gap": 0.0,
  "cbm": null,
  "vbm": null,
  "efermi": 3.42780898,
  "is_gap_direct": null,
  "is_metal": null,
  "es_source_calc_id": null,
  "bandstructure": null,
  "dos": null,
  "dos_energy_up": null,
  "dos_energy_down": null,
  "is_magnetic": null,
  "ordering": null,
  "total_magnetization": 0.263334499999999,
  "total_magnetization_normalized_vol": null,
  "total_magnetization_normalized_formula_units": null,
  "num_magnetic_sites": null,
  "num_unique_magnetic_sites": null,
  "types_of_magnetic_species": null,
  "bulk_modulus": null,
  "shear_modulus": null,
  "universal_anisotropy": null,
  "homogeneous_poisson": null,
  "e_total": null,
  "e_ionic": null,
  "e_electronic": null,
  "n": null,
  "e_ij_max": null,
  "weighted_surface_energy_EV_PER_ANG2": null,
  "weighted_surface_energy": null,
  "weighted_work_function": null,
  "surface_anisotropy": null,
  "shape_factor": null,
  "has_reconstructed": null,
  "possible_species": null,
  "has_props": null,
  "theoretical": null,
  "database_IDs": null,
  "fields_not_requested": [
    "builder_meta",
    "nsites",
    "elements",
    "nelements",
    "composition",
    "composition_reduced",
    "chemsys",
    "symmetry",
    "property_name",
    "deprecated",
    "deprecation_reasons",
    "last_updated",
    "origins",
    "warnings",
    "task_ids",
    "uncorrected_energy_per_atom",
    "equilibrium_reaction_energy_per_atom",
    "decomposes_to",
    "xas",
    "grain_boundaries",
    "cbm",
    "vbm",
    "is_gap_direct",
    "is_metal",
    "es_source_calc_id",
    "bandstructure",
    "dos",
    "dos_energy_up",
    "dos_energy_down",
    "is_magnetic",
    "ordering",
    "total_magnetization_normalized_vol",
    "total_magnetization_normalized_formula_units",
    "num_magnetic_sites",
    "num_unique_magnetic_sites",
    "types_of_magnetic_species",
    "bulk_modulus",
    "shear_modulus",
    "universal_anisotropy",
    "homogeneous_poisson",
    "e_total",
    "e_ionic",
    "e_electronic",
    "n",
    "e_ij_max",
    "weighted_surface_energy_EV_PER_ANG2",
    "weighted_surface_energy",
    "weighted_work_function",
    "surface_anisotropy",
    "shape_factor",
    "has_reconstructed",
    "possible_species",
    "has_props",
    "theoretical",
    "database_IDs"
  ]
}
