{
  "builder_meta": null,
  "nsites": null,
  "elements": null,
  "nelements": null,
  "composition": null,
  "composition_reduced": null,
  "formula_pretty": "MgAg4",
  "formula_anonymous": "AB4",
  "chemsys": null,
  "volume": 91.70561170632836,
  "density": 8.252895635358094,
  "density_atomic": 18.34112234126567,
  "symmetry": null,
  "property_name": null,
  "material_id": "mp-1222034",
  "deprecated": null,
  "deprecation_reasons": null,
  "last_updated": null,
  "origins": null,
  "warnings": null,
  "structure": {
    "@module": "pymatgen.core.structure",
    "@class": "Structure",
    "charge": 0,
    "lattice": {
      "matrix": [
        [11.679803, -1.507612, 0.0],
        [11.679803, 1.507612, 0.0],
        [11.485202, 0.0, 2.603999]
      ],
      "pbc": [true, true, true],
      "a": 11.776701238519767,
      "b": 11.776701238519767,
      "c": 11.776700546961571,
      "alpha": 14.70997536377239,
      "beta": 14.70997536377239,
      "gamma": 14.709976138635959,
      "volume": 91.70561170632836
    },
    "properties": {},
    "sites": [
      {
        "species": [{ "element": "Mg", "occu": 1 }],
        "abc": [0.0, 0.0, 0.0],
        "properties": { "magmom": 0.0 },
        "label": "Mg",
        "xyz": [0.0, 0.0, 0.0]
      },
      {
        "species": [{ "element": "Ag", "occu": 1 }],
        "abc": [0.600654, 0.600654, 0.600654],
        "properties": { "magmom": -0.0 },
        "label": "Ag",
        "xyz": [20.929673304432, 0.0, 1.564102415346]
      },
      {
        "species": [{ "element": "Ag", "occu": 1 }],
        "abc": [0.19991899999999901, 0.19991899999999901, 0.19991899999999901],
        "properties": { "magmom": -0.0 },
        "label": "Ag",
        "xyz": [6.9661391705519655, 0.0, 0.5205888760809975]
      },
      {
        "species": [{ "element": "Ag", "occu": 1 }],
        "abc": [0.800080999999999, 0.800080999999999, 0.800080999999999],
        "properties": { "magmom": -0.0 },
        "label": "Ag",
        "xyz": [27.878668829447967, 0.0, 2.0834101239189975]
      },
      {
        "species": [{ "element": "Ag", "occu": 1 }],
        "abc": [0.399346, 0.399346, 0.399346],
        "properties": { "magmom": -0.0 },
        "label": "Ag",
        "xyz": [13.915134695568, 0.0, 1.039896584654]
      }
    ]
  },
  "task_ids": null,
  "uncorrected_energy_per_atom": null,
  "energy_per_atom": -2.626954688,
  "formation_energy_per_atom": -0.026510542333331003,
  "energy_above_hull": 0.090691486666667,
  "is_stable": false,
  "equilibrium_reaction_energy_per_atom": null,
  "decomposes_to": null,
  "xas": null,
  "grain_boundaries": null,
  "band_gap": 0.0,
  "cbm": null,
  "vbm": null,
  "efermi": 3.2899646,
  "is_gap_direct": null,
  "is_metal": null,
  "es_source_calc_id": null,
  "bandstructure": null,
  "dos": null,
  "dos_energy_up": null,
  "dos_energy_down": null,
  "is_magnetic": null,
  "ordering": null,
  "total_magnetization": 0.000667,
  "total_magnetization_normalized_vol": null,
  "total_magnetization_normalized_formula_units": null,
  "num_magnetic_sites": null,
  "num_unique_magnetic_sites": null,
  "types_of_magnetic_species": null,
  "bulk_modulus": null,
  "shear_modulus": null,
  "universal_anisotropy": null,
  "homogeneous_poisson": null,
  "e_total": null,
  "e_ionic": null,
  "e_electronic": null,
  "n": null,
  "e_ij_max": null,
  "weighted_surface_energy_EV_PER_ANG2": null,
  "weighted_surface_energy": null,
  "weighted_work_function": null,
  "surface_anisotropy": null,
  "shape_factor": null,
  "has_reconstructed": null,
  "possible_species": null,
  "has_props": null,
  "theoretical": null,
  "database_IDs": null,
  "fields_not_requested": [
    "builder_meta",
    "nsites",
    "elements",
    "nelements",
    "composition",
    "composition_reduced",
    "chemsys",
    "symmetry",
    "property_name",
    "deprecated",
    "deprecation_reasons",
    "last_updated",
    "origins",
    "warnings",
    "task_ids",
    "uncorrected_energy_per_atom",
    "equilibrium_reaction_energy_per_atom",
    "decomposes_to",
    "xas",
    "grain_boundaries",
    "cbm",
    "vbm",
    "is_gap_direct",
    "is_metal",
    "es_source_calc_id",
    "bandstructure",
    "dos",
    "dos_energy_up",
    "dos_energy_down",
    "is_magnetic",
    "ordering",
    "total_magnetization_normalized_vol",
    "total_magnetization_normalized_formula_units",
    "num_magnetic_sites",
    "num_unique_magnetic_sites",
    "types_of_magnetic_species",
    "bulk_modulus",
    "shear_modulus",
    "universal_anisotropy",
    "homogeneous_poisson",
    "e_total",
    "e_ionic",
    "e_electronic",
    "n",
    "e_ij_max",
    "weighted_surface_energy_EV_PER_ANG2",
    "weighted_surface_energy",
    "weighted_work_function",
    "surface_anisotropy",
    "shape_factor",
    "has_reconstructed",
    "possible_species",
    "has_props",
    "theoretical",
    "database_IDs"
  ]
}
