{
  "builder_meta": null,
  "nsites": null,
  "elements": null,
  "nelements": null,
  "composition": null,
  "composition_reduced": null,
  "formula_pretty": "MgAg3",
  "formula_anonymous": "AB3",
  "chemsys": null,
  "volume": 139.67657419948463,
  "density": 8.272217238376555,
  "density_atomic": 17.45957177493558,
  "symmetry": null,
  "property_name": null,
  "material_id": "mp-864934",
  "deprecated": null,
  "deprecation_reasons": null,
  "last_updated": null,
  "origins": null,
  "warnings": null,
  "structure": {
    "@module": "pymatgen.core.structure",
    "@class": "Structure",
    "charge": 0,
    "lattice": {
      "matrix": [
        [5.79715843, -1e-8, 0.0],
        [-2.89857973, 5.02048626, 0.0],
        [0.0, -0.0, 4.7991312]
      ],
      "pbc": [true, true, true],
      "a": 5.79715843,
      "b": 5.797158505510753,
      "c": 4.7991312,
      "alpha": 90.0,
      "beta": 90.0,
      "gamma": 120.00000554533896,
      "volume": 139.67657419948463
    },
    "properties": {},
    "sites": [
      {
        "species": [{ "element": "Mg", "occu": 1 }],
        "abc": [0.666667, 0.333333999999999, 0.25],
        "properties": { "magmom": -0.0 },
        "label": "Mg",
        "xyz": [2.898579043332993, 1.6734987603241651, 1.1997828]
      },
      {
        "species": [{ "element": "Mg", "occu": 1 }],
        "abc": [0.333333999999999, 0.666667, 0.750000999999999],
        "properties": { "magmom": -0.0 },
        "label": "Mg",
        "xyz": [2.5552457043609422e-6, 3.3469925101620803, 3.5993531991311953]
      },
      {
        "species": [{ "element": "Ag", "occu": 1 }],
        "abc": [0.16631317, 0.33262534, 0.25],
        "properties": { "magmom": -0.0 },
        "label": "Ag",
        "xyz": [2.7272771649933247e-6, 1.6699409475346967, 1.1997828]
      },
      {
        "species": [{ "element": "Ag", "occu": 1 }],
        "abc": [0.66737466, 0.83368783, 0.25],
        "properties": { "magmom": -0.0 },
        "label": "Ag",
        "xyz": [1.4523659910016975, 4.185518288970469, 1.1997828]
      },
      {
        "species": [{ "element": "Ag", "occu": 1 }],
        "abc": [0.16631417, 0.83368783, 0.25],
        "properties": { "magmom": -0.0 },
        "label": "Ag",
        "xyz": [-1.452361052541733, 4.185518293981074, 1.1997828]
      },
      {
        "species": [{ "element": "Ag", "occu": 1 }],
        "abc": [0.83368783, 0.16631317, 0.750000999999999],
        "properties": { "magmom": -0.0 },
        "label": "Ag",
        "xyz": [4.350948448278863, 0.834972976505166, 3.5993531991311953]
      },
      {
        "species": [{ "element": "Ag", "occu": 1 }],
        "abc": [0.33262534, 0.16631317, 0.750000999999999],
        "properties": { "magmom": -0.0 },
        "label": "Ag",
        "xyz": [1.4462098104185719, 0.8349729815157909, 3.5993531991311953]
      },
      {
        "species": [{ "element": "Ag", "occu": 1 }],
        "abc": [0.83368683, 0.66737566, 0.750000999999999],
        "properties": { "magmom": -0.0 },
        "label": "Ag",
        "xyz": [2.898573074143105, 3.350550322951564, 3.5993531991311953]
      }
    ]
  },
  "task_ids": null,
  "uncorrected_energy_per_atom": null,
  "energy_per_atom": -2.68632329875,
  "formation_energy_per_atom": -0.146502536249998,
  "energy_above_hull": 0.0,
  "is_stable": true,
  "equilibrium_reaction_energy_per_atom": null,
  "decomposes_to": null,
  "xas": null,
  "grain_boundaries": null,
  "band_gap": 0.0,
  "cbm": null,
  "vbm": null,
  "efermi": 3.6183329300000002,
  "is_gap_direct": null,
  "is_metal": null,
  "es_source_calc_id": null,
  "bandstructure": null,
  "dos": null,
  "dos_energy_up": null,
  "dos_energy_down": null,
  "is_magnetic": null,
  "ordering": null,
  "total_magnetization": 2e-7,
  "total_magnetization_normalized_vol": null,
  "total_magnetization_normalized_formula_units": null,
  "num_magnetic_sites": null,
  "num_unique_magnetic_sites": null,
  "types_of_magnetic_species": null,
  "bulk_modulus": null,
  "shear_modulus": null,
  "universal_anisotropy": null,
  "homogeneous_poisson": null,
  "e_total": null,
  "e_ionic": null,
  "e_electronic": null,
  "n": null,
  "e_ij_max": null,
  "weighted_surface_energy_EV_PER_ANG2": null,
  "weighted_surface_energy": null,
  "weighted_work_function": null,
  "surface_anisotropy": null,
  "shape_factor": null,
  "has_reconstructed": null,
  "possible_species": null,
  "has_props": null,
  "theoretical": null,
  "database_IDs": null,
  "fields_not_requested": [
    "builder_meta",
    "nsites",
    "elements",
    "nelements",
    "composition",
    "composition_reduced",
    "chemsys",
    "symmetry",
    "property_name",
    "deprecated",
    "deprecation_reasons",
    "last_updated",
    "origins",
    "warnings",
    "task_ids",
    "uncorrected_energy_per_atom",
    "equilibrium_reaction_energy_per_atom",
    "decomposes_to",
    "xas",
    "grain_boundaries",
    "cbm",
    "vbm",
    "is_gap_direct",
    "is_metal",
    "es_source_calc_id",
    "bandstructure",
    "dos",
    "dos_energy_up",
    "dos_energy_down",
    "is_magnetic",
    "ordering",
    "total_magnetization_normalized_vol",
    "total_magnetization_normalized_formula_units",
    "num_magnetic_sites",
    "num_unique_magnetic_sites",
    "types_of_magnetic_species",
    "bulk_modulus",
    "shear_modulus",
    "universal_anisotropy",
    "homogeneous_poisson",
    "e_total",
    "e_ionic",
    "e_electronic",
    "n",
    "e_ij_max",
    "weighted_surface_energy_EV_PER_ANG2",
    "weighted_surface_energy",
    "weighted_work_function",
    "surface_anisotropy",
    "shape_factor",
    "has_reconstructed",
    "possible_species",
    "has_props",
    "theoretical",
    "database_IDs"
  ]
}
