{"builder_meta": null, "nsites": null, "elements": null, "nelements": null, "composition": null, "composition_reduced": null, "formula_pretty": "MgAg2", "formula_anonymous": "AB2", "chemsys": null, "volume": 105.92991289108771, "density": 7.525695271951702, "density_atomic": 17.65498548184795, "symmetry": null, "property_name": null, "material_id": "mp-1185822", "deprecated": null, "deprecation_reasons": null, "last_updated": null, "origins": null, "warnings": null, "structure": {"@module": "pymatgen.core.structure", "@class": "Structure", "charge": 0, "lattice": {"matrix": [[2.48132758, -4.45147828, 0.0], [2.48132758, 4.45147828, 0.0], [-0.0, 0.0, 4.79512859]], "pbc": [true, true, true], "a": 5.096336472072896, "b": 5.096336472072896, "c": 4.79512859, "alpha": 90.0, "beta": 90.0, "gamma": 121.7279637884015, "volume": 105.92991289108771}, "properties": {}, "sites": [{"species": [{"element": "Mg", "occu": 1}], "abc": [0.8025992, 0.8025992, 0.75], "properties": {"magmom": 0.0}, "label": "Mg", "xyz": [3.983023061291872, 0.0, 3.5963464425]}, {"species": [{"element": "Mg", "occu": 1}], "abc": [0.1974008, 0.1974008, 0.25], "properties": {"magmom": 0.0}, "label": "Mg", "xyz": [0.9796320987081278, 0.0, 1.1987821475]}, {"species": [{"element": "Ag", "occu": 1}], "abc": [0.52055927, 0.852606099999999, 0.25], "properties": {"magmom": 0.0}, "label": "Ag", "xyz": [3.4072731044819022, 1.4780992516878482, 1.1987821475]}, {"species": [{"element": "Ag", "occu": 1}], "abc": [0.1473939, 0.47944073000000004, 0.75], "properties": {"magmom": 0.0}, "label": "Ag", "xyz": [1.5553820555180955, 1.4780992516878526, 3.5963464425]}, {"species": [{"element": "Ag", "occu": 1}], "abc": [0.47944073000000004, 0.1473939, 0.75], "properties": {"magmom": 0.0}, "label": "Ag", "xyz": [1.5553820555180955, -1.4780992516878526, 3.5963464425]}, {"species": [{"element": "Ag", "occu": 1}], "abc": [0.852606099999999, 0.52055927, 0.25], "properties": {"magmom": 0.0}, "label": "Ag", "xyz": [3.4072731044819022, -1.4780992516878482, 1.1987821475]}]}, "task_ids": null, "uncorrected_energy_per_atom": null, "energy_per_atom": -2.601628554999998, "formation_energy_per_atom": -0.16284676444444002, "energy_above_hull": 0.011627834166669002, "is_stable": false, "equilibrium_reaction_energy_per_atom": null, "decomposes_to": null, "xas": null, "grain_boundaries": null, "band_gap": 0.0, "cbm": null, "vbm": null, "efermi": 3.76798069, "is_gap_direct": null, "is_metal": null, "es_source_calc_id": null, "bandstructure": null, "dos": null, "dos_energy_up": null, "dos_energy_down": null, "is_magnetic": null, "ordering": null, "total_magnetization": 0.0, "total_magnetization_normalized_vol": null, "total_magnetization_normalized_formula_units": null, "num_magnetic_sites": null, "num_unique_magnetic_sites": null, "types_of_magnetic_species": null, "bulk_modulus": null, "shear_modulus": null, "universal_anisotropy": null, "homogeneous_poisson": null, "e_total": null, "e_ionic": null, "e_electronic": null, "n": null, "e_ij_max": null, "weighted_surface_energy_EV_PER_ANG2": null, "weighted_surface_energy": null, "weighted_work_function": null, "surface_anisotropy": null, "shape_factor": null, "has_reconstructed": null, "possible_species": null, "has_props": null, "theoretical": null, "database_IDs": null, "fields_not_requested": ["builder_meta", "nsites", "elements", "nelements", "composition", "composition_reduced", "chemsys", "symmetry", "property_name", "deprecated", "deprecation_reasons", "last_updated", "origins", "warnings", "task_ids", "uncorrected_energy_per_atom", "equilibrium_reaction_energy_per_atom", "decomposes_to", "xas", "grain_boundaries", "cbm", "vbm", "is_gap_direct", "is_metal", "es_source_calc_id", "bandstructure", "dos", "dos_energy_up", "dos_energy_down", "is_magnetic", "ordering", "total_magnetization_normalized_vol", "total_magnetization_normalized_formula_units", "num_magnetic_sites", "num_unique_magnetic_sites", "types_of_magnetic_species", "bulk_modulus", "shear_modulus", "universal_anisotropy", "homogeneous_poisson", "e_total", "e_ionic", "e_electronic", "n", "e_ij_max", "weighted_surface_energy_EV_PER_ANG2", "weighted_surface_energy", "weighted_work_function", "surface_anisotropy", "shape_factor", "has_reconstructed", "possible_species", "has_props", "theoretical", "database_IDs"]}