{
  "builder_meta": null,
  "nsites": null,
  "elements": null,
  "nelements": null,
  "composition": null,
  "composition_reduced": null,
  "formula_pretty": "MgAl2",
  "formula_anonymous": "AB2",
  "chemsys": null,
  "volume": 220.0360581527072,
  "density": 2.36265275699615,
  "density_atomic": 18.336338179392268,
  "symmetry": null,
  "property_name": null,
  "material_id": "mp-1094116",
  "deprecated": null,
  "deprecation_reasons": null,
  "last_updated": null,
  "origins": null,
  "warnings": null,
  "structure": {
    "@module": "pymatgen.core.structure",
    "@class": "Structure",
    "charge": 0,
    "lattice": {
      "matrix": [
        [-2.7200241800000002, -4.71122086, 0.0],
        [-2.7200241800000002, 4.71122086, 0.0],
        [0.0, 0.0, -8.58534262]
      ],
      "pbc": [true, true, true],
      "a": 5.440049037599184,
      "b": 5.440049037599184,
      "c": 8.58534262,
      "alpha": 90.0,
      "beta": 90.0,
      "gamma": 120.00000824066105,
      "volume": 220.03605815270723
    },
    "properties": {},
    "sites": [
      {
        "species": [{ "element": "Mg", "occu": 1 }],
        "abc": [0.666667, 0.333333999999999, 0.9365036600000001],
        "properties": { "magmom": -0.0 },
        "label": "Mg",
        "xyz": [-2.7200269000241777, -1.5704053829263847, -8.04020478598399]
      },
      {
        "species": [{ "element": "Mg", "occu": 1 }],
        "abc": [0.333333, 0.666666, 0.43650366],
        "properties": { "magmom": -0.0 },
        "label": "Mg",
        "xyz": [-2.72002145997582, 1.57040538292638, -3.7475334759839893]
      },
      {
        "species": [{ "element": "Mg", "occu": 1 }],
        "abc": [0.333333, 0.666666, 0.06349634],
        "properties": { "magmom": -0.0 },
        "label": "Mg",
        "xyz": [-2.72002145997582, 1.57040538292638, -0.5451378340160108]
      },
      {
        "species": [{ "element": "Mg", "occu": 1 }],
        "abc": [0.666667, 0.333333999999999, 0.56349634],
        "properties": { "magmom": -0.0 },
        "label": "Mg",
        "xyz": [-2.7200269000241777, -1.5704053829263847, -4.837809144016012]
      },
      {
        "species": [{ "element": "Al", "occu": 1 }],
        "abc": [0.0, -0.0, 0.0],
        "properties": { "magmom": -0.0 },
        "label": "Al",
        "xyz": [0.0, 0.0, 0.0]
      },
      {
        "species": [{ "element": "Al", "occu": 1 }],
        "abc": [0.0, -0.0, 0.5],
        "properties": { "magmom": -0.0 },
        "label": "Al",
        "xyz": [0.0, 0.0, -4.29267131]
      },
      {
        "species": [{ "element": "Al", "occu": 1 }],
        "abc": [0.8286656, 0.1713344, 0.25],
        "properties": { "magmom": 0.0 },
        "label": "Al",
        "xyz": [-2.7200241800000002, -3.096832461368832, -2.146335655]
      },
      {
        "species": [{ "element": "Al", "occu": 1 }],
        "abc": [0.1713344, 0.34266879, 0.75],
        "properties": { "magmom": 0.0 },
        "label": "Al",
        "xyz": [-1.3981011053971342, 0.8071941522033754, -6.439006965000001]
      },
      {
        "species": [{ "element": "Al", "occu": 1 }],
        "abc": [0.65733121, 0.8286656, 0.75],
        "properties": { "magmom": 0.0 },
        "label": "Al",
        "xyz": [-4.041947254602866, 0.8071941522033752, -6.439006965000001]
      },
      {
        "species": [{ "element": "Al", "occu": 1 }],
        "abc": [0.34266879, 0.1713344, 0.25],
        "properties": { "magmom": 0.0 },
        "label": "Al",
        "xyz": [-1.3981011053971342, -0.8071941522033754, -2.146335655]
      },
      {
        "species": [{ "element": "Al", "occu": 1 }],
        "abc": [0.8286656, 0.65733121, 0.25],
        "properties": { "magmom": 0.0 },
        "label": "Al",
        "xyz": [-4.041947254602866, -0.8071941522033752, -2.146335655]
      },
      {
        "species": [{ "element": "Al", "occu": 1 }],
        "abc": [0.1713344, 0.8286656, 0.75],
        "properties": { "magmom": 0.0 },
        "label": "Al",
        "xyz": [-2.7200241800000002, 3.096832461368832, -6.439006965000001]
      }
    ]
  },
  "task_ids": null,
  "uncorrected_energy_per_atom": null,
  "energy_per_atom": -3.052432861666666,
  "formation_energy_per_atom": -0.011892303333333002,
  "energy_above_hull": 0.0,
  "is_stable": true,
  "equilibrium_reaction_energy_per_atom": null,
  "decomposes_to": null,
  "xas": null,
  "grain_boundaries": null,
  "band_gap": 0.0,
  "cbm": null,
  "vbm": null,
  "efermi": 6.02951139,
  "is_gap_direct": null,
  "is_metal": null,
  "es_source_calc_id": null,
  "bandstructure": null,
  "dos": null,
  "dos_energy_up": null,
  "dos_energy_down": null,
  "is_magnetic": null,
  "ordering": null,
  "total_magnetization": 0.0,
  "total_magnetization_normalized_vol": null,
  "total_magnetization_normalized_formula_units": null,
  "num_magnetic_sites": null,
  "num_unique_magnetic_sites": null,
  "types_of_magnetic_species": null,
  "bulk_modulus": null,
  "shear_modulus": null,
  "universal_anisotropy": null,
  "homogeneous_poisson": null,
  "e_total": null,
  "e_ionic": null,
  "e_electronic": null,
  "n": null,
  "e_ij_max": null,
  "weighted_surface_energy_EV_PER_ANG2": null,
  "weighted_surface_energy": null,
  "weighted_work_function": null,
  "surface_anisotropy": null,
  "shape_factor": null,
  "has_reconstructed": null,
  "possible_species": null,
  "has_props": null,
  "theoretical": null,
  "database_IDs": null,
  "fields_not_requested": [
    "builder_meta",
    "nsites",
    "elements",
    "nelements",
    "composition",
    "composition_reduced",
    "chemsys",
    "symmetry",
    "property_name",
    "deprecated",
    "deprecation_reasons",
    "last_updated",
    "origins",
    "warnings",
    "task_ids",
    "uncorrected_energy_per_atom",
    "equilibrium_reaction_energy_per_atom",
    "decomposes_to",
    "xas",
    "grain_boundaries",
    "cbm",
    "vbm",
    "is_gap_direct",
    "is_metal",
    "es_source_calc_id",
    "bandstructure",
    "dos",
    "dos_energy_up",
    "dos_energy_down",
    "is_magnetic",
    "ordering",
    "total_magnetization_normalized_vol",
    "total_magnetization_normalized_formula_units",
    "num_magnetic_sites",
    "num_unique_magnetic_sites",
    "types_of_magnetic_species",
    "bulk_modulus",
    "shear_modulus",
    "universal_anisotropy",
    "homogeneous_poisson",
    "e_total",
    "e_ionic",
    "e_electronic",
    "n",
    "e_ij_max",
    "weighted_surface_energy_EV_PER_ANG2",
    "weighted_surface_energy",
    "weighted_work_function",
    "surface_anisotropy",
    "shape_factor",
    "has_reconstructed",
    "possible_species",
    "has_props",
    "theoretical",
    "database_IDs"
  ]
}
