{"builder_meta": null, "nsites": null, "elements": null, "nelements": null, "composition": null, "composition_reduced": null, "formula_pretty": "MgAs", "formula_anonymous": "AB", "chemsys": null, "volume": 131.47759358019545, "density": 3.759643934585464, "density_atomic": 21.912932263365906, "symmetry": null, "property_name": null, "material_id": "mp-1185845", "deprecated": null, "deprecation_reasons": null, "last_updated": null, "origins": null, "warnings": null, "structure": {"@module": "pymatgen.core.structure", "@class": "Structure", "charge": 0, "lattice": {"matrix": [[3.711297, -3.489584, 0.0], [3.711297, 3.489584, 0.0], [0.430181999999999, 0.0, 5.076009]], "pbc": [true, true, true], "a": 5.094204738255521, "b": 5.094204738255521, "c": 5.094204935140026, "alpha": 86.47286479105664, "beta": 86.47286479105664, "gamma": 86.47287402676575, "volume": 131.47759358019545}, "properties": {}, "sites": [{"species": [{"element": "Mg", "occu": 1}], "abc": [0.13403, 0.86597, 0.5], "properties": {"magmom": -0.0}, "label": "Mg", "xyz": [3.9263879999999998, 2.55416611296, 2.5380045]}, {"species": [{"element": "Mg", "occu": 1}], "abc": [0.5, 0.13403, 0.86597], "properties": {"magmom": -0.0}, "label": "Mg", "xyz": [2.7255983434499993, -1.27708305648, 4.39567151373]}, {"species": [{"element": "Mg", "occu": 1}], "abc": [0.86597, 0.5, 0.13403], "properties": {"magmom": -0.0}, "label": "Mg", "xyz": [5.12717765655, -1.27708305648, 0.68033748627]}, {"species": [{"element": "As", "occu": 1}], "abc": [0.0, 0.0, 0.0], "properties": {"magmom": -0.0}, "label": "As", "xyz": [0.0, 0.0, 0.0]}, {"species": [{"element": "As", "occu": 1}], "abc": [0.364309, 0.364309, 0.364309], "properties": {"magmom": -0.0}, "label": "As", "xyz": [2.860836971784, 0.0, 1.8492357627809999]}, {"species": [{"element": "As", "occu": 1}], "abc": [0.635691, 0.635691, 0.635691], "properties": {"magmom": -0.0}, "label": "As", "xyz": [4.991939028216, 0.0, 3.226773237219]}]}, "task_ids": null, "uncorrected_energy_per_atom": null, "energy_per_atom": -9.973420921312501, "formation_energy_per_atom": -0.5350036350625, "energy_above_hull": 0.13188630812499902, "is_stable": false, "equilibrium_reaction_energy_per_atom": null, "decomposes_to": null, "xas": null, "grain_boundaries": null, "band_gap": 0.0, "cbm": null, "vbm": null, "efermi": 3.88936709, "is_gap_direct": null, "is_metal": null, "es_source_calc_id": null, "bandstructure": null, "dos": null, "dos_energy_up": null, "dos_energy_down": null, "is_magnetic": null, "ordering": null, "total_magnetization": 0.0016265, "total_magnetization_normalized_vol": null, "total_magnetization_normalized_formula_units": null, "num_magnetic_sites": null, "num_unique_magnetic_sites": null, "types_of_magnetic_species": null, "bulk_modulus": null, "shear_modulus": null, "universal_anisotropy": null, "homogeneous_poisson": null, "e_total": null, "e_ionic": null, "e_electronic": null, "n": null, "e_ij_max": null, "weighted_surface_energy_EV_PER_ANG2": null, "weighted_surface_energy": null, "weighted_work_function": null, "surface_anisotropy": null, "shape_factor": null, "has_reconstructed": null, "possible_species": null, "has_props": null, "theoretical": null, "database_IDs": null, "fields_not_requested": ["builder_meta", "nsites", "elements", "nelements", "composition", "composition_reduced", "chemsys", "symmetry", "property_name", "deprecated", "deprecation_reasons", "last_updated", "origins", "warnings", "task_ids", "uncorrected_energy_per_atom", "equilibrium_reaction_energy_per_atom", "decomposes_to", "xas", "grain_boundaries", "cbm", "vbm", "is_gap_direct", "is_metal", "es_source_calc_id", "bandstructure", "dos", "dos_energy_up", "dos_energy_down", "is_magnetic", "ordering", "total_magnetization_normalized_vol", "total_magnetization_normalized_formula_units", "num_magnetic_sites", "num_unique_magnetic_sites", "types_of_magnetic_species", "bulk_modulus", "shear_modulus", "universal_anisotropy", "homogeneous_poisson", "e_total", "e_ionic", "e_electronic", "n", "e_ij_max", "weighted_surface_energy_EV_PER_ANG2", "weighted_surface_energy", "weighted_work_function", "surface_anisotropy", "shape_factor", "has_reconstructed", "possible_species", "has_props", "theoretical", "database_IDs"]}