{
  "builder_meta": null,
  "nsites": null,
  "elements": null,
  "nelements": null,
  "composition": null,
  "composition_reduced": null,
  "formula_pretty": "MgAs4",
  "formula_anonymous": "AB4",
  "chemsys": null,
  "volume": 469.7396236555229,
  "density": 4.581264597231103,
  "density_atomic": 23.486981182776145,
  "symmetry": null,
  "property_name": null,
  "material_id": "mp-7623",
  "deprecated": null,
  "deprecation_reasons": null,
  "last_updated": null,
  "origins": null,
  "warnings": null,
  "structure": {
    "@module": "pymatgen.core.structure",
    "@class": "Structure",
    "charge": 0,
    "lattice": {
      "matrix": [
        [5.42958383, 0.0, 0.0],
        [-0.0, 5.42958383, -0.0],
        [-0.0, 0.0, 15.93397421]
      ],
      "pbc": [true, true, true],
      "a": 5.42958383,
      "b": 5.42958383,
      "c": 15.93397421,
      "alpha": 90.0,
      "beta": 90.0,
      "gamma": 90.0,
      "volume": 469.7396236555229
    },
    "properties": {},
    "sites": [
      {
        "species": [{ "element": "Mg", "occu": 1 }],
        "abc": [0.80307451, 0.80307451, 0.5],
        "properties": { "magmom": -0.0 },
        "label": "Mg",
        "xyz": [4.360360373781173, 4.360360373781173, 7.966987105]
      },
      {
        "species": [{ "element": "Mg", "occu": 1 }],
        "abc": [0.69692549, 0.30307451, 0.75],
        "properties": { "magmom": -0.0 },
        "label": "Mg",
        "xyz": [3.784015371218827, 1.6455684587811734, 11.9504806575]
      },
      {
        "species": [{ "element": "Mg", "occu": 1 }],
        "abc": [0.30307451, 0.69692549, 0.25],
        "properties": { "magmom": -0.0 },
        "label": "Mg",
        "xyz": [1.6455684587811734, 3.784015371218827, 3.9834935525]
      },
      {
        "species": [{ "element": "Mg", "occu": 1 }],
        "abc": [0.19692549, 0.19692549, -0.0],
        "properties": { "magmom": -0.0 },
        "label": "Mg",
        "xyz": [1.0692234562188268, 1.0692234562188268, 0.0]
      },
      {
        "species": [{ "element": "As", "occu": 1 }],
        "abc": [0.40014389, 0.4787342, 0.87498271],
        "properties": { "magmom": 0.0 },
        "label": "As",
        "xyz": [2.172614794817299, 2.599327471187986, 13.94195193533591]
      },
      {
        "species": [{ "element": "As", "occu": 1 }],
        "abc": [0.9001438900000001, 0.021265799999999002, 0.8750172900000001],
        "properties": { "magmom": 0.0 },
        "label": "As",
        "xyz": [4.8874067098172995, 0.11546444381200859, 13.942502932164093]
      },
      {
        "species": [{ "element": "As", "occu": 1 }],
        "abc": [0.9787342, 0.09985611, 0.62498271],
        "properties": { "magmom": 0.0 },
        "label": "As",
        "xyz": [5.314119386187986, 0.5421771201827014, 9.95845838283591]
      },
      {
        "species": [{ "element": "As", "occu": 1 }],
        "abc": [0.021265799999999002, 0.9001438900000001, 0.12498271],
        "properties": { "magmom": 0.0 },
        "label": "As",
        "xyz": [0.11546444381200859, 4.8874067098172995, 1.9914712778359092]
      },
      {
        "species": [{ "element": "As", "occu": 1 }],
        "abc": [0.67617833, 0.06842713, 0.20253262],
        "properties": { "magmom": -0.0 },
        "label": "As",
        "xyz": [3.6713669267644042, 0.3715308385813079, 3.2271495437637303]
      },
      {
        "species": [{ "element": "As", "occu": 1 }],
        "abc": [0.43157287, 0.17617833, 0.45253262],
        "properties": { "magmom": -0.0 },
        "label": "As",
        "xyz": [2.3432610764186923, 0.956575011764404, 7.2106430962637305]
      },
      {
        "species": [{ "element": "As", "occu": 1 }],
        "abc": [0.56842713, 0.8238216700000001, 0.95253262],
        "properties": { "magmom": -0.0 },
        "label": "As",
        "xyz": [3.086322753581308, 4.473008818235597, 15.177630201263732]
      },
      {
        "species": [{ "element": "As", "occu": 1 }],
        "abc": [0.17617833, 0.43157287, 0.5474673800000001],
        "properties": { "magmom": -0.0 },
        "label": "As",
        "xyz": [0.956575011764404, 2.3432610764186923, 8.723331113736272]
      },
      {
        "species": [{ "element": "As", "occu": 1 }],
        "abc": [0.8238216700000001, 0.56842713, 0.04746738],
        "properties": { "magmom": -0.0 },
        "label": "As",
        "xyz": [4.473008818235597, 3.086322753581308, 0.7563440087362698]
      },
      {
        "species": [{ "element": "As", "occu": 1 }],
        "abc": [0.32382167, 0.93157287, 0.70253262],
        "properties": { "magmom": -0.0 },
        "label": "As",
        "xyz": [1.7582169032355963, 5.058052991418692, 11.194136648763731]
      },
      {
        "species": [{ "element": "As", "occu": 1 }],
        "abc": [0.06842713, 0.67617833, 0.7974673800000001],
        "properties": { "magmom": -0.0 },
        "label": "As",
        "xyz": [0.3715308385813079, 3.6713669267644042, 12.70682466623627]
      },
      {
        "species": [{ "element": "As", "occu": 1 }],
        "abc": [0.93157287, 0.32382167, 0.29746738],
        "properties": { "magmom": -0.0 },
        "label": "As",
        "xyz": [5.058052991418692, 1.7582169032355963, 4.73983756123627]
      },
      {
        "species": [{ "element": "As", "occu": 1 }],
        "abc": [0.59985611, 0.5212658, 0.37498271],
        "properties": { "magmom": 0.0 },
        "label": "As",
        "xyz": [3.256969035182702, 2.830256358812014, 5.974964830335909]
      },
      {
        "species": [{ "element": "As", "occu": 1 }],
        "abc": [0.4787342, 0.40014389, 0.12501729],
        "properties": { "magmom": 0.0 },
        "label": "As",
        "xyz": [2.599327471187986, 2.172614794817299, 1.992022274664091]
      },
      {
        "species": [{ "element": "As", "occu": 1 }],
        "abc": [0.5212658, 0.59985611, 0.6250172900000001],
        "properties": { "magmom": 0.0 },
        "label": "As",
        "xyz": [2.830256358812014, 3.256969035182702, 9.959009379664092]
      },
      {
        "species": [{ "element": "As", "occu": 1 }],
        "abc": [0.09985611, 0.9787342, 0.37501729],
        "properties": { "magmom": 0.0 },
        "label": "As",
        "xyz": [0.5421771201827014, 5.314119386187986, 5.975515827164092]
      }
    ]
  },
  "task_ids": null,
  "uncorrected_energy_per_atom": null,
  "energy_per_atom": -12.904779862000002,
  "formation_energy_per_atom": -0.304894355,
  "energy_above_hull": 0.0,
  "is_stable": true,
  "equilibrium_reaction_energy_per_atom": null,
  "decomposes_to": null,
  "xas": null,
  "grain_boundaries": null,
  "band_gap": 0.8144,
  "cbm": null,
  "vbm": null,
  "efermi": 3.60200423,
  "is_gap_direct": null,
  "is_metal": null,
  "es_source_calc_id": null,
  "bandstructure": null,
  "dos": null,
  "dos_energy_up": null,
  "dos_energy_down": null,
  "is_magnetic": null,
  "ordering": null,
  "total_magnetization": 0.0,
  "total_magnetization_normalized_vol": null,
  "total_magnetization_normalized_formula_units": null,
  "num_magnetic_sites": null,
  "num_unique_magnetic_sites": null,
  "types_of_magnetic_species": null,
  "bulk_modulus": null,
  "shear_modulus": null,
  "universal_anisotropy": null,
  "homogeneous_poisson": null,
  "e_total": null,
  "e_ionic": null,
  "e_electronic": null,
  "n": null,
  "e_ij_max": null,
  "weighted_surface_energy_EV_PER_ANG2": null,
  "weighted_surface_energy": null,
  "weighted_work_function": null,
  "surface_anisotropy": null,
  "shape_factor": null,
  "has_reconstructed": null,
  "possible_species": null,
  "has_props": null,
  "theoretical": null,
  "database_IDs": null,
  "fields_not_requested": [
    "builder_meta",
    "nsites",
    "elements",
    "nelements",
    "composition",
    "composition_reduced",
    "chemsys",
    "symmetry",
    "property_name",
    "deprecated",
    "deprecation_reasons",
    "last_updated",
    "origins",
    "warnings",
    "task_ids",
    "uncorrected_energy_per_atom",
    "equilibrium_reaction_energy_per_atom",
    "decomposes_to",
    "xas",
    "grain_boundaries",
    "cbm",
    "vbm",
    "is_gap_direct",
    "is_metal",
    "es_source_calc_id",
    "bandstructure",
    "dos",
    "dos_energy_up",
    "dos_energy_down",
    "is_magnetic",
    "ordering",
    "total_magnetization_normalized_vol",
    "total_magnetization_normalized_formula_units",
    "num_magnetic_sites",
    "num_unique_magnetic_sites",
    "types_of_magnetic_species",
    "bulk_modulus",
    "shear_modulus",
    "universal_anisotropy",
    "homogeneous_poisson",
    "e_total",
    "e_ionic",
    "e_electronic",
    "n",
    "e_ij_max",
    "weighted_surface_energy_EV_PER_ANG2",
    "weighted_surface_energy",
    "weighted_work_function",
    "surface_anisotropy",
    "shape_factor",
    "has_reconstructed",
    "possible_species",
    "has_props",
    "theoretical",
    "database_IDs"
  ]
}
