{
  "builder_meta": null,
  "nsites": null,
  "elements": null,
  "nelements": null,
  "composition": null,
  "composition_reduced": null,
  "formula_pretty": "MgAu2",
  "formula_anonymous": "AB2",
  "chemsys": null,
  "volume": 105.6651217589683,
  "density": 13.145317125082409,
  "density_atomic": 17.610853626494716,
  "symmetry": null,
  "property_name": null,
  "material_id": "mp-2019934",
  "deprecated": null,
  "deprecation_reasons": null,
  "last_updated": null,
  "origins": null,
  "warnings": null,
  "structure": {
    "@module": "pymatgen.core.structure",
    "@class": "Structure",
    "charge": 0,
    "lattice": {
      "matrix": [
        [1.6889148600000001, 4.75576107, 0.05418855],
        [-1.6889148600000001, 4.75576107, 0.05418855],
        [0.0, 2.56044339, 6.60687166]
      ],
      "pbc": [true, true, true],
      "a": 5.047042020650062,
      "b": 5.047042020650062,
      "c": 7.085663235372244,
      "alpha": 69.48138293795719,
      "beta": 69.48138293795719,
      "gamma": 39.10063872567671,
      "volume": 105.66512175896831
    },
    "properties": {},
    "sites": [
      {
        "species": [{ "element": "Mg", "occu": 1 }],
        "abc": [0.0014157, 0.0014157, 0.74810632],
        "properties": { "magmom": -0.0 },
        "label": "Mg",
        "xyz": [0.0, 1.9289493439548229, 4.942795873735362]
      },
      {
        "species": [{ "element": "Mg", "occu": 1 }],
        "abc": [0.9985843, 0.9985843, 0.25189368],
        "properties": { "magmom": -0.0 },
        "label": "Mg",
        "xyz": [0.0, 10.143016186045177, 1.772452886264639]
      },
      {
        "species": [{ "element": "Au", "occu": 1 }],
        "abc": [0.66034995, 0.66034995, 0.92124012],
        "properties": { "magmom": 0.0 },
        "label": "Au",
        "xyz": [0.0, 8.639716345429699, 6.158082053449144]
      },
      {
        "species": [{ "element": "Au", "occu": 1 }],
        "abc": [0.33965005, 0.33965005, 0.07875988],
        "properties": { "magmom": 0.0 },
        "label": "Au",
        "xyz": [0.0, 3.4322491845703005, 0.5571667065508558]
      },
      {
        "species": [{ "element": "Au", "occu": 1 }],
        "abc": [0.6616304, 0.6616304, 0.41776378000000003],
        "properties": { "magmom": 0.0 },
        "label": "Au",
        "xyz": [0.0, 7.36277270717947, 2.8318172626803153]
      },
      {
        "species": [{ "element": "Au", "occu": 1 }],
        "abc": [0.3383696, 0.3383696, 0.58223622],
        "properties": { "magmom": 0.0 },
        "label": "Au",
        "xyz": [0.0, 4.70919282282053, 3.8834314973196853]
      }
    ]
  },
  "task_ids": null,
  "uncorrected_energy_per_atom": null,
  "energy_per_atom": -35.59365629333333,
  "formation_energy_per_atom": -0.48058166500000205,
  "energy_above_hull": 0.002337277499997,
  "is_stable": false,
  "equilibrium_reaction_energy_per_atom": null,
  "decomposes_to": null,
  "xas": null,
  "grain_boundaries": null,
  "band_gap": 0.0,
  "cbm": null,
  "vbm": null,
  "efermi": 7.08358299,
  "is_gap_direct": null,
  "is_metal": null,
  "es_source_calc_id": null,
  "bandstructure": null,
  "dos": null,
  "dos_energy_up": null,
  "dos_energy_down": null,
  "is_magnetic": null,
  "ordering": null,
  "total_magnetization": 0.0,
  "total_magnetization_normalized_vol": null,
  "total_magnetization_normalized_formula_units": null,
  "num_magnetic_sites": null,
  "num_unique_magnetic_sites": null,
  "types_of_magnetic_species": null,
  "bulk_modulus": null,
  "shear_modulus": null,
  "universal_anisotropy": null,
  "homogeneous_poisson": null,
  "e_total": null,
  "e_ionic": null,
  "e_electronic": null,
  "n": null,
  "e_ij_max": null,
  "weighted_surface_energy_EV_PER_ANG2": null,
  "weighted_surface_energy": null,
  "weighted_work_function": null,
  "surface_anisotropy": null,
  "shape_factor": null,
  "has_reconstructed": null,
  "possible_species": null,
  "has_props": null,
  "theoretical": null,
  "database_IDs": null,
  "fields_not_requested": [
    "builder_meta",
    "nsites",
    "elements",
    "nelements",
    "composition",
    "composition_reduced",
    "chemsys",
    "symmetry",
    "property_name",
    "deprecated",
    "deprecation_reasons",
    "last_updated",
    "origins",
    "warnings",
    "task_ids",
    "uncorrected_energy_per_atom",
    "equilibrium_reaction_energy_per_atom",
    "decomposes_to",
    "xas",
    "grain_boundaries",
    "cbm",
    "vbm",
    "is_gap_direct",
    "is_metal",
    "es_source_calc_id",
    "bandstructure",
    "dos",
    "dos_energy_up",
    "dos_energy_down",
    "is_magnetic",
    "ordering",
    "total_magnetization_normalized_vol",
    "total_magnetization_normalized_formula_units",
    "num_magnetic_sites",
    "num_unique_magnetic_sites",
    "types_of_magnetic_species",
    "bulk_modulus",
    "shear_modulus",
    "universal_anisotropy",
    "homogeneous_poisson",
    "e_total",
    "e_ionic",
    "e_electronic",
    "n",
    "e_ij_max",
    "weighted_surface_energy_EV_PER_ANG2",
    "weighted_surface_energy",
    "weighted_work_function",
    "surface_anisotropy",
    "shape_factor",
    "has_reconstructed",
    "possible_species",
    "has_props",
    "theoretical",
    "database_IDs"
  ]
}
