{
  "builder_meta": null,
  "nsites": null,
  "elements": null,
  "nelements": null,
  "composition": null,
  "composition_reduced": null,
  "formula_pretty": "MgB3",
  "formula_anonymous": "AB3",
  "chemsys": null,
  "volume": 107.7985566493393,
  "density": 1.747994935910456,
  "density_atomic": 13.474819581167413,
  "symmetry": null,
  "property_name": null,
  "material_id": "mp-1222002",
  "deprecated": null,
  "deprecation_reasons": null,
  "last_updated": null,
  "origins": null,
  "warnings": null,
  "structure": {
    "@module": "pymatgen.core.structure",
    "@class": "Structure",
    "charge": 0,
    "lattice": {
      "matrix": [
        [4.115013, 0.0, 0.0],
        [0.0, 4.115013, 0.0],
        [0.0, 0.0, 6.366057]
      ],
      "pbc": [true, true, true],
      "a": 4.115013,
      "b": 4.115013,
      "c": 6.366057,
      "alpha": 90.0,
      "beta": 90.0,
      "gamma": 90.0,
      "volume": 107.7985566493393
    },
    "properties": {},
    "sites": [
      {
        "species": [{ "element": "Mg", "occu": 1 }],
        "abc": [0.5, 0.5, 0.7234600000000001],
        "properties": { "magmom": -0.0 },
        "label": "Mg",
        "xyz": [2.0575065, 2.0575065, 4.60558759722]
      },
      {
        "species": [{ "element": "Mg", "occu": 1 }],
        "abc": [0.5, 0.5, 0.27654],
        "properties": { "magmom": -0.0 },
        "label": "Mg",
        "xyz": [2.0575065, 2.0575065, 1.7604694027799999]
      },
      {
        "species": [{ "element": "B", "occu": 1 }],
        "abc": [0.0, 0.300942999999999, 0.0],
        "properties": { "magmom": -0.0 },
        "label": "B",
        "xyz": [0.0, 1.238384357258996, 0.0]
      },
      {
        "species": [{ "element": "B", "occu": 1 }],
        "abc": [0.0, 0.699056999999999, 0.0],
        "properties": { "magmom": -0.0 },
        "label": "B",
        "xyz": [0.0, 2.876628642740996, 0.0]
      },
      {
        "species": [{ "element": "B", "occu": 1 }],
        "abc": [0.699056999999999, 0.0, 0.0],
        "properties": { "magmom": -0.0 },
        "label": "B",
        "xyz": [2.876628642740996, 0.0, 0.0]
      },
      {
        "species": [{ "element": "B", "occu": 1 }],
        "abc": [0.300942999999999, 0.0, 0.0],
        "properties": { "magmom": -0.0 },
        "label": "B",
        "xyz": [1.238384357258996, 0.0, 0.0]
      },
      {
        "species": [{ "element": "B", "occu": 1 }],
        "abc": [0.0, 0.0, 0.810091999999999],
        "properties": { "magmom": -0.0 },
        "label": "B",
        "xyz": [0.0, 0.0, 5.1570918472439935]
      },
      {
        "species": [{ "element": "B", "occu": 1 }],
        "abc": [0.0, 0.0, 0.189908],
        "properties": { "magmom": -0.0 },
        "label": "B",
        "xyz": [0.0, 0.0, 1.208965152756]
      }
    ]
  },
  "task_ids": null,
  "uncorrected_energy_per_atom": null,
  "energy_per_atom": -6.2524701953125,
  "formation_energy_per_atom": 0.29962134906249904,
  "energy_above_hull": 0.47358079874999903,
  "is_stable": false,
  "equilibrium_reaction_energy_per_atom": null,
  "decomposes_to": null,
  "xas": null,
  "grain_boundaries": null,
  "band_gap": 0.0,
  "cbm": null,
  "vbm": null,
  "efermi": 3.63554436,
  "is_gap_direct": null,
  "is_metal": null,
  "es_source_calc_id": null,
  "bandstructure": null,
  "dos": null,
  "dos_energy_up": null,
  "dos_energy_down": null,
  "is_magnetic": null,
  "ordering": null,
  "total_magnetization": 0.001136799999999,
  "total_magnetization_normalized_vol": null,
  "total_magnetization_normalized_formula_units": null,
  "num_magnetic_sites": null,
  "num_unique_magnetic_sites": null,
  "types_of_magnetic_species": null,
  "bulk_modulus": null,
  "shear_modulus": null,
  "universal_anisotropy": null,
  "homogeneous_poisson": null,
  "e_total": null,
  "e_ionic": null,
  "e_electronic": null,
  "n": null,
  "e_ij_max": null,
  "weighted_surface_energy_EV_PER_ANG2": null,
  "weighted_surface_energy": null,
  "weighted_work_function": null,
  "surface_anisotropy": null,
  "shape_factor": null,
  "has_reconstructed": null,
  "possible_species": null,
  "has_props": null,
  "theoretical": null,
  "database_IDs": null,
  "fields_not_requested": [
    "builder_meta",
    "nsites",
    "elements",
    "nelements",
    "composition",
    "composition_reduced",
    "chemsys",
    "symmetry",
    "property_name",
    "deprecated",
    "deprecation_reasons",
    "last_updated",
    "origins",
    "warnings",
    "task_ids",
    "uncorrected_energy_per_atom",
    "equilibrium_reaction_energy_per_atom",
    "decomposes_to",
    "xas",
    "grain_boundaries",
    "cbm",
    "vbm",
    "is_gap_direct",
    "is_metal",
    "es_source_calc_id",
    "bandstructure",
    "dos",
    "dos_energy_up",
    "dos_energy_down",
    "is_magnetic",
    "ordering",
    "total_magnetization_normalized_vol",
    "total_magnetization_normalized_formula_units",
    "num_magnetic_sites",
    "num_unique_magnetic_sites",
    "types_of_magnetic_species",
    "bulk_modulus",
    "shear_modulus",
    "universal_anisotropy",
    "homogeneous_poisson",
    "e_total",
    "e_ionic",
    "e_electronic",
    "n",
    "e_ij_max",
    "weighted_surface_energy_EV_PER_ANG2",
    "weighted_surface_energy",
    "weighted_work_function",
    "surface_anisotropy",
    "shape_factor",
    "has_reconstructed",
    "possible_species",
    "has_props",
    "theoretical",
    "database_IDs"
  ]
}
