{
  "builder_meta": null,
  "nsites": null,
  "elements": null,
  "nelements": null,
  "composition": null,
  "composition_reduced": null,
  "formula_pretty": "MgB4",
  "formula_anonymous": "AB4",
  "chemsys": null,
  "volume": 177.51255307952263,
  "density": 2.527545268520004,
  "density_atomic": 8.875627653976132,
  "symmetry": null,
  "property_name": null,
  "material_id": "mp-365",
  "deprecated": null,
  "deprecation_reasons": null,
  "last_updated": null,
  "origins": null,
  "warnings": null,
  "structure": {
    "@module": "pymatgen.core.structure",
    "@class": "Structure",
    "charge": 0,
    "lattice": {
      "matrix": [
        [4.37815396, 0.0, 0.0],
        [0.0, 5.46947776, 0.0],
        [0.0, 0.0, 7.41296893]
      ],
      "pbc": [true, true, true],
      "a": 4.37815396,
      "b": 5.46947776,
      "c": 7.41296893,
      "alpha": 90.0,
      "beta": 90.0,
      "gamma": 90.0,
      "volume": 177.51255307952263
    },
    "properties": {},
    "sites": [
      {
        "species": [{ "element": "Mg", "occu": 1 }],
        "abc": [0.75, 0.95379716, 0.13907159],
        "properties": { "magmom": -0.0 },
        "label": "Mg",
        "xyz": [3.28361547, 5.216772354171162, 1.0309333757156987]
      },
      {
        "species": [{ "element": "Mg", "occu": 1 }],
        "abc": [0.25, 0.04620284, 0.86092841],
        "properties": { "magmom": -0.0 },
        "label": "Mg",
        "xyz": [1.09453849, 0.25270540582883844, 6.382035554284301]
      },
      {
        "species": [{ "element": "Mg", "occu": 1 }],
        "abc": [0.75, 0.45379716000000003, 0.36092841000000003],
        "properties": { "magmom": -0.0 },
        "label": "Mg",
        "xyz": [3.28361547, 2.482033474171162, 2.6755510892843013]
      },
      {
        "species": [{ "element": "Mg", "occu": 1 }],
        "abc": [0.25, 0.54620284, 0.63907159],
        "properties": { "magmom": -0.0 },
        "label": "Mg",
        "xyz": [1.09453849, 2.9874442858288384, 4.737417840715699]
      },
      {
        "species": [{ "element": "B", "occu": 1 }],
        "abc": [0.75, 0.27837325, 0.65270989],
        "properties": { "magmom": -0.0 },
        "label": "B",
        "xyz": [3.28361547, 1.5225562998539202, 4.838518134873718]
      },
      {
        "species": [{ "element": "B", "occu": 1 }],
        "abc": [0.25, 0.72162675, 0.34729011],
        "properties": { "magmom": -0.0 },
        "label": "B",
        "xyz": [1.09453849, 3.94692146014608, 2.5744507951262823]
      },
      {
        "species": [{ "element": "B", "occu": 1 }],
        "abc": [0.75, 0.77837325, 0.84729011],
        "properties": { "magmom": -0.0 },
        "label": "B",
        "xyz": [3.28361547, 4.25729517985392, 6.280935260126282]
      },
      {
        "species": [{ "element": "B", "occu": 1 }],
        "abc": [0.25, 0.22162675, 0.15270989000000001],
        "properties": { "magmom": -0.0 },
        "label": "B",
        "xyz": [1.09453849, 1.2121825801460802, 1.132033669873718]
      },
      {
        "species": [{ "element": "B", "occu": 1 }],
        "abc": [0.75, 0.4469066, 0.85259768],
        "properties": { "magmom": -0.0 },
        "label": "B",
        "xyz": [3.28361547, 2.444345709497216, 6.320280111630082]
      },
      {
        "species": [{ "element": "B", "occu": 1 }],
        "abc": [0.25, 0.5530934, 0.14740232],
        "properties": { "magmom": -0.0 },
        "label": "B",
        "xyz": [1.09453849, 3.025132050502784, 1.0926888183699177]
      },
      {
        "species": [{ "element": "B", "occu": 1 }],
        "abc": [0.75, 0.946906599999999, 0.64740232],
        "properties": { "magmom": -0.0 },
        "label": "B",
        "xyz": [3.28361547, 5.179084589497211, 4.799173283369917]
      },
      {
        "species": [{ "element": "B", "occu": 1 }],
        "abc": [0.25, 0.0530934, 0.35259768],
        "properties": { "magmom": -0.0 },
        "label": "B",
        "xyz": [1.09453849, 0.290393170502784, 2.6137956466300825]
      },
      {
        "species": [{ "element": "B", "occu": 1 }],
        "abc": [0.55799918, 0.86690139, 0.43715726],
        "properties": { "magmom": 0.0 },
        "label": "B",
        "xyz": [2.443006319593753, 4.741497872718086, 3.2406331859039317]
      },
      {
        "species": [{ "element": "B", "occu": 1 }],
        "abc": [0.057999180000000004, 0.13309861, 0.56284274],
        "properties": { "magmom": 0.0 },
        "label": "B",
        "xyz": [0.2539293395937528, 0.7279798872819137, 4.172335744096068]
      },
      {
        "species": [{ "element": "B", "occu": 1 }],
        "abc": [0.9420008200000001, 0.36690139, 0.06284274000000001],
        "properties": { "magmom": 0.0 },
        "label": "B",
        "xyz": [4.124224620406247, 2.0067589927180864, 0.46585127909606827]
      },
      {
        "species": [{ "element": "B", "occu": 1 }],
        "abc": [0.44200082, 0.63309861, 0.93715726],
        "properties": { "magmom": 0.0 },
        "label": "B",
        "xyz": [1.935147640406247, 3.4627187672819137, 6.947117650903932]
      },
      {
        "species": [{ "element": "B", "occu": 1 }],
        "abc": [0.44200082, 0.13309861, 0.56284274],
        "properties": { "magmom": 0.0 },
        "label": "B",
        "xyz": [1.935147640406247, 0.7279798872819137, 4.172335744096068]
      },
      {
        "species": [{ "element": "B", "occu": 1 }],
        "abc": [0.9420008200000001, 0.86690139, 0.43715726],
        "properties": { "magmom": 0.0 },
        "label": "B",
        "xyz": [4.124224620406247, 4.741497872718086, 3.2406331859039317]
      },
      {
        "species": [{ "element": "B", "occu": 1 }],
        "abc": [0.057999180000000004, 0.63309861, 0.93715726],
        "properties": { "magmom": 0.0 },
        "label": "B",
        "xyz": [0.2539293395937528, 3.4627187672819137, 6.947117650903932]
      },
      {
        "species": [{ "element": "B", "occu": 1 }],
        "abc": [0.55799918, 0.36690139, 0.06284274000000001],
        "properties": { "magmom": 0.0 },
        "label": "B",
        "xyz": [2.443006319593753, 2.0067589927180864, 0.46585127909606827]
      }
    ]
  },
  "task_ids": null,
  "uncorrected_energy_per_atom": null,
  "energy_per_atom": -6.8837363985,
  "formation_energy_per_atom": -0.1727923235,
  "energy_above_hull": 0.0,
  "is_stable": true,
  "equilibrium_reaction_energy_per_atom": null,
  "decomposes_to": null,
  "xas": null,
  "grain_boundaries": null,
  "band_gap": 0.36409999999999904,
  "cbm": null,
  "vbm": null,
  "efermi": 6.93534503,
  "is_gap_direct": null,
  "is_metal": null,
  "es_source_calc_id": null,
  "bandstructure": null,
  "dos": null,
  "dos_energy_up": null,
  "dos_energy_down": null,
  "is_magnetic": null,
  "ordering": null,
  "total_magnetization": 0.0,
  "total_magnetization_normalized_vol": null,
  "total_magnetization_normalized_formula_units": null,
  "num_magnetic_sites": null,
  "num_unique_magnetic_sites": null,
  "types_of_magnetic_species": null,
  "bulk_modulus": null,
  "shear_modulus": null,
  "universal_anisotropy": null,
  "homogeneous_poisson": null,
  "e_total": null,
  "e_ionic": null,
  "e_electronic": null,
  "n": null,
  "e_ij_max": null,
  "weighted_surface_energy_EV_PER_ANG2": null,
  "weighted_surface_energy": null,
  "weighted_work_function": null,
  "surface_anisotropy": null,
  "shape_factor": null,
  "has_reconstructed": null,
  "possible_species": null,
  "has_props": null,
  "theoretical": null,
  "database_IDs": null,
  "fields_not_requested": [
    "builder_meta",
    "nsites",
    "elements",
    "nelements",
    "composition",
    "composition_reduced",
    "chemsys",
    "symmetry",
    "property_name",
    "deprecated",
    "deprecation_reasons",
    "last_updated",
    "origins",
    "warnings",
    "task_ids",
    "uncorrected_energy_per_atom",
    "equilibrium_reaction_energy_per_atom",
    "decomposes_to",
    "xas",
    "grain_boundaries",
    "cbm",
    "vbm",
    "is_gap_direct",
    "is_metal",
    "es_source_calc_id",
    "bandstructure",
    "dos",
    "dos_energy_up",
    "dos_energy_down",
    "is_magnetic",
    "ordering",
    "total_magnetization_normalized_vol",
    "total_magnetization_normalized_formula_units",
    "num_magnetic_sites",
    "num_unique_magnetic_sites",
    "types_of_magnetic_species",
    "bulk_modulus",
    "shear_modulus",
    "universal_anisotropy",
    "homogeneous_poisson",
    "e_total",
    "e_ionic",
    "e_electronic",
    "n",
    "e_ij_max",
    "weighted_surface_energy_EV_PER_ANG2",
    "weighted_surface_energy",
    "weighted_work_function",
    "surface_anisotropy",
    "shape_factor",
    "has_reconstructed",
    "possible_species",
    "has_props",
    "theoretical",
    "database_IDs"
  ]
}
