{"builder_meta": null, "nsites": null, "elements": null, "nelements": null, "composition": null, "composition_reduced": null, "formula_pretty": "MgBe3", "formula_anonymous": "AB3", "chemsys": null, "volume": 93.92446283047303, "density": 1.815387393303904, "density_atomic": 11.740557853809129, "symmetry": null, "property_name": null, "material_id": "mp-1185696", "deprecated": null, "deprecation_reasons": null, "last_updated": null, "origins": null, "warnings": null, "structure": {"@module": "pymatgen.core.structure", "@class": "Structure", "charge": 0, "lattice": {"matrix": [[2.733800999999999, -4.7350829999999995, 0.0], [2.733800999999999, 4.7350829999999995, 0.0], [0.0, 0.0, 3.627891]], "pbc": [true, true, true], "a": 5.467602667027844, "b": 5.467602667027844, "c": 3.627891, "alpha": 90.0, "beta": 90.0, "gamma": 120.00000807121674, "volume": 93.92446283047298}, "properties": {}, "sites": [{"species": [{"element": "Mg", "occu": 1}], "abc": [0.666667, 0.333333, 0.25], "properties": {"magmom": -0.0}, "label": "Mg", "xyz": [2.733800999999999, -1.5783641567219997, 0.90697275]}, {"species": [{"element": "Mg", "occu": 1}], "abc": [0.333333, 0.666667, 0.75], "properties": {"magmom": -0.0}, "label": "Mg", "xyz": [2.733800999999999, 1.5783641567219997, 2.72091825]}, {"species": [{"element": "Be", "occu": 1}], "abc": [0.131645999999999, 0.263293, 0.25], "properties": {"magmom": 0.0}, "label": "Be", "xyz": [1.0796846331389969, 0.6233594717010047, 0.90697275]}, {"species": [{"element": "Be", "occu": 1}], "abc": [0.131645999999999, 0.868354, 0.25], "properties": {"magmom": 0.0}, "label": "Be", "xyz": [2.7338009999999957, 3.488373526764004, 0.90697275]}, {"species": [{"element": "Be", "occu": 1}], "abc": [0.736707, 0.868354, 0.25], "properties": {"magmom": 0.0}, "label": "Be", "xyz": [4.387917366860998, 0.6233594717009994, 0.90697275]}, {"species": [{"element": "Be", "occu": 1}], "abc": [0.263293, 0.131645999999999, 0.75], "properties": {"magmom": 0.0}, "label": "Be", "xyz": [1.0796846331389969, -0.6233594717010047, 2.72091825]}, {"species": [{"element": "Be", "occu": 1}], "abc": [0.868354, 0.131645999999999, 0.75], "properties": {"magmom": 0.0}, "label": "Be", "xyz": [2.7338009999999957, -3.488373526764004, 2.72091825]}, {"species": [{"element": "Be", "occu": 1}], "abc": [0.868354, 0.736707, 0.75], "properties": {"magmom": 0.0}, "label": "Be", "xyz": [4.387917366860998, -0.6233594717009994, 2.72091825]}]}, "task_ids": null, "uncorrected_energy_per_atom": null, "energy_per_atom": -2.96574630125, "formation_energy_per_atom": 0.24643085124999903, "energy_above_hull": 0.24643085124999903, "is_stable": false, "equilibrium_reaction_energy_per_atom": null, "decomposes_to": null, "xas": null, "grain_boundaries": null, "band_gap": 0.0, "cbm": null, "vbm": null, "efermi": 4.1632649, "is_gap_direct": null, "is_metal": null, "es_source_calc_id": null, "bandstructure": null, "dos": null, "dos_energy_up": null, "dos_energy_down": null, "is_magnetic": null, "ordering": null, "total_magnetization": 3.7000000000000005e-05, "total_magnetization_normalized_vol": null, "total_magnetization_normalized_formula_units": null, "num_magnetic_sites": null, "num_unique_magnetic_sites": null, "types_of_magnetic_species": null, "bulk_modulus": null, "shear_modulus": null, "universal_anisotropy": null, "homogeneous_poisson": null, "e_total": null, "e_ionic": null, "e_electronic": null, "n": null, "e_ij_max": null, "weighted_surface_energy_EV_PER_ANG2": null, "weighted_surface_energy": null, "weighted_work_function": null, "surface_anisotropy": null, "shape_factor": null, "has_reconstructed": null, "possible_species": null, "has_props": null, "theoretical": null, "database_IDs": null, "fields_not_requested": ["builder_meta", "nsites", "elements", "nelements", "composition", "composition_reduced", "chemsys", "symmetry", "property_name", "deprecated", "deprecation_reasons", "last_updated", "origins", "warnings", "task_ids", "uncorrected_energy_per_atom", "equilibrium_reaction_energy_per_atom", "decomposes_to", "xas", "grain_boundaries", "cbm", "vbm", "is_gap_direct", "is_metal", "es_source_calc_id", "bandstructure", "dos", "dos_energy_up", "dos_energy_down", "is_magnetic", "ordering", "total_magnetization_normalized_vol", "total_magnetization_normalized_formula_units", "num_magnetic_sites", "num_unique_magnetic_sites", "types_of_magnetic_species", "bulk_modulus", "shear_modulus", "universal_anisotropy", "homogeneous_poisson", "e_total", "e_ionic", "e_electronic", "n", "e_ij_max", "weighted_surface_energy_EV_PER_ANG2", "weighted_surface_energy", "weighted_work_function", "surface_anisotropy", "shape_factor", "has_reconstructed", "possible_species", "has_props", "theoretical", "database_IDs"]}