{"builder_meta": null, "nsites": null, "elements": null, "nelements": null, "composition": null, "composition_reduced": null, "formula_pretty": "MgBi2", "formula_anonymous": "AB2", "chemsys": null, "volume": 176.04174948235902, "density": 8.34347126043184, "density_atomic": 29.34029158039317, "symmetry": null, "property_name": null, "material_id": "mp-1095014", "deprecated": null, "deprecation_reasons": null, "last_updated": null, "origins": null, "warnings": null, "structure": {"@module": "pymatgen.core.structure", "@class": "Structure", "charge": 0, "lattice": {"matrix": [[1.753652, 5.731319, 0.0], [-1.753652, 5.731319, 0.0], [0.0, 4.153011, 8.757652]], "pbc": [true, true, true], "a": 5.9936059944631825, "b": 5.9936059944631825, "c": 9.692469701743978, "alpha": 65.8122875807308, "beta": 65.8122875807308, "gamma": 34.02581522498546, "volume": 176.04174948235902}, "properties": {}, "sites": [{"species": [{"element": "Mg", "occu": 1}], "abc": [0.81013, 0.81013, 0.6263500000000001], "properties": {"magmom": -0.0}, "label": "Mg", "xyz": [0.0, 11.887465362790001, 5.485355330200001]}, {"species": [{"element": "Mg", "occu": 1}], "abc": [0.18987, 0.18987, 0.37365000000000004], "properties": {"magmom": -0.0}, "label": "Mg", "xyz": [0.0, 3.7281836372100003, 3.2722966698000002]}, {"species": [{"element": "Bi", "occu": 1}], "abc": [0.156278, 0.156278, 0.928858], "properties": {"magmom": -0.0}, "label": "Bi", "xyz": [0.0, 5.648915632802, 8.134615121416]}, {"species": [{"element": "Bi", "occu": 1}], "abc": [0.529054999999999, 0.529054999999999, 0.665237], "properties": {"magmom": -0.0}, "label": "Bi", "xyz": [0.0, 8.82710252569699, 5.825914143524]}, {"species": [{"element": "Bi", "occu": 1}], "abc": [0.470945, 0.470945, 0.334763], "properties": {"magmom": -0.0}, "label": "Bi", "xyz": [0.0, 6.788546474303001, 2.931737856476]}, {"species": [{"element": "Bi", "occu": 1}], "abc": [0.843722, 0.843722, 0.071142], "properties": {"magmom": -0.0}, "label": "Bi", "xyz": [0.0, 9.966733367198, 0.623036878584]}]}, "task_ids": null, "uncorrected_energy_per_atom": null, "energy_per_atom": -3.145512901666666, "formation_energy_per_atom": -0.008666690000001, "energy_above_hull": 0.090592164999997, "is_stable": false, "equilibrium_reaction_energy_per_atom": null, "decomposes_to": null, "xas": null, "grain_boundaries": null, "band_gap": 0.0, "cbm": null, "vbm": null, "efermi": 5.44716936, "is_gap_direct": null, "is_metal": null, "es_source_calc_id": null, "bandstructure": null, "dos": null, "dos_energy_up": null, "dos_energy_down": null, "is_magnetic": null, "ordering": null, "total_magnetization": 0.0089568, "total_magnetization_normalized_vol": null, "total_magnetization_normalized_formula_units": null, "num_magnetic_sites": null, "num_unique_magnetic_sites": null, "types_of_magnetic_species": null, "bulk_modulus": null, "shear_modulus": null, "universal_anisotropy": null, "homogeneous_poisson": null, "e_total": null, "e_ionic": null, "e_electronic": null, "n": null, "e_ij_max": null, "weighted_surface_energy_EV_PER_ANG2": null, "weighted_surface_energy": null, "weighted_work_function": null, "surface_anisotropy": null, "shape_factor": null, "has_reconstructed": null, "possible_species": null, "has_props": null, "theoretical": null, "database_IDs": null, "fields_not_requested": ["builder_meta", "nsites", "elements", "nelements", "composition", "composition_reduced", "chemsys", "symmetry", "property_name", "deprecated", "deprecation_reasons", "last_updated", "origins", "warnings", "task_ids", "uncorrected_energy_per_atom", "equilibrium_reaction_energy_per_atom", "decomposes_to", "xas", "grain_boundaries", "cbm", "vbm", "is_gap_direct", "is_metal", "es_source_calc_id", "bandstructure", "dos", "dos_energy_up", "dos_energy_down", "is_magnetic", "ordering", "total_magnetization_normalized_vol", "total_magnetization_normalized_formula_units", "num_magnetic_sites", "num_unique_magnetic_sites", "types_of_magnetic_species", "bulk_modulus", "shear_modulus", "universal_anisotropy", "homogeneous_poisson", "e_total", "e_ionic", "e_electronic", "n", "e_ij_max", "weighted_surface_energy_EV_PER_ANG2", "weighted_surface_energy", "weighted_work_function", "surface_anisotropy", "shape_factor", "has_reconstructed", "possible_species", "has_props", "theoretical", "database_IDs"]}