{"builder_meta": null, "nsites": null, "elements": null, "nelements": null, "composition": null, "composition_reduced": null, "formula_pretty": "MgBi5", "formula_anonymous": "AB5", "chemsys": null, "volume": 187.68509091380886, "density": 9.459781728733773, "density_atomic": 31.28084848563481, "symmetry": null, "property_name": null, "material_id": "mp-1185698", "deprecated": null, "deprecation_reasons": null, "last_updated": null, "origins": null, "warnings": null, "structure": {"@module": "pymatgen.core.structure", "@class": "Structure", "charge": 0, "lattice": {"matrix": [[4.20907, 0.0, 0.0], [2.104533, 8.064346, 0.0], [0.0, 0.0, 5.529355]], "pbc": [true, true, true], "a": 4.20907, "b": 8.334430727758495, "c": 5.529355, "alpha": 90.0, "beta": 90.0, "gamma": 75.37386719499342, "volume": 187.68509091380886}, "properties": {}, "sites": [{"species": [{"element": "Mg", "occu": 1}], "abc": [0.780354999999999, 0.439293, 0.499998], "properties": {"magmom": 0.0}, "label": "Mg", "xyz": [4.209075435018995, 3.542610747378, 2.7646664412899997]}, {"species": [{"element": "Bi", "occu": 1}], "abc": [0.32840199999999903, 0.343195, 0.0], "properties": {"magmom": -0.0}, "label": "Bi", "xyz": [2.104532209074996, 2.76764322547, 0.0]}, {"species": [{"element": "Bi", "occu": 1}], "abc": [0.667902, 0.664199, 0.0], "properties": {"magmom": 0.0}, "label": "Bi", "xyz": [4.209074985207, 5.356330548854, 0.0]}, {"species": [{"element": "Bi", "occu": 1}], "abc": [0.0009800000000000002, 0.998037, 0.0], "properties": {"magmom": -0.0}, "label": "Bi", "xyz": [2.104526690321, 8.048515688802, 0.0]}, {"species": [{"element": "Bi", "occu": 1}], "abc": [0.428952, 0.142095, 0.499998], "properties": {"magmom": 0.0}, "label": "Bi", "xyz": [2.104532611275, 1.14590324487, 2.7646664412899997]}, {"species": [{"element": "Bi", "occu": 1}], "abc": [0.126742, 0.746514999999999, 0.499998], "properties": {"magmom": -0.0}, "label": "Bi", "xyz": [2.104531402434998, 6.0201552541899925, 2.7646664412899997]}]}, "task_ids": null, "uncorrected_energy_per_atom": null, "energy_per_atom": -3.443366975, "formation_energy_per_atom": 0.070073285833331, "energy_above_hull": 0.11970271333333, "is_stable": false, "equilibrium_reaction_energy_per_atom": null, "decomposes_to": null, "xas": null, "grain_boundaries": null, "band_gap": 0.0, "cbm": null, "vbm": null, "efermi": 5.77888522, "is_gap_direct": null, "is_metal": null, "es_source_calc_id": null, "bandstructure": null, "dos": null, "dos_energy_up": null, "dos_energy_down": null, "is_magnetic": null, "ordering": null, "total_magnetization": 0.0009306999999990001, "total_magnetization_normalized_vol": null, "total_magnetization_normalized_formula_units": null, "num_magnetic_sites": null, "num_unique_magnetic_sites": null, "types_of_magnetic_species": null, "bulk_modulus": null, "shear_modulus": null, "universal_anisotropy": null, "homogeneous_poisson": null, "e_total": null, "e_ionic": null, "e_electronic": null, "n": null, "e_ij_max": null, "weighted_surface_energy_EV_PER_ANG2": null, "weighted_surface_energy": null, "weighted_work_function": null, "surface_anisotropy": null, "shape_factor": null, "has_reconstructed": null, "possible_species": null, "has_props": null, "theoretical": null, "database_IDs": null, "fields_not_requested": ["builder_meta", "nsites", "elements", "nelements", "composition", "composition_reduced", "chemsys", "symmetry", "property_name", "deprecated", "deprecation_reasons", "last_updated", "origins", "warnings", "task_ids", "uncorrected_energy_per_atom", "equilibrium_reaction_energy_per_atom", "decomposes_to", "xas", "grain_boundaries", "cbm", "vbm", "is_gap_direct", "is_metal", "es_source_calc_id", "bandstructure", "dos", "dos_energy_up", "dos_energy_down", "is_magnetic", "ordering", "total_magnetization_normalized_vol", "total_magnetization_normalized_formula_units", "num_magnetic_sites", "num_unique_magnetic_sites", "types_of_magnetic_species", "bulk_modulus", "shear_modulus", "universal_anisotropy", "homogeneous_poisson", "e_total", "e_ionic", "e_electronic", "n", "e_ij_max", "weighted_surface_energy_EV_PER_ANG2", "weighted_surface_energy", "weighted_work_function", "surface_anisotropy", "shape_factor", "has_reconstructed", "possible_species", "has_props", "theoretical", "database_IDs"]}