{
  "builder_meta": null,
  "nsites": null,
  "elements": null,
  "nelements": null,
  "composition": null,
  "composition_reduced": null,
  "formula_pretty": "MgBr6",
  "formula_anonymous": "AB6",
  "chemsys": null,
  "volume": 4908.045624631214,
  "density": 0.17042663158662102,
  "density_atomic": 701.1493749473163,
  "symmetry": null,
  "property_name": null,
  "material_id": "mp-1207230",
  "deprecated": null,
  "deprecation_reasons": null,
  "last_updated": null,
  "origins": null,
  "warnings": null,
  "structure": {
    "@module": "pymatgen.core.structure",
    "@class": "Structure",
    "charge": 0,
    "lattice": {
      "matrix": [
        [-5.53310673, -9.5836219, 0.0],
        [-4.54184514, 9.01131674, 0.0],
        [0.0, 0.0, -52.555474770000004]
      ],
      "pbc": [true, true, true],
      "a": 11.06621339066489,
      "b": 10.091193520309966,
      "c": 52.555474770000004,
      "alpha": 90.0,
      "beta": 90.0,
      "gamma": 123.25117817537594,
      "volume": 4908.045624631214
    },
    "properties": {},
    "sites": [
      {
        "species": [{ "element": "Mg", "occu": 1 }],
        "abc": [-0.0, 0.0, 0.0],
        "properties": { "magmom": -0.005 },
        "label": "Mg",
        "xyz": [0.0, 0.0, 0.0]
      },
      {
        "species": [{ "element": "Br", "occu": 1 }],
        "abc": [-0.0, 0.0, 0.75000193],
        "properties": { "magmom": 0.658 },
        "label": "Br",
        "xyz": [0.0, 0.0, -39.41670750956631]
      },
      {
        "species": [{ "element": "Br", "occu": 1 }],
        "abc": [-0.0, 0.0, 0.24999807000000002],
        "properties": { "magmom": 0.658 },
        "label": "Br",
        "xyz": [0.0, 0.0, -13.138767260433696]
      },
      {
        "species": [{ "element": "Br", "occu": 1 }],
        "abc": [0.7468571700000001, 0.75720694, -0.0],
        "properties": { "magmom": 0.364 },
        "label": "Br",
        "xyz": [-7.571557094089027, -0.33416515651784895, 0.0]
      },
      {
        "species": [{ "element": "Br", "occu": 1 }],
        "abc": [0.25314283, 0.24279306, 0.0],
        "properties": { "magmom": 0.364 },
        "label": "Br",
        "xyz": [-2.5033947759109743, -0.23814000348215236, 0.0]
      },
      {
        "species": [{ "element": "Br", "occu": 1 }],
        "abc": [0.98965022, 0.24279306, -0.0],
        "properties": { "magmom": 0.364 },
        "label": "Br",
        "xyz": [-6.57856877221471, -7.296548355797995, 0.0]
      },
      {
        "species": [{ "element": "Br", "occu": 1 }],
        "abc": [0.01034978, 0.75720694, 0.0],
        "properties": { "magmom": 0.364 },
        "label": "Br",
        "xyz": [-3.496383097785291, 6.724243195797993, 0.0]
      }
    ]
  },
  "task_ids": null,
  "uncorrected_energy_per_atom": null,
  "energy_per_atom": -2.045160974285714,
  "formation_energy_per_atom": -0.40913965642857103,
  "energy_above_hull": 0.385306115714285,
  "is_stable": false,
  "equilibrium_reaction_energy_per_atom": null,
  "decomposes_to": null,
  "xas": null,
  "grain_boundaries": null,
  "band_gap": 0.7193,
  "cbm": null,
  "vbm": null,
  "efermi": -6.89856995,
  "is_gap_direct": null,
  "is_metal": null,
  "es_source_calc_id": null,
  "bandstructure": null,
  "dos": null,
  "dos_energy_up": null,
  "dos_energy_down": null,
  "is_magnetic": null,
  "ordering": null,
  "total_magnetization": 3.922143,
  "total_magnetization_normalized_vol": null,
  "total_magnetization_normalized_formula_units": null,
  "num_magnetic_sites": null,
  "num_unique_magnetic_sites": null,
  "types_of_magnetic_species": null,
  "bulk_modulus": null,
  "shear_modulus": null,
  "universal_anisotropy": null,
  "homogeneous_poisson": null,
  "e_total": null,
  "e_ionic": null,
  "e_electronic": null,
  "n": null,
  "e_ij_max": null,
  "weighted_surface_energy_EV_PER_ANG2": null,
  "weighted_surface_energy": null,
  "weighted_work_function": null,
  "surface_anisotropy": null,
  "shape_factor": null,
  "has_reconstructed": null,
  "possible_species": null,
  "has_props": null,
  "theoretical": null,
  "database_IDs": null,
  "fields_not_requested": [
    "builder_meta",
    "nsites",
    "elements",
    "nelements",
    "composition",
    "composition_reduced",
    "chemsys",
    "symmetry",
    "property_name",
    "deprecated",
    "deprecation_reasons",
    "last_updated",
    "origins",
    "warnings",
    "task_ids",
    "uncorrected_energy_per_atom",
    "equilibrium_reaction_energy_per_atom",
    "decomposes_to",
    "xas",
    "grain_boundaries",
    "cbm",
    "vbm",
    "is_gap_direct",
    "is_metal",
    "es_source_calc_id",
    "bandstructure",
    "dos",
    "dos_energy_up",
    "dos_energy_down",
    "is_magnetic",
    "ordering",
    "total_magnetization_normalized_vol",
    "total_magnetization_normalized_formula_units",
    "num_magnetic_sites",
    "num_unique_magnetic_sites",
    "types_of_magnetic_species",
    "bulk_modulus",
    "shear_modulus",
    "universal_anisotropy",
    "homogeneous_poisson",
    "e_total",
    "e_ionic",
    "e_electronic",
    "n",
    "e_ij_max",
    "weighted_surface_energy_EV_PER_ANG2",
    "weighted_surface_energy",
    "weighted_work_function",
    "surface_anisotropy",
    "shape_factor",
    "has_reconstructed",
    "possible_species",
    "has_props",
    "theoretical",
    "database_IDs"
  ]
}
