{
  "builder_meta": null,
  "nsites": null,
  "elements": null,
  "nelements": null,
  "composition": null,
  "composition_reduced": null,
  "formula_pretty": "MgC2",
  "formula_anonymous": "AB2",
  "chemsys": null,
  "volume": 77.84167138175896,
  "density": 2.061823024189152,
  "density_atomic": 12.973611896959826,
  "symmetry": null,
  "property_name": null,
  "material_id": "mp-29771",
  "deprecated": null,
  "deprecation_reasons": null,
  "last_updated": null,
  "origins": null,
  "warnings": null,
  "structure": {
    "@module": "pymatgen.core.structure",
    "@class": "Structure",
    "charge": 0,
    "lattice": {
      "matrix": [
        [3.950777, 0.0, 0.0],
        [0.0, 3.950777, 0.0],
        [0.0, 0.0, 4.987089]
      ],
      "pbc": [true, true, true],
      "a": 3.950777,
      "b": 3.950777,
      "c": 4.987089,
      "alpha": 90.0,
      "beta": 90.0,
      "gamma": 90.0,
      "volume": 77.84167138175896
    },
    "properties": {},
    "sites": [
      {
        "species": [{ "element": "Mg", "occu": 1 }],
        "abc": [0.5, 0.5, 0.0],
        "properties": { "magmom": -0.0 },
        "label": "Mg",
        "xyz": [1.9753885, 1.9753885, 0.0]
      },
      {
        "species": [{ "element": "Mg", "occu": 1 }],
        "abc": [0.0, 0.0, 0.5],
        "properties": { "magmom": -0.0 },
        "label": "Mg",
        "xyz": [0.0, 0.0, 2.4935445]
      },
      {
        "species": [{ "element": "C", "occu": 1 }],
        "abc": [0.887655, 0.887655, 0.0],
        "properties": { "magmom": 0.0 },
        "label": "C",
        "xyz": [3.5069269579349998, 3.5069269579349998, 0.0]
      },
      {
        "species": [{ "element": "C", "occu": 1 }],
        "abc": [0.612344999999999, 0.38765499999999903, 0.5],
        "properties": { "magmom": 0.0 },
        "label": "C",
        "xyz": [2.419238542064996, 1.5315384579349962, 2.4935445]
      },
      {
        "species": [{ "element": "C", "occu": 1 }],
        "abc": [0.112345, 0.112345, 0.0],
        "properties": { "magmom": 0.0 },
        "label": "C",
        "xyz": [0.443850042065, 0.443850042065, 0.0]
      },
      {
        "species": [{ "element": "C", "occu": 1 }],
        "abc": [0.38765499999999903, 0.612344999999999, 0.5],
        "properties": { "magmom": 0.0 },
        "label": "C",
        "xyz": [1.5315384579349962, 2.419238542064996, 2.4935445]
      }
    ]
  },
  "task_ids": null,
  "uncorrected_energy_per_atom": null,
  "energy_per_atom": -6.255639298333333,
  "formation_energy_per_atom": 0.440294368333333,
  "energy_above_hull": 0.440294368333333,
  "is_stable": false,
  "equilibrium_reaction_energy_per_atom": null,
  "decomposes_to": null,
  "xas": null,
  "grain_boundaries": null,
  "band_gap": 2.5620000000000003,
  "cbm": null,
  "vbm": null,
  "efermi": 1.683897019999999,
  "is_gap_direct": null,
  "is_metal": null,
  "es_source_calc_id": null,
  "bandstructure": null,
  "dos": null,
  "dos_energy_up": null,
  "dos_energy_down": null,
  "is_magnetic": null,
  "ordering": null,
  "total_magnetization": 0.0,
  "total_magnetization_normalized_vol": null,
  "total_magnetization_normalized_formula_units": null,
  "num_magnetic_sites": null,
  "num_unique_magnetic_sites": null,
  "types_of_magnetic_species": null,
  "bulk_modulus": null,
  "shear_modulus": null,
  "universal_anisotropy": null,
  "homogeneous_poisson": null,
  "e_total": null,
  "e_ionic": null,
  "e_electronic": null,
  "n": null,
  "e_ij_max": null,
  "weighted_surface_energy_EV_PER_ANG2": null,
  "weighted_surface_energy": null,
  "weighted_work_function": null,
  "surface_anisotropy": null,
  "shape_factor": null,
  "has_reconstructed": null,
  "possible_species": null,
  "has_props": null,
  "theoretical": null,
  "database_IDs": null,
  "fields_not_requested": [
    "builder_meta",
    "nsites",
    "elements",
    "nelements",
    "composition",
    "composition_reduced",
    "chemsys",
    "symmetry",
    "property_name",
    "deprecated",
    "deprecation_reasons",
    "last_updated",
    "origins",
    "warnings",
    "task_ids",
    "uncorrected_energy_per_atom",
    "equilibrium_reaction_energy_per_atom",
    "decomposes_to",
    "xas",
    "grain_boundaries",
    "cbm",
    "vbm",
    "is_gap_direct",
    "is_metal",
    "es_source_calc_id",
    "bandstructure",
    "dos",
    "dos_energy_up",
    "dos_energy_down",
    "is_magnetic",
    "ordering",
    "total_magnetization_normalized_vol",
    "total_magnetization_normalized_formula_units",
    "num_magnetic_sites",
    "num_unique_magnetic_sites",
    "types_of_magnetic_species",
    "bulk_modulus",
    "shear_modulus",
    "universal_anisotropy",
    "homogeneous_poisson",
    "e_total",
    "e_ionic",
    "e_electronic",
    "n",
    "e_ij_max",
    "weighted_surface_energy_EV_PER_ANG2",
    "weighted_surface_energy",
    "weighted_work_function",
    "surface_anisotropy",
    "shape_factor",
    "has_reconstructed",
    "possible_species",
    "has_props",
    "theoretical",
    "database_IDs"
  ]
}
