{"builder_meta": null, "nsites": null, "elements": null, "nelements": null, "composition": null, "composition_reduced": null, "formula_pretty": "MgCd2", "formula_anonymous": "AB2", "chemsys": null, "volume": 252.57868770920774, "density": 6.551385943078954, "density_atomic": 21.04822397576731, "symmetry": null, "property_name": null, "material_id": "mp-1094763", "deprecated": null, "deprecation_reasons": null, "last_updated": null, "origins": null, "warnings": null, "structure": {"@module": "pymatgen.core.structure", "@class": "Structure", "charge": 0, "lattice": {"matrix": [[3.20314887, 0.0, 0.0], [0.0, 15.71233888, -0.0], [0.0, -0.0, 5.01855562]], "pbc": [true, true, true], "a": 3.20314887, "b": 15.71233888, "c": 5.01855562, "alpha": 90.0, "beta": 90.0, "gamma": 90.0, "volume": 252.57868770920774}, "properties": {}, "sites": [{"species": [{"element": "Mg", "occu": 1}], "abc": [0.0, 0.8899007600000001, 0.25], "properties": {"magmom": -0.0}, "label": "Mg", "xyz": [0.0, 13.98242231068955, 1.254638905]}, {"species": [{"element": "Mg", "occu": 1}], "abc": [0.5, 0.61009924, 0.75], "properties": {"magmom": -0.0}, "label": "Mg", "xyz": [1.601574435, 9.586086009310453, 3.7639167149999997]}, {"species": [{"element": "Mg", "occu": 1}], "abc": [0.5, 0.38990076, 0.25], "properties": {"magmom": -0.0}, "label": "Mg", "xyz": [1.601574435, 6.126252870689549, 1.254638905]}, {"species": [{"element": "Mg", "occu": 1}], "abc": [-0.0, 0.11009924, 0.75], "properties": {"magmom": -0.0}, "label": "Mg", "xyz": [0.0, 1.7299165693104512, 3.7639167149999997]}, {"species": [{"element": "Cd", "occu": 1}], "abc": [-0.0, 0.55471017, 0.25], "properties": {"magmom": 0.0}, "label": "Cd", "xyz": [0.0, 8.71579417122241, 1.254638905]}, {"species": [{"element": "Cd", "occu": 1}], "abc": [0.5, 0.7220446500000001, 0.25], "properties": {"magmom": -0.0}, "label": "Cd", "xyz": [1.601574435, 11.345010227290993, 1.254638905]}, {"species": [{"element": "Cd", "occu": 1}], "abc": [-0.0, 0.77795535, 0.75], "properties": {"magmom": -0.0}, "label": "Cd", "xyz": [0.0, 12.22349809270901, 3.7639167149999997]}, {"species": [{"element": "Cd", "occu": 1}], "abc": [0.5, 0.94528983, 0.75], "properties": {"magmom": 0.0}, "label": "Cd", "xyz": [1.601574435, 14.852714148777592, 3.7639167149999997]}, {"species": [{"element": "Cd", "occu": 1}], "abc": [0.5, 0.05471017, 0.25], "properties": {"magmom": 0.0}, "label": "Cd", "xyz": [1.601574435, 0.8596247312224097, 1.254638905]}, {"species": [{"element": "Cd", "occu": 1}], "abc": [0.0, 0.22204465, 0.25], "properties": {"magmom": -0.0}, "label": "Cd", "xyz": [0.0, 3.488840787290992, 1.254638905]}, {"species": [{"element": "Cd", "occu": 1}], "abc": [0.5, 0.27795535, 0.75], "properties": {"magmom": -0.0}, "label": "Cd", "xyz": [1.601574435, 4.367328652709008, 3.7639167149999997]}, {"species": [{"element": "Cd", "occu": 1}], "abc": [-0.0, 0.44528983, 0.75], "properties": {"magmom": 0.0}, "label": "Cd", "xyz": [0.0, 6.9965447087775905, 3.7639167149999997]}]}, "task_ids": null, "uncorrected_energy_per_atom": null, "energy_per_atom": -1.239086876666666, "formation_energy_per_atom": -0.055590078333331, "energy_above_hull": 0.007497807222222001, "is_stable": false, "equilibrium_reaction_energy_per_atom": null, "decomposes_to": null, "xas": null, "grain_boundaries": null, "band_gap": 0.0, "cbm": null, "vbm": null, "efermi": 3.40886871, "is_gap_direct": null, "is_metal": null, "es_source_calc_id": null, "bandstructure": null, "dos": null, "dos_energy_up": null, "dos_energy_down": null, "is_magnetic": null, "ordering": null, "total_magnetization": 6e-07, "total_magnetization_normalized_vol": null, "total_magnetization_normalized_formula_units": null, "num_magnetic_sites": null, "num_unique_magnetic_sites": null, "types_of_magnetic_species": null, "bulk_modulus": null, "shear_modulus": null, "universal_anisotropy": null, "homogeneous_poisson": null, "e_total": null, "e_ionic": null, "e_electronic": null, "n": null, "e_ij_max": null, "weighted_surface_energy_EV_PER_ANG2": null, "weighted_surface_energy": null, "weighted_work_function": null, "surface_anisotropy": null, "shape_factor": null, "has_reconstructed": null, "possible_species": null, "has_props": null, "theoretical": null, "database_IDs": null, "fields_not_requested": ["builder_meta", "nsites", "elements", "nelements", "composition", "composition_reduced", "chemsys", "symmetry", "property_name", "deprecated", "deprecation_reasons", "last_updated", "origins", "warnings", "task_ids", "uncorrected_energy_per_atom", "equilibrium_reaction_energy_per_atom", "decomposes_to", "xas", "grain_boundaries", "cbm", "vbm", "is_gap_direct", "is_metal", "es_source_calc_id", "bandstructure", "dos", "dos_energy_up", "dos_energy_down", "is_magnetic", "ordering", "total_magnetization_normalized_vol", "total_magnetization_normalized_formula_units", "num_magnetic_sites", "num_unique_magnetic_sites", "types_of_magnetic_species", "bulk_modulus", "shear_modulus", "universal_anisotropy", "homogeneous_poisson", "e_total", "e_ionic", "e_electronic", "n", "e_ij_max", "weighted_surface_energy_EV_PER_ANG2", "weighted_surface_energy", "weighted_work_function", "surface_anisotropy", "shape_factor", "has_reconstructed", "possible_species", "has_props", "theoretical", "database_IDs"]}