{"builder_meta": null, "nsites": null, "elements": null, "nelements": null, "composition": null, "composition_reduced": null, "formula_pretty": "MgCd", "formula_anonymous": "AB", "chemsys": null, "volume": 83.61061992497271, "density": 5.430464676209842, "density_atomic": 20.902654981243177, "symmetry": null, "property_name": null, "material_id": "mp-11307", "deprecated": null, "deprecation_reasons": null, "last_updated": null, "origins": null, "warnings": null, "structure": {"@module": "pymatgen.core.structure", "@class": "Structure", "charge": 0, "lattice": {"matrix": [[3.23283422, 0.0, 0.0], [0.0, 4.96032949, 0.0], [0.0, -0.0, 5.21395746]], "pbc": [true, true, true], "a": 3.23283422, "b": 4.96032949, "c": 5.21395746, "alpha": 90.0, "beta": 90.0, "gamma": 90.0, "volume": 83.61061992497271}, "properties": {}, "sites": [{"species": [{"element": "Mg", "occu": 1}], "abc": [0.5, 0.25, 0.68683403], "properties": {"magmom": -0.0}, "label": "Mg", "xyz": [1.61641711, 1.2400823725, 3.5811234145003636]}, {"species": [{"element": "Mg", "occu": 1}], "abc": [0.5, 0.75, 0.31316597], "properties": {"magmom": -0.0}, "label": "Mg", "xyz": [1.61641711, 3.7202471175000005, 1.6328340454996362]}, {"species": [{"element": "Cd", "occu": 1}], "abc": [0.0, 0.25, 0.182544899999999], "properties": {"magmom": 0.0}, "label": "Cd", "xyz": [0.0, 1.2400823725, 0.9517813431399488]}, {"species": [{"element": "Cd", "occu": 1}], "abc": [0.0, 0.75, 0.8174551], "properties": {"magmom": 0.0}, "label": "Cd", "xyz": [0.0, 3.7202471175000005, 4.262176116860045]}]}, "task_ids": null, "uncorrected_energy_per_atom": null, "energy_per_atom": -1.389871930833333, "formation_energy_per_atom": -0.094631828333332, "energy_above_hull": 0.0, "is_stable": true, "equilibrium_reaction_energy_per_atom": null, "decomposes_to": null, "xas": null, "grain_boundaries": null, "band_gap": 0.0, "cbm": null, "vbm": null, "efermi": 2.7782282, "is_gap_direct": null, "is_metal": null, "es_source_calc_id": null, "bandstructure": null, "dos": null, "dos_energy_up": null, "dos_energy_down": null, "is_magnetic": null, "ordering": null, "total_magnetization": 0.0, "total_magnetization_normalized_vol": null, "total_magnetization_normalized_formula_units": null, "num_magnetic_sites": null, "num_unique_magnetic_sites": null, "types_of_magnetic_species": null, "bulk_modulus": null, "shear_modulus": null, "universal_anisotropy": null, "homogeneous_poisson": null, "e_total": null, "e_ionic": null, "e_electronic": null, "n": null, "e_ij_max": null, "weighted_surface_energy_EV_PER_ANG2": null, "weighted_surface_energy": null, "weighted_work_function": null, "surface_anisotropy": null, "shape_factor": null, "has_reconstructed": null, "possible_species": null, "has_props": null, "theoretical": null, "database_IDs": null, "fields_not_requested": ["builder_meta", "nsites", "elements", "nelements", "composition", "composition_reduced", "chemsys", "symmetry", "property_name", "deprecated", "deprecation_reasons", "last_updated", "origins", "warnings", "task_ids", "uncorrected_energy_per_atom", "equilibrium_reaction_energy_per_atom", "decomposes_to", "xas", "grain_boundaries", "cbm", "vbm", "is_gap_direct", "is_metal", "es_source_calc_id", "bandstructure", "dos", "dos_energy_up", "dos_energy_down", "is_magnetic", "ordering", "total_magnetization_normalized_vol", "total_magnetization_normalized_formula_units", "num_magnetic_sites", "num_unique_magnetic_sites", "types_of_magnetic_species", "bulk_modulus", "shear_modulus", "universal_anisotropy", "homogeneous_poisson", "e_total", "e_ionic", "e_electronic", "n", "e_ij_max", "weighted_surface_energy_EV_PER_ANG2", "weighted_surface_energy", "weighted_work_function", "surface_anisotropy", "shape_factor", "has_reconstructed", "possible_species", "has_props", "theoretical", "database_IDs"]}