{
  "builder_meta": null,
  "nsites": null,
  "elements": null,
  "nelements": null,
  "composition": null,
  "composition_reduced": null,
  "formula_pretty": "MgCd3",
  "formula_anonymous": "AB3",
  "chemsys": null,
  "volume": 168.5443137037867,
  "density": 7.123918450497599,
  "density_atomic": 21.06803921297334,
  "symmetry": null,
  "property_name": null,
  "material_id": "mp-30491",
  "deprecated": null,
  "deprecation_reasons": null,
  "last_updated": null,
  "origins": null,
  "warnings": null,
  "structure": {
    "@module": "pymatgen.core.structure",
    "@class": "Structure",
    "charge": 0,
    "lattice": {
      "matrix": [
        [6.33170808, 1e-8, 0.0],
        [-3.16585302, 5.48342058, 0.0],
        [-0.0, -0.0, 4.85446823]
      ],
      "pbc": [true, true, true],
      "a": 6.33170808,
      "b": 6.331708031914506,
      "c": 4.85446823,
      "alpha": 90.0,
      "beta": 90.0,
      "gamma": 119.99998950283947,
      "volume": 168.5443137037867
    },
    "properties": {},
    "sites": [
      {
        "species": [{ "element": "Mg", "occu": 1 }],
        "abc": [0.666667, 0.333333, 0.75],
        "properties": { "magmom": 0.0 },
        "label": "Mg",
        "xyz": [3.1658575458537, 1.82780503885981, 3.6408511725]
      },
      {
        "species": [{ "element": "Mg", "occu": 1 }],
        "abc": [0.333333, 0.666667, 0.25],
        "properties": { "magmom": 0.0 },
        "label": "Mg",
        "xyz": [-2.4858536997740543e-6, 3.65561555114019, 1.2136170575]
      },
      {
        "species": [{ "element": "Cd", "occu": 1 }],
        "abc": [0.66596488, 0.83298194, 0.75],
        "properties": { "magmom": -0.0 },
        "label": "Cd",
        "xyz": [1.5795968213377716, 4.567590319223974, 3.6408511725]
      },
      {
        "species": [{ "element": "Cd", "occu": 1 }],
        "abc": [0.33403512, 0.16701806, 0.25],
        "properties": { "magmom": -0.0 },
        "label": "Cd",
        "xyz": [1.5862582386622286, 0.915830270776026, 1.2136170575]
      },
      {
        "species": [{ "element": "Cd", "occu": 1 }],
        "abc": [0.83298194, 0.16701806, 0.25],
        "properties": { "magmom": -0.0 },
        "label": "Cd",
        "xyz": [4.745443850346534, 0.9158302757654941, 1.2136170575]
      },
      {
        "species": [{ "element": "Cd", "occu": 1 }],
        "abc": [0.16701806, 0.33403512, 0.75],
        "properties": { "magmom": -0.0 },
        "label": "Cd",
        "xyz": [3.5065698624769936e-6, 1.8316550531209503, 3.6408511725]
      },
      {
        "species": [{ "element": "Cd", "occu": 1 }],
        "abc": [0.16701806, 0.83298194, 0.75],
        "properties": { "magmom": -0.0 },
        "label": "Cd",
        "xyz": [-1.579588790346534, 4.567590314234506, 3.6408511725]
      },
      {
        "species": [{ "element": "Cd", "occu": 1 }],
        "abc": [0.83298194, 0.66596488, 0.25],
        "properties": { "magmom": -0.0 },
        "label": "Cd",
        "xyz": [3.165851553430138, 3.65176553687905, 1.2136170575]
      }
    ]
  },
  "task_ids": null,
  "uncorrected_energy_per_atom": null,
  "energy_per_atom": -1.1620354625,
  "formation_energy_per_atom": -0.034410316249998005,
  "energy_above_hull": 0.012905597916667,
  "is_stable": false,
  "equilibrium_reaction_energy_per_atom": null,
  "decomposes_to": null,
  "xas": null,
  "grain_boundaries": null,
  "band_gap": 0.0,
  "cbm": null,
  "vbm": null,
  "efermi": 2.92291429,
  "is_gap_direct": null,
  "is_metal": null,
  "es_source_calc_id": null,
  "bandstructure": null,
  "dos": null,
  "dos_energy_up": null,
  "dos_energy_down": null,
  "is_magnetic": null,
  "ordering": null,
  "total_magnetization": 0.0,
  "total_magnetization_normalized_vol": null,
  "total_magnetization_normalized_formula_units": null,
  "num_magnetic_sites": null,
  "num_unique_magnetic_sites": null,
  "types_of_magnetic_species": null,
  "bulk_modulus": null,
  "shear_modulus": null,
  "universal_anisotropy": null,
  "homogeneous_poisson": null,
  "e_total": null,
  "e_ionic": null,
  "e_electronic": null,
  "n": null,
  "e_ij_max": null,
  "weighted_surface_energy_EV_PER_ANG2": null,
  "weighted_surface_energy": null,
  "weighted_work_function": null,
  "surface_anisotropy": null,
  "shape_factor": null,
  "has_reconstructed": null,
  "possible_species": null,
  "has_props": null,
  "theoretical": null,
  "database_IDs": null,
  "fields_not_requested": [
    "builder_meta",
    "nsites",
    "elements",
    "nelements",
    "composition",
    "composition_reduced",
    "chemsys",
    "symmetry",
    "property_name",
    "deprecated",
    "deprecation_reasons",
    "last_updated",
    "origins",
    "warnings",
    "task_ids",
    "uncorrected_energy_per_atom",
    "equilibrium_reaction_energy_per_atom",
    "decomposes_to",
    "xas",
    "grain_boundaries",
    "cbm",
    "vbm",
    "is_gap_direct",
    "is_metal",
    "es_source_calc_id",
    "bandstructure",
    "dos",
    "dos_energy_up",
    "dos_energy_down",
    "is_magnetic",
    "ordering",
    "total_magnetization_normalized_vol",
    "total_magnetization_normalized_formula_units",
    "num_magnetic_sites",
    "num_unique_magnetic_sites",
    "types_of_magnetic_species",
    "bulk_modulus",
    "shear_modulus",
    "universal_anisotropy",
    "homogeneous_poisson",
    "e_total",
    "e_ionic",
    "e_electronic",
    "n",
    "e_ij_max",
    "weighted_surface_energy_EV_PER_ANG2",
    "weighted_surface_energy",
    "weighted_work_function",
    "surface_anisotropy",
    "shape_factor",
    "has_reconstructed",
    "possible_species",
    "has_props",
    "theoretical",
    "database_IDs"
  ]
}
