{
  "builder_meta": null,
  "nsites": null,
  "elements": null,
  "nelements": null,
  "composition": null,
  "composition_reduced": null,
  "formula_pretty": "MgCd5",
  "formula_anonymous": "AB5",
  "chemsys": null,
  "volume": 129.47298839636238,
  "density": 7.5202843400108925,
  "density_atomic": 21.57883139939373,
  "symmetry": null,
  "property_name": null,
  "material_id": "mp-1094742",
  "deprecated": null,
  "deprecation_reasons": null,
  "last_updated": null,
  "origins": null,
  "warnings": null,
  "structure": {
    "@module": "pymatgen.core.structure",
    "@class": "Structure",
    "charge": 0,
    "lattice": {
      "matrix": [
        [2.59171133, -4.48897686, -0.0],
        [2.59171133, 4.48897686, 0.0],
        [0.0, 0.0, 5.56435952]
      ],
      "pbc": [true, true, true],
      "a": 5.183423662760534,
      "b": 5.183423662760534,
      "c": 5.56435952,
      "alpha": 90.0,
      "beta": 90.0,
      "gamma": 120.00001279889607,
      "volume": 129.47298839636238
    },
    "properties": {},
    "sites": [
      {
        "species": [{ "element": "Mg", "occu": 1 }],
        "abc": [0.0, -0.0, 0.5],
        "properties": { "magmom": 0.0 },
        "label": "Mg",
        "xyz": [0.0, 0.0, 2.78217976]
      },
      {
        "species": [{ "element": "Cd", "occu": 1 }],
        "abc": [0.0, 0.331766299999999, 0.0],
        "properties": { "magmom": 0.0 },
        "label": "Cd",
        "xyz": [0.8598424786221764, 1.4892912436278136, 0.0]
      },
      {
        "species": [{ "element": "Cd", "occu": 1 }],
        "abc": [0.668233699999999, 0.668233699999999, 0.0],
        "properties": { "magmom": 0.0 },
        "label": "Cd",
        "xyz": [3.463737702755637, 0.0, 0.0]
      },
      {
        "species": [{ "element": "Cd", "occu": 1 }],
        "abc": [0.331766299999999, 0.0, -0.0],
        "properties": { "magmom": 0.0 },
        "label": "Cd",
        "xyz": [0.8598424786221764, -1.4892912436278136, 0.0]
      },
      {
        "species": [{ "element": "Cd", "occu": 1 }],
        "abc": [0.666667, 0.333333, 0.5],
        "properties": { "magmom": 0.0 },
        "label": "Cd",
        "xyz": [2.59171133, -1.49632861265124, 2.78217976]
      },
      {
        "species": [{ "element": "Cd", "occu": 1 }],
        "abc": [0.333333, 0.666667, 0.5],
        "properties": { "magmom": 0.0 },
        "label": "Cd",
        "xyz": [2.59171133, 1.49632861265124, 2.78217976]
      }
    ]
  },
  "task_ids": null,
  "uncorrected_energy_per_atom": null,
  "energy_per_atom": -1.063393815,
  "formation_energy_per_atom": 0.008359679166668,
  "energy_above_hull": 0.039903621944445,
  "is_stable": false,
  "equilibrium_reaction_energy_per_atom": null,
  "decomposes_to": null,
  "xas": null,
  "grain_boundaries": null,
  "band_gap": 0.0,
  "cbm": null,
  "vbm": null,
  "efermi": 3.134402569999999,
  "is_gap_direct": null,
  "is_metal": null,
  "es_source_calc_id": null,
  "bandstructure": null,
  "dos": null,
  "dos_energy_up": null,
  "dos_energy_down": null,
  "is_magnetic": null,
  "ordering": null,
  "total_magnetization": 4e-7,
  "total_magnetization_normalized_vol": null,
  "total_magnetization_normalized_formula_units": null,
  "num_magnetic_sites": null,
  "num_unique_magnetic_sites": null,
  "types_of_magnetic_species": null,
  "bulk_modulus": null,
  "shear_modulus": null,
  "universal_anisotropy": null,
  "homogeneous_poisson": null,
  "e_total": null,
  "e_ionic": null,
  "e_electronic": null,
  "n": null,
  "e_ij_max": null,
  "weighted_surface_energy_EV_PER_ANG2": null,
  "weighted_surface_energy": null,
  "weighted_work_function": null,
  "surface_anisotropy": null,
  "shape_factor": null,
  "has_reconstructed": null,
  "possible_species": null,
  "has_props": null,
  "theoretical": null,
  "database_IDs": null,
  "fields_not_requested": [
    "builder_meta",
    "nsites",
    "elements",
    "nelements",
    "composition",
    "composition_reduced",
    "chemsys",
    "symmetry",
    "property_name",
    "deprecated",
    "deprecation_reasons",
    "last_updated",
    "origins",
    "warnings",
    "task_ids",
    "uncorrected_energy_per_atom",
    "equilibrium_reaction_energy_per_atom",
    "decomposes_to",
    "xas",
    "grain_boundaries",
    "cbm",
    "vbm",
    "is_gap_direct",
    "is_metal",
    "es_source_calc_id",
    "bandstructure",
    "dos",
    "dos_energy_up",
    "dos_energy_down",
    "is_magnetic",
    "ordering",
    "total_magnetization_normalized_vol",
    "total_magnetization_normalized_formula_units",
    "num_magnetic_sites",
    "num_unique_magnetic_sites",
    "types_of_magnetic_species",
    "bulk_modulus",
    "shear_modulus",
    "universal_anisotropy",
    "homogeneous_poisson",
    "e_total",
    "e_ionic",
    "e_electronic",
    "n",
    "e_ij_max",
    "weighted_surface_energy_EV_PER_ANG2",
    "weighted_surface_energy",
    "weighted_work_function",
    "surface_anisotropy",
    "shape_factor",
    "has_reconstructed",
    "possible_species",
    "has_props",
    "theoretical",
    "database_IDs"
  ]
}
