{"builder_meta": null, "nsites": null, "elements": null, "nelements": null, "composition": null, "composition_reduced": null, "formula_pretty": "MgCl6", "formula_anonymous": "AB6", "chemsys": null, "volume": 3813.0405391080003, "density": 0.103221024572375, "density_atomic": 544.7200770154286, "symmetry": null, "property_name": null, "material_id": "mp-1207313", "deprecated": null, "deprecation_reasons": null, "last_updated": null, "origins": null, "warnings": null, "structure": {"@module": "pymatgen.core.structure", "@class": "Structure", "charge": 0, "lattice": {"matrix": [[-5.09541115, -8.82551111, 0.0], [-4.28750443, 8.35906595, 0.0], [0.0, 0.0, -47.40683453]], "pbc": [true, true, true], "a": 10.190822397641801, "b": 9.39450253040144, "c": 47.40683453, "alpha": 90.0, "beta": 90.0, "gamma": 122.84595572246015, "volume": 3813.0405391080003}, "properties": {}, "sites": [{"species": [{"element": "Mg", "occu": 1}], "abc": [0.0, -0.0, -0.0], "properties": {"magmom": -0.0}, "label": "Mg", "xyz": [0.0, 0.0, 0.0]}, {"species": [{"element": "Cl", "occu": 1}], "abc": [-0.0, -0.0, 0.75001807], "properties": {"magmom": 0.663}, "label": "Cl", "xyz": [0.0, 0.0, -35.555982538999956]}, {"species": [{"element": "Cl", "occu": 1}], "abc": [-0.0, -0.0, 0.24998193000000002], "properties": {"magmom": 0.663}, "label": "Cl", "xyz": [0.0, 0.0, -11.850851991000043]}, {"species": [{"element": "Cl", "occu": 1}], "abc": [0.74743552, 0.7561826500000001, 0.0], "properties": {"magmom": -0.019}, "label": "Cl", "xyz": [-7.050627744278188, -0.2755198441728597, 0.0]}, {"species": [{"element": "Cl", "occu": 1}], "abc": [0.25256448, 0.24381735000000002, -0.0], "properties": {"magmom": -0.019}, "label": "Cl", "xyz": [-2.3322878357218126, -0.19092531582714045, 0.0]}, {"species": [{"element": "Cl", "occu": 1}], "abc": [0.9912528700000001, 0.24381735000000002, 0.0], "properties": {"magmom": -0.019}, "label": "Cl", "xyz": [-6.096208894503361, -6.710227908600155, 0.0]}, {"species": [{"element": "Cl", "occu": 1}], "abc": [0.00874713, 0.7561826500000001, -0.0], "properties": {"magmom": -0.019}, "label": "Cl", "xyz": [-3.2867066854966396, 6.243782748600154, 0.0]}]}, "task_ids": null, "uncorrected_energy_per_atom": null, "energy_per_atom": -2.273437398571428, "formation_energy_per_atom": -0.456047853571429, "energy_above_hull": 0.5105735100000001, "is_stable": false, "equilibrium_reaction_energy_per_atom": null, "decomposes_to": null, "xas": null, "grain_boundaries": null, "band_gap": 0.06709999999999901, "cbm": null, "vbm": null, "efermi": -7.38232551, "is_gap_direct": null, "is_metal": null, "es_source_calc_id": null, "bandstructure": null, "dos": null, "dos_energy_up": null, "dos_energy_down": null, "is_magnetic": null, "ordering": null, "total_magnetization": 3.9298187, "total_magnetization_normalized_vol": null, "total_magnetization_normalized_formula_units": null, "num_magnetic_sites": null, "num_unique_magnetic_sites": null, "types_of_magnetic_species": null, "bulk_modulus": null, "shear_modulus": null, "universal_anisotropy": null, "homogeneous_poisson": null, "e_total": null, "e_ionic": null, "e_electronic": null, "n": null, "e_ij_max": null, "weighted_surface_energy_EV_PER_ANG2": null, "weighted_surface_energy": null, "weighted_work_function": null, "surface_anisotropy": null, "shape_factor": null, "has_reconstructed": null, "possible_species": null, "has_props": null, "theoretical": null, "database_IDs": null, "fields_not_requested": ["builder_meta", "nsites", "elements", "nelements", "composition", "composition_reduced", "chemsys", "symmetry", "property_name", "deprecated", "deprecation_reasons", "last_updated", "origins", "warnings", "task_ids", "uncorrected_energy_per_atom", "equilibrium_reaction_energy_per_atom", "decomposes_to", "xas", "grain_boundaries", "cbm", "vbm", "is_gap_direct", "is_metal", "es_source_calc_id", "bandstructure", "dos", "dos_energy_up", "dos_energy_down", "is_magnetic", "ordering", "total_magnetization_normalized_vol", "total_magnetization_normalized_formula_units", "num_magnetic_sites", "num_unique_magnetic_sites", "types_of_magnetic_species", "bulk_modulus", "shear_modulus", "universal_anisotropy", "homogeneous_poisson", "e_total", "e_ionic", "e_electronic", "n", "e_ij_max", "weighted_surface_energy_EV_PER_ANG2", "weighted_surface_energy", "weighted_work_function", "surface_anisotropy", "shape_factor", "has_reconstructed", "possible_species", "has_props", "theoretical", "database_IDs"]}