{"builder_meta": null, "nsites": null, "elements": null, "nelements": null, "composition": null, "composition_reduced": null, "formula_pretty": "MgCo3", "formula_anonymous": "AB3", "chemsys": null, "volume": 98.85833112033632, "density": 6.755971218215002, "density_atomic": 12.35729139004204, "symmetry": null, "property_name": null, "material_id": "mp-1185853", "deprecated": null, "deprecation_reasons": null, "last_updated": null, "origins": null, "warnings": null, "structure": {"@module": "pymatgen.core.structure", "@class": "Structure", "charge": 0, "lattice": {"matrix": [[2.607361, -4.516082, 0.0], [2.607361, 4.516082, 0.0], [0.0, 0.0, 4.197786]], "pbc": [true, true, true], "a": 5.214722237573636, "b": 5.214722237573636, "c": 4.197786, "alpha": 90.0, "beta": 90.0, "gamma": 120.00000301410977, "volume": 98.85833112033632}, "properties": {}, "sites": [{"species": [{"element": "Mg", "occu": 1}], "abc": [0.666667, 0.333333, 0.25], "properties": {"magmom": -0.034}, "label": "Mg", "xyz": [2.607361, -1.505363677388, 1.0494465]}, {"species": [{"element": "Mg", "occu": 1}], "abc": [0.333333, 0.666667, 0.75], "properties": {"magmom": -0.034}, "label": "Mg", "xyz": [2.607361, 1.505363677388, 3.1483394999999996]}, {"species": [{"element": "Co", "occu": 1}], "abc": [0.159382, 0.318764, 0.25], "properties": {"magmom": 1.597}, "label": "Co", "xyz": [1.2466992327059998, 0.719782181324, 1.0494465]}, {"species": [{"element": "Co", "occu": 1}], "abc": [0.681236, 0.840618, 0.25], "properties": {"magmom": 1.403}, "label": "Co", "xyz": [3.968022767294, 0.7197821813240002, 1.0494465]}, {"species": [{"element": "Co", "occu": 1}], "abc": [0.159382, 0.840618, 0.25], "properties": {"magmom": 1.678}, "label": "Co", "xyz": [2.607361, 3.0765176373519996, 1.0494465]}, {"species": [{"element": "Co", "occu": 1}], "abc": [0.840618, 0.159382, 0.75], "properties": {"magmom": 1.678}, "label": "Co", "xyz": [2.607361, -3.0765176373519996, 3.1483394999999996]}, {"species": [{"element": "Co", "occu": 1}], "abc": [0.318764, 0.159382, 0.75], "properties": {"magmom": 1.403}, "label": "Co", "xyz": [1.2466992327059998, -0.719782181324, 3.1483394999999996]}, {"species": [{"element": "Co", "occu": 1}], "abc": [0.840618, 0.681236, 0.75], "properties": {"magmom": 1.597}, "label": "Co", "xyz": [3.968022767294, -0.7197821813240002, 3.1483394999999996]}]}, "task_ids": null, "uncorrected_energy_per_atom": null, "energy_per_atom": -10.77745643, "formation_energy_per_atom": 0.190542813749999, "energy_above_hull": 0.190542813749999, "is_stable": false, "equilibrium_reaction_energy_per_atom": null, "decomposes_to": null, "xas": null, "grain_boundaries": null, "band_gap": 0.0, "cbm": null, "vbm": null, "efermi": 5.10531294, "is_gap_direct": null, "is_metal": null, "es_source_calc_id": null, "bandstructure": null, "dos": null, "dos_energy_up": null, "dos_energy_down": null, "is_magnetic": null, "ordering": null, "total_magnetization": 9.0576957, "total_magnetization_normalized_vol": null, "total_magnetization_normalized_formula_units": null, "num_magnetic_sites": null, "num_unique_magnetic_sites": null, "types_of_magnetic_species": null, "bulk_modulus": null, "shear_modulus": null, "universal_anisotropy": null, "homogeneous_poisson": null, "e_total": null, "e_ionic": null, "e_electronic": null, "n": null, "e_ij_max": null, "weighted_surface_energy_EV_PER_ANG2": null, "weighted_surface_energy": null, "weighted_work_function": null, "surface_anisotropy": null, "shape_factor": null, "has_reconstructed": null, "possible_species": null, "has_props": null, "theoretical": null, "database_IDs": null, "fields_not_requested": ["builder_meta", "nsites", "elements", "nelements", "composition", "composition_reduced", "chemsys", "symmetry", "property_name", "deprecated", "deprecation_reasons", "last_updated", "origins", "warnings", "task_ids", "uncorrected_energy_per_atom", "equilibrium_reaction_energy_per_atom", "decomposes_to", "xas", "grain_boundaries", "cbm", "vbm", "is_gap_direct", "is_metal", "es_source_calc_id", "bandstructure", "dos", "dos_energy_up", "dos_energy_down", "is_magnetic", "ordering", "total_magnetization_normalized_vol", "total_magnetization_normalized_formula_units", "num_magnetic_sites", "num_unique_magnetic_sites", "types_of_magnetic_species", "bulk_modulus", "shear_modulus", "universal_anisotropy", "homogeneous_poisson", "e_total", "e_ionic", "e_electronic", "n", "e_ij_max", "weighted_surface_energy_EV_PER_ANG2", "weighted_surface_energy", "weighted_work_function", "surface_anisotropy", "shape_factor", "has_reconstructed", "possible_species", "has_props", "theoretical", "database_IDs"]}