{
  "builder_meta": null,
  "nsites": null,
  "elements": null,
  "nelements": null,
  "composition": null,
  "composition_reduced": null,
  "formula_pretty": "MgCo",
  "formula_anonymous": "AB",
  "chemsys": null,
  "volume": 365.88912242412664,
  "density": 4.533185585240166,
  "density_atomic": 15.245380101005276,
  "symmetry": null,
  "property_name": null,
  "material_id": "mp-542488",
  "deprecated": null,
  "deprecation_reasons": null,
  "last_updated": null,
  "origins": null,
  "warnings": null,
  "structure": {
    "@module": "pymatgen.core.structure",
    "@class": "Structure",
    "charge": 0,
    "lattice": {
      "matrix": [
        [0.0, 5.676838, 5.676838],
        [5.676838, 0.0, 5.676838],
        [5.676838, 5.676838, 0.0]
      ],
      "pbc": [true, true, true],
      "a": 8.028261290994957,
      "b": 8.028261290994957,
      "c": 8.028261290994957,
      "alpha": 60.00000000000001,
      "beta": 60.00000000000001,
      "gamma": 60.00000000000001,
      "volume": 365.88912242412664
    },
    "properties": {},
    "sites": [
      {
        "species": [{ "element": "Mg", "occu": 1 }],
        "abc": [0.5487339999999991, 0.5487339999999991, 0.951266],
        "properties": { "magmom": -0.005 },
        "label": "Mg",
        "xyz": [8.515256999999995, 8.515256999999995, 6.23014804618399]
      },
      {
        "species": [{ "element": "Mg", "occu": 1 }],
        "abc": [0.951266, 0.5487339999999991, 0.951266],
        "properties": { "magmom": -0.005 },
        "label": "Mg",
        "xyz": [8.515256999999995, 10.800365953816, 8.515256999999995]
      },
      {
        "species": [{ "element": "Mg", "occu": 1 }],
        "abc": [0.951266, 0.5487339999999991, 0.5487339999999991],
        "properties": { "magmom": -0.005 },
        "label": "Mg",
        "xyz": [6.23014804618399, 8.515256999999995, 8.515256999999995]
      },
      {
        "species": [{ "element": "Mg", "occu": 1 }],
        "abc": [0.298734, 0.701266, 0.701266],
        "properties": { "magmom": -0.005 },
        "label": "Mg",
        "xyz": [7.961946953816, 5.676838, 5.676838]
      },
      {
        "species": [{ "element": "Mg", "occu": 1 }],
        "abc": [0.701266, 0.701266, 0.298734],
        "properties": { "magmom": -0.005 },
        "label": "Mg",
        "xyz": [5.676838, 5.676838, 7.961946953816]
      },
      {
        "species": [{ "element": "Mg", "occu": 1 }],
        "abc": [0.298734, 0.701266, 0.298734],
        "properties": { "magmom": -0.005 },
        "label": "Mg",
        "xyz": [5.676838, 3.391729046184, 5.676838]
      },
      {
        "species": [{ "element": "Mg", "occu": 1 }],
        "abc": [0.951266, 0.951266, 0.5487339999999991],
        "properties": { "magmom": -0.005 },
        "label": "Mg",
        "xyz": [8.515256999999995, 8.515256999999995, 10.800365953816]
      },
      {
        "species": [{ "element": "Mg", "occu": 1 }],
        "abc": [0.5487339999999991, 0.951266, 0.5487339999999991],
        "properties": { "magmom": -0.005 },
        "label": "Mg",
        "xyz": [8.515256999999995, 6.23014804618399, 8.515256999999995]
      },
      {
        "species": [{ "element": "Mg", "occu": 1 }],
        "abc": [0.5487339999999991, 0.951266, 0.951266],
        "properties": { "magmom": -0.005 },
        "label": "Mg",
        "xyz": [10.800365953816, 8.515256999999995, 8.515256999999995]
      },
      {
        "species": [{ "element": "Mg", "occu": 1 }],
        "abc": [0.298734, 0.298734, 0.701266],
        "properties": { "magmom": -0.005 },
        "label": "Mg",
        "xyz": [5.676838, 5.676838, 3.391729046184]
      },
      {
        "species": [{ "element": "Mg", "occu": 1 }],
        "abc": [0.701266, 0.298734, 0.298734],
        "properties": { "magmom": -0.005 },
        "label": "Mg",
        "xyz": [3.391729046184, 5.676838, 5.676838]
      },
      {
        "species": [{ "element": "Mg", "occu": 1 }],
        "abc": [0.701266, 0.298734, 0.701266],
        "properties": { "magmom": -0.005 },
        "label": "Mg",
        "xyz": [5.676838, 7.961946953816, 5.676838]
      },
      {
        "species": [{ "element": "Co", "occu": 1 }],
        "abc": [0.125, 0.625, 0.125],
        "properties": { "magmom": 0.8190000000000001 },
        "label": "Co",
        "xyz": [4.2576285, 1.4192095, 4.2576285]
      },
      {
        "species": [{ "element": "Co", "occu": 1 }],
        "abc": [0.922543, 0.922543, 0.922543],
        "properties": { "magmom": 0.214 },
        "label": "Co",
        "xyz": [10.474254318068, 10.474254318068, 10.474254318068]
      },
      {
        "species": [{ "element": "Co", "occu": 1 }],
        "abc": [0.922543, 0.922543, 0.23237000000000002],
        "properties": { "magmom": 0.23900000000000002 },
        "label": "Co",
        "xyz": [6.556254005094001, 6.556254005094001, 10.474254318068]
      },
      {
        "species": [{ "element": "Co", "occu": 1 }],
        "abc": [0.23237000000000002, 0.922543, 0.922543],
        "properties": { "magmom": 0.14100000000000001 },
        "label": "Co",
        "xyz": [10.474254318068, 6.556254005094001, 6.556254005094001]
      },
      {
        "species": [{ "element": "Co", "occu": 1 }],
        "abc": [0.327457, 0.01763, 0.327457],
        "properties": { "magmom": 0.202 },
        "label": "Co",
        "xyz": [1.959002994906, 3.717840681932, 1.959002994906]
      },
      {
        "species": [{ "element": "Co", "occu": 1 }],
        "abc": [0.625, 0.125, 0.125],
        "properties": { "magmom": 0.846 },
        "label": "Co",
        "xyz": [1.4192095, 4.2576285, 4.2576285]
      },
      {
        "species": [{ "element": "Co", "occu": 1 }],
        "abc": [0.125, 0.125, 0.625],
        "properties": { "magmom": 0.852 },
        "label": "Co",
        "xyz": [4.2576285, 4.2576285, 1.4192095]
      },
      {
        "species": [{ "element": "Co", "occu": 1 }],
        "abc": [0.125, 0.125, 0.125],
        "properties": { "magmom": 0.844 },
        "label": "Co",
        "xyz": [1.4192095, 1.4192095, 1.4192095]
      },
      {
        "species": [{ "element": "Co", "occu": 1 }],
        "abc": [0.922543, 0.23237000000000002, 0.922543],
        "properties": { "magmom": 0.221 },
        "label": "Co",
        "xyz": [6.556254005094001, 10.474254318068, 6.556254005094001]
      },
      {
        "species": [{ "element": "Co", "occu": 1 }],
        "abc": [0.327457, 0.327457, 0.327457],
        "properties": { "magmom": 0.195 },
        "label": "Co",
        "xyz": [3.717840681932, 3.717840681932, 3.717840681932]
      },
      {
        "species": [{ "element": "Co", "occu": 1 }],
        "abc": [0.01763, 0.327457, 0.327457],
        "properties": { "magmom": 0.112 },
        "label": "Co",
        "xyz": [3.717840681932, 1.959002994906, 1.959002994906]
      },
      {
        "species": [{ "element": "Co", "occu": 1 }],
        "abc": [0.327457, 0.327457, 0.01763],
        "properties": { "magmom": 0.234 },
        "label": "Co",
        "xyz": [1.959002994906, 1.959002994906, 3.717840681932]
      }
    ]
  },
  "task_ids": null,
  "uncorrected_energy_per_atom": null,
  "energy_per_atom": -8.673576052916667,
  "formation_energy_per_atom": 0.028191304583331002,
  "energy_above_hull": 0.028191304583332,
  "is_stable": false,
  "equilibrium_reaction_energy_per_atom": null,
  "decomposes_to": null,
  "xas": null,
  "grain_boundaries": null,
  "band_gap": 0.0,
  "cbm": null,
  "vbm": null,
  "efermi": 4.4387604,
  "is_gap_direct": null,
  "is_metal": null,
  "es_source_calc_id": null,
  "bandstructure": null,
  "dos": null,
  "dos_energy_up": null,
  "dos_energy_down": null,
  "is_magnetic": null,
  "ordering": null,
  "total_magnetization": 4.2059386,
  "total_magnetization_normalized_vol": null,
  "total_magnetization_normalized_formula_units": null,
  "num_magnetic_sites": null,
  "num_unique_magnetic_sites": null,
  "types_of_magnetic_species": null,
  "bulk_modulus": null,
  "shear_modulus": null,
  "universal_anisotropy": null,
  "homogeneous_poisson": null,
  "e_total": null,
  "e_ionic": null,
  "e_electronic": null,
  "n": null,
  "e_ij_max": null,
  "weighted_surface_energy_EV_PER_ANG2": null,
  "weighted_surface_energy": null,
  "weighted_work_function": null,
  "surface_anisotropy": null,
  "shape_factor": null,
  "has_reconstructed": null,
  "possible_species": null,
  "has_props": null,
  "theoretical": null,
  "database_IDs": null,
  "fields_not_requested": [
    "builder_meta",
    "nsites",
    "elements",
    "nelements",
    "composition",
    "composition_reduced",
    "chemsys",
    "symmetry",
    "property_name",
    "deprecated",
    "deprecation_reasons",
    "last_updated",
    "origins",
    "warnings",
    "task_ids",
    "uncorrected_energy_per_atom",
    "equilibrium_reaction_energy_per_atom",
    "decomposes_to",
    "xas",
    "grain_boundaries",
    "cbm",
    "vbm",
    "is_gap_direct",
    "is_metal",
    "es_source_calc_id",
    "bandstructure",
    "dos",
    "dos_energy_up",
    "dos_energy_down",
    "is_magnetic",
    "ordering",
    "total_magnetization_normalized_vol",
    "total_magnetization_normalized_formula_units",
    "num_magnetic_sites",
    "num_unique_magnetic_sites",
    "types_of_magnetic_species",
    "bulk_modulus",
    "shear_modulus",
    "universal_anisotropy",
    "homogeneous_poisson",
    "e_total",
    "e_ionic",
    "e_electronic",
    "n",
    "e_ij_max",
    "weighted_surface_energy_EV_PER_ANG2",
    "weighted_surface_energy",
    "weighted_work_function",
    "surface_anisotropy",
    "shape_factor",
    "has_reconstructed",
    "possible_species",
    "has_props",
    "theoretical",
    "database_IDs"
  ]
}
