{"builder_meta": null, "nsites": null, "elements": null, "nelements": null, "composition": null, "composition_reduced": null, "formula_pretty": "MgCo2", "formula_anonymous": "AB2", "chemsys": null, "volume": 157.3055968652401, "density": 6.003121362555703, "density_atomic": 13.108799738770008, "symmetry": null, "property_name": null, "material_id": "mp-864931", "deprecated": null, "deprecation_reasons": null, "last_updated": null, "origins": null, "warnings": null, "structure": {"@module": "pymatgen.core.structure", "@class": "Structure", "charge": 0, "lattice": {"matrix": [[4.80715459, -7.740000000000001e-05, 0.00018915000000000002], [-2.40366199, 4.16311446, 2.5630000000000004e-05], [-0.00030234, -0.00026215, 7.8603479499999995]], "pbc": [true, true, true], "a": 4.807154594344408, "b": 4.807193876877523, "c": 7.860347960186068, "alpha": 90.00024742696458, "beta": 89.99994933954677, "gamma": 120.00181776230191, "volume": 157.30559686524006}, "properties": {}, "sites": [{"species": [{"element": "Mg", "occu": 1}], "abc": [0.33332936, 0.6666416, 0.06156864], "properties": {"magmom": -0.045}, "label": "Mg", "xyz": [-3.392662963902523e-05, 2.7752633446860955, 0.48403106848093996]}, {"species": [{"element": "Mg", "occu": 1}], "abc": [0.33337862, 0.66667936, 0.43840857], "properties": {"magmom": -0.045}, "label": "Mg", "xyz": [-1.8222557143302823e-06, 2.7753217514877324, 3.446124050019901]}, {"species": [{"element": "Mg", "occu": 1}], "abc": [0.66666358, 0.3333563, 0.56155105], "properties": {"magmom": -0.045}, "label": "Mg", "xyz": [2.403309241801338, 1.3876016224932486, 4.4141212880259735]}, {"species": [{"element": "Mg", "occu": 1}], "abc": [0.66661744, 0.33331967, 0.9384798400000001], "properties": {"magmom": -0.045}, "label": "Mg", "xyz": [2.4030615251768808, 1.3873503192995162, 7.376912720132246]}, {"species": [{"element": "Co", "occu": 1}], "abc": [0.99997035, 0.9999807900000001, 1.758e-05], "properties": {"magmom": 1.766}, "label": "Co", "xyz": [2.403396236898097, 4.1629570842575365, 0.00035295881631120006]}, {"species": [{"element": "Co", "occu": 1}], "abc": [0.33936241, 0.16959126, 0.24999198], "properties": {"magmom": 1.718}, "label": "Co", "xyz": [1.2236519188315214, 0.7059360247475286, 1.9650924845332862]}, {"species": [{"element": "Co", "occu": 1}], "abc": [0.83049167, 0.16957424000000001, 0.24999568], "properties": {"magmom": 1.718999999999999}, "label": "Co", "xyz": [3.5846271045322364, 0.7058271541647404, 1.9652144644840075]}, {"species": [{"element": "Co", "occu": 1}], "abc": [0.83047678, 0.66070784, 0.2499967], "properties": {"magmom": 1.718}, "label": "Co", "xyz": [2.404036359360141, 2.7504725470016895, 1.965235066976641]}, {"species": [{"element": "Co", "occu": 1}], "abc": [3.8950000000000005e-05, 3.3660000000000006e-05, 0.49997973], "properties": {"magmom": 1.766}, "label": "Co", "xyz": [-4.483246287110002e-05, 9.057731774100034e-06, 3.930014653977152]}, {"species": [{"element": "Co", "occu": 1}], "abc": [0.16951025, 0.3392744, 0.75000298], "properties": {"magmom": 1.718999999999999}, "label": "Co", "xyz": [-0.0008657590214815524, 1.412228427173267, 5.89532514480355]}, {"species": [{"element": "Co", "occu": 1}], "abc": [0.16949937, 0.83041977, 0.75000138], "properties": {"magmom": 1.718999999999999}, "label": "Co", "xyz": [-1.181465517813163, 3.4569228202438693, 5.895325154244712]}, {"species": [{"element": "Co", "occu": 1}], "abc": [0.66066822, 0.83042111, 0.7500048500000001], "properties": {"magmom": 1.718999999999999}, "label": "Co", "xyz": [1.1796558519731721, 3.4568903814385954, 5.89544533427442]}]}, "task_ids": null, "uncorrected_energy_per_atom": null, "energy_per_atom": -10.194509397500001, "formation_energy_per_atom": 0.018079217499998003, "energy_above_hull": 0.018079217499996, "is_stable": false, "equilibrium_reaction_energy_per_atom": null, "decomposes_to": null, "xas": null, "grain_boundaries": null, "band_gap": 0.0, "cbm": null, "vbm": null, "efermi": 5.02876296, "is_gap_direct": null, "is_metal": null, "es_source_calc_id": null, "bandstructure": null, "dos": null, "dos_energy_up": null, "dos_energy_down": null, "is_magnetic": null, "ordering": null, "total_magnetization": 12.5032859, "total_magnetization_normalized_vol": null, "total_magnetization_normalized_formula_units": null, "num_magnetic_sites": null, "num_unique_magnetic_sites": null, "types_of_magnetic_species": null, "bulk_modulus": null, "shear_modulus": null, "universal_anisotropy": null, "homogeneous_poisson": null, "e_total": null, "e_ionic": null, "e_electronic": null, "n": null, "e_ij_max": null, "weighted_surface_energy_EV_PER_ANG2": null, "weighted_surface_energy": null, "weighted_work_function": null, "surface_anisotropy": null, "shape_factor": null, "has_reconstructed": null, "possible_species": null, "has_props": null, "theoretical": null, "database_IDs": null, "fields_not_requested": ["builder_meta", "nsites", "elements", "nelements", "composition", "composition_reduced", "chemsys", "symmetry", "property_name", "deprecated", "deprecation_reasons", "last_updated", "origins", "warnings", "task_ids", "uncorrected_energy_per_atom", "equilibrium_reaction_energy_per_atom", "decomposes_to", "xas", "grain_boundaries", "cbm", "vbm", "is_gap_direct", "is_metal", "es_source_calc_id", "bandstructure", "dos", "dos_energy_up", "dos_energy_down", "is_magnetic", "ordering", "total_magnetization_normalized_vol", "total_magnetization_normalized_formula_units", "num_magnetic_sites", "num_unique_magnetic_sites", "types_of_magnetic_species", "bulk_modulus", "shear_modulus", "universal_anisotropy", "homogeneous_poisson", "e_total", "e_ionic", "e_electronic", "n", "e_ij_max", "weighted_surface_energy_EV_PER_ANG2", "weighted_surface_energy", "weighted_work_function", "surface_anisotropy", "shape_factor", "has_reconstructed", "possible_species", "has_props", "theoretical", "database_IDs"]}