{"builder_meta": null, "nsites": null, "elements": null, "nelements": null, "composition": null, "composition_reduced": null, "formula_pretty": "MgCu5", "formula_anonymous": "AB5", "chemsys": null, "volume": 76.61053561488804, "density": 7.413634105100247, "density_atomic": 12.768422602481339, "symmetry": null, "property_name": null, "material_id": "mp-1185860", "deprecated": null, "deprecation_reasons": null, "last_updated": null, "origins": null, "warnings": null, "structure": {"@module": "pymatgen.core.structure", "@class": "Structure", "charge": 0, "lattice": {"matrix": [[-3.938863, 2.274102, 0.0], [0.0, -4.548208, 0.0], [-1.312955, 2.274102, 4.27639]], "pbc": [true, true, true], "a": 4.5482064200268, "b": 4.548208, "c": 5.01825688566548, "alpha": 116.94697546601523, "beta": 63.05301197324085, "gamma": 119.99998239881228, "volume": 76.61053561488804}, "properties": {}, "sites": [{"species": [{"element": "Mg", "occu": 1}], "abc": [0.833332, 0.499998999999999, 0.5], "properties": {"magmom": -0.0}, "label": "Mg", "xyz": [-3.938858081516, 0.7580335160720046, 2.138195]}, {"species": [{"element": "Cu", "occu": 1}], "abc": [0.656687999999999, 0.323354, 0.0], "properties": {"magmom": -0.0}, "label": "Cu", "xyz": [-2.5866040657439964, 0.022694244543997932, 0.0]}, {"species": [{"element": "Cu", "occu": 1}], "abc": [0.333331999999999, 0.676644999999999, 0.0], "properties": {"magmom": -0.0}, "label": "Cu", "xyz": [-1.312949081515996, -2.319491234295998, 0.0]}, {"species": [{"element": "Cu", "occu": 1}], "abc": [0.009977999999999002, 0.999999, 0.0], "properties": {"magmom": -0.0}, "label": "Cu", "xyz": [-0.039301975013996064, -4.525512462036001, 0.0]}, {"species": [{"element": "Cu", "occu": 1}], "abc": [0.501937, 0.831395, 0.494187999999999], "properties": {"magmom": -0.0}, "label": "Cu", "xyz": [-2.6259076831709987, -1.5160675354100022, 2.113340621319996]}, {"species": [{"element": "Cu", "occu": 1}], "abc": [0.164726999999999, 0.168604, 0.505814], "properties": {"magmom": -0.0}, "label": "Cu", "xyz": [-1.3129481057709962, 0.7580325675499979, 2.16305793146]}]}, "task_ids": null, "uncorrected_energy_per_atom": null, "energy_per_atom": -9.74716186, "formation_energy_per_atom": -0.013281262500001001, "energy_above_hull": 0.048763049999999, "is_stable": false, "equilibrium_reaction_energy_per_atom": null, "decomposes_to": null, "xas": null, "grain_boundaries": null, "band_gap": 0.0, "cbm": null, "vbm": null, "efermi": 6.43312166, "is_gap_direct": null, "is_metal": null, "es_source_calc_id": null, "bandstructure": null, "dos": null, "dos_energy_up": null, "dos_energy_down": null, "is_magnetic": null, "ordering": null, "total_magnetization": 7.92e-05, "total_magnetization_normalized_vol": null, "total_magnetization_normalized_formula_units": null, "num_magnetic_sites": null, "num_unique_magnetic_sites": null, "types_of_magnetic_species": null, "bulk_modulus": null, "shear_modulus": null, "universal_anisotropy": null, "homogeneous_poisson": null, "e_total": null, "e_ionic": null, "e_electronic": null, "n": null, "e_ij_max": null, "weighted_surface_energy_EV_PER_ANG2": null, "weighted_surface_energy": null, "weighted_work_function": null, "surface_anisotropy": null, "shape_factor": null, "has_reconstructed": null, "possible_species": null, "has_props": null, "theoretical": null, "database_IDs": null, "fields_not_requested": ["builder_meta", "nsites", "elements", "nelements", "composition", "composition_reduced", "chemsys", "symmetry", "property_name", "deprecated", "deprecation_reasons", "last_updated", "origins", "warnings", "task_ids", "uncorrected_energy_per_atom", "equilibrium_reaction_energy_per_atom", "decomposes_to", "xas", "grain_boundaries", "cbm", "vbm", "is_gap_direct", "is_metal", "es_source_calc_id", "bandstructure", "dos", "dos_energy_up", "dos_energy_down", "is_magnetic", "ordering", "total_magnetization_normalized_vol", "total_magnetization_normalized_formula_units", "num_magnetic_sites", "num_unique_magnetic_sites", "types_of_magnetic_species", "bulk_modulus", "shear_modulus", "universal_anisotropy", "homogeneous_poisson", "e_total", "e_ionic", "e_electronic", "n", "e_ij_max", "weighted_surface_energy_EV_PER_ANG2", "weighted_surface_energy", "weighted_work_function", "surface_anisotropy", "shape_factor", "has_reconstructed", "possible_species", "has_props", "theoretical", "database_IDs"]}