{"builder_meta": null, "nsites": null, "elements": null, "nelements": null, "composition": null, "composition_reduced": null, "formula_pretty": "MgCu2", "formula_anonymous": "AB2", "chemsys": null, "volume": 84.37330902132675, "density": 5.959245547723972, "density_atomic": 14.062218170221124, "symmetry": null, "property_name": null, "material_id": "mp-1038", "deprecated": null, "deprecation_reasons": null, "last_updated": null, "origins": null, "warnings": null, "structure": {"@module": "pymatgen.core.structure", "@class": "Structure", "charge": 0, "lattice": {"matrix": [[4.2635501, -4.03e-06, 2.46155546], [1.42118101, 4.01970281, 2.46155546], [0.0, -0.0, 4.92311092]], "pbc": [true, true, true], "a": 4.9231204269123925, "b": 4.923110950056105, "c": 4.92311092, "alpha": 60.00000020195522, "beta": 60.00006387941021, "gamma": 60.00005055513267, "volume": 84.37330902132675}, "properties": {}, "sites": [{"species": [{"element": "Mg", "occu": 1}], "abc": [0.874999, 0.875, 0.875], "properties": {"magmom": 0.0}, "label": "Mg", "xyz": [4.9741354576999, 3.5172364325040304, 8.615441648444541]}, {"species": [{"element": "Mg", "occu": 1}], "abc": [0.125001, 0.125, 0.125], "properties": {"magmom": 0.0}, "label": "Mg", "xyz": [0.7105956523000999, 0.50246234749597, 1.2307801915554601]}, {"species": [{"element": "Cu", "occu": 1}], "abc": [0.0, 0.5, 0.5], "properties": {"magmom": 0.0}, "label": "Cu", "xyz": [0.710590505, 2.009851405, 3.6923331900000003]}, {"species": [{"element": "Cu", "occu": 1}], "abc": [0.5, -0.0, 0.5], "properties": {"magmom": 0.0}, "label": "Cu", "xyz": [2.13177505, -2.015e-06, 3.6923331900000003]}, {"species": [{"element": "Cu", "occu": 1}], "abc": [0.5, 0.5, 0.0], "properties": {"magmom": 0.0}, "label": "Cu", "xyz": [2.8423655549999998, 2.00984939, 2.46155546]}, {"species": [{"element": "Cu", "occu": 1}], "abc": [0.5, 0.5, 0.5], "properties": {"magmom": 0.0}, "label": "Cu", "xyz": [2.8423655549999998, 2.00984939, 4.92311092]}]}, "task_ids": null, "uncorrected_energy_per_atom": null, "energy_per_atom": -8.74505382, "formation_energy_per_atom": -0.12408862500000101, "energy_above_hull": 0.0, "is_stable": true, "equilibrium_reaction_energy_per_atom": null, "decomposes_to": null, "xas": null, "grain_boundaries": null, "band_gap": 0.0, "cbm": null, "vbm": null, "efermi": 5.6643077, "is_gap_direct": null, "is_metal": null, "es_source_calc_id": null, "bandstructure": null, "dos": null, "dos_energy_up": null, "dos_energy_down": null, "is_magnetic": null, "ordering": null, "total_magnetization": 1.3e-06, "total_magnetization_normalized_vol": null, "total_magnetization_normalized_formula_units": null, "num_magnetic_sites": null, "num_unique_magnetic_sites": null, "types_of_magnetic_species": null, "bulk_modulus": null, "shear_modulus": null, "universal_anisotropy": null, "homogeneous_poisson": null, "e_total": null, "e_ionic": null, "e_electronic": null, "n": null, "e_ij_max": null, "weighted_surface_energy_EV_PER_ANG2": null, "weighted_surface_energy": null, "weighted_work_function": null, "surface_anisotropy": null, "shape_factor": null, "has_reconstructed": null, "possible_species": null, "has_props": null, "theoretical": null, "database_IDs": null, "fields_not_requested": ["builder_meta", "nsites", "elements", "nelements", "composition", "composition_reduced", "chemsys", "symmetry", "property_name", "deprecated", "deprecation_reasons", "last_updated", "origins", "warnings", "task_ids", "uncorrected_energy_per_atom", "equilibrium_reaction_energy_per_atom", "decomposes_to", "xas", "grain_boundaries", "cbm", "vbm", "is_gap_direct", "is_metal", "es_source_calc_id", "bandstructure", "dos", "dos_energy_up", "dos_energy_down", "is_magnetic", "ordering", "total_magnetization_normalized_vol", "total_magnetization_normalized_formula_units", "num_magnetic_sites", "num_unique_magnetic_sites", "types_of_magnetic_species", "bulk_modulus", "shear_modulus", "universal_anisotropy", "homogeneous_poisson", "e_total", "e_ionic", "e_electronic", "n", "e_ij_max", "weighted_surface_energy_EV_PER_ANG2", "weighted_surface_energy", "weighted_work_function", "surface_anisotropy", "shape_factor", "has_reconstructed", "possible_species", "has_props", "theoretical", "database_IDs"]}