{
  "builder_meta": null,
  "nsites": null,
  "elements": null,
  "nelements": null,
  "composition": null,
  "composition_reduced": null,
  "formula_pretty": "MgF2",
  "formula_anonymous": "AB2",
  "chemsys": null,
  "volume": 64.91790990921109,
  "density": 3.187243199654242,
  "density_atomic": 10.819651651535182,
  "symmetry": null,
  "property_name": null,
  "material_id": "mp-1249",
  "deprecated": null,
  "deprecation_reasons": null,
  "last_updated": null,
  "origins": null,
  "warnings": null,
  "structure": {
    "@module": "pymatgen.core.structure",
    "@class": "Structure",
    "charge": 0,
    "lattice": {
      "matrix": [
        [3.04778351, 0.0, 0.0],
        [0.0, 4.61519661, -0.0],
        [0.0, -0.0, 4.61519661]
      ],
      "pbc": [true, true, true],
      "a": 3.04778351,
      "b": 4.61519661,
      "c": 4.61519661,
      "alpha": 90.0,
      "beta": 90.0,
      "gamma": 90.0,
      "volume": 64.91790990921109
    },
    "properties": {},
    "sites": [
      {
        "species": [{ "element": "Mg", "occu": 1 }],
        "abc": [0.5, 0.5, 0.5],
        "properties": { "magmom": 0.0 },
        "label": "Mg",
        "xyz": [1.523891755, 2.307598305, 2.307598305]
      },
      {
        "species": [{ "element": "Mg", "occu": 1 }],
        "abc": [-0.0, -0.0, -0.0],
        "properties": { "magmom": 0.0 },
        "label": "Mg",
        "xyz": [0.0, 0.0, 0.0]
      },
      {
        "species": [{ "element": "F", "occu": 1 }],
        "abc": [0.0, 0.69707986, 0.69707986],
        "properties": { "magmom": -0.0 },
        "label": "F",
        "xyz": [0.0, 3.2171606067712744, 3.2171606067712744]
      },
      {
        "species": [{ "element": "F", "occu": 1 }],
        "abc": [0.5, 0.80292014, 0.19707986],
        "properties": { "magmom": -0.0 },
        "label": "F",
        "xyz": [1.523891755, 3.7056343082287255, 0.9095623017712746]
      },
      {
        "species": [{ "element": "F", "occu": 1 }],
        "abc": [-0.0, 0.30292014, 0.30292014],
        "properties": { "magmom": -0.0 },
        "label": "F",
        "xyz": [0.0, 1.3980360032287253, 1.3980360032287253]
      },
      {
        "species": [{ "element": "F", "occu": 1 }],
        "abc": [0.5, 0.19707986, 0.80292014],
        "properties": { "magmom": -0.0 },
        "label": "F",
        "xyz": [1.523891755, 0.9095623017712746, 3.7056343082287255]
      }
    ]
  },
  "task_ids": null,
  "uncorrected_energy_per_atom": null,
  "energy_per_atom": -7.297827411666667,
  "formation_energy_per_atom": -3.8240409166666662,
  "energy_above_hull": 0.0,
  "is_stable": true,
  "equilibrium_reaction_energy_per_atom": null,
  "decomposes_to": null,
  "xas": null,
  "grain_boundaries": null,
  "band_gap": 6.824,
  "cbm": null,
  "vbm": null,
  "efermi": -0.83300018,
  "is_gap_direct": null,
  "is_metal": null,
  "es_source_calc_id": null,
  "bandstructure": null,
  "dos": null,
  "dos_energy_up": null,
  "dos_energy_down": null,
  "is_magnetic": null,
  "ordering": null,
  "total_magnetization": 0.0,
  "total_magnetization_normalized_vol": null,
  "total_magnetization_normalized_formula_units": null,
  "num_magnetic_sites": null,
  "num_unique_magnetic_sites": null,
  "types_of_magnetic_species": null,
  "bulk_modulus": null,
  "shear_modulus": null,
  "universal_anisotropy": null,
  "homogeneous_poisson": null,
  "e_total": null,
  "e_ionic": null,
  "e_electronic": null,
  "n": null,
  "e_ij_max": null,
  "weighted_surface_energy_EV_PER_ANG2": null,
  "weighted_surface_energy": null,
  "weighted_work_function": null,
  "surface_anisotropy": null,
  "shape_factor": null,
  "has_reconstructed": null,
  "possible_species": null,
  "has_props": null,
  "theoretical": null,
  "database_IDs": null,
  "fields_not_requested": [
    "builder_meta",
    "nsites",
    "elements",
    "nelements",
    "composition",
    "composition_reduced",
    "chemsys",
    "symmetry",
    "property_name",
    "deprecated",
    "deprecation_reasons",
    "last_updated",
    "origins",
    "warnings",
    "task_ids",
    "uncorrected_energy_per_atom",
    "equilibrium_reaction_energy_per_atom",
    "decomposes_to",
    "xas",
    "grain_boundaries",
    "cbm",
    "vbm",
    "is_gap_direct",
    "is_metal",
    "es_source_calc_id",
    "bandstructure",
    "dos",
    "dos_energy_up",
    "dos_energy_down",
    "is_magnetic",
    "ordering",
    "total_magnetization_normalized_vol",
    "total_magnetization_normalized_formula_units",
    "num_magnetic_sites",
    "num_unique_magnetic_sites",
    "types_of_magnetic_species",
    "bulk_modulus",
    "shear_modulus",
    "universal_anisotropy",
    "homogeneous_poisson",
    "e_total",
    "e_ionic",
    "e_electronic",
    "n",
    "e_ij_max",
    "weighted_surface_energy_EV_PER_ANG2",
    "weighted_surface_energy",
    "weighted_work_function",
    "surface_anisotropy",
    "shape_factor",
    "has_reconstructed",
    "possible_species",
    "has_props",
    "theoretical",
    "database_IDs"
  ]
}
