{
  "builder_meta": null,
  "nsites": null,
  "elements": null,
  "nelements": null,
  "composition": null,
  "composition_reduced": null,
  "formula_pretty": "MgGa2",
  "formula_anonymous": "AB2",
  "chemsys": null,
  "volume": 110.2249686212018,
  "density": 4.9338173754311,
  "density_atomic": 18.370828103533633,
  "symmetry": null,
  "property_name": null,
  "material_id": "mp-30651",
  "deprecated": null,
  "deprecation_reasons": null,
  "last_updated": null,
  "origins": null,
  "warnings": null,
  "structure": {
    "@module": "pymatgen.core.structure",
    "@class": "Structure",
    "charge": 0,
    "lattice": {
      "matrix": [
        [4.29098547, -0.0, 0.0],
        [-2.14549224, 3.716102079999999, -0.0],
        [-0.0, 0.0, 6.91250255]
      ],
      "pbc": [true, true, true],
      "a": 4.29098547,
      "b": 4.290984924336199,
      "c": 6.91250255,
      "alpha": 90.0,
      "beta": 90.0,
      "gamma": 119.99999657455733,
      "volume": 110.22496862120177
    },
    "properties": {},
    "sites": [
      {
        "species": [{ "element": "Mg", "occu": 1 }],
        "abc": [0.0, -0.0, 0.75],
        "properties": { "magmom": 0.0 },
        "label": "Mg",
        "xyz": [0.0, 0.0, 5.1843769125]
      },
      {
        "species": [{ "element": "Mg", "occu": 1 }],
        "abc": [-0.0, 0.0, 0.25],
        "properties": { "magmom": 0.0 },
        "label": "Mg",
        "xyz": [0.0, 0.0, 1.7281256375]
      },
      {
        "species": [{ "element": "Ga", "occu": 1 }],
        "abc": [0.666667, 0.333333, 0.55101586],
        "properties": { "magmom": -0.0 },
        "label": "Ga",
        "xyz": [2.14549504549257, 1.2386994546326395, 3.8088985373404434]
      },
      {
        "species": [{ "element": "Ga", "occu": 1 }],
        "abc": [0.333333, 0.666667, 0.05101586],
        "properties": { "magmom": -0.0 },
        "label": "Ga",
        "xyz": [-1.8154925700564206e-6, 2.4774026253673593, 0.352647262340443]
      },
      {
        "species": [{ "element": "Ga", "occu": 1 }],
        "abc": [0.666667, 0.333333, 0.94898414],
        "properties": { "magmom": -0.0 },
        "label": "Ga",
        "xyz": [2.14549504549257, 1.2386994546326395, 6.559855287659557]
      },
      {
        "species": [{ "element": "Ga", "occu": 1 }],
        "abc": [0.333333, 0.666667, 0.44898414000000003],
        "properties": { "magmom": -0.0 },
        "label": "Ga",
        "xyz": [-1.8154925700564206e-6, 2.4774026253673593, 3.103604012659557]
      }
    ]
  },
  "task_ids": null,
  "uncorrected_energy_per_atom": null,
  "energy_per_atom": -2.676799758333333,
  "formation_energy_per_atom": -0.114579071666666,
  "energy_above_hull": 0.004995789999999001,
  "is_stable": false,
  "equilibrium_reaction_energy_per_atom": null,
  "decomposes_to": null,
  "xas": null,
  "grain_boundaries": null,
  "band_gap": 0.0,
  "cbm": null,
  "vbm": null,
  "efermi": 3.9980848,
  "is_gap_direct": null,
  "is_metal": null,
  "es_source_calc_id": null,
  "bandstructure": null,
  "dos": null,
  "dos_energy_up": null,
  "dos_energy_down": null,
  "is_magnetic": null,
  "ordering": null,
  "total_magnetization": 0.0,
  "total_magnetization_normalized_vol": null,
  "total_magnetization_normalized_formula_units": null,
  "num_magnetic_sites": null,
  "num_unique_magnetic_sites": null,
  "types_of_magnetic_species": null,
  "bulk_modulus": null,
  "shear_modulus": null,
  "universal_anisotropy": null,
  "homogeneous_poisson": null,
  "e_total": null,
  "e_ionic": null,
  "e_electronic": null,
  "n": null,
  "e_ij_max": null,
  "weighted_surface_energy_EV_PER_ANG2": null,
  "weighted_surface_energy": null,
  "weighted_work_function": null,
  "surface_anisotropy": null,
  "shape_factor": null,
  "has_reconstructed": null,
  "possible_species": null,
  "has_props": null,
  "theoretical": null,
  "database_IDs": null,
  "fields_not_requested": [
    "builder_meta",
    "nsites",
    "elements",
    "nelements",
    "composition",
    "composition_reduced",
    "chemsys",
    "symmetry",
    "property_name",
    "deprecated",
    "deprecation_reasons",
    "last_updated",
    "origins",
    "warnings",
    "task_ids",
    "uncorrected_energy_per_atom",
    "equilibrium_reaction_energy_per_atom",
    "decomposes_to",
    "xas",
    "grain_boundaries",
    "cbm",
    "vbm",
    "is_gap_direct",
    "is_metal",
    "es_source_calc_id",
    "bandstructure",
    "dos",
    "dos_energy_up",
    "dos_energy_down",
    "is_magnetic",
    "ordering",
    "total_magnetization_normalized_vol",
    "total_magnetization_normalized_formula_units",
    "num_magnetic_sites",
    "num_unique_magnetic_sites",
    "types_of_magnetic_species",
    "bulk_modulus",
    "shear_modulus",
    "universal_anisotropy",
    "homogeneous_poisson",
    "e_total",
    "e_ionic",
    "e_electronic",
    "n",
    "e_ij_max",
    "weighted_surface_energy_EV_PER_ANG2",
    "weighted_surface_energy",
    "weighted_work_function",
    "surface_anisotropy",
    "shape_factor",
    "has_reconstructed",
    "possible_species",
    "has_props",
    "theoretical",
    "database_IDs"
  ]
}
