{"builder_meta": null, "nsites": null, "elements": null, "nelements": null, "composition": null, "composition_reduced": null, "formula_pretty": "MgGa", "formula_anonymous": "AB", "chemsys": null, "volume": 605.6286139107845, "density": 4.124961437235274, "density_atomic": 18.925894184712014, "symmetry": null, "property_name": null, "material_id": "mp-574266", "deprecated": null, "deprecation_reasons": null, "last_updated": null, "origins": null, "warnings": null, "structure": {"@module": "pymatgen.core.structure", "@class": "Structure", "charge": 0, "lattice": {"matrix": [[10.49417939, 0.00023706, -3.22e-06], [6.326e-05, 10.49425046, 1.527e-05], [-2e-06, 8.89e-06, 5.49928816]], "pbc": [true, true, true], "a": 10.494179392678047, "b": 10.494250460201776, "c": 5.499288160007549, "alpha": 89.99982400723832, "beta": 90.00003841588483, "gamma": 89.99836032499095, "volume": 605.6286139107846}, "properties": {}, "sites": [{"species": [{"element": "Mg", "occu": 1}], "abc": [0.86745491, 0.07267799999999901, 0.26700845], "properties": {"magmom": 0.0}, "label": "Mg", "xyz": [9.103231501869685, 0.7629091474979546, 1.4683547242932018]}, {"species": [{"element": "Mg", "occu": 1}], "abc": [0.07267546, 0.13254044, 0.73297027], "properties": {"magmom": 0.0}, "label": "Mg", "xyz": [0.7626762330584638, 1.3909363179888505, 4.030816517320541]}, {"species": [{"element": "Mg", "occu": 1}], "abc": [0.92732971, 0.86747241, 0.73295297], "properties": {"magmom": 0.0}, "label": "Mg", "xyz": [9.731617740815391, 9.103699086412764, 4.03072985005987]}, {"species": [{"element": "Mg", "occu": 1}], "abc": [0.13253205, 0.92732641, 0.26702701], "properties": {"magmom": -0.0}, "label": "Mg", "xyz": [1.3908732362391263, 9.73162939663054, 1.4684722080142814]}, {"species": [{"element": "Mg", "occu": 1}], "abc": [0.36742216, 0.07268853, 0.48303876], "properties": {"magmom": -0.0}, "label": "Mg", "xyz": [3.8557976911001695, 0.7629030347010498, 2.6563692605435794]}, {"species": [{"element": "Mg", "occu": 1}], "abc": [0.57267625, 0.13254319, 0.01699917], "properties": {"magmom": -0.0}, "label": "Mg", "xyz": [6.009775650576346, 1.3910773423818137, 0.0934835142278135]}, {"species": [{"element": "Mg", "occu": 1}], "abc": [0.42732432000000004, 0.86745012, 0.016997230000000002], "properties": {"magmom": -0.0}, "label": "Mg", "xyz": [4.484472912689896, 9.10334027344573, 0.09348453567081881]}, {"species": [{"element": "Mg", "occu": 1}], "abc": [0.63256607, 0.92731423, 0.48302062], "properties": {"magmom": -0.0}, "label": "Mg", "xyz": [6.638319510464246, 9.731622034907913, 2.6562816998274057]}, {"species": [{"element": "Mg", "occu": 1}], "abc": [0.36746163, 0.57267533, 0.76701737], "properties": {"magmom": 0.0}, "label": "Mg", "xyz": [3.856242957568441, 6.009892274521579, 4.218057102881179]}, {"species": [{"element": "Mg", "occu": 1}], "abc": [0.57267024, 0.63252606, 0.2329503], "properties": {"magmom": -0.0}, "label": "Mg", "xyz": [6.009743777572309, 6.638024724252249, 1.2810686413332113]}, {"species": [{"element": "Mg", "occu": 1}], "abc": [0.42732818, 0.36747002, 0.23295276], "properties": {"magmom": 0.0}, "label": "Mg", "xyz": [4.484481359570155, 3.8564257997895965, 1.2810785901777875]}, {"species": [{"element": "Mg", "occu": 1}], "abc": [0.63253733, 0.42732384, 0.76702053], "properties": {"magmom": 0.0}, "label": "Mg", "xyz": [6.637985710356686, 4.484600172600929, 4.2180714075707595]}, {"species": [{"element": "Mg", "occu": 1}], "abc": [0.86741283, 0.57269128, 0.98305589], "properties": {"magmom": -0.0}, "label": "Mg", "xyz": [9.102820105546167, 6.010180096830331, 5.406113568421795]}, {"species": [{"element": "Mg", "occu": 1}], "abc": [0.07267456, 0.63253827, 0.51700886], "properties": {"magmom": -0.0}, "label": "Mg", "xyz": [0.7626988500825586, 6.638036855355063, 2.843190127260397]}, {"species": [{"element": "Mg", "occu": 1}], "abc": [0.92732822, 0.36746313, 0.51702061], "properties": {"magmom": -0.0}, "label": "Mg", "xyz": [9.731570905765768, 3.856474549776596, 2.843247944214104]}, {"species": [{"element": "Mg", "occu": 1}], "abc": [0.13257738, 0.42731207, 0.98304152], "properties": {"magmom": -0.0}, "label": "Mg", "xyz": [1.3913158744547065, 4.484360055193868, 5.406034689880548]}, {"species": [{"element": "Ga", "occu": 1}], "abc": [0.19839632000000001, 0.39195292, 0.49455828], "properties": {"magmom": 0.0}, "label": "Ga", "xyz": [2.082030378221004, 4.113303539463072, 2.7197238399189025]}, {"species": [{"element": "Ga", "occu": 1}], "abc": [0.10803262, 0.19837959, 0.2445377], "properties": {"magmom": -0.0}, "label": "Ga", "xyz": [1.133725754669165, 2.081872887765161, 1.344785959674935]}, {"species": [{"element": "Ga", "occu": 1}], "abc": [0.39197068, 0.30161729, 0.74453145], "properties": {"magmom": -0.0}, "label": "Ga", "xyz": [4.11342822278715, 3.1653469237804446, 4.09439633128306]}, {"species": [{"element": "Ga", "occu": 1}], "abc": [0.30161319000000003, 0.10804286, 0.99455223], "properties": {"magmom": 0.0}, "label": "Ga", "xyz": [3.165187767937018, 1.1339091752468617, 5.469329981560597]}, {"species": [{"element": "Ga", "occu": 1}], "abc": [0.19839396, 0.8919663600000001, 0.7554499100000001], "properties": {"magmom": -0.0}, "label": "Ga", "xyz": [2.082036721024598, 9.360572130956383, 4.154449727033832]}, {"species": [{"element": "Ga", "occu": 1}], "abc": [0.10804399, 0.69839194, 0.00543711], "properties": {"magmom": 0.0}, "label": "Ga", "xyz": [1.1338771824712706, 7.32912559884947, 0.0299105511908936]}, {"species": [{"element": "Ga", "occu": 1}], "abc": [0.39195861, 0.80160679, 0.50543432], "properties": {"magmom": 0.0}, "label": "Ga", "xyz": [4.113333665571942, 8.412359835715813, 2.7795399500626106]}, {"species": [{"element": "Ga", "occu": 1}], "abc": [0.3016061, 0.60803252, 0.25545333], "properties": {"magmom": -0.0}, "label": "Ga", "xyz": [3.165146471748834, 6.380919322427128, 1.404819786586511]}, {"species": [{"element": "Ga", "occu": 1}], "abc": [0.69839614, 0.89195355, 0.99455393], "properties": {"magmom": 0.0}, "label": "Ga", "xyz": [7.329148814317268, 9.360558355759519, 5.469350023025607]}, {"species": [{"element": "Ga", "occu": 1}], "abc": [0.60803344, 0.69838238, 0.74453114], "properties": {"magmom": -0.0}, "label": "Ga", "xyz": [6.380854685085881, 7.329150371860015, 4.094399989384568]}, {"species": [{"element": "Ga", "occu": 1}], "abc": [0.89197067, 0.80161843, 0.24453454], "properties": {"magmom": -0.0}, "label": "Ga", "xyz": [9.360550442911292, 8.412598202251068, 1.344775269100915]}, {"species": [{"element": "Ga", "occu": 1}], "abc": [0.80160496, 0.60804338, 0.49455961], "properties": {"magmom": 0.0}, "label": "Ga", "xyz": [8.412223725858771, 6.381153945371706, 2.719732511341659]}, {"species": [{"element": "Ga", "occu": 1}], "abc": [0.6983948600000001, 0.39196646, 0.25545414], "properties": {"magmom": -0.0}, "label": "Ga", "xyz": [7.329105230783916, 4.113562035632388, 1.4048196640213773]}, {"species": [{"element": "Ga", "occu": 1}], "abc": [0.60804529, 0.1983926, 0.50543603], "properties": {"magmom": 0.0}, "label": "Ga", "xyz": [6.380947889948389, 2.0821302703533497, 2.779539446965573]}, {"species": [{"element": "Ga", "occu": 1}], "abc": [0.89195746, 0.30160853, 0.00543877], "properties": {"magmom": 0.0}, "label": "Ga", "xyz": [9.360380662366817, 3.1653669504785564, 0.0299110969251951]}, {"species": [{"element": "Ga", "occu": 1}], "abc": [0.80160942, 0.10803208, 0.75545118], "properties": {"magmom": -0.0}, "label": "Ga", "xyz": [8.412238377400875, 1.1339124507248524, 4.154442798099558]}]}, "task_ids": null, "uncorrected_energy_per_atom": null, "energy_per_atom": -2.4625062, "formation_energy_per_atom": -0.13322318125, "energy_above_hull": 0.0, "is_stable": true, "equilibrium_reaction_energy_per_atom": null, "decomposes_to": null, "xas": null, "grain_boundaries": null, "band_gap": 0.0, "cbm": null, "vbm": null, "efermi": 3.79327927, "is_gap_direct": null, "is_metal": null, "es_source_calc_id": null, "bandstructure": null, "dos": null, "dos_energy_up": null, "dos_energy_down": null, "is_magnetic": null, "ordering": null, "total_magnetization": 0.0, "total_magnetization_normalized_vol": null, "total_magnetization_normalized_formula_units": null, "num_magnetic_sites": null, "num_unique_magnetic_sites": null, "types_of_magnetic_species": null, "bulk_modulus": null, "shear_modulus": null, "universal_anisotropy": null, "homogeneous_poisson": null, "e_total": null, "e_ionic": null, "e_electronic": null, "n": null, "e_ij_max": null, "weighted_surface_energy_EV_PER_ANG2": null, "weighted_surface_energy": null, "weighted_work_function": null, "surface_anisotropy": null, "shape_factor": null, "has_reconstructed": null, "possible_species": null, "has_props": null, "theoretical": null, "database_IDs": null, "fields_not_requested": ["builder_meta", "nsites", "elements", "nelements", "composition", "composition_reduced", "chemsys", "symmetry", "property_name", "deprecated", "deprecation_reasons", "last_updated", "origins", "warnings", "task_ids", "uncorrected_energy_per_atom", "equilibrium_reaction_energy_per_atom", "decomposes_to", "xas", "grain_boundaries", "cbm", "vbm", "is_gap_direct", "is_metal", "es_source_calc_id", "bandstructure", "dos", "dos_energy_up", "dos_energy_down", "is_magnetic", "ordering", "total_magnetization_normalized_vol", "total_magnetization_normalized_formula_units", "num_magnetic_sites", "num_unique_magnetic_sites", "types_of_magnetic_species", "bulk_modulus", "shear_modulus", "universal_anisotropy", "homogeneous_poisson", "e_total", "e_ionic", "e_electronic", "n", "e_ij_max", "weighted_surface_energy_EV_PER_ANG2", "weighted_surface_energy", "weighted_work_function", "surface_anisotropy", "shape_factor", "has_reconstructed", "possible_species", "has_props", "theoretical", "database_IDs"]}