{"builder_meta": null, "nsites": null, "elements": null, "nelements": null, "composition": null, "composition_reduced": null, "formula_pretty": "MgGe", "formula_anonymous": "AB", "chemsys": null, "volume": 78.21003021161154, "density": 4.116632083531321, "density_atomic": 19.552507552902885, "symmetry": null, "property_name": null, "material_id": "mp-1185865", "deprecated": null, "deprecation_reasons": null, "last_updated": null, "origins": null, "warnings": null, "structure": {"@module": "pymatgen.core.structure", "@class": "Structure", "charge": 0, "lattice": {"matrix": [[1.589802, 5.34464, 0.0], [-1.589802, 5.34464, 0.0], [0.0, 1.49515, 4.602258]], "pbc": [true, true, true], "a": 5.57607811358521, "b": 5.57607811358521, "c": 4.83903422400214, "alpha": 72.77332948441786, "beta": 72.77332948441786, "gamma": 33.130984405888036, "volume": 78.21003021161154}, "properties": {}, "sites": [{"species": [{"element": "Mg", "occu": 1}], "abc": [0.119107999999999, 0.119107999999999, 0.709963999999999], "properties": {"magmom": 0.0}, "label": "Mg", "xyz": [0.0, 2.334681436839988, 3.2674374987119954]}, {"species": [{"element": "Mg", "occu": 1}], "abc": [0.880892, 0.880892, 0.290035999999999], "properties": {"magmom": 0.0}, "label": "Mg", "xyz": [0.0, 9.849748563159999, 1.3348205012879955]}, {"species": [{"element": "Ge", "occu": 1}], "abc": [0.374125, 0.374125, 0.78459], "properties": {"magmom": 0.0}, "label": "Ge", "xyz": [0.0, 5.1722066185, 3.61088560422]}, {"species": [{"element": "Ge", "occu": 1}], "abc": [0.625875, 0.625875, 0.21541000000000002], "properties": {"magmom": 0.0}, "label": "Ge", "xyz": [0.0, 7.0122233815, 0.99137239578]}]}, "task_ids": null, "uncorrected_energy_per_atom": null, "energy_per_atom": -9.13776680375, "formation_energy_per_atom": -0.11712622125000001, "energy_above_hull": 0.140796323749999, "is_stable": false, "equilibrium_reaction_energy_per_atom": null, "decomposes_to": null, "xas": null, "grain_boundaries": null, "band_gap": 0.0, "cbm": null, "vbm": null, "efermi": 4.13174614, "is_gap_direct": null, "is_metal": null, "es_source_calc_id": null, "bandstructure": null, "dos": null, "dos_energy_up": null, "dos_energy_down": null, "is_magnetic": null, "ordering": null, "total_magnetization": 0.0084101, "total_magnetization_normalized_vol": null, "total_magnetization_normalized_formula_units": null, "num_magnetic_sites": null, "num_unique_magnetic_sites": null, "types_of_magnetic_species": null, "bulk_modulus": null, "shear_modulus": null, "universal_anisotropy": null, "homogeneous_poisson": null, "e_total": null, "e_ionic": null, "e_electronic": null, "n": null, "e_ij_max": null, "weighted_surface_energy_EV_PER_ANG2": null, "weighted_surface_energy": null, "weighted_work_function": null, "surface_anisotropy": null, "shape_factor": null, "has_reconstructed": null, "possible_species": null, "has_props": null, "theoretical": null, "database_IDs": null, "fields_not_requested": ["builder_meta", "nsites", "elements", "nelements", "composition", "composition_reduced", "chemsys", "symmetry", "property_name", "deprecated", "deprecation_reasons", "last_updated", "origins", "warnings", "task_ids", "uncorrected_energy_per_atom", "equilibrium_reaction_energy_per_atom", "decomposes_to", "xas", "grain_boundaries", "cbm", "vbm", "is_gap_direct", "is_metal", "es_source_calc_id", "bandstructure", "dos", "dos_energy_up", "dos_energy_down", "is_magnetic", "ordering", "total_magnetization_normalized_vol", "total_magnetization_normalized_formula_units", "num_magnetic_sites", "num_unique_magnetic_sites", "types_of_magnetic_species", "bulk_modulus", "shear_modulus", "universal_anisotropy", "homogeneous_poisson", "e_total", "e_ionic", "e_electronic", "n", "e_ij_max", "weighted_surface_energy_EV_PER_ANG2", "weighted_surface_energy", "weighted_work_function", "surface_anisotropy", "shape_factor", "has_reconstructed", "possible_species", "has_props", "theoretical", "database_IDs"]}