{"builder_meta": null, "nsites": null, "elements": null, "nelements": null, "composition": null, "composition_reduced": null, "formula_pretty": "MgGe3", "formula_anonymous": "AB3", "chemsys": null, "volume": 80.4885065126347, "density": 4.99728585899461, "density_atomic": 20.122126628158675, "symmetry": null, "property_name": null, "material_id": "mp-1185869", "deprecated": null, "deprecation_reasons": null, "last_updated": null, "origins": null, "warnings": null, "structure": {"@module": "pymatgen.core.structure", "@class": "Structure", "charge": 0, "lattice": {"matrix": [[-1.876784, 2.054806, 5.217816], [1.876784, -2.054806, 5.217816], [1.876784, 2.054806, -5.217816]], "pbc": [true, true, true], "a": 5.91355643332741, "b": 5.91355643332741, "c": 5.91355643332741, "alpha": 142.99213277076123, "beta": 139.33424033487418, "gamma": 56.14612320489318, "volume": 80.4885065126347}, "properties": {}, "sites": [{"species": [{"element": "Mg", "occu": 1}], "abc": [0.209423, 0.5, 0.709422999999999], "properties": {"magmom": 0.0}, "label": "Mg", "xyz": [1.876783999999998, 0.8606472738759982, 5.329070518200751e-15]}, {"species": [{"element": "Ge", "occu": 1}], "abc": [0.7360500000000001, 0.774081999999999, 0.961969], "properties": {"magmom": 0.0}, "label": "Ge", "xyz": [1.8767858767839978, 1.8985112912220024, 2.860213672007995]}, {"species": [{"element": "Ge", "occu": 1}], "abc": [0.187887, 0.225917999999999, 0.961969], "properties": {"magmom": 0.0}, "label": "Ge", "xyz": [1.876783999999998, 1.8985133460280021, -2.8602188898240053]}, {"species": [{"element": "Ge", "occu": 1}], "abc": [0.699973, 0.0, 0.699973], "properties": {"magmom": -0.0}, "label": "Ge", "xyz": [0.0, 2.876617440476, 0.0]}]}, "task_ids": null, "uncorrected_energy_per_atom": null, "energy_per_atom": -11.392890871874998, "formation_energy_per_atom": 0.053418209375001004, "energy_above_hull": 0.18237948187500103, "is_stable": false, "equilibrium_reaction_energy_per_atom": null, "decomposes_to": null, "xas": null, "grain_boundaries": null, "band_gap": 0.0, "cbm": null, "vbm": null, "efermi": 3.63582499, "is_gap_direct": null, "is_metal": null, "es_source_calc_id": null, "bandstructure": null, "dos": null, "dos_energy_up": null, "dos_energy_down": null, "is_magnetic": null, "ordering": null, "total_magnetization": 7.699999999999999e-06, "total_magnetization_normalized_vol": null, "total_magnetization_normalized_formula_units": null, "num_magnetic_sites": null, "num_unique_magnetic_sites": null, "types_of_magnetic_species": null, "bulk_modulus": null, "shear_modulus": null, "universal_anisotropy": null, "homogeneous_poisson": null, "e_total": null, "e_ionic": null, "e_electronic": null, "n": null, "e_ij_max": null, "weighted_surface_energy_EV_PER_ANG2": null, "weighted_surface_energy": null, "weighted_work_function": null, "surface_anisotropy": null, "shape_factor": null, "has_reconstructed": null, "possible_species": null, "has_props": null, "theoretical": null, "database_IDs": null, "fields_not_requested": ["builder_meta", "nsites", "elements", "nelements", "composition", "composition_reduced", "chemsys", "symmetry", "property_name", "deprecated", "deprecation_reasons", "last_updated", "origins", "warnings", "task_ids", "uncorrected_energy_per_atom", "equilibrium_reaction_energy_per_atom", "decomposes_to", "xas", "grain_boundaries", "cbm", "vbm", "is_gap_direct", "is_metal", "es_source_calc_id", "bandstructure", "dos", "dos_energy_up", "dos_energy_down", "is_magnetic", "ordering", "total_magnetization_normalized_vol", "total_magnetization_normalized_formula_units", "num_magnetic_sites", "num_unique_magnetic_sites", "types_of_magnetic_species", "bulk_modulus", "shear_modulus", "universal_anisotropy", "homogeneous_poisson", "e_total", "e_ionic", "e_electronic", "n", "e_ij_max", "weighted_surface_energy_EV_PER_ANG2", "weighted_surface_energy", "weighted_work_function", "surface_anisotropy", "shape_factor", "has_reconstructed", "possible_species", "has_props", "theoretical", "database_IDs"]}