{
  "builder_meta": null,
  "nsites": null,
  "elements": null,
  "nelements": null,
  "composition": null,
  "composition_reduced": null,
  "formula_pretty": "MgH",
  "formula_anonymous": "AB",
  "chemsys": null,
  "volume": 50.846589281114944,
  "density": 1.653331181295711,
  "density_atomic": 12.711647320278736,
  "symmetry": null,
  "property_name": null,
  "material_id": "mp-1185871",
  "deprecated": null,
  "deprecation_reasons": null,
  "last_updated": null,
  "origins": null,
  "warnings": null,
  "structure": {
    "@module": "pymatgen.core.structure",
    "@class": "Structure",
    "charge": 0,
    "lattice": {
      "matrix": [
        [1.646151, -2.851218, 0.0],
        [1.646151, 2.851218, 0.0],
        [0.0, 0.0, 5.416662]
      ],
      "pbc": [true, true, true],
      "a": 3.2923027197274854,
      "b": 3.2923027197274854,
      "c": 5.416662,
      "alpha": 90.0,
      "beta": 90.0,
      "gamma": 120.00001446306418,
      "volume": 50.846589281114944
    },
    "properties": {},
    "sites": [
      {
        "species": [{ "element": "Mg", "occu": 1 }],
        "abc": [0.666667, 0.333333, 0.875043999999999],
        "properties": { "magmom": -0.0 },
        "label": "Mg",
        "xyz": [1.6461509999999997, -0.9504079008119999, 4.739817583127994]
      },
      {
        "species": [{ "element": "Mg", "occu": 1 }],
        "abc": [0.333333, 0.666667, 0.375044],
        "properties": { "magmom": -0.0 },
        "label": "Mg",
        "xyz": [1.6461509999999997, 0.9504079008119999, 2.031486583128]
      },
      {
        "species": [{ "element": "H", "occu": 1 }],
        "abc": [0.666667, 0.333333, 0.499959],
        "properties": { "magmom": -0.0 },
        "label": "H",
        "xyz": [1.6461509999999997, -0.9504079008119999, 2.708108916858]
      },
      {
        "species": [{ "element": "H", "occu": 1 }],
        "abc": [0.333333, 0.666667, 0.999958999999999],
        "properties": { "magmom": -0.0 },
        "label": "H",
        "xyz": [1.6461509999999997, 0.9504079008119999, 5.416439916857994]
      }
    ]
  },
  "task_ids": null,
  "uncorrected_energy_per_atom": null,
  "energy_per_atom": -2.38892928,
  "formation_energy_per_atom": 0.123888946874999,
  "energy_above_hull": 0.33592825124999903,
  "is_stable": false,
  "equilibrium_reaction_energy_per_atom": null,
  "decomposes_to": null,
  "xas": null,
  "grain_boundaries": null,
  "band_gap": 0.0,
  "cbm": null,
  "vbm": null,
  "efermi": 3.65581888,
  "is_gap_direct": null,
  "is_metal": null,
  "es_source_calc_id": null,
  "bandstructure": null,
  "dos": null,
  "dos_energy_up": null,
  "dos_energy_down": null,
  "is_magnetic": null,
  "ordering": null,
  "total_magnetization": 0.005514499999999,
  "total_magnetization_normalized_vol": null,
  "total_magnetization_normalized_formula_units": null,
  "num_magnetic_sites": null,
  "num_unique_magnetic_sites": null,
  "types_of_magnetic_species": null,
  "bulk_modulus": null,
  "shear_modulus": null,
  "universal_anisotropy": null,
  "homogeneous_poisson": null,
  "e_total": null,
  "e_ionic": null,
  "e_electronic": null,
  "n": null,
  "e_ij_max": null,
  "weighted_surface_energy_EV_PER_ANG2": null,
  "weighted_surface_energy": null,
  "weighted_work_function": null,
  "surface_anisotropy": null,
  "shape_factor": null,
  "has_reconstructed": null,
  "possible_species": null,
  "has_props": null,
  "theoretical": null,
  "database_IDs": null,
  "fields_not_requested": [
    "builder_meta",
    "nsites",
    "elements",
    "nelements",
    "composition",
    "composition_reduced",
    "chemsys",
    "symmetry",
    "property_name",
    "deprecated",
    "deprecation_reasons",
    "last_updated",
    "origins",
    "warnings",
    "task_ids",
    "uncorrected_energy_per_atom",
    "equilibrium_reaction_energy_per_atom",
    "decomposes_to",
    "xas",
    "grain_boundaries",
    "cbm",
    "vbm",
    "is_gap_direct",
    "is_metal",
    "es_source_calc_id",
    "bandstructure",
    "dos",
    "dos_energy_up",
    "dos_energy_down",
    "is_magnetic",
    "ordering",
    "total_magnetization_normalized_vol",
    "total_magnetization_normalized_formula_units",
    "num_magnetic_sites",
    "num_unique_magnetic_sites",
    "types_of_magnetic_species",
    "bulk_modulus",
    "shear_modulus",
    "universal_anisotropy",
    "homogeneous_poisson",
    "e_total",
    "e_ionic",
    "e_electronic",
    "n",
    "e_ij_max",
    "weighted_surface_energy_EV_PER_ANG2",
    "weighted_surface_energy",
    "weighted_work_function",
    "surface_anisotropy",
    "shape_factor",
    "has_reconstructed",
    "possible_species",
    "has_props",
    "theoretical",
    "database_IDs"
  ]
}
