{"builder_meta": null, "nsites": null, "elements": null, "nelements": null, "composition": null, "composition_reduced": null, "formula_pretty": "MgHg2", "formula_anonymous": "AB2", "chemsys": null, "volume": 139.07057050836409, "density": 10.160804865754224, "density_atomic": 23.17842841806068, "symmetry": null, "property_name": null, "material_id": "mp-1185878", "deprecated": null, "deprecation_reasons": null, "last_updated": null, "origins": null, "warnings": null, "structure": {"@module": "pymatgen.core.structure", "@class": "Structure", "charge": 0, "lattice": {"matrix": [[1.756447, 5.898415, 0.0], [-1.756447, 5.898415, 0.0], [0.0, 2.334882, 6.711736]], "pbc": [true, true, true], "a": 6.154381006732846, "b": 6.154381006732846, "c": 7.106270054509609, "alpha": 71.64515669230876, "beta": 71.64515669230876, "gamma": 33.16526082220471, "volume": 139.07057050836409}, "properties": {}, "sites": [{"species": [{"element": "Mg", "occu": 1}], "abc": [0.029082, 0.029082, 0.719596999999999], "properties": {"magmom": -0.0}, "label": "Mg", "xyz": [0.0, 2.0232494926139974, 4.829745090391993]}, {"species": [{"element": "Mg", "occu": 1}], "abc": [0.970918, 0.970918, 0.280403], "properties": {"magmom": -0.0}, "label": "Mg", "xyz": [0.0, 12.108462507386, 1.881990909608]}, {"species": [{"element": "Hg", "occu": 1}], "abc": [0.642961, 0.642961, 0.952527999999999], "properties": {"magmom": 0.0}, "label": "Hg", "xyz": [0.0, 9.808942095325998, 6.393116468607993]}, {"species": [{"element": "Hg", "occu": 1}], "abc": [0.357039, 0.357039, 0.047472], "properties": {"magmom": 0.0}, "label": "Hg", "xyz": [0.0, 4.322769904674001, 0.318619531392]}, {"species": [{"element": "Hg", "occu": 1}], "abc": [0.666571, 0.666571, 0.381270999999999], "properties": {"magmom": 0.0}, "label": "Hg", "xyz": [0.0, 8.753647564951997, 2.5589902964559936]}, {"species": [{"element": "Hg", "occu": 1}], "abc": [0.333429, 0.333429, 0.618729], "properties": {"magmom": 0.0}, "label": "Hg", "xyz": [0.0, 5.378064435048, 4.152745703544]}]}, "task_ids": null, "uncorrected_energy_per_atom": null, "energy_per_atom": -0.8595278766666661, "formation_energy_per_atom": -0.10958984666667101, "energy_above_hull": 0.021895829166663, "is_stable": false, "equilibrium_reaction_energy_per_atom": null, "decomposes_to": null, "xas": null, "grain_boundaries": null, "band_gap": 0.0, "cbm": null, "vbm": null, "efermi": 2.71772494, "is_gap_direct": null, "is_metal": null, "es_source_calc_id": null, "bandstructure": null, "dos": null, "dos_energy_up": null, "dos_energy_down": null, "is_magnetic": null, "ordering": null, "total_magnetization": 0.0023395, "total_magnetization_normalized_vol": null, "total_magnetization_normalized_formula_units": null, "num_magnetic_sites": null, "num_unique_magnetic_sites": null, "types_of_magnetic_species": null, "bulk_modulus": null, "shear_modulus": null, "universal_anisotropy": null, "homogeneous_poisson": null, "e_total": null, "e_ionic": null, "e_electronic": null, "n": null, "e_ij_max": null, "weighted_surface_energy_EV_PER_ANG2": null, "weighted_surface_energy": null, "weighted_work_function": null, "surface_anisotropy": null, "shape_factor": null, "has_reconstructed": null, "possible_species": null, "has_props": null, "theoretical": null, "database_IDs": null, "fields_not_requested": ["builder_meta", "nsites", "elements", "nelements", "composition", "composition_reduced", "chemsys", "symmetry", "property_name", "deprecated", "deprecation_reasons", "last_updated", "origins", "warnings", "task_ids", "uncorrected_energy_per_atom", "equilibrium_reaction_energy_per_atom", "decomposes_to", "xas", "grain_boundaries", "cbm", "vbm", "is_gap_direct", "is_metal", "es_source_calc_id", "bandstructure", "dos", "dos_energy_up", "dos_energy_down", "is_magnetic", "ordering", "total_magnetization_normalized_vol", "total_magnetization_normalized_formula_units", "num_magnetic_sites", "num_unique_magnetic_sites", "types_of_magnetic_species", "bulk_modulus", "shear_modulus", "universal_anisotropy", "homogeneous_poisson", "e_total", "e_ionic", "e_electronic", "n", "e_ij_max", "weighted_surface_energy_EV_PER_ANG2", "weighted_surface_energy", "weighted_work_function", "surface_anisotropy", "shape_factor", "has_reconstructed", "possible_species", "has_props", "theoretical", "database_IDs"]}