{
  "builder_meta": null,
  "nsites": null,
  "elements": null,
  "nelements": null,
  "composition": null,
  "composition_reduced": null,
  "formula_pretty": "MgHg5",
  "formula_anonymous": "AB5",
  "chemsys": null,
  "volume": 154.98729126835389,
  "density": 11.00604472083242,
  "density_atomic": 25.831215211392315,
  "symmetry": null,
  "property_name": null,
  "material_id": "mp-2351903",
  "deprecated": null,
  "deprecation_reasons": null,
  "last_updated": null,
  "origins": null,
  "warnings": null,
  "structure": {
    "@module": "pymatgen.core.structure",
    "@class": "Structure",
    "charge": 0.0,
    "lattice": {
      "matrix": [
        [5.16866538, -3.02967431, -0.32168675],
        [5.16866538, 3.02967431, -0.32168675],
        [3.70644608, 0.0, 4.71802556]
      ],
      "pbc": [true, true, true],
      "a": 5.999792546431092,
      "b": 5.999792546431092,
      "c": 5.999792307135363,
      "alpha": 60.657823074356294,
      "beta": 60.657823074356294,
      "gamma": 60.65781610011521,
      "volume": 154.98729126835389
    },
    "properties": {},
    "sites": [
      {
        "species": [{ "element": "Mg", "occu": 1 }],
        "abc": [-0.0, -0.0, -0.0],
        "properties": { "magmom": 0.0 },
        "label": "Mg",
        "xyz": [0.0, 0.0, 0.0]
      },
      {
        "species": [{ "element": "Hg", "occu": 1 }],
        "abc": [0.11558546, 0.88441454, 0.5],
        "properties": { "magmom": -0.0 },
        "label": "Hg",
        "xyz": [7.02188842, 2.3293017124569344, 2.03732603]
      },
      {
        "species": [{ "element": "Hg", "occu": 1 }],
        "abc": [0.5, 0.11558546, 0.88441454],
        "properties": { "magmom": 0.0 },
        "label": "Hg",
        "xyz": [6.459790060411378, -1.1646508562284674, 3.9746647193809874]
      },
      {
        "species": [{ "element": "Hg", "occu": 1 }],
        "abc": [0.88441454, 0.5, 0.11558546],
        "properties": { "magmom": 0.0 },
        "label": "Hg",
        "xyz": [7.583986779588622, -1.1646508562284672, 0.09998734061901265]
      },
      {
        "species": [{ "element": "Hg", "occu": 1 }],
        "abc": [0.64553419, 0.64553419, 0.64553419],
        "properties": { "magmom": 0.0 },
        "label": "Hg",
        "xyz": [9.06573810695016, 0.0, 2.630327217083931]
      },
      {
        "species": [{ "element": "Hg", "occu": 1 }],
        "abc": [0.35446581, 0.35446581, 0.35446581],
        "properties": { "magmom": 0.0 },
        "label": "Hg",
        "xyz": [4.97803873304984, 0.0, 1.4443248429160684]
      }
    ]
  },
  "task_ids": null,
  "uncorrected_energy_per_atom": null,
  "energy_per_atom": -0.549921048333333,
  "formation_energy_per_atom": -0.020116014583338,
  "energy_above_hull": 0.045626823333328,
  "is_stable": false,
  "equilibrium_reaction_energy_per_atom": null,
  "decomposes_to": null,
  "xas": null,
  "grain_boundaries": null,
  "band_gap": 0.0,
  "cbm": null,
  "vbm": null,
  "efermi": 2.34556968,
  "is_gap_direct": null,
  "is_metal": null,
  "es_source_calc_id": null,
  "bandstructure": null,
  "dos": null,
  "dos_energy_up": null,
  "dos_energy_down": null,
  "is_magnetic": null,
  "ordering": null,
  "total_magnetization": 1e-7,
  "total_magnetization_normalized_vol": null,
  "total_magnetization_normalized_formula_units": null,
  "num_magnetic_sites": null,
  "num_unique_magnetic_sites": null,
  "types_of_magnetic_species": null,
  "bulk_modulus": null,
  "shear_modulus": null,
  "universal_anisotropy": null,
  "homogeneous_poisson": null,
  "e_total": null,
  "e_ionic": null,
  "e_electronic": null,
  "n": null,
  "e_ij_max": null,
  "weighted_surface_energy_EV_PER_ANG2": null,
  "weighted_surface_energy": null,
  "weighted_work_function": null,
  "surface_anisotropy": null,
  "shape_factor": null,
  "has_reconstructed": null,
  "possible_species": null,
  "has_props": null,
  "theoretical": null,
  "database_IDs": null,
  "fields_not_requested": [
    "builder_meta",
    "nsites",
    "elements",
    "nelements",
    "composition",
    "composition_reduced",
    "chemsys",
    "symmetry",
    "property_name",
    "deprecated",
    "deprecation_reasons",
    "last_updated",
    "origins",
    "warnings",
    "task_ids",
    "uncorrected_energy_per_atom",
    "equilibrium_reaction_energy_per_atom",
    "decomposes_to",
    "xas",
    "grain_boundaries",
    "cbm",
    "vbm",
    "is_gap_direct",
    "is_metal",
    "es_source_calc_id",
    "bandstructure",
    "dos",
    "dos_energy_up",
    "dos_energy_down",
    "is_magnetic",
    "ordering",
    "total_magnetization_normalized_vol",
    "total_magnetization_normalized_formula_units",
    "num_magnetic_sites",
    "num_unique_magnetic_sites",
    "types_of_magnetic_species",
    "bulk_modulus",
    "shear_modulus",
    "universal_anisotropy",
    "homogeneous_poisson",
    "e_total",
    "e_ionic",
    "e_electronic",
    "n",
    "e_ij_max",
    "weighted_surface_energy_EV_PER_ANG2",
    "weighted_surface_energy",
    "weighted_work_function",
    "surface_anisotropy",
    "shape_factor",
    "has_reconstructed",
    "possible_species",
    "has_props",
    "theoretical",
    "database_IDs"
  ]
}
