{"builder_meta": null, "nsites": null, "elements": null, "nelements": null, "composition": null, "composition_reduced": null, "formula_pretty": "MgI3", "formula_anonymous": "AB3", "chemsys": null, "volume": 411.9240577117604, "density": 3.265402347380377, "density_atomic": 51.49050721397005, "symmetry": null, "property_name": null, "material_id": "mp-1185906", "deprecated": null, "deprecation_reasons": null, "last_updated": null, "origins": null, "warnings": null, "structure": {"@module": "pymatgen.core.structure", "@class": "Structure", "charge": 0.0, "lattice": {"matrix": [[11.67942526, -2e-08, 0.0], [-5.83971066, 10.11467922, -0.0], [0.0, 0.0, 3.4869327500000002]], "pbc": [true, true, true], "a": 11.67942526, "b": 11.679424485650713, "c": 3.4869327500000002, "alpha": 90.0, "beta": 90.0, "gamma": 119.99999113201488, "volume": 411.92405771176044}, "properties": {}, "sites": [{"species": [{"element": "Mg", "occu": 1}], "abc": [0.666667, 0.333333, 0.249999], "properties": {"magmom": -0.001}, "label": "Mg", "xyz": [5.839719126378641, 3.3715563551069194, 0.8717297005672501]}, {"species": [{"element": "Mg", "occu": 1}], "abc": [0.333333, 0.666667, 0.75], "properties": {"magmom": -0.001}, "label": "Mg", "xyz": [-4.526378639901907e-06, 6.74312284489308, 2.6151995625]}, {"species": [{"element": "I", "occu": 1}], "abc": [0.21683161, 0.43366521, 0.249999], "properties": {"magmom": 0.088}, "label": "I", "xyz": [-1.076670766986254e-05, 4.386384483687304, 0.8717297005672501]}, {"species": [{"element": "I", "occu": 1}], "abc": [0.21683261, 0.78316739, 0.249999], "properties": {"magmom": 0.088}, "label": "I", "xyz": [-2.040990693521649, 7.9214869210779835, 0.8717297005672501]}, {"species": [{"element": "I", "occu": 1}], "abc": [0.5663337900000001, 0.78316739, 0.249999], "properties": {"magmom": 0.088}, "label": "I", "xyz": [2.0409822165701588, 7.92148691408796, 0.8717297005672501]}, {"species": [{"element": "I", "occu": 1}], "abc": [0.43366621, 0.21683161, 0.75], "properties": {"magmom": 0.088}, "label": "I", "xyz": [3.7987382231405022, 2.1931821712328197, 2.6151995625]}, {"species": [{"element": "I", "occu": 1}], "abc": [0.78316739, 0.21683161, 0.75], "properties": {"magmom": 0.088}, "label": "I", "xyz": [7.8807111332323085, 2.193182164242796, 2.6151995625]}, {"species": [{"element": "I", "occu": 1}], "abc": [0.78316839, 0.56633479, 0.75], "properties": {"magmom": 0.088}, "label": "I", "xyz": [5.83972536670767, 5.728294716312695, 2.6151995625]}]}, "task_ids": null, "uncorrected_energy_per_atom": null, "energy_per_atom": -2.421635643750001, "formation_energy_per_atom": -0.8710086787500011, "energy_above_hull": 0.10682503999999901, "is_stable": false, "equilibrium_reaction_energy_per_atom": null, "decomposes_to": null, "xas": null, "grain_boundaries": null, "band_gap": 0.0, "cbm": null, "vbm": null, "efermi": 0.27583992, "is_gap_direct": null, "is_metal": null, "es_source_calc_id": null, "bandstructure": null, "dos": null, "dos_energy_up": null, "dos_energy_down": null, "is_magnetic": null, "ordering": null, "total_magnetization": 0.739256599999999, "total_magnetization_normalized_vol": null, "total_magnetization_normalized_formula_units": null, "num_magnetic_sites": null, "num_unique_magnetic_sites": null, "types_of_magnetic_species": null, "bulk_modulus": null, "shear_modulus": null, "universal_anisotropy": null, "homogeneous_poisson": null, "e_total": null, "e_ionic": null, "e_electronic": null, "n": null, "e_ij_max": null, "weighted_surface_energy_EV_PER_ANG2": null, "weighted_surface_energy": null, "weighted_work_function": null, "surface_anisotropy": null, "shape_factor": null, "has_reconstructed": null, "possible_species": null, "has_props": null, "theoretical": null, "database_IDs": null, "fields_not_requested": ["builder_meta", "nsites", "elements", "nelements", "composition", "composition_reduced", "chemsys", "symmetry", "property_name", "deprecated", "deprecation_reasons", "last_updated", "origins", "warnings", "task_ids", "uncorrected_energy_per_atom", "equilibrium_reaction_energy_per_atom", "decomposes_to", "xas", "grain_boundaries", "cbm", "vbm", "is_gap_direct", "is_metal", "es_source_calc_id", "bandstructure", "dos", "dos_energy_up", "dos_energy_down", "is_magnetic", "ordering", "total_magnetization_normalized_vol", "total_magnetization_normalized_formula_units", "num_magnetic_sites", "num_unique_magnetic_sites", "types_of_magnetic_species", "bulk_modulus", "shear_modulus", "universal_anisotropy", "homogeneous_poisson", "e_total", "e_ionic", "e_electronic", "n", "e_ij_max", "weighted_surface_energy_EV_PER_ANG2", "weighted_surface_energy", "weighted_work_function", "surface_anisotropy", "shape_factor", "has_reconstructed", "possible_species", "has_props", "theoretical", "database_IDs"]}