{"builder_meta": null, "nsites": null, "elements": null, "nelements": null, "composition": null, "composition_reduced": null, "formula_pretty": "MgIn5", "formula_anonymous": "AB5", "chemsys": null, "volume": 152.44509464857032, "density": 6.5181387242979145, "density_atomic": 25.40751577476172, "symmetry": null, "property_name": null, "material_id": "mp-973372", "deprecated": null, "deprecation_reasons": null, "last_updated": null, "origins": null, "warnings": null, "structure": {"@module": "pymatgen.core.structure", "@class": "Structure", "charge": 0, "lattice": {"matrix": [[3.298938719999999, 1e-08, 0.0], [-1.649468339999999, 2.85696217, 0.0], [0.0, 0.0, 16.17464343]], "pbc": [true, true, true], "a": 3.298938719999999, "b": 3.2989359868711396, "c": 16.17464343, "alpha": 90.0, "beta": 90.0, "gamma": 120.00000677659757, "volume": 152.44509464857026}, "properties": {}, "sites": [{"species": [{"element": "Mg", "occu": 1}], "abc": [0.666667, 0.333333, 0.833333999999999], "properties": {"magmom": 0.0}, "label": "Mg", "xyz": [1.6494713494690196, 0.95231977767928, 13.478880308095604]}, {"species": [{"element": "In", "occu": 1}], "abc": [-0.0, 0.0, 0.98871179], "properties": {"magmom": -0.0}, "label": "In", "xyz": [0.0, 0.0, 15.99206065828704]}, {"species": [{"element": "In", "occu": 1}], "abc": [0.666667, 0.333333, 0.156149099999999], "properties": {"magmom": -0.0}, "label": "In", "xyz": [1.6494713494690196, 0.95231977767928, 2.525656014415397]}, {"species": [{"element": "In", "occu": 1}], "abc": [-0.0, 0.0, 0.333333], "properties": {"magmom": 0.0}, "label": "In", "xyz": [0.0, 0.0, 5.39154241845219]}, {"species": [{"element": "In", "occu": 1}], "abc": [0.666667, 0.333333, 0.510516899999999], "properties": {"magmom": -0.0}, "label": "In", "xyz": [1.6494713494690196, 0.95231977767928, 8.25742882248895]}, {"species": [{"element": "In", "occu": 1}], "abc": [-0.0, 0.0, 0.67795521], "properties": {"magmom": -0.0}, "label": "In", "xyz": [0.0, 0.0, 10.96568378326077]}]}, "task_ids": null, "uncorrected_energy_per_atom": null, "energy_per_atom": -2.560227783333332, "formation_energy_per_atom": 0.010828671944447001, "energy_above_hull": 0.036166253888891005, "is_stable": false, "equilibrium_reaction_energy_per_atom": null, "decomposes_to": null, "xas": null, "grain_boundaries": null, "band_gap": 0.0, "cbm": null, "vbm": null, "efermi": 6.4904353, "is_gap_direct": null, "is_metal": null, "es_source_calc_id": null, "bandstructure": null, "dos": null, "dos_energy_up": null, "dos_energy_down": null, "is_magnetic": null, "ordering": null, "total_magnetization": 0.0005808, "total_magnetization_normalized_vol": null, "total_magnetization_normalized_formula_units": null, "num_magnetic_sites": null, "num_unique_magnetic_sites": null, "types_of_magnetic_species": null, "bulk_modulus": null, "shear_modulus": null, "universal_anisotropy": null, "homogeneous_poisson": null, "e_total": null, "e_ionic": null, "e_electronic": null, "n": null, "e_ij_max": null, "weighted_surface_energy_EV_PER_ANG2": null, "weighted_surface_energy": null, "weighted_work_function": null, "surface_anisotropy": null, "shape_factor": null, "has_reconstructed": null, "possible_species": null, "has_props": null, "theoretical": null, "database_IDs": null, "fields_not_requested": ["builder_meta", "nsites", "elements", "nelements", "composition", "composition_reduced", "chemsys", "symmetry", "property_name", "deprecated", "deprecation_reasons", "last_updated", "origins", "warnings", "task_ids", "uncorrected_energy_per_atom", "equilibrium_reaction_energy_per_atom", "decomposes_to", "xas", "grain_boundaries", "cbm", "vbm", "is_gap_direct", "is_metal", "es_source_calc_id", "bandstructure", "dos", "dos_energy_up", "dos_energy_down", "is_magnetic", "ordering", "total_magnetization_normalized_vol", "total_magnetization_normalized_formula_units", "num_magnetic_sites", "num_unique_magnetic_sites", "types_of_magnetic_species", "bulk_modulus", "shear_modulus", "universal_anisotropy", "homogeneous_poisson", "e_total", "e_ionic", "e_electronic", "n", "e_ij_max", "weighted_surface_energy_EV_PER_ANG2", "weighted_surface_energy", "weighted_work_function", "surface_anisotropy", "shape_factor", "has_reconstructed", "possible_species", "has_props", "theoretical", "database_IDs"]}