{"builder_meta": null, "nsites": null, "elements": null, "nelements": null, "composition": null, "composition_reduced": null, "formula_pretty": "MgIr2", "formula_anonymous": "AB2", "chemsys": null, "volume": 194.78818362615345, "density": 13.937746426049374, "density_atomic": 16.23234863551279, "symmetry": null, "property_name": null, "material_id": "mp-11883", "deprecated": null, "deprecation_reasons": null, "last_updated": null, "origins": null, "warnings": null, "structure": {"@module": "pymatgen.core.structure", "@class": "Structure", "charge": 0, "lattice": {"matrix": [[5.17449227, 0.0, 0.0], [-2.58724513, 4.48124026, 0.0], [-0.0, -0.0, 8.40033559]], "pbc": [true, true, true], "a": 5.17449227, "b": 5.174490470621584, "c": 8.40033559, "alpha": 90.0, "beta": 90.0, "gamma": 119.99999865352815, "volume": 194.78818362615345}, "properties": {}, "sites": [{"species": [{"element": "Mg", "occu": 1}], "abc": [0.333333, 0.666667, 0.06945439], "properties": {"magmom": -0.0}, "label": "Mg", "xyz": [-1.9172458001204262e-06, 2.98749500041342, 0.5834401841987401]}, {"species": [{"element": "Mg", "occu": 1}], "abc": [0.666667, 0.333333, 0.56945439], "properties": {"magmom": -0.0}, "label": "Mg", "xyz": [2.5872490572458, 1.4937452595865799, 4.78360797919874]}, {"species": [{"element": "Mg", "occu": 1}], "abc": [0.666667, 0.333333, 0.93054561], "properties": {"magmom": -0.0}, "label": "Mg", "xyz": [2.5872490572458, 1.4937452595865799, 7.816895405801259]}, {"species": [{"element": "Mg", "occu": 1}], "abc": [0.333333, 0.666667, 0.43054561], "properties": {"magmom": -0.0}, "label": "Mg", "xyz": [-1.9172458001204262e-06, 2.98749500041342, 3.61672761080126]}, {"species": [{"element": "Ir", "occu": 1}], "abc": [-0.0, -0.0, 0.0], "properties": {"magmom": 0.0}, "label": "Ir", "xyz": [0.0, 0.0, 0.0]}, {"species": [{"element": "Ir", "occu": 1}], "abc": [-0.0, -0.0, 0.5], "properties": {"magmom": 0.0}, "label": "Ir", "xyz": [0.0, 0.0, 4.200167795]}, {"species": [{"element": "Ir", "occu": 1}], "abc": [0.8279465500000001, 0.65589511, 0.25], "properties": {"magmom": 0.0}, "label": "Ir", "xyz": [2.5872415938098543, 2.9392235732691283, 2.1000838975]}, {"species": [{"element": "Ir", "occu": 1}], "abc": [0.17205345, 0.8279465500000001, 0.75], "properties": {"magmom": 0.0}, "label": "Ir", "xyz": [-1.2518114323359701, 3.710227412988103, 6.3002516925]}, {"species": [{"element": "Ir", "occu": 1}], "abc": [0.65589511, 0.8279465500000001, 0.75], "properties": {"magmom": 0.0}, "label": "Ir", "xyz": [1.2518234972379982, 3.710227412988103, 6.3002516925]}, {"species": [{"element": "Ir", "occu": 1}], "abc": [0.34410489, 0.17205345, 0.25], "properties": {"magmom": 0.0}, "label": "Ir", "xyz": [1.3354236427620019, 0.771012847011897, 2.1000838975]}, {"species": [{"element": "Ir", "occu": 1}], "abc": [0.8279465500000001, 0.17205345, 0.25], "properties": {"magmom": 0.0}, "label": "Ir", "xyz": [3.83905857233597, 0.771012847011897, 2.1000838975]}, {"species": [{"element": "Ir", "occu": 1}], "abc": [0.17205345, 0.34410489, 0.75], "properties": {"magmom": 0.0}, "label": "Ir", "xyz": [5.546190145810925e-06, 1.5420166867308713, 6.3002516925]}]}, "task_ids": null, "uncorrected_energy_per_atom": null, "energy_per_atom": -6.728929261666669, "formation_energy_per_atom": -0.293149803333335, "energy_above_hull": 0.0, "is_stable": true, "equilibrium_reaction_energy_per_atom": null, "decomposes_to": null, "xas": null, "grain_boundaries": null, "band_gap": 0.0, "cbm": null, "vbm": null, "efermi": 7.05983467, "is_gap_direct": null, "is_metal": null, "es_source_calc_id": null, "bandstructure": null, "dos": null, "dos_energy_up": null, "dos_energy_down": null, "is_magnetic": null, "ordering": null, "total_magnetization": 1.4e-06, "total_magnetization_normalized_vol": null, "total_magnetization_normalized_formula_units": null, "num_magnetic_sites": null, "num_unique_magnetic_sites": null, "types_of_magnetic_species": null, "bulk_modulus": null, "shear_modulus": null, "universal_anisotropy": null, "homogeneous_poisson": null, "e_total": null, "e_ionic": null, "e_electronic": null, "n": null, "e_ij_max": null, "weighted_surface_energy_EV_PER_ANG2": null, "weighted_surface_energy": null, "weighted_work_function": null, "surface_anisotropy": null, "shape_factor": null, "has_reconstructed": null, "possible_species": null, "has_props": null, "theoretical": null, "database_IDs": null, "fields_not_requested": ["builder_meta", "nsites", "elements", "nelements", "composition", "composition_reduced", "chemsys", "symmetry", "property_name", "deprecated", "deprecation_reasons", "last_updated", "origins", "warnings", "task_ids", "uncorrected_energy_per_atom", "equilibrium_reaction_energy_per_atom", "decomposes_to", "xas", "grain_boundaries", "cbm", "vbm", "is_gap_direct", "is_metal", "es_source_calc_id", "bandstructure", "dos", "dos_energy_up", "dos_energy_down", "is_magnetic", "ordering", "total_magnetization_normalized_vol", "total_magnetization_normalized_formula_units", "num_magnetic_sites", "num_unique_magnetic_sites", "types_of_magnetic_species", "bulk_modulus", "shear_modulus", "universal_anisotropy", "homogeneous_poisson", "e_total", "e_ionic", "e_electronic", "n", "e_ij_max", "weighted_surface_energy_EV_PER_ANG2", "weighted_surface_energy", "weighted_work_function", "surface_anisotropy", "shape_factor", "has_reconstructed", "possible_species", "has_props", "theoretical", "database_IDs"]}