{"builder_meta": null, "nsites": null, "elements": null, "nelements": null, "composition": null, "composition_reduced": null, "formula_pretty": "MgN8", "formula_anonymous": "AB8", "chemsys": null, "volume": 172.4899602539575, "density": 1.312707023837856, "density_atomic": 19.16555113932861, "symmetry": null, "property_name": null, "material_id": "mp-1078930", "deprecated": null, "deprecation_reasons": null, "last_updated": null, "origins": null, "warnings": null, "structure": {"@module": "pymatgen.core.structure", "@class": "Structure", "charge": 0, "lattice": {"matrix": [[-3.148077, 3.148077, 4.351241], [3.148077, -3.148077, 4.351241], [3.148077, 3.148077, -4.351241]], "pbc": [true, true, true], "a": 6.225277169406916, "b": 6.225277169406916, "c": 6.225277169406916, "alpha": 119.24531242667997, "beta": 119.24531242667997, "gamma": 91.3122043507775, "volume": 172.4899602539575}, "properties": {}, "sites": [{"species": [{"element": "Mg", "occu": 1}], "abc": [0.0, 0.0, 0.0], "properties": {"magmom": 0.008}, "label": "Mg", "xyz": [0.0, 0.0, 0.0]}, {"species": [{"element": "N", "occu": 1}], "abc": [0.0, 0.5, 0.5], "properties": {"magmom": -0.005}, "label": "N", "xyz": [3.148077, 0.0, 0.0]}, {"species": [{"element": "N", "occu": 1}], "abc": [0.5, 0.0, 0.5], "properties": {"magmom": -0.004}, "label": "N", "xyz": [0.0, 3.148077, 0.0]}, {"species": [{"element": "N", "occu": 1}], "abc": [0.674464, 0.932642, 0.607105999999999], "properties": {"magmom": 0.073}, "label": "N", "xyz": [2.7239806588679967, 1.098452211455997, 4.3512410000000035]}, {"species": [{"element": "N", "occu": 1}], "abc": [0.325536, 0.067358, 0.392893999999999], "properties": {"magmom": 0.073}, "label": "N", "xyz": [0.4240963411319969, 2.049624788543997, 3.9968028886505635e-15]}, {"species": [{"element": "N", "occu": 1}], "abc": [0.932642, 0.325536, 0.258177999999999], "properties": {"magmom": 0.07100000000000001}, "label": "N", "xyz": [-1.0984522114560027, 2.7239806588679967, 4.351241000000004]}, {"species": [{"element": "N", "occu": 1}], "abc": [0.067358, 0.674464, 0.741822], "properties": {"magmom": 0.07100000000000001}, "label": "N", "xyz": [4.246529211455999, 0.42409634113200023, 0.0]}, {"species": [{"element": "N", "occu": 1}], "abc": [0.728772, 0.728772, 0.0], "properties": {"magmom": 1.857}, "label": "N", "xyz": [0.0, 0.0, 6.3421252121039995]}, {"species": [{"element": "N", "occu": 1}], "abc": [0.271227999999999, 0.271227999999999, 0.0], "properties": {"magmom": 1.857}, "label": "N", "xyz": [0.0, 0.0, 2.3603567878959915]}]}, "task_ids": null, "uncorrected_energy_per_atom": null, "energy_per_atom": -7.355960694212963, "formation_energy_per_atom": 1.221740300787036, "energy_above_hull": 1.3962290827314812, "is_stable": false, "equilibrium_reaction_energy_per_atom": null, "decomposes_to": null, "xas": null, "grain_boundaries": null, "band_gap": 0.7719, "cbm": null, "vbm": null, "efermi": -1.8215229800000001, "is_gap_direct": null, "is_metal": null, "es_source_calc_id": null, "bandstructure": null, "dos": null, "dos_energy_up": null, "dos_energy_down": null, "is_magnetic": null, "ordering": null, "total_magnetization": 6.0166879, "total_magnetization_normalized_vol": null, "total_magnetization_normalized_formula_units": null, "num_magnetic_sites": null, "num_unique_magnetic_sites": null, "types_of_magnetic_species": null, "bulk_modulus": null, "shear_modulus": null, "universal_anisotropy": null, "homogeneous_poisson": null, "e_total": null, "e_ionic": null, "e_electronic": null, "n": null, "e_ij_max": null, "weighted_surface_energy_EV_PER_ANG2": null, "weighted_surface_energy": null, "weighted_work_function": null, "surface_anisotropy": null, "shape_factor": null, "has_reconstructed": null, "possible_species": null, "has_props": null, "theoretical": null, "database_IDs": null, "fields_not_requested": ["builder_meta", "nsites", "elements", "nelements", "composition", "composition_reduced", "chemsys", "symmetry", "property_name", "deprecated", "deprecation_reasons", "last_updated", "origins", "warnings", "task_ids", "uncorrected_energy_per_atom", "equilibrium_reaction_energy_per_atom", "decomposes_to", "xas", "grain_boundaries", "cbm", "vbm", "is_gap_direct", "is_metal", "es_source_calc_id", "bandstructure", "dos", "dos_energy_up", "dos_energy_down", "is_magnetic", "ordering", "total_magnetization_normalized_vol", "total_magnetization_normalized_formula_units", "num_magnetic_sites", "num_unique_magnetic_sites", "types_of_magnetic_species", "bulk_modulus", "shear_modulus", "universal_anisotropy", "homogeneous_poisson", "e_total", "e_ionic", "e_electronic", "n", "e_ij_max", "weighted_surface_energy_EV_PER_ANG2", "weighted_surface_energy", "weighted_work_function", "surface_anisotropy", "shape_factor", "has_reconstructed", "possible_species", "has_props", "theoretical", "database_IDs"]}