{"builder_meta": null, "nsites": null, "elements": null, "nelements": null, "composition": null, "composition_reduced": null, "formula_pretty": "MgNi2", "formula_anonymous": "AB2", "chemsys": null, "volume": 306.11039708599577, "density": 6.149017388671714, "density_atomic": 12.754599878583157, "symmetry": null, "property_name": null, "material_id": "mp-2675", "deprecated": null, "deprecation_reasons": null, "last_updated": null, "origins": null, "warnings": null, "structure": {"@module": "pymatgen.core.structure", "@class": "Structure", "charge": 0, "lattice": {"matrix": [[4.75394307, -1.009999999999998e-06, 0.0], [-2.37697304, 4.11703554, -0.0], [-0.0, 0.0, 15.64010057]], "pbc": [true, true, true], "a": 4.7539430700001075, "b": 4.753943885923553, "c": 15.64010057, "alpha": 90.0, "beta": 90.0, "gamma": 120.00002743999943, "volume": 306.11039708599577}, "properties": {}, "sites": [{"species": [{"element": "Mg", "occu": 1}], "abc": [0.0, 0.0, 0.09291949000000001], "properties": {"magmom": -0.006}, "label": "Mg", "xyz": [0.0, 0.0, 1.4532701685131093]}, {"species": [{"element": "Mg", "occu": 1}], "abc": [0.0, 0.0, 0.59291949], "properties": {"magmom": -0.006}, "label": "Mg", "xyz": [0.0, 0.0, 9.27332045351311]}, {"species": [{"element": "Mg", "occu": 1}], "abc": [0.0, 0.0, 0.90708051], "properties": {"magmom": -0.006}, "label": "Mg", "xyz": [0.0, 0.0, 14.18683040148689]}, {"species": [{"element": "Mg", "occu": 1}], "abc": [0.0, 0.0, 0.40707951000000003], "properties": {"magmom": -0.006}, "label": "Mg", "xyz": [0.0, 0.0, 6.366764476386321]}, {"species": [{"element": "Mg", "occu": 1}], "abc": [0.333333, 0.666667, 0.84438062], "properties": {"magmom": -0.006}, "label": "Mg", "xyz": [-3.3803053702818886e-06, 2.74469139567885, 13.206197816158953]}, {"species": [{"element": "Mg", "occu": 1}], "abc": [0.666667, 0.333333, 0.34438062], "properties": {"magmom": -0.006}, "label": "Mg", "xyz": [2.37697341030537, 1.37234313432115, 5.3861475311589535]}, {"species": [{"element": "Mg", "occu": 1}], "abc": [0.666667, 0.333333, 0.15561938], "properties": {"magmom": -0.006}, "label": "Mg", "xyz": [2.37697341030537, 1.37234313432115, 2.4339027538410467]}, {"species": [{"element": "Mg", "occu": 1}], "abc": [0.333333, 0.666667, 0.65561938], "properties": {"magmom": -0.006}, "label": "Mg", "xyz": [-3.3803053702818886e-06, 2.74469139567885, 10.253953038841045]}, {"species": [{"element": "Ni", "occu": 1}], "abc": [0.5, 0.5, 0.0], "properties": {"magmom": 0.37}, "label": "Ni", "xyz": [1.188485015, 2.058517265, 0.0]}, {"species": [{"element": "Ni", "occu": 1}], "abc": [0.0, 0.5, 0.5], "properties": {"magmom": 0.37}, "label": "Ni", "xyz": [-1.18848652, 2.05851777, 7.820050285]}, {"species": [{"element": "Ni", "occu": 1}], "abc": [0.5, 0.0, 0.5], "properties": {"magmom": 0.37}, "label": "Ni", "xyz": [2.376971535, -5.04999999999999e-07, 7.820050285]}, {"species": [{"element": "Ni", "occu": 1}], "abc": [0.5, 0.0, 0.0], "properties": {"magmom": 0.37}, "label": "Ni", "xyz": [2.376971535, -5.04999999999999e-07, 0.0]}, {"species": [{"element": "Ni", "occu": 1}], "abc": [0.0, 0.5, 0.0], "properties": {"magmom": 0.37}, "label": "Ni", "xyz": [-1.18848652, 2.05851777, 0.0]}, {"species": [{"element": "Ni", "occu": 1}], "abc": [0.5, 0.5, 0.5], "properties": {"magmom": 0.37}, "label": "Ni", "xyz": [1.188485015, 2.058517265, 7.820050285]}, {"species": [{"element": "Ni", "occu": 1}], "abc": [0.16427075, 0.8357282500000001, 0.25], "properties": {"magmom": 0.278}, "label": "Ni", "xyz": [-1.2055697254501778, 3.4407227411185475, 3.9100251425]}, {"species": [{"element": "Ni", "occu": 1}], "abc": [0.328544499999999, 0.16427075, 0.75], "properties": {"magmom": 0.278}, "label": "Ni", "xyz": [1.1714147049510304, 0.6763081841025099, 11.7300754275]}, {"species": [{"element": "Ni", "occu": 1}], "abc": [0.8357282500000001, 0.6714555, 0.75], "properties": {"magmom": 0.278}, "label": "Ni", "xyz": [2.376972901431008, 2.7644053129429373, 11.7300754275]}, {"species": [{"element": "Ni", "occu": 1}], "abc": [0.16427075, 0.328544499999999, 0.25], "properties": {"magmom": 0.278}, "label": "Ni", "xyz": [-7.625374075170832e-06, 1.3526292170580685, 3.9100251425]}, {"species": [{"element": "Ni", "occu": 1}], "abc": [0.6714555, 0.8357282500000001, 0.25], "properties": {"magmom": 0.278}, "label": "Ni", "xyz": [1.2055577020220045, 3.4407222288619503, 3.9100251425]}, {"species": [{"element": "Ni", "occu": 1}], "abc": [0.8357282500000001, 0.16427075, 0.75], "properties": {"magmom": 0.278}, "label": "Ni", "xyz": [3.582537378480148, 0.6763076718469224, 11.7300754275]}, {"species": [{"element": "Ni", "occu": 1}], "abc": [0.333333999999999, 0.666667, 0.12540511000000001], "properties": {"magmom": 0.28300000000000003}, "label": "Ni", "xyz": [1.3736376951456464e-06, 2.7446913956778403, 1.9613485323919129]}, {"species": [{"element": "Ni", "occu": 1}], "abc": [0.666666, 0.333333, 0.62540511], "properties": {"magmom": 0.28300000000000003}, "label": "Ni", "xyz": [2.3769686563623, 1.37234313432216, 9.781398817391912]}, {"species": [{"element": "Ni", "occu": 1}], "abc": [0.666666, 0.333333, 0.87459489], "properties": {"magmom": 0.28300000000000003}, "label": "Ni", "xyz": [2.3769686563623, 1.37234313432216, 13.678752037608087]}, {"species": [{"element": "Ni", "occu": 1}], "abc": [0.333333999999999, 0.666667, 0.37459489], "properties": {"magmom": 0.28300000000000003}, "label": "Ni", "xyz": [1.3736376951456464e-06, 2.7446913956778403, 5.858701752608087]}]}, "task_ids": null, "uncorrected_energy_per_atom": null, "energy_per_atom": -4.607397300416667, "formation_energy_per_atom": -0.210482842083332, "energy_above_hull": 0.0, "is_stable": true, "equilibrium_reaction_energy_per_atom": null, "decomposes_to": null, "xas": null, "grain_boundaries": null, "band_gap": 0.0, "cbm": null, "vbm": null, "efermi": 6.40921989, "is_gap_direct": null, "is_metal": null, "es_source_calc_id": null, "bandstructure": null, "dos": null, "dos_energy_up": null, "dos_energy_down": null, "is_magnetic": null, "ordering": null, "total_magnetization": 4.4373261, "total_magnetization_normalized_vol": null, "total_magnetization_normalized_formula_units": null, "num_magnetic_sites": null, "num_unique_magnetic_sites": null, "types_of_magnetic_species": null, "bulk_modulus": null, "shear_modulus": null, "universal_anisotropy": null, "homogeneous_poisson": null, "e_total": null, "e_ionic": null, "e_electronic": null, "n": null, "e_ij_max": null, "weighted_surface_energy_EV_PER_ANG2": null, "weighted_surface_energy": null, "weighted_work_function": null, "surface_anisotropy": null, "shape_factor": null, "has_reconstructed": null, "possible_species": null, "has_props": null, "theoretical": null, "database_IDs": null, "fields_not_requested": ["builder_meta", "nsites", "elements", "nelements", "composition", "composition_reduced", "chemsys", "symmetry", "property_name", "deprecated", "deprecation_reasons", "last_updated", "origins", "warnings", "task_ids", "uncorrected_energy_per_atom", "equilibrium_reaction_energy_per_atom", "decomposes_to", "xas", "grain_boundaries", "cbm", "vbm", "is_gap_direct", "is_metal", "es_source_calc_id", "bandstructure", "dos", "dos_energy_up", "dos_energy_down", "is_magnetic", "ordering", "total_magnetization_normalized_vol", "total_magnetization_normalized_formula_units", "num_magnetic_sites", "num_unique_magnetic_sites", "types_of_magnetic_species", "bulk_modulus", "shear_modulus", "universal_anisotropy", "homogeneous_poisson", "e_total", "e_ionic", "e_electronic", "n", "e_ij_max", "weighted_surface_energy_EV_PER_ANG2", "weighted_surface_energy", "weighted_work_function", "surface_anisotropy", "shape_factor", "has_reconstructed", "possible_species", "has_props", "theoretical", "database_IDs"]}