{
  "builder_meta": null,
  "nsites": null,
  "elements": null,
  "nelements": null,
  "composition": null,
  "composition_reduced": null,
  "formula_pretty": "MgNi5",
  "formula_anonymous": "AB5",
  "chemsys": null,
  "volume": 69.65072806690311,
  "density": 7.575984270613196,
  "density_atomic": 11.608454677817186,
  "symmetry": null,
  "property_name": null,
  "material_id": "mp-1185921",
  "deprecated": null,
  "deprecation_reasons": null,
  "last_updated": null,
  "origins": null,
  "warnings": null,
  "structure": {
    "@module": "pymatgen.core.structure",
    "@class": "Structure",
    "charge": 0,
    "lattice": {
      "matrix": [
        [4.322651, -2.206251, 0.0],
        [4.322651, 2.206251, 0.0],
        [3.196595, 0.0, 3.651662]
      ],
      "pbc": [true, true, true],
      "a": 4.853128387216023,
      "b": 4.853128387216023,
      "c": 4.853128367998213,
      "alpha": 54.07891097933829,
      "beta": 54.07891097933829,
      "gamma": 54.078900271170525,
      "volume": 69.65072806690311
    },
    "properties": {},
    "sites": [
      {
        "species": [{ "element": "Mg", "occu": 1 }],
        "abc": [0.0, 0.0, 0.0],
        "properties": { "magmom": 0.011 },
        "label": "Mg",
        "xyz": [0.0, 0.0, 0.0]
      },
      {
        "species": [{ "element": "Ni", "occu": 1 }],
        "abc": [0.823336, 0.5, 0.176664],
        "properties": { "magmom": -0.45 },
        "label": "Ni",
        "xyz": [6.285042942815999, -0.7133603733359999, 0.645117215568]
      },
      {
        "species": [{ "element": "Ni", "occu": 1 }],
        "abc": [0.176664, 0.823336, 0.5],
        "properties": { "magmom": -0.457 },
        "label": "Ni",
        "xyz": [5.9209485, 1.4267207466719998, 1.825831]
      },
      {
        "species": [{ "element": "Ni", "occu": 1 }],
        "abc": [0.5, 0.176664, 0.823336],
        "properties": { "magmom": -0.41200000000000003 },
        "label": "Ni",
        "xyz": [5.556854057183999, -0.713360373336, 3.0065447844319997]
      },
      {
        "species": [{ "element": "Ni", "occu": 1 }],
        "abc": [0.3297, 0.3297, 0.3297],
        "properties": { "magmom": -0.358 },
        "label": "Ni",
        "xyz": [3.9042734408999995, 0.0, 1.2039529614]
      },
      {
        "species": [{ "element": "Ni", "occu": 1 }],
        "abc": [0.6703, 0.6703, 0.6703],
        "properties": { "magmom": -0.378 },
        "label": "Ni",
        "xyz": [7.937623559099999, 0.0, 2.4477090386]
      }
    ]
  },
  "task_ids": null,
  "uncorrected_energy_per_atom": null,
  "energy_per_atom": -5.099670891666666,
  "formation_energy_per_atom": -0.011145322499999001,
  "energy_above_hull": 0.094096098541667,
  "is_stable": false,
  "equilibrium_reaction_energy_per_atom": null,
  "decomposes_to": null,
  "xas": null,
  "grain_boundaries": null,
  "band_gap": 0.0,
  "cbm": null,
  "vbm": null,
  "efermi": 7.15174543,
  "is_gap_direct": null,
  "is_metal": null,
  "es_source_calc_id": null,
  "bandstructure": null,
  "dos": null,
  "dos_energy_up": null,
  "dos_energy_down": null,
  "is_magnetic": null,
  "ordering": null,
  "total_magnetization": 1.9004029,
  "total_magnetization_normalized_vol": null,
  "total_magnetization_normalized_formula_units": null,
  "num_magnetic_sites": null,
  "num_unique_magnetic_sites": null,
  "types_of_magnetic_species": null,
  "bulk_modulus": null,
  "shear_modulus": null,
  "universal_anisotropy": null,
  "homogeneous_poisson": null,
  "e_total": null,
  "e_ionic": null,
  "e_electronic": null,
  "n": null,
  "e_ij_max": null,
  "weighted_surface_energy_EV_PER_ANG2": null,
  "weighted_surface_energy": null,
  "weighted_work_function": null,
  "surface_anisotropy": null,
  "shape_factor": null,
  "has_reconstructed": null,
  "possible_species": null,
  "has_props": null,
  "theoretical": null,
  "database_IDs": null,
  "fields_not_requested": [
    "builder_meta",
    "nsites",
    "elements",
    "nelements",
    "composition",
    "composition_reduced",
    "chemsys",
    "symmetry",
    "property_name",
    "deprecated",
    "deprecation_reasons",
    "last_updated",
    "origins",
    "warnings",
    "task_ids",
    "uncorrected_energy_per_atom",
    "equilibrium_reaction_energy_per_atom",
    "decomposes_to",
    "xas",
    "grain_boundaries",
    "cbm",
    "vbm",
    "is_gap_direct",
    "is_metal",
    "es_source_calc_id",
    "bandstructure",
    "dos",
    "dos_energy_up",
    "dos_energy_down",
    "is_magnetic",
    "ordering",
    "total_magnetization_normalized_vol",
    "total_magnetization_normalized_formula_units",
    "num_magnetic_sites",
    "num_unique_magnetic_sites",
    "types_of_magnetic_species",
    "bulk_modulus",
    "shear_modulus",
    "universal_anisotropy",
    "homogeneous_poisson",
    "e_total",
    "e_ionic",
    "e_electronic",
    "n",
    "e_ij_max",
    "weighted_surface_energy_EV_PER_ANG2",
    "weighted_surface_energy",
    "weighted_work_function",
    "surface_anisotropy",
    "shape_factor",
    "has_reconstructed",
    "possible_species",
    "has_props",
    "theoretical",
    "database_IDs"
  ]
}
