{
  "builder_meta": null,
  "nsites": null,
  "elements": null,
  "nelements": null,
  "composition": null,
  "composition_reduced": null,
  "formula_pretty": "MgOs",
  "formula_anonymous": "AB",
  "chemsys": null,
  "volume": 63.990549759189996,
  "density": 11.134261230561439,
  "density_atomic": 15.997637439797499,
  "symmetry": null,
  "property_name": null,
  "material_id": "mp-1185911",
  "deprecated": null,
  "deprecation_reasons": null,
  "last_updated": null,
  "origins": null,
  "warnings": null,
  "structure": {
    "@module": "pymatgen.core.structure",
    "@class": "Structure",
    "charge": 0,
    "lattice": {
      "matrix": [
        [2.817335, 0.0, 0.0],
        [0.0, 4.514587, 0.0],
        [0.0, 0.0, 5.031058]
      ],
      "pbc": [true, true, true],
      "a": 2.817335,
      "b": 4.514587,
      "c": 5.031058,
      "alpha": 90.0,
      "beta": 90.0,
      "gamma": 90.0,
      "volume": 63.990549759189996
    },
    "properties": {},
    "sites": [
      {
        "species": [{ "element": "Mg", "occu": 1 }],
        "abc": [0.0, 0.25, 0.648802],
        "properties": { "magmom": 0.0 },
        "label": "Mg",
        "xyz": [0.0, 1.12864675, 3.264160492516]
      },
      {
        "species": [{ "element": "Mg", "occu": 1 }],
        "abc": [0.0, 0.75, 0.351198],
        "properties": { "magmom": 0.0 },
        "label": "Mg",
        "xyz": [0.0, 3.38594025, 1.7668975074839999]
      },
      {
        "species": [{ "element": "Os", "occu": 1 }],
        "abc": [0.5, 0.75, 0.8785200000000001],
        "properties": { "magmom": -0.001 },
        "label": "Os",
        "xyz": [1.4086675, 3.38594025, 4.419885074160001]
      },
      {
        "species": [{ "element": "Os", "occu": 1 }],
        "abc": [0.5, 0.25, 0.12148],
        "properties": { "magmom": -0.001 },
        "label": "Os",
        "xyz": [1.4086675, 1.12864675, 0.61117292584]
      }
    ]
  },
  "task_ids": null,
  "uncorrected_energy_per_atom": null,
  "energy_per_atom": -28.2980939375,
  "formation_energy_per_atom": 0.27917228,
  "energy_above_hull": 0.27917228,
  "is_stable": false,
  "equilibrium_reaction_energy_per_atom": null,
  "decomposes_to": null,
  "xas": null,
  "grain_boundaries": null,
  "band_gap": 0.0,
  "cbm": null,
  "vbm": null,
  "efermi": 6.18585099,
  "is_gap_direct": null,
  "is_metal": null,
  "es_source_calc_id": null,
  "bandstructure": null,
  "dos": null,
  "dos_energy_up": null,
  "dos_energy_down": null,
  "is_magnetic": null,
  "ordering": null,
  "total_magnetization": 0.0037917999999990005,
  "total_magnetization_normalized_vol": null,
  "total_magnetization_normalized_formula_units": null,
  "num_magnetic_sites": null,
  "num_unique_magnetic_sites": null,
  "types_of_magnetic_species": null,
  "bulk_modulus": null,
  "shear_modulus": null,
  "universal_anisotropy": null,
  "homogeneous_poisson": null,
  "e_total": null,
  "e_ionic": null,
  "e_electronic": null,
  "n": null,
  "e_ij_max": null,
  "weighted_surface_energy_EV_PER_ANG2": null,
  "weighted_surface_energy": null,
  "weighted_work_function": null,
  "surface_anisotropy": null,
  "shape_factor": null,
  "has_reconstructed": null,
  "possible_species": null,
  "has_props": null,
  "theoretical": null,
  "database_IDs": null,
  "fields_not_requested": [
    "builder_meta",
    "nsites",
    "elements",
    "nelements",
    "composition",
    "composition_reduced",
    "chemsys",
    "symmetry",
    "property_name",
    "deprecated",
    "deprecation_reasons",
    "last_updated",
    "origins",
    "warnings",
    "task_ids",
    "uncorrected_energy_per_atom",
    "equilibrium_reaction_energy_per_atom",
    "decomposes_to",
    "xas",
    "grain_boundaries",
    "cbm",
    "vbm",
    "is_gap_direct",
    "is_metal",
    "es_source_calc_id",
    "bandstructure",
    "dos",
    "dos_energy_up",
    "dos_energy_down",
    "is_magnetic",
    "ordering",
    "total_magnetization_normalized_vol",
    "total_magnetization_normalized_formula_units",
    "num_magnetic_sites",
    "num_unique_magnetic_sites",
    "types_of_magnetic_species",
    "bulk_modulus",
    "shear_modulus",
    "universal_anisotropy",
    "homogeneous_poisson",
    "e_total",
    "e_ionic",
    "e_electronic",
    "n",
    "e_ij_max",
    "weighted_surface_energy_EV_PER_ANG2",
    "weighted_surface_energy",
    "weighted_work_function",
    "surface_anisotropy",
    "shape_factor",
    "has_reconstructed",
    "possible_species",
    "has_props",
    "theoretical",
    "database_IDs"
  ]
}
