{
  "builder_meta": null,
  "nsites": null,
  "elements": null,
  "nelements": null,
  "composition": null,
  "composition_reduced": null,
  "formula_pretty": "MgP4",
  "formula_anonymous": "AB4",
  "chemsys": null,
  "volume": 196.7707540703042,
  "density": 2.501306360680703,
  "density_atomic": 19.677075407030422,
  "symmetry": null,
  "property_name": null,
  "material_id": "mp-384",
  "deprecated": null,
  "deprecation_reasons": null,
  "last_updated": null,
  "origins": null,
  "warnings": null,
  "structure": {
    "@module": "pymatgen.core.structure",
    "@class": "Structure",
    "charge": 0,
    "lattice": {
      "matrix": [
        [5.10306593, 0.0, 0.0],
        [0.0, 5.10905534, -0.78998755],
        [0.0, 0.0074649700000000005, 7.54609621]
      ],
      "pbc": [true, true, true],
      "a": 5.10306593,
      "b": 5.1697704781099825,
      "c": 7.546099902357075,
      "alpha": 98.73306873354142,
      "beta": 90.0,
      "gamma": 90.0,
      "volume": 196.7707540703042
    },
    "properties": {},
    "sites": [
      {
        "species": [{ "element": "Mg", "occu": 1 }],
        "abc": [-0.0, 0.0, 0.0],
        "properties": { "magmom": 0.0 },
        "label": "Mg",
        "xyz": [0.0, 0.0, 0.0]
      },
      {
        "species": [{ "element": "Mg", "occu": 1 }],
        "abc": [0.5, 0.0, 0.5],
        "properties": { "magmom": 0.0 },
        "label": "Mg",
        "xyz": [2.551532965, 0.0037324850000000002, 3.773048105]
      },
      {
        "species": [{ "element": "P", "occu": 1 }],
        "abc": [0.29378222, 0.74544623, 0.74624377],
        "properties": { "magmom": -0.0 },
        "label": "P",
        "xyz": [1.4991900377217644, 3.8140967294201054, 5.042334043638675]
      },
      {
        "species": [{ "element": "P", "occu": 1 }],
        "abc": [0.79378222, 0.25455377, 0.75375623],
        "properties": { "magmom": -0.0 },
        "label": "P",
        "xyz": [4.050723002721765, 1.3061560655798952, 5.4868227213613245]
      },
      {
        "species": [{ "element": "P", "occu": 1 }],
        "abc": [0.70621778, 0.25455377, 0.25375623],
        "properties": { "magmom": -0.0 },
        "label": "P",
        "xyz": [3.6038758922782352, 1.3024235805798952, 1.713774616361325]
      },
      {
        "species": [{ "element": "P", "occu": 1 }],
        "abc": [0.20621778000000002, 0.74544623, 0.24624377],
        "properties": { "magmom": -0.0 },
        "label": "P",
        "xyz": [1.0523429272782354, 3.8103642444201054, 1.2692859386386752]
      },
      {
        "species": [{ "element": "P", "occu": 1 }],
        "abc": [0.89220879, 0.6022276, 0.40024622],
        "properties": { "magmom": 0.0 },
        "label": "P",
        "xyz": [4.553000278695524, 3.0798019617002974, 2.5445441775424458]
      },
      {
        "species": [{ "element": "P", "occu": 1 }],
        "abc": [0.39220879000000003, 0.397772399999999, 0.09975378],
        "properties": { "magmom": 0.0 },
        "label": "P",
        "xyz": [2.0014673136955246, 2.0329858632996975, 0.43851637745755456]
      },
      {
        "species": [{ "element": "P", "occu": 1 }],
        "abc": [0.10779121, 0.397772399999999, 0.59975378],
        "properties": { "magmom": 0.0 },
        "label": "P",
        "xyz": [0.5500656513044753, 2.0367183482996976, 4.211564482457555]
      },
      {
        "species": [{ "element": "P", "occu": 1 }],
        "abc": [0.60779121, 0.6022276, 0.90024622],
        "properties": { "magmom": 0.0 },
        "label": "P",
        "xyz": [3.101598616304475, 3.0835344467002974, 6.317592282542446]
      }
    ]
  },
  "task_ids": null,
  "uncorrected_energy_per_atom": null,
  "energy_per_atom": -4.956805909000001,
  "formation_energy_per_atom": -0.298333085714285,
  "energy_above_hull": 0.0,
  "is_stable": true,
  "equilibrium_reaction_energy_per_atom": null,
  "decomposes_to": null,
  "xas": null,
  "grain_boundaries": null,
  "band_gap": 0.7289000000000001,
  "cbm": null,
  "vbm": null,
  "efermi": 5.21312334,
  "is_gap_direct": null,
  "is_metal": null,
  "es_source_calc_id": null,
  "bandstructure": null,
  "dos": null,
  "dos_energy_up": null,
  "dos_energy_down": null,
  "is_magnetic": null,
  "ordering": null,
  "total_magnetization": 0.0,
  "total_magnetization_normalized_vol": null,
  "total_magnetization_normalized_formula_units": null,
  "num_magnetic_sites": null,
  "num_unique_magnetic_sites": null,
  "types_of_magnetic_species": null,
  "bulk_modulus": null,
  "shear_modulus": null,
  "universal_anisotropy": null,
  "homogeneous_poisson": null,
  "e_total": null,
  "e_ionic": null,
  "e_electronic": null,
  "n": null,
  "e_ij_max": null,
  "weighted_surface_energy_EV_PER_ANG2": null,
  "weighted_surface_energy": null,
  "weighted_work_function": null,
  "surface_anisotropy": null,
  "shape_factor": null,
  "has_reconstructed": null,
  "possible_species": null,
  "has_props": null,
  "theoretical": null,
  "database_IDs": null,
  "fields_not_requested": [
    "builder_meta",
    "nsites",
    "elements",
    "nelements",
    "composition",
    "composition_reduced",
    "chemsys",
    "symmetry",
    "property_name",
    "deprecated",
    "deprecation_reasons",
    "last_updated",
    "origins",
    "warnings",
    "task_ids",
    "uncorrected_energy_per_atom",
    "equilibrium_reaction_energy_per_atom",
    "decomposes_to",
    "xas",
    "grain_boundaries",
    "cbm",
    "vbm",
    "is_gap_direct",
    "is_metal",
    "es_source_calc_id",
    "bandstructure",
    "dos",
    "dos_energy_up",
    "dos_energy_down",
    "is_magnetic",
    "ordering",
    "total_magnetization_normalized_vol",
    "total_magnetization_normalized_formula_units",
    "num_magnetic_sites",
    "num_unique_magnetic_sites",
    "types_of_magnetic_species",
    "bulk_modulus",
    "shear_modulus",
    "universal_anisotropy",
    "homogeneous_poisson",
    "e_total",
    "e_ionic",
    "e_electronic",
    "n",
    "e_ij_max",
    "weighted_surface_energy_EV_PER_ANG2",
    "weighted_surface_energy",
    "weighted_work_function",
    "surface_anisotropy",
    "shape_factor",
    "has_reconstructed",
    "possible_species",
    "has_props",
    "theoretical",
    "database_IDs"
  ]
}
