{
  "builder_meta": null,
  "nsites": null,
  "elements": null,
  "nelements": null,
  "composition": null,
  "composition_reduced": null,
  "formula_pretty": "MgPb5",
  "formula_anonymous": "AB5",
  "chemsys": null,
  "volume": 183.5046343505471,
  "density": 9.594732477698125,
  "density_atomic": 30.58410572509118,
  "symmetry": null,
  "property_name": null,
  "material_id": "mp-1185962",
  "deprecated": null,
  "deprecation_reasons": null,
  "last_updated": null,
  "origins": null,
  "warnings": null,
  "structure": {
    "@module": "pymatgen.core.structure",
    "@class": "Structure",
    "charge": 0,
    "lattice": {
      "matrix": [
        [1.838458999999999, 6.521615, 0.0],
        [-1.838458999999999, 6.521615, 0.0],
        [0.0, 2.673378999999999, 7.652581]
      ],
      "pbc": [true, true, true],
      "a": 6.775794691614113,
      "b": 6.775794691614113,
      "c": 8.106105799901824,
      "alpha": 71.49263818897582,
      "beta": 71.49263818897582,
      "gamma": 31.486544590128116,
      "volume": 183.50463435054698
    },
    "properties": {},
    "sites": [
      {
        "species": [{ "element": "Mg", "occu": 1 }],
        "abc": [0.38880000000000003, 0.38880000000000003, 0.721908999999999],
        "properties": { "magmom": -0.0 },
        "label": "Mg",
        "xyz": [0.0, 7.001144184510997, 5.524467097128992]
      },
      {
        "species": [{ "element": "Pb", "occu": 1 }],
        "abc": [0.995941, 0.995941, 0.992709],
        "properties": { "magmom": -0.0 },
        "label": "Pb",
        "xyz": [0.0, 15.644174923140998, 7.596786031929]
      },
      {
        "species": [{ "element": "Pb", "occu": 1 }],
        "abc": [0.726403, 0.726403, 0.050738],
        "properties": { "magmom": -0.0 },
        "label": "Pb",
        "xyz": [0.0, 9.610283305392, 0.388276654778]
      },
      {
        "species": [{ "element": "Pb", "occu": 1 }],
        "abc": [0.334773, 0.334773, 0.336242],
        "properties": { "magmom": -0.0 },
        "label": "Pb",
        "xyz": [0.0, 5.265423538507999, 2.573119140602]
      },
      {
        "species": [{ "element": "Pb", "occu": 1 }],
        "abc": [0.050310999999999, 0.050310999999999, 0.397125],
        "properties": { "magmom": -0.0 },
        "label": "Pb",
        "xyz": [0.0, 1.7178835799049865, 3.039031229625]
      },
      {
        "species": [{ "element": "Pb", "occu": 1 }],
        "abc": [0.670439, 0.670439, 0.667941999999999],
        "properties": { "magmom": -0.0 },
        "label": "Pb",
        "xyz": [0.0, 10.530352193987998, 5.1114802583019925]
      }
    ]
  },
  "task_ids": null,
  "uncorrected_energy_per_atom": null,
  "energy_per_atom": -3.335423828333333,
  "formation_energy_per_atom": 0.030193732500002003,
  "energy_above_hull": 0.039287208333335,
  "is_stable": false,
  "equilibrium_reaction_energy_per_atom": null,
  "decomposes_to": null,
  "xas": null,
  "grain_boundaries": null,
  "band_gap": 0.0,
  "cbm": null,
  "vbm": null,
  "efermi": 6.30906432,
  "is_gap_direct": null,
  "is_metal": null,
  "es_source_calc_id": null,
  "bandstructure": null,
  "dos": null,
  "dos_energy_up": null,
  "dos_energy_down": null,
  "is_magnetic": null,
  "ordering": null,
  "total_magnetization": 0.0041345,
  "total_magnetization_normalized_vol": null,
  "total_magnetization_normalized_formula_units": null,
  "num_magnetic_sites": null,
  "num_unique_magnetic_sites": null,
  "types_of_magnetic_species": null,
  "bulk_modulus": null,
  "shear_modulus": null,
  "universal_anisotropy": null,
  "homogeneous_poisson": null,
  "e_total": null,
  "e_ionic": null,
  "e_electronic": null,
  "n": null,
  "e_ij_max": null,
  "weighted_surface_energy_EV_PER_ANG2": null,
  "weighted_surface_energy": null,
  "weighted_work_function": null,
  "surface_anisotropy": null,
  "shape_factor": null,
  "has_reconstructed": null,
  "possible_species": null,
  "has_props": null,
  "theoretical": null,
  "database_IDs": null,
  "fields_not_requested": [
    "builder_meta",
    "nsites",
    "elements",
    "nelements",
    "composition",
    "composition_reduced",
    "chemsys",
    "symmetry",
    "property_name",
    "deprecated",
    "deprecation_reasons",
    "last_updated",
    "origins",
    "warnings",
    "task_ids",
    "uncorrected_energy_per_atom",
    "equilibrium_reaction_energy_per_atom",
    "decomposes_to",
    "xas",
    "grain_boundaries",
    "cbm",
    "vbm",
    "is_gap_direct",
    "is_metal",
    "es_source_calc_id",
    "bandstructure",
    "dos",
    "dos_energy_up",
    "dos_energy_down",
    "is_magnetic",
    "ordering",
    "total_magnetization_normalized_vol",
    "total_magnetization_normalized_formula_units",
    "num_magnetic_sites",
    "num_unique_magnetic_sites",
    "types_of_magnetic_species",
    "bulk_modulus",
    "shear_modulus",
    "universal_anisotropy",
    "homogeneous_poisson",
    "e_total",
    "e_ionic",
    "e_electronic",
    "n",
    "e_ij_max",
    "weighted_surface_energy_EV_PER_ANG2",
    "weighted_surface_energy",
    "weighted_work_function",
    "surface_anisotropy",
    "shape_factor",
    "has_reconstructed",
    "possible_species",
    "has_props",
    "theoretical",
    "database_IDs"
  ]
}
