{"builder_meta": null, "nsites": null, "elements": null, "nelements": null, "composition": null, "composition_reduced": null, "formula_pretty": "MgPb2", "formula_anonymous": "AB2", "chemsys": null, "volume": 169.29855803666774, "density": 8.60594206661787, "density_atomic": 28.216426339444624, "symmetry": null, "property_name": null, "material_id": "mp-1185955", "deprecated": null, "deprecation_reasons": null, "last_updated": null, "origins": null, "warnings": null, "structure": {"@module": "pymatgen.core.structure", "@class": "Structure", "charge": 0, "lattice": {"matrix": [[3.52976085, -1e-08, 0.0], [-1.76488094, 3.05685988, -0.0], [-0.0, -0.0, 15.6903433]], "pbc": [true, true, true], "a": 3.52976085, "b": 3.529758781889904, "c": 15.6903433, "alpha": 90.0, "beta": 90.0, "gamma": 120.00002919679103, "volume": 169.29855803666774}, "properties": {}, "sites": [{"species": [{"element": "Mg", "occu": 1}], "abc": [0.666667999999999, 0.333335, 0.166665999999999], "properties": {"magmom": 0.0}, "label": "Mg", "xyz": [1.7648820182128966, 1.01895838143312, 2.6150467564377844]}, {"species": [{"element": "Mg", "occu": 1}], "abc": [-0.0, -0.0, 0.666667], "properties": {"magmom": 0.0}, "label": "Mg", "xyz": [0.0, 0.0, 10.4602340967811]}, {"species": [{"element": "Pb", "occu": 1}], "abc": [-0.0, 0.0, 0.00978784], "properties": {"magmom": -0.0}, "label": "Pb", "xyz": [0.0, 0.0, 0.153574569765472]}, {"species": [{"element": "Pb", "occu": 1}], "abc": [-0.0, -0.0, 0.32354516], "properties": {"magmom": -0.0}, "label": "Pb", "xyz": [0.0, 0.0, 5.076534633453428]}, {"species": [{"element": "Pb", "occu": 1}], "abc": [0.666667999999999, 0.333335, 0.50978784], "properties": {"magmom": -0.0}, "label": "Pb", "xyz": [1.7648820182128966, 1.01895838143312, 7.998746219765472]}, {"species": [{"element": "Pb", "occu": 1}], "abc": [0.666667999999999, 0.333335, 0.82354516], "properties": {"magmom": -0.0}, "label": "Pb", "xyz": [1.7648820182128966, 1.01895838143312, 12.921706283453428]}]}, "task_ids": null, "uncorrected_energy_per_atom": null, "energy_per_atom": -3.016661041666661, "formation_energy_per_atom": 0.001927010000007, "energy_above_hull": 0.020113961666673, "is_stable": false, "equilibrium_reaction_energy_per_atom": null, "decomposes_to": null, "xas": null, "grain_boundaries": null, "band_gap": 0.0, "cbm": null, "vbm": null, "efermi": 6.14293878, "is_gap_direct": null, "is_metal": null, "es_source_calc_id": null, "bandstructure": null, "dos": null, "dos_energy_up": null, "dos_energy_down": null, "is_magnetic": null, "ordering": null, "total_magnetization": 0.0, "total_magnetization_normalized_vol": null, "total_magnetization_normalized_formula_units": null, "num_magnetic_sites": null, "num_unique_magnetic_sites": null, "types_of_magnetic_species": null, "bulk_modulus": null, "shear_modulus": null, "universal_anisotropy": null, "homogeneous_poisson": null, "e_total": null, "e_ionic": null, "e_electronic": null, "n": null, "e_ij_max": null, "weighted_surface_energy_EV_PER_ANG2": null, "weighted_surface_energy": null, "weighted_work_function": null, "surface_anisotropy": null, "shape_factor": null, "has_reconstructed": null, "possible_species": null, "has_props": null, "theoretical": null, "database_IDs": null, "fields_not_requested": ["builder_meta", "nsites", "elements", "nelements", "composition", "composition_reduced", "chemsys", "symmetry", "property_name", "deprecated", "deprecation_reasons", "last_updated", "origins", "warnings", "task_ids", "uncorrected_energy_per_atom", "equilibrium_reaction_energy_per_atom", "decomposes_to", "xas", "grain_boundaries", "cbm", "vbm", "is_gap_direct", "is_metal", "es_source_calc_id", "bandstructure", "dos", "dos_energy_up", "dos_energy_down", "is_magnetic", "ordering", "total_magnetization_normalized_vol", "total_magnetization_normalized_formula_units", "num_magnetic_sites", "num_unique_magnetic_sites", "types_of_magnetic_species", "bulk_modulus", "shear_modulus", "universal_anisotropy", "homogeneous_poisson", "e_total", "e_ionic", "e_electronic", "n", "e_ij_max", "weighted_surface_energy_EV_PER_ANG2", "weighted_surface_energy", "weighted_work_function", "surface_anisotropy", "shape_factor", "has_reconstructed", "possible_species", "has_props", "theoretical", "database_IDs"]}