{
  "builder_meta": null,
  "nsites": null,
  "elements": null,
  "nelements": null,
  "composition": null,
  "composition_reduced": null,
  "formula_pretty": "MgPd2",
  "formula_anonymous": "AB2",
  "chemsys": null,
  "volume": 183.74420996353328,
  "density": 8.572537595105937,
  "density_atomic": 15.312017496961106,
  "symmetry": null,
  "property_name": null,
  "material_id": "mp-12741",
  "deprecated": null,
  "deprecation_reasons": null,
  "last_updated": null,
  "origins": null,
  "warnings": null,
  "structure": {
    "@module": "pymatgen.core.structure",
    "@class": "Structure",
    "charge": 0,
    "lattice": {
      "matrix": [
        [4.13586205, 0.0, 0.0],
        [-0.0, 5.48632926, 0.0],
        [0.0, 0.0, 8.09777583]
      ],
      "pbc": [true, true, true],
      "a": 4.13586205,
      "b": 5.48632926,
      "c": 8.09777583,
      "alpha": 90.0,
      "beta": 90.0,
      "gamma": 90.0,
      "volume": 183.74420996353328
    },
    "properties": {},
    "sites": [
      {
        "species": [{ "element": "Mg", "occu": 1 }],
        "abc": [0.75, 0.6651306300000001, 0.90238397],
        "properties": { "magmom": 0.0 },
        "label": "Mg",
        "xyz": [3.1018965375, 3.649125637091234, 7.307303101645445]
      },
      {
        "species": [{ "element": "Mg", "occu": 1 }],
        "abc": [0.25, 0.33486937, 0.09761603],
        "properties": { "magmom": 0.0 },
        "label": "Mg",
        "xyz": [1.0339655125, 1.837203622908766, 0.790472728354555]
      },
      {
        "species": [{ "element": "Mg", "occu": 1 }],
        "abc": [0.75, 0.16513063, 0.59761603],
        "properties": { "magmom": 0.0 },
        "label": "Mg",
        "xyz": [3.1018965375, 0.9059610070912337, 4.839360643354555]
      },
      {
        "species": [{ "element": "Mg", "occu": 1 }],
        "abc": [0.25, 0.83486937, 0.40238397000000004],
        "properties": { "magmom": 0.0 },
        "label": "Mg",
        "xyz": [1.0339655125, 4.580368252908766, 3.258415186645445]
      },
      {
        "species": [{ "element": "Pd", "occu": 1 }],
        "abc": [0.75, 0.6554731500000001, 0.5732381400000001],
        "properties": { "magmom": 0.0 },
        "label": "Pd",
        "xyz": [3.1018965375, 3.5961415219893693, 4.641953954926157]
      },
      {
        "species": [{ "element": "Pd", "occu": 1 }],
        "abc": [0.25, 0.34452685, 0.42676186],
        "properties": { "magmom": 0.0 },
        "label": "Pd",
        "xyz": [1.0339655125, 1.890187738010631, 3.455821875073844]
      },
      {
        "species": [{ "element": "Pd", "occu": 1 }],
        "abc": [0.75, 0.15547315, 0.92676186],
        "properties": { "magmom": 0.0 },
        "label": "Pd",
        "xyz": [3.1018965375, 0.852976891989369, 7.504709790073844]
      },
      {
        "species": [{ "element": "Pd", "occu": 1 }],
        "abc": [0.25, 0.84452685, 0.07323814000000001],
        "properties": { "magmom": 0.0 },
        "label": "Pd",
        "xyz": [1.0339655125, 4.633352368010631, 0.5930660399261563]
      },
      {
        "species": [{ "element": "Pd", "occu": 1 }],
        "abc": [0.75, 0.57069308, 0.236391],
        "properties": { "magmom": -0.0 },
        "label": "Pd",
        "xyz": [3.1018965375, 3.1310101432835205, 1.91424132622953]
      },
      {
        "species": [{ "element": "Pd", "occu": 1 }],
        "abc": [0.25, 0.42930692000000004, 0.763609],
        "properties": { "magmom": -0.0 },
        "label": "Pd",
        "xyz": [1.0339655125, 2.3553191167164793, 6.18353450377047]
      },
      {
        "species": [{ "element": "Pd", "occu": 1 }],
        "abc": [0.75, 0.07069308, 0.263609],
        "properties": { "magmom": -0.0 },
        "label": "Pd",
        "xyz": [3.1018965375, 0.3878455132835208, 2.1346465887704698]
      },
      {
        "species": [{ "element": "Pd", "occu": 1 }],
        "abc": [0.25, 0.92930692, 0.736391],
        "properties": { "magmom": -0.0 },
        "label": "Pd",
        "xyz": [1.0339655125, 5.098483746716479, 5.96312924122953]
      }
    ]
  },
  "task_ids": null,
  "uncorrected_energy_per_atom": null,
  "energy_per_atom": -4.593457279166668,
  "formation_energy_per_atom": -0.596712734166667,
  "energy_above_hull": 0.0,
  "is_stable": true,
  "equilibrium_reaction_energy_per_atom": null,
  "decomposes_to": null,
  "xas": null,
  "grain_boundaries": null,
  "band_gap": 0.0,
  "cbm": null,
  "vbm": null,
  "efermi": 4.56239495,
  "is_gap_direct": null,
  "is_metal": null,
  "es_source_calc_id": null,
  "bandstructure": null,
  "dos": null,
  "dos_energy_up": null,
  "dos_energy_down": null,
  "is_magnetic": null,
  "ordering": null,
  "total_magnetization": 0.0,
  "total_magnetization_normalized_vol": null,
  "total_magnetization_normalized_formula_units": null,
  "num_magnetic_sites": null,
  "num_unique_magnetic_sites": null,
  "types_of_magnetic_species": null,
  "bulk_modulus": null,
  "shear_modulus": null,
  "universal_anisotropy": null,
  "homogeneous_poisson": null,
  "e_total": null,
  "e_ionic": null,
  "e_electronic": null,
  "n": null,
  "e_ij_max": null,
  "weighted_surface_energy_EV_PER_ANG2": null,
  "weighted_surface_energy": null,
  "weighted_work_function": null,
  "surface_anisotropy": null,
  "shape_factor": null,
  "has_reconstructed": null,
  "possible_species": null,
  "has_props": null,
  "theoretical": null,
  "database_IDs": null,
  "fields_not_requested": [
    "builder_meta",
    "nsites",
    "elements",
    "nelements",
    "composition",
    "composition_reduced",
    "chemsys",
    "symmetry",
    "property_name",
    "deprecated",
    "deprecation_reasons",
    "last_updated",
    "origins",
    "warnings",
    "task_ids",
    "uncorrected_energy_per_atom",
    "equilibrium_reaction_energy_per_atom",
    "decomposes_to",
    "xas",
    "grain_boundaries",
    "cbm",
    "vbm",
    "is_gap_direct",
    "is_metal",
    "es_source_calc_id",
    "bandstructure",
    "dos",
    "dos_energy_up",
    "dos_energy_down",
    "is_magnetic",
    "ordering",
    "total_magnetization_normalized_vol",
    "total_magnetization_normalized_formula_units",
    "num_magnetic_sites",
    "num_unique_magnetic_sites",
    "types_of_magnetic_species",
    "bulk_modulus",
    "shear_modulus",
    "universal_anisotropy",
    "homogeneous_poisson",
    "e_total",
    "e_ionic",
    "e_electronic",
    "n",
    "e_ij_max",
    "weighted_surface_energy_EV_PER_ANG2",
    "weighted_surface_energy",
    "weighted_work_function",
    "surface_anisotropy",
    "shape_factor",
    "has_reconstructed",
    "possible_species",
    "has_props",
    "theoretical",
    "database_IDs"
  ]
}
