{
  "builder_meta": null,
  "nsites": null,
  "elements": null,
  "nelements": null,
  "composition": null,
  "composition_reduced": null,
  "formula_pretty": "MgPd5",
  "formula_anonymous": "AB5",
  "chemsys": null,
  "volume": 91.01136802371872,
  "density": 10.151833330433892,
  "density_atomic": 15.168561337286453,
  "symmetry": null,
  "property_name": null,
  "material_id": "mp-976976",
  "deprecated": null,
  "deprecation_reasons": null,
  "last_updated": null,
  "origins": null,
  "warnings": null,
  "structure": {
    "@module": "pymatgen.core.structure",
    "@class": "Structure",
    "charge": 0,
    "lattice": {
      "matrix": [
        [-4.16222213, 2.40293848, 0.00190486],
        [-0.00010589, -4.8060612, -0.00190486],
        [-1.38841108, 2.4047989100000002, 4.5508955]
      ],
      "pbc": [true, true, true],
      "a": 4.806059719418608,
      "b": 4.806061578657701,
      "c": 5.331171820202779,
      "alpha": 116.83451637342073,
      "beta": 63.165483831318376,
      "gamma": 119.99748750932108,
      "volume": 91.0113680237187
    },
    "properties": {},
    "sites": [
      {
        "species": [{ "element": "Mg", "occu": 1 }],
        "abc": [0.83333057, 0.49999757, 0.5],
        "properties": { "magmom": -0.0 },
        "label": "Mg",
        "xyz": [-4.162765424802201, 0.8018226269420499, 2.27608270269838]
      },
      {
        "species": [{ "element": "Pd", "occu": 1 }],
        "abc": [0.33325221, 0.66833445, 7.167000000000001e-5],
        "properties": { "magmom": 0.0 },
        "label": "Pd",
        "xyz": [-1.3872400006904213, -2.41109935787642, -0.00031212207520140003]
      },
      {
        "species": [{ "element": "Pd", "occu": 1 }],
        "abc": [0.00166645, 0.99991721, 0.99992833],
        "properties": { "magmom": 0.0 },
        "label": "Pd",
        "xyz": [-1.3953535888798019, -2.397032371301136, 4.5486678093768225]
      },
      {
        "species": [{ "element": "Pd", "occu": 1 }],
        "abc": [0.501718, 0.83178923, 0.49518787000000003],
        "properties": { "magmom": 0.0 },
        "label": "Pd",
        "xyz": [-2.775874166170504, -1.601205206551015, 2.2529195097544075]
      },
      {
        "species": [{ "element": "Pd", "occu": 1 }],
        "abc": [0.16512423, 0.168384999999999, 0.50481013],
        "properties": { "magmom": 0.0 },
        "label": "Pd",
        "xyz": [-1.3881855323811003, 0.8014816014663336, 2.297331937661073]
      },
      {
        "species": [{ "element": "Pd", "occu": 1 }],
        "abc": [0.66490655, 0.33157355, 0.0],
        "properties": { "magmom": 0.0 },
        "label": "Pd",
        "xyz": [-2.767523867115161, 0.004166760997783792, 0.0006349526983799999]
      }
    ]
  },
  "task_ids": null,
  "uncorrected_energy_per_atom": null,
  "energy_per_atom": -4.920526811666669,
  "formation_energy_per_atom": -0.33221363416666705,
  "energy_above_hull": 0.0,
  "is_stable": true,
  "equilibrium_reaction_energy_per_atom": null,
  "decomposes_to": null,
  "xas": null,
  "grain_boundaries": null,
  "band_gap": 0.0,
  "cbm": null,
  "vbm": null,
  "efermi": 4.4117272100000005,
  "is_gap_direct": null,
  "is_metal": null,
  "es_source_calc_id": null,
  "bandstructure": null,
  "dos": null,
  "dos_energy_up": null,
  "dos_energy_down": null,
  "is_magnetic": null,
  "ordering": null,
  "total_magnetization": 2.499999999999999e-6,
  "total_magnetization_normalized_vol": null,
  "total_magnetization_normalized_formula_units": null,
  "num_magnetic_sites": null,
  "num_unique_magnetic_sites": null,
  "types_of_magnetic_species": null,
  "bulk_modulus": null,
  "shear_modulus": null,
  "universal_anisotropy": null,
  "homogeneous_poisson": null,
  "e_total": null,
  "e_ionic": null,
  "e_electronic": null,
  "n": null,
  "e_ij_max": null,
  "weighted_surface_energy_EV_PER_ANG2": null,
  "weighted_surface_energy": null,
  "weighted_work_function": null,
  "surface_anisotropy": null,
  "shape_factor": null,
  "has_reconstructed": null,
  "possible_species": null,
  "has_props": null,
  "theoretical": null,
  "database_IDs": null,
  "fields_not_requested": [
    "builder_meta",
    "nsites",
    "elements",
    "nelements",
    "composition",
    "composition_reduced",
    "chemsys",
    "symmetry",
    "property_name",
    "deprecated",
    "deprecation_reasons",
    "last_updated",
    "origins",
    "warnings",
    "task_ids",
    "uncorrected_energy_per_atom",
    "equilibrium_reaction_energy_per_atom",
    "decomposes_to",
    "xas",
    "grain_boundaries",
    "cbm",
    "vbm",
    "is_gap_direct",
    "is_metal",
    "es_source_calc_id",
    "bandstructure",
    "dos",
    "dos_energy_up",
    "dos_energy_down",
    "is_magnetic",
    "ordering",
    "total_magnetization_normalized_vol",
    "total_magnetization_normalized_formula_units",
    "num_magnetic_sites",
    "num_unique_magnetic_sites",
    "types_of_magnetic_species",
    "bulk_modulus",
    "shear_modulus",
    "universal_anisotropy",
    "homogeneous_poisson",
    "e_total",
    "e_ionic",
    "e_electronic",
    "n",
    "e_ij_max",
    "weighted_surface_energy_EV_PER_ANG2",
    "weighted_surface_energy",
    "weighted_work_function",
    "surface_anisotropy",
    "shape_factor",
    "has_reconstructed",
    "possible_species",
    "has_props",
    "theoretical",
    "database_IDs"
  ]
}
