{"builder_meta": null, "nsites": null, "elements": null, "nelements": null, "composition": null, "composition_reduced": null, "formula_pretty": "MgRh5", "formula_anonymous": "AB5", "chemsys": null, "volume": 84.59588645188775, "density": 10.576783980065239, "density_atomic": 14.099314408647958, "symmetry": null, "property_name": null, "material_id": "mp-977273", "deprecated": null, "deprecation_reasons": null, "last_updated": null, "origins": null, "warnings": null, "structure": {"@module": "pymatgen.core.structure", "@class": "Structure", "charge": 0, "lattice": {"matrix": [[2.73284258, 0.0, 0.0], [-1.36642078, 2.30795413, 4.32074985], [-0.0, -4.80282906, 4.42099317]], "pbc": [true, true, true], "a": 2.73284258, "b": 5.085532153125658, "c": 6.527813384952662, "alpha": 76.02469249818746, "beta": 90.0, "gamma": 105.5862021288758, "volume": 84.59588645188775}, "properties": {}, "sites": [{"species": [{"element": "Mg", "occu": 1}], "abc": [0.3853587, 0.7707173900000001, 0.72193336], "properties": {"magmom": 0.0}, "label": "Mg", "xyz": [4.0673008183667037e-07, -1.6885421374781204, 6.521739500990043]}, {"species": [{"element": "Rh", "occu": 1}], "abc": [0.0056735100000000005, 0.01134701, 0.00194992], "properties": {"magmom": -0.0}, "label": "Rh", "xyz": [1.9451188002297948e-08, 0.016823246151976102, 0.0576481747574949]}, {"species": [{"element": "Rh", "occu": 1}], "abc": [0.72490052, 0.44980105000000004, 0.0555219], "properties": {"magmom": -0.0}, "label": "Rh", "xyz": [1.3664215057343227, 0.7714579962394227, 2.1889397600027656]}, {"species": [{"element": "Rh", "occu": 1}], "abc": [0.33296333, 0.66592765, 0.32969621], "properties": {"magmom": -0.0}, "label": "Rh", "xyz": [-1.0131339756025426e-06, -0.04654406826116797, 4.334891486433238]}, {"species": [{"element": "Rh", "occu": 1}], "abc": [0.05764475, 0.11528849000000001, 0.38756435], "properties": {"magmom": -0.0}, "label": "Rh", "xyz": [1.4388826328204374e-06, -1.5953247761630471, 2.211552070159716]}, {"species": [{"element": "Rh", "occu": 1}], "abc": [0.6601262, 0.3202524, 0.6700002700000001], "properties": {"magmom": -0.0}, "label": "Rh", "xyz": [1.366421453328724, -2.4787689177414345, 4.345797126830297]}]}, "task_ids": null, "uncorrected_energy_per_atom": null, "energy_per_atom": -6.526251188333336, "formation_energy_per_atom": -0.11758296083333401, "energy_above_hull": 0.053505833333331004, "is_stable": false, "equilibrium_reaction_energy_per_atom": null, "decomposes_to": null, "xas": null, "grain_boundaries": null, "band_gap": 0.0, "cbm": null, "vbm": null, "efermi": 6.28779828, "is_gap_direct": null, "is_metal": null, "es_source_calc_id": null, "bandstructure": null, "dos": null, "dos_energy_up": null, "dos_energy_down": null, "is_magnetic": null, "ordering": null, "total_magnetization": 3.97e-05, "total_magnetization_normalized_vol": null, "total_magnetization_normalized_formula_units": null, "num_magnetic_sites": null, "num_unique_magnetic_sites": null, "types_of_magnetic_species": null, "bulk_modulus": null, "shear_modulus": null, "universal_anisotropy": null, "homogeneous_poisson": null, "e_total": null, "e_ionic": null, "e_electronic": null, "n": null, "e_ij_max": null, "weighted_surface_energy_EV_PER_ANG2": null, "weighted_surface_energy": null, "weighted_work_function": null, "surface_anisotropy": null, "shape_factor": null, "has_reconstructed": null, "possible_species": null, "has_props": null, "theoretical": null, "database_IDs": null, "fields_not_requested": ["builder_meta", "nsites", "elements", "nelements", "composition", "composition_reduced", "chemsys", "symmetry", "property_name", "deprecated", "deprecation_reasons", "last_updated", "origins", "warnings", "task_ids", "uncorrected_energy_per_atom", "equilibrium_reaction_energy_per_atom", "decomposes_to", "xas", "grain_boundaries", "cbm", "vbm", "is_gap_direct", "is_metal", "es_source_calc_id", "bandstructure", "dos", "dos_energy_up", "dos_energy_down", "is_magnetic", "ordering", "total_magnetization_normalized_vol", "total_magnetization_normalized_formula_units", "num_magnetic_sites", "num_unique_magnetic_sites", "types_of_magnetic_species", "bulk_modulus", "shear_modulus", "universal_anisotropy", "homogeneous_poisson", "e_total", "e_ionic", "e_electronic", "n", "e_ij_max", "weighted_surface_energy_EV_PER_ANG2", "weighted_surface_energy", "weighted_work_function", "surface_anisotropy", "shape_factor", "has_reconstructed", "possible_species", "has_props", "theoretical", "database_IDs"]}