{
  "builder_meta": null,
  "nsites": null,
  "elements": null,
  "nelements": null,
  "composition": null,
  "composition_reduced": null,
  "formula_pretty": "MgS2",
  "formula_anonymous": "AB2",
  "chemsys": null,
  "volume": 122.96464101417257,
  "density": 2.388487798502099,
  "density_atomic": 20.49410683569543,
  "symmetry": null,
  "property_name": null,
  "material_id": "mp-1185959",
  "deprecated": null,
  "deprecation_reasons": null,
  "last_updated": null,
  "origins": null,
  "warnings": null,
  "structure": {
    "@module": "pymatgen.core.structure",
    "@class": "Structure",
    "charge": 0,
    "lattice": {
      "matrix": [
        [3.9105411, -0.00153845, 0.00023934],
        [-1.9550406900000001, 0.14997486000000002, 4.71009277],
        [0.00301829, -6.42517231, 7.91179363]
      ],
      "pbc": [true, true, true],
      "a": 3.9105414099458464,
      "b": 5.101926151973779,
      "c": 10.192120817914878,
      "alpha": 45.73300258074132,
      "beta": 89.96610046224403,
      "gamma": 112.52903830024104,
      "volume": 122.96464101417257
    },
    "properties": {},
    "sites": [
      {
        "species": [{ "element": "Mg", "occu": 1 }],
        "abc": [0.6943399100000001, 0.38886373, 0.11105265],
        "properties": { "magmom": 0.0 },
        "label": "Mg",
        "xyz": [1.9553355295130959, -0.6562808355008332, 2.710376075366911]
      },
      {
        "species": [{ "element": "Mg", "occu": 1 }],
        "abc": [0.69447897, 0.38906052, 0.61106518],
        "properties": { "magmom": -0.0 },
        "label": "Mg",
        "xyz": [1.9570037797202504, -3.868918198294035, 6.6672989575799235]
      },
      {
        "species": [{ "element": "S", "occu": 1 }],
        "abc": [0.114362399999999, 0.22880737, 0.32722875],
        "properties": { "magmom": -0.0 },
        "label": "S",
        "xyz": [0.0008788182365882771, -2.0683616910874743, 3.666697650459393]
      },
      {
        "species": [{ "element": "S", "occu": 1 }],
        "abc": [0.27455934, 0.54889179, 0.39504857],
        "properties": { "magmom": -0.0 },
        "label": "S",
        "xyz": [0.001762170750284225, -2.45635755952532, 5.710939724290403]
      },
      {
        "species": [{ "element": "S", "occu": 1 }],
        "abc": [0.11434335, 0.228758799999999, 0.82725393],
        "properties": { "magmom": 0.0 },
        "label": "S",
        "xyz": [0.002408499755494551, -5.281116886897719, 7.622564910657727]
      },
      {
        "species": [{ "element": "S", "occu": 1 }],
        "abc": [0.27458202, 0.54895178, 0.89501892],
        "properties": { "magmom": 0.0 },
        "label": "S",
        "xyz": [0.0032426344391403225, -5.668744246066523, 9.666884518502776]
      }
    ]
  },
  "task_ids": null,
  "uncorrected_energy_per_atom": null,
  "energy_per_atom": -4.456197036666666,
  "formation_energy_per_atom": -1.153800653333332,
  "energy_above_hull": 0.0,
  "is_stable": true,
  "equilibrium_reaction_energy_per_atom": null,
  "decomposes_to": null,
  "xas": null,
  "grain_boundaries": null,
  "band_gap": 1.133699999999999,
  "cbm": null,
  "vbm": null,
  "efermi": 3.79466102,
  "is_gap_direct": null,
  "is_metal": null,
  "es_source_calc_id": null,
  "bandstructure": null,
  "dos": null,
  "dos_energy_up": null,
  "dos_energy_down": null,
  "is_magnetic": null,
  "ordering": null,
  "total_magnetization": 0.0,
  "total_magnetization_normalized_vol": null,
  "total_magnetization_normalized_formula_units": null,
  "num_magnetic_sites": null,
  "num_unique_magnetic_sites": null,
  "types_of_magnetic_species": null,
  "bulk_modulus": null,
  "shear_modulus": null,
  "universal_anisotropy": null,
  "homogeneous_poisson": null,
  "e_total": null,
  "e_ionic": null,
  "e_electronic": null,
  "n": null,
  "e_ij_max": null,
  "weighted_surface_energy_EV_PER_ANG2": null,
  "weighted_surface_energy": null,
  "weighted_work_function": null,
  "surface_anisotropy": null,
  "shape_factor": null,
  "has_reconstructed": null,
  "possible_species": null,
  "has_props": null,
  "theoretical": null,
  "database_IDs": null,
  "fields_not_requested": [
    "builder_meta",
    "nsites",
    "elements",
    "nelements",
    "composition",
    "composition_reduced",
    "chemsys",
    "symmetry",
    "property_name",
    "deprecated",
    "deprecation_reasons",
    "last_updated",
    "origins",
    "warnings",
    "task_ids",
    "uncorrected_energy_per_atom",
    "equilibrium_reaction_energy_per_atom",
    "decomposes_to",
    "xas",
    "grain_boundaries",
    "cbm",
    "vbm",
    "is_gap_direct",
    "is_metal",
    "es_source_calc_id",
    "bandstructure",
    "dos",
    "dos_energy_up",
    "dos_energy_down",
    "is_magnetic",
    "ordering",
    "total_magnetization_normalized_vol",
    "total_magnetization_normalized_formula_units",
    "num_magnetic_sites",
    "num_unique_magnetic_sites",
    "types_of_magnetic_species",
    "bulk_modulus",
    "shear_modulus",
    "universal_anisotropy",
    "homogeneous_poisson",
    "e_total",
    "e_ionic",
    "e_electronic",
    "n",
    "e_ij_max",
    "weighted_surface_energy_EV_PER_ANG2",
    "weighted_surface_energy",
    "weighted_work_function",
    "surface_anisotropy",
    "shape_factor",
    "has_reconstructed",
    "possible_species",
    "has_props",
    "theoretical",
    "database_IDs"
  ]
}
