{
  "builder_meta": null,
  "nsites": null,
  "elements": null,
  "nelements": null,
  "composition": null,
  "composition_reduced": null,
  "formula_pretty": "MgS3",
  "formula_anonymous": "AB3",
  "chemsys": null,
  "volume": 74.88583514214879,
  "density": 2.6720000804621913,
  "density_atomic": 18.721458785537198,
  "symmetry": null,
  "property_name": null,
  "material_id": "mp-1185949",
  "deprecated": null,
  "deprecation_reasons": null,
  "last_updated": null,
  "origins": null,
  "warnings": null,
  "structure": {
    "@module": "pymatgen.core.structure",
    "@class": "Structure",
    "charge": 0,
    "lattice": {
      "matrix": [
        [3.66443496, 0.0, 0.0],
        [0.0, 4.23063406, 0.0],
        [0.0, 0.0, 4.83044563]
      ],
      "pbc": [true, true, true],
      "a": 3.66443496,
      "b": 4.23063406,
      "c": 4.83044563,
      "alpha": 90.0,
      "beta": 90.0,
      "gamma": 90.0,
      "volume": 74.88583514214879
    },
    "properties": {},
    "sites": [
      {
        "species": [{ "element": "Mg", "occu": 1 }],
        "abc": [0.10983519, -0.0, 0.5],
        "properties": { "magmom": -0.0 },
        "label": "Mg",
        "xyz": [0.4024839100742424, 0.0, 2.415222815]
      },
      {
        "species": [{ "element": "S", "occu": 1 }],
        "abc": [0.55686382, 0.5, -0.0],
        "properties": { "magmom": 0.0 },
        "label": "S",
        "xyz": [2.040591249967147, 2.11531703, 0.0]
      },
      {
        "species": [{ "element": "S", "occu": 1 }],
        "abc": [0.34525177, -0.0, -0.0],
        "properties": { "magmom": 0.0 },
        "label": "S",
        "xyz": [1.2651526559898791, 0.0, 0.0]
      },
      {
        "species": [{ "element": "S", "occu": 1 }],
        "abc": [0.65472022, 0.5, 0.5],
        "properties": { "magmom": -0.0 },
        "label": "S",
        "xyz": [2.399179663186891, 2.11531703, 2.415222815]
      }
    ]
  },
  "task_ids": null,
  "uncorrected_energy_per_atom": null,
  "energy_per_atom": -4.270432735,
  "formation_energy_per_atom": -0.7590455556249981,
  "energy_above_hull": 0.10630493437500001,
  "is_stable": false,
  "equilibrium_reaction_energy_per_atom": null,
  "decomposes_to": null,
  "xas": null,
  "grain_boundaries": null,
  "band_gap": 0.0,
  "cbm": null,
  "vbm": null,
  "efermi": 5.56978906,
  "is_gap_direct": null,
  "is_metal": null,
  "es_source_calc_id": null,
  "bandstructure": null,
  "dos": null,
  "dos_energy_up": null,
  "dos_energy_down": null,
  "is_magnetic": null,
  "ordering": null,
  "total_magnetization": 0.0,
  "total_magnetization_normalized_vol": null,
  "total_magnetization_normalized_formula_units": null,
  "num_magnetic_sites": null,
  "num_unique_magnetic_sites": null,
  "types_of_magnetic_species": null,
  "bulk_modulus": null,
  "shear_modulus": null,
  "universal_anisotropy": null,
  "homogeneous_poisson": null,
  "e_total": null,
  "e_ionic": null,
  "e_electronic": null,
  "n": null,
  "e_ij_max": null,
  "weighted_surface_energy_EV_PER_ANG2": null,
  "weighted_surface_energy": null,
  "weighted_work_function": null,
  "surface_anisotropy": null,
  "shape_factor": null,
  "has_reconstructed": null,
  "possible_species": null,
  "has_props": null,
  "theoretical": null,
  "database_IDs": null,
  "fields_not_requested": [
    "builder_meta",
    "nsites",
    "elements",
    "nelements",
    "composition",
    "composition_reduced",
    "chemsys",
    "symmetry",
    "property_name",
    "deprecated",
    "deprecation_reasons",
    "last_updated",
    "origins",
    "warnings",
    "task_ids",
    "uncorrected_energy_per_atom",
    "equilibrium_reaction_energy_per_atom",
    "decomposes_to",
    "xas",
    "grain_boundaries",
    "cbm",
    "vbm",
    "is_gap_direct",
    "is_metal",
    "es_source_calc_id",
    "bandstructure",
    "dos",
    "dos_energy_up",
    "dos_energy_down",
    "is_magnetic",
    "ordering",
    "total_magnetization_normalized_vol",
    "total_magnetization_normalized_formula_units",
    "num_magnetic_sites",
    "num_unique_magnetic_sites",
    "types_of_magnetic_species",
    "bulk_modulus",
    "shear_modulus",
    "universal_anisotropy",
    "homogeneous_poisson",
    "e_total",
    "e_ionic",
    "e_electronic",
    "n",
    "e_ij_max",
    "weighted_surface_energy_EV_PER_ANG2",
    "weighted_surface_energy",
    "weighted_work_function",
    "surface_anisotropy",
    "shape_factor",
    "has_reconstructed",
    "possible_species",
    "has_props",
    "theoretical",
    "database_IDs"
  ]
}
