{"builder_meta": null, "nsites": null, "elements": null, "nelements": null, "composition": null, "composition_reduced": null, "formula_pretty": "MgSb3", "formula_anonymous": "AB3", "chemsys": null, "volume": 104.54914811650204, "density": 6.187722462745261, "density_atomic": 26.13728702912551, "symmetry": null, "property_name": null, "material_id": "mp-1094513", "deprecated": null, "deprecation_reasons": null, "last_updated": null, "origins": null, "warnings": null, "structure": {"@module": "pymatgen.core.structure", "@class": "Structure", "charge": 0, "lattice": {"matrix": [[-1.787361, 2.7548690000000002, 5.3082], [1.787361, -2.7548690000000002, 5.3082], [1.787361, 2.7548690000000002, -5.3082]], "pbc": [true, true, true], "a": 6.2418706964724935, "b": 6.2418706964724935, "c": 6.2418706964724935, "alpha": 146.72085162950953, "beta": 127.61950732582376, "gamma": 63.48564685918343, "volume": 104.54914811650207}, "properties": {}, "sites": [{"species": [{"element": "Mg", "occu": 1}], "abc": [0.32349, 0.0, 0.32349], "properties": {"magmom": 0.0}, "label": "Mg", "xyz": [0.0, 1.7823451456200001, 0.0]}, {"species": [{"element": "Sb", "occu": 1}], "abc": [0.854273, 0.5, 0.354273], "properties": {"magmom": 0.0}, "label": "Sb", "xyz": [0.0, 1.951951410474, 5.308199999999999]}, {"species": [{"element": "Sb", "occu": 1}], "abc": [0.268549, 0.274097, 0.994452], "properties": {"magmom": 0.0}, "label": "Sb", "xyz": [1.787361, 2.7243009735760007, -2.3982766092000007]}, {"species": [{"element": "Sb", "occu": 1}], "abc": [0.720353999999999, 0.725903, 0.994452], "properties": {"magmom": 0.0}, "label": "Sb", "xyz": [1.7873627873610016, 2.724298218706998, 2.398271300999995]}]}, "task_ids": null, "uncorrected_energy_per_atom": null, "energy_per_atom": -3.4353476625, "formation_energy_per_atom": 0.06902077125, "energy_above_hull": 0.24740882927083302, "is_stable": false, "equilibrium_reaction_energy_per_atom": null, "decomposes_to": null, "xas": null, "grain_boundaries": null, "band_gap": 0.0, "cbm": null, "vbm": null, "efermi": 7.26438697, "is_gap_direct": null, "is_metal": null, "es_source_calc_id": null, "bandstructure": null, "dos": null, "dos_energy_up": null, "dos_energy_down": null, "is_magnetic": null, "ordering": null, "total_magnetization": 0.006206799999999, "total_magnetization_normalized_vol": null, "total_magnetization_normalized_formula_units": null, "num_magnetic_sites": null, "num_unique_magnetic_sites": null, "types_of_magnetic_species": null, "bulk_modulus": null, "shear_modulus": null, "universal_anisotropy": null, "homogeneous_poisson": null, "e_total": null, "e_ionic": null, "e_electronic": null, "n": null, "e_ij_max": null, "weighted_surface_energy_EV_PER_ANG2": null, "weighted_surface_energy": null, "weighted_work_function": null, "surface_anisotropy": null, "shape_factor": null, "has_reconstructed": null, "possible_species": null, "has_props": null, "theoretical": null, "database_IDs": null, "fields_not_requested": ["builder_meta", "nsites", "elements", "nelements", "composition", "composition_reduced", "chemsys", "symmetry", "property_name", "deprecated", "deprecation_reasons", "last_updated", "origins", "warnings", "task_ids", "uncorrected_energy_per_atom", "equilibrium_reaction_energy_per_atom", "decomposes_to", "xas", "grain_boundaries", "cbm", "vbm", "is_gap_direct", "is_metal", "es_source_calc_id", "bandstructure", "dos", "dos_energy_up", "dos_energy_down", "is_magnetic", "ordering", "total_magnetization_normalized_vol", "total_magnetization_normalized_formula_units", "num_magnetic_sites", "num_unique_magnetic_sites", "types_of_magnetic_species", "bulk_modulus", "shear_modulus", "universal_anisotropy", "homogeneous_poisson", "e_total", "e_ionic", "e_electronic", "n", "e_ij_max", "weighted_surface_energy_EV_PER_ANG2", "weighted_surface_energy", "weighted_work_function", "surface_anisotropy", "shape_factor", "has_reconstructed", "possible_species", "has_props", "theoretical", "database_IDs"]}