{"builder_meta": null, "nsites": null, "elements": null, "nelements": null, "composition": null, "composition_reduced": null, "formula_pretty": "MgSb2", "formula_anonymous": "AB2", "chemsys": null, "volume": 163.4803349954532, "density": 5.440824127556554, "density_atomic": 27.2467224992422, "symmetry": null, "property_name": null, "material_id": "mp-1094556", "deprecated": null, "deprecation_reasons": null, "last_updated": null, "origins": null, "warnings": null, "structure": {"@module": "pymatgen.core.structure", "@class": "Structure", "charge": 0, "lattice": {"matrix": [[2.1714700000000002, 5.609908, 0.0], [-2.1714700000000002, 5.609908, 0.0], [0.0, 2.073211, 6.710053]], "pbc": [true, true, true], "a": 6.015509099765705, "b": 6.015509099765705, "c": 7.02303460858125, "alpha": 74.02026433791578, "beta": 74.02026433791578, "gamma": 42.32061364046097, "volume": 163.48033499545323}, "properties": {}, "sites": [{"species": [{"element": "Mg", "occu": 1}], "abc": [0.618736, 0.618736, 0.223405], "properties": {"magmom": 0.0}, "label": "Mg", "xyz": [0.0, 7.405269776030999, 1.499059390465]}, {"species": [{"element": "Mg", "occu": 1}], "abc": [0.932003999999999, 0.932003999999999, 0.639983], "properties": {"magmom": -0.0}, "label": "Mg", "xyz": [0.0, 11.783733186676988, 4.294319849099]}, {"species": [{"element": "Sb", "occu": 1}], "abc": [0.019570999999999002, 0.019570999999999002, 0.022843], "properties": {"magmom": 0.0}, "label": "Sb", "xyz": [0.0, 0.2669413778089888, 0.153277740679]}, {"species": [{"element": "Sb", "occu": 1}], "abc": [0.321725, 0.321725, 0.367318], "properties": {"magmom": 0.0}, "label": "Sb", "xyz": [0.0, 4.371223020697999, 2.4647232478539998]}, {"species": [{"element": "Sb", "occu": 1}], "abc": [0.650104999999999, 0.650104999999999, 0.619755], "properties": {"magmom": 0.0}, "label": "Sb", "xyz": [0.0, 8.578941363984988, 4.158588897015]}, {"species": [{"element": "Sb", "occu": 1}], "abc": [0.291192, 0.291192, 0.960028999999999], "properties": {"magmom": -0.0}, "label": "Sb", "xyz": [0.0, 5.257463343790998, 6.441845471536993]}]}, "task_ids": null, "uncorrected_energy_per_atom": null, "energy_per_atom": -3.429972806666667, "formation_energy_per_atom": -0.13381530833333302, "energy_above_hull": 0.10403543569444401, "is_stable": false, "equilibrium_reaction_energy_per_atom": null, "decomposes_to": null, "xas": null, "grain_boundaries": null, "band_gap": 0.0, "cbm": null, "vbm": null, "efermi": 6.35411667, "is_gap_direct": null, "is_metal": null, "es_source_calc_id": null, "bandstructure": null, "dos": null, "dos_energy_up": null, "dos_energy_down": null, "is_magnetic": null, "ordering": null, "total_magnetization": 0.003659099999999, "total_magnetization_normalized_vol": null, "total_magnetization_normalized_formula_units": null, "num_magnetic_sites": null, "num_unique_magnetic_sites": null, "types_of_magnetic_species": null, "bulk_modulus": null, "shear_modulus": null, "universal_anisotropy": null, "homogeneous_poisson": null, "e_total": null, "e_ionic": null, "e_electronic": null, "n": null, "e_ij_max": null, "weighted_surface_energy_EV_PER_ANG2": null, "weighted_surface_energy": null, "weighted_work_function": null, "surface_anisotropy": null, "shape_factor": null, "has_reconstructed": null, "possible_species": null, "has_props": null, "theoretical": null, "database_IDs": null, "fields_not_requested": ["builder_meta", "nsites", "elements", "nelements", "composition", "composition_reduced", "chemsys", "symmetry", "property_name", "deprecated", "deprecation_reasons", "last_updated", "origins", "warnings", "task_ids", "uncorrected_energy_per_atom", "equilibrium_reaction_energy_per_atom", "decomposes_to", "xas", "grain_boundaries", "cbm", "vbm", "is_gap_direct", "is_metal", "es_source_calc_id", "bandstructure", "dos", "dos_energy_up", "dos_energy_down", "is_magnetic", "ordering", "total_magnetization_normalized_vol", "total_magnetization_normalized_formula_units", "num_magnetic_sites", "num_unique_magnetic_sites", "types_of_magnetic_species", "bulk_modulus", "shear_modulus", "universal_anisotropy", "homogeneous_poisson", "e_total", "e_ionic", "e_electronic", "n", "e_ij_max", "weighted_surface_energy_EV_PER_ANG2", "weighted_surface_energy", "weighted_work_function", "surface_anisotropy", "shape_factor", "has_reconstructed", "possible_species", "has_props", "theoretical", "database_IDs"]}