{"builder_meta": null, "nsites": null, "elements": null, "nelements": null, "composition": null, "composition_reduced": null, "formula_pretty": "MgSc2", "formula_anonymous": "AB2", "chemsys": null, "volume": 143.76168162845764, "density": 2.638554254048638, "density_atomic": 23.960280271409605, "symmetry": null, "property_name": null, "material_id": "mp-864941", "deprecated": null, "deprecation_reasons": null, "last_updated": null, "origins": null, "warnings": null, "structure": {"@module": "pymatgen.core.structure", "@class": "Structure", "charge": 0, "lattice": {"matrix": [[3.33299208, 0.00016777, -2.9e-07], [1.66691178, 8.24252653, -5.5e-07], [-4.5e-07, -2.5e-07, 5.23302645]], "pbc": [true, true, true], "a": 3.3329920842224605, "b": 8.40938989939561, "c": 5.233026450000025, "alpha": 90.00000740685782, "beta": 90.00000991237702, "gamma": 78.5642097290431, "volume": 143.76168162845764}, "properties": {}, "sites": [{"species": [{"element": "Mg", "occu": 1}], "abc": [0.32556328, 0.34325212, 0.0], "properties": {"magmom": 0.011}, "label": "Mg", "xyz": [1.657270836116796, 2.829319325330229, -2.832020172e-07]}, {"species": [{"element": "Mg", "occu": 1}], "abc": [0.44806984, 0.10068007, 0.49999996], "properties": {"magmom": 0.011}, "label": "Mg", "xyz": [1.6612377977011097, 0.8299331956943238, 2.61651283036465]}, {"species": [{"element": "Sc", "occu": 1}], "abc": [0.99345582, 0.01449923, 3.0000000000000004e-08], "properties": {"magmom": 0.307}, "label": "Sc", "xyz": [3.3353493171778217, 0.11967696002248579, -1.3908597080000002e-07]}, {"species": [{"element": "Sc", "occu": 1}], "abc": [0.66525529, 0.672119399999999, -6.000000000000001e-08], "properties": {"magmom": 0.261}, "label": "Sc", "xyz": [3.3376543581746607, 5.540073595707692, -8.765712910999995e-07]}, {"species": [{"element": "Sc", "occu": 1}], "abc": [0.78556746, 0.43016379, 0.49999996], "properties": {"magmom": 0.307}, "label": "Sc", "xyz": [3.3353349863661808, 3.5457681209731224, 2.616512551274294]}, {"species": [{"element": "Sc", "occu": 1}], "abc": [0.1154183, 0.7726194, 0.50000011], "properties": {"magmom": 0.261}, "label": "Sc", "xyz": [1.6725764341035465, 6.368355140820844, 2.6165133422209323]}]}, "task_ids": null, "uncorrected_energy_per_atom": null, "energy_per_atom": -4.793840571666666, "formation_energy_per_atom": -0.028704496666665004, "energy_above_hull": 0.0, "is_stable": true, "equilibrium_reaction_energy_per_atom": null, "decomposes_to": null, "xas": null, "grain_boundaries": null, "band_gap": 0.0, "cbm": null, "vbm": null, "efermi": 3.56926408, "is_gap_direct": null, "is_metal": null, "es_source_calc_id": null, "bandstructure": null, "dos": null, "dos_energy_up": null, "dos_energy_down": null, "is_magnetic": null, "ordering": null, "total_magnetization": 2.15985, "total_magnetization_normalized_vol": null, "total_magnetization_normalized_formula_units": null, "num_magnetic_sites": null, "num_unique_magnetic_sites": null, "types_of_magnetic_species": null, "bulk_modulus": null, "shear_modulus": null, "universal_anisotropy": null, "homogeneous_poisson": null, "e_total": null, "e_ionic": null, "e_electronic": null, "n": null, "e_ij_max": null, "weighted_surface_energy_EV_PER_ANG2": null, "weighted_surface_energy": null, "weighted_work_function": null, "surface_anisotropy": null, "shape_factor": null, "has_reconstructed": null, "possible_species": null, "has_props": null, "theoretical": null, "database_IDs": null, "fields_not_requested": ["builder_meta", "nsites", "elements", "nelements", "composition", "composition_reduced", "chemsys", "symmetry", "property_name", "deprecated", "deprecation_reasons", "last_updated", "origins", "warnings", "task_ids", "uncorrected_energy_per_atom", "equilibrium_reaction_energy_per_atom", "decomposes_to", "xas", "grain_boundaries", "cbm", "vbm", "is_gap_direct", "is_metal", "es_source_calc_id", "bandstructure", "dos", "dos_energy_up", "dos_energy_down", "is_magnetic", "ordering", "total_magnetization_normalized_vol", "total_magnetization_normalized_formula_units", "num_magnetic_sites", "num_unique_magnetic_sites", "types_of_magnetic_species", "bulk_modulus", "shear_modulus", "universal_anisotropy", "homogeneous_poisson", "e_total", "e_ionic", "e_electronic", "n", "e_ij_max", "weighted_surface_energy_EV_PER_ANG2", "weighted_surface_energy", "weighted_work_function", "surface_anisotropy", "shape_factor", "has_reconstructed", "possible_species", "has_props", "theoretical", "database_IDs"]}