{"builder_meta": null, "nsites": null, "elements": null, "nelements": null, "composition": null, "composition_reduced": null, "formula_pretty": "MgSc5", "formula_anonymous": "AB5", "chemsys": null, "volume": 147.77662580391456, "density": 2.798917897311437, "density_atomic": 24.62943763398576, "symmetry": null, "property_name": null, "material_id": "mp-1185687", "deprecated": null, "deprecation_reasons": null, "last_updated": null, "origins": null, "warnings": null, "structure": {"@module": "pymatgen.core.structure", "@class": "Structure", "charge": 0, "lattice": {"matrix": [[1.64078821, -8.47354586, 0.0], [1.64078821, 8.47354586, 0.0], [0.0, 0.0, 5.3144465]], "pbc": [true, true, true], "a": 8.630942323500843, "b": 8.630942323500843, "c": 5.3144465, "alpha": 90.0, "beta": 90.0, "gamma": 158.0821366362728, "volume": 147.77662580391456}, "properties": {}, "sites": [{"species": [{"element": "Mg", "occu": 1}], "abc": [0.22315249, 0.77684751, 0.5], "properties": {"magmom": 0.017}, "label": "Mg", "xyz": [1.64078821, 4.6917601444236166, 2.65722325]}, {"species": [{"element": "Sc", "occu": 1}], "abc": [0.99877226, 0.00122774, -0.0], "properties": {"magmom": 0.253}, "label": "Sc", "xyz": [1.64078821, -8.452739237611686, 0.0]}, {"species": [{"element": "Sc", "occu": 1}], "abc": [0.66817064, 0.33182936, 0.0], "properties": {"magmom": 0.357}, "label": "Sc", "xyz": [1.6407882100000002, -2.850003260691101, 0.0]}, {"species": [{"element": "Sc", "occu": 1}], "abc": [0.33403986, 0.66596014, -0.0], "properties": {"magmom": 0.425}, "label": "Sc", "xyz": [1.6407882100000002, 2.8125417144440408, 0.0]}, {"species": [{"element": "Sc", "occu": 1}], "abc": [0.55420528, 0.44579472000000003, 0.5], "properties": {"magmom": 0.381}, "label": "Sc", "xyz": [1.6407882100000002, -0.9186218518682816, 2.65722325]}, {"species": [{"element": "Sc", "occu": 1}], "abc": [0.88832847, 0.11167153, 0.5], "properties": {"magmom": 0.40900000000000003}, "label": "Sc", "xyz": [1.6407882100000002, -6.581038198577269, 2.65722325]}]}, "task_ids": null, "uncorrected_energy_per_atom": null, "energy_per_atom": -5.530090501666667, "formation_energy_per_atom": 0.018712088333334, "energy_above_hull": 0.033064336666666, "is_stable": false, "equilibrium_reaction_energy_per_atom": null, "decomposes_to": null, "xas": null, "grain_boundaries": null, "band_gap": 0.0, "cbm": null, "vbm": null, "efermi": 3.56723875, "is_gap_direct": null, "is_metal": null, "es_source_calc_id": null, "bandstructure": null, "dos": null, "dos_energy_up": null, "dos_energy_down": null, "is_magnetic": null, "ordering": null, "total_magnetization": 3.3384062, "total_magnetization_normalized_vol": null, "total_magnetization_normalized_formula_units": null, "num_magnetic_sites": null, "num_unique_magnetic_sites": null, "types_of_magnetic_species": null, "bulk_modulus": null, "shear_modulus": null, "universal_anisotropy": null, "homogeneous_poisson": null, "e_total": null, "e_ionic": null, "e_electronic": null, "n": null, "e_ij_max": null, "weighted_surface_energy_EV_PER_ANG2": null, "weighted_surface_energy": null, "weighted_work_function": null, "surface_anisotropy": null, "shape_factor": null, "has_reconstructed": null, "possible_species": null, "has_props": null, "theoretical": null, "database_IDs": null, "fields_not_requested": ["builder_meta", "nsites", "elements", "nelements", "composition", "composition_reduced", "chemsys", "symmetry", "property_name", "deprecated", "deprecation_reasons", "last_updated", "origins", "warnings", "task_ids", "uncorrected_energy_per_atom", "equilibrium_reaction_energy_per_atom", "decomposes_to", "xas", "grain_boundaries", "cbm", "vbm", "is_gap_direct", "is_metal", "es_source_calc_id", "bandstructure", "dos", "dos_energy_up", "dos_energy_down", "is_magnetic", "ordering", "total_magnetization_normalized_vol", "total_magnetization_normalized_formula_units", "num_magnetic_sites", "num_unique_magnetic_sites", "types_of_magnetic_species", "bulk_modulus", "shear_modulus", "universal_anisotropy", "homogeneous_poisson", "e_total", "e_ionic", "e_electronic", "n", "e_ij_max", "weighted_surface_energy_EV_PER_ANG2", "weighted_surface_energy", "weighted_work_function", "surface_anisotropy", "shape_factor", "has_reconstructed", "possible_species", "has_props", "theoretical", "database_IDs"]}