{"builder_meta": null, "nsites": null, "elements": null, "nelements": null, "composition": null, "composition_reduced": null, "formula_pretty": "MgSc3", "formula_anonymous": "AB3", "chemsys": null, "volume": 97.297761824829, "density": 2.716532646881085, "density_atomic": 24.32444045620725, "symmetry": null, "property_name": null, "material_id": "mp-1185968", "deprecated": null, "deprecation_reasons": null, "last_updated": null, "origins": null, "warnings": null, "structure": {"@module": "pymatgen.core.structure", "@class": "Structure", "charge": 0, "lattice": {"matrix": [[-1.63131077, 2.81324018, 5.3002864800000005], [1.63131077, -2.81324018, 5.3002864800000005], [1.63131077, 2.81324018, -5.3002864800000005]], "pbc": [true, true, true], "a": 6.218402681457291, "b": 6.218402681457291, "c": 6.218402681457291, "alpha": 149.5825674467396, "beta": 126.20374070484218, "gamma": 63.06251772867868, "volume": 97.29776182482901}, "properties": {}, "sites": [{"species": [{"element": "Mg", "occu": 1}], "abc": [0.16844875, 0.5, 0.66844875], "properties": {"magmom": 0.004}, "label": "Mg", "xyz": [1.63131077, 0.9477735835415503, 0.0]}, {"species": [{"element": "Sc", "occu": 1}], "abc": [0.76084854, 0.75597452, 0.00487502], "properties": {"magmom": 0.017}, "label": "Sc", "xyz": [1.6313107699603147e-06, 0.027426391044427033, 8.013757754874499]}, {"species": [{"element": "Sc", "occu": 1}], "abc": [0.2489015, 0.24402548000000002, 0.00487502], "properties": {"magmom": 0.017}, "label": "Sc", "xyz": [-1.6313107699186813e-06, 0.0274320175247871, 2.5868152051255007]}, {"species": [{"element": "Sc", "occu": 1}], "abc": [0.6551812, 0.0, 0.6551812], "properties": {"magmom": 0.34500000000000003}, "label": "Sc", "xyz": [0.0, 3.6863641540412324, 0.0]}]}, "task_ids": null, "uncorrected_energy_per_atom": null, "energy_per_atom": -5.1286963275, "formation_energy_per_atom": 0.028273004999999, "energy_above_hull": 0.049801377499999, "is_stable": false, "equilibrium_reaction_energy_per_atom": null, "decomposes_to": null, "xas": null, "grain_boundaries": null, "band_gap": 0.0, "cbm": null, "vbm": null, "efermi": 3.5647119700000003, "is_gap_direct": null, "is_metal": null, "es_source_calc_id": null, "bandstructure": null, "dos": null, "dos_energy_up": null, "dos_energy_down": null, "is_magnetic": null, "ordering": null, "total_magnetization": 0.7279994, "total_magnetization_normalized_vol": null, "total_magnetization_normalized_formula_units": null, "num_magnetic_sites": null, "num_unique_magnetic_sites": null, "types_of_magnetic_species": null, "bulk_modulus": null, "shear_modulus": null, "universal_anisotropy": null, "homogeneous_poisson": null, "e_total": null, "e_ionic": null, "e_electronic": null, "n": null, "e_ij_max": null, "weighted_surface_energy_EV_PER_ANG2": null, "weighted_surface_energy": null, "weighted_work_function": null, "surface_anisotropy": null, "shape_factor": null, "has_reconstructed": null, "possible_species": null, "has_props": null, "theoretical": null, "database_IDs": null, "fields_not_requested": ["builder_meta", "nsites", "elements", "nelements", "composition", "composition_reduced", "chemsys", "symmetry", "property_name", "deprecated", "deprecation_reasons", "last_updated", "origins", "warnings", "task_ids", "uncorrected_energy_per_atom", "equilibrium_reaction_energy_per_atom", "decomposes_to", "xas", "grain_boundaries", "cbm", "vbm", "is_gap_direct", "is_metal", "es_source_calc_id", "bandstructure", "dos", "dos_energy_up", "dos_energy_down", "is_magnetic", "ordering", "total_magnetization_normalized_vol", "total_magnetization_normalized_formula_units", "num_magnetic_sites", "num_unique_magnetic_sites", "types_of_magnetic_species", "bulk_modulus", "shear_modulus", "universal_anisotropy", "homogeneous_poisson", "e_total", "e_ionic", "e_electronic", "n", "e_ij_max", "weighted_surface_energy_EV_PER_ANG2", "weighted_surface_energy", "weighted_work_function", "surface_anisotropy", "shape_factor", "has_reconstructed", "possible_species", "has_props", "theoretical", "database_IDs"]}