{
  "builder_meta": null,
  "nsites": null,
  "elements": null,
  "nelements": null,
  "composition": null,
  "composition_reduced": null,
  "formula_pretty": "MgSe",
  "formula_anonymous": "AB",
  "chemsys": null,
  "volume": 105.19956856773545,
  "density": 3.260005132094054,
  "density_atomic": 26.299892141933864,
  "symmetry": null,
  "property_name": null,
  "material_id": "mp-1018040",
  "deprecated": null,
  "deprecation_reasons": null,
  "last_updated": null,
  "origins": null,
  "warnings": null,
  "structure": {
    "@module": "pymatgen.core.structure",
    "@class": "Structure",
    "charge": 0,
    "lattice": {
      "matrix": [
        [4.22160025, -8.195000000000001e-5, -0.0],
        [-2.11087065, 3.6556651000000002, 0.0],
        [0.0, 1e-6, 6.81671783]
      ],
      "pbc": [true, true, true],
      "a": 4.221600250795409,
      "b": 4.221334175872532,
      "c": 6.816717830000074,
      "alpha": 89.99999272112966,
      "beta": 90.00000000016315,
      "gamma": 120.00430263671636,
      "volume": 105.19956856773547
    },
    "properties": {},
    "sites": [
      {
        "species": [{ "element": "Mg", "occu": 1 }],
        "abc": [0.6666805100000001, 0.3333363, 0.49831224],
        "properties": { "magmom": -0.0 },
        "label": "Mg",
        "xyz": [2.110828795436533, 1.2185117423175753, 3.3968539313152393]
      },
      {
        "species": [{ "element": "Mg", "occu": 1 }],
        "abc": [0.33331949, 0.666662699999999, 0.9983122400000001],
        "properties": { "magmom": -0.0 },
        "label": "Mg",
        "xyz": [-9.708456588031211e-5, 2.437069248641801, 6.805212846315239]
      },
      {
        "species": [{ "element": "Se", "occu": 1 }],
        "abc": [0.66668165, 0.33336723, 0.87668776],
        "properties": { "magmom": 0.0 },
        "label": "Se",
        "xyz": [2.1107683188316133, 1.2186251903212155, 5.976133084934761]
      },
      {
        "species": [{ "element": "Se", "occu": 1 }],
        "abc": [0.33331935, 0.66663377, 0.37668776],
        "properties": { "magmom": 0.0 },
        "label": "Se",
        "xyz": [-3.6608102012891663e-5, 2.4369628686374547, 2.5677741699347605]
      }
    ]
  },
  "task_ids": null,
  "uncorrected_energy_per_atom": null,
  "energy_per_atom": -4.03748746,
  "formation_energy_per_atom": -1.474296713671875,
  "energy_above_hull": 0.0,
  "is_stable": true,
  "equilibrium_reaction_energy_per_atom": null,
  "decomposes_to": null,
  "xas": null,
  "grain_boundaries": null,
  "band_gap": 2.5765000000000002,
  "cbm": null,
  "vbm": null,
  "efermi": 0.58356759,
  "is_gap_direct": null,
  "is_metal": null,
  "es_source_calc_id": null,
  "bandstructure": null,
  "dos": null,
  "dos_energy_up": null,
  "dos_energy_down": null,
  "is_magnetic": null,
  "ordering": null,
  "total_magnetization": 0.0,
  "total_magnetization_normalized_vol": null,
  "total_magnetization_normalized_formula_units": null,
  "num_magnetic_sites": null,
  "num_unique_magnetic_sites": null,
  "types_of_magnetic_species": null,
  "bulk_modulus": null,
  "shear_modulus": null,
  "universal_anisotropy": null,
  "homogeneous_poisson": null,
  "e_total": null,
  "e_ionic": null,
  "e_electronic": null,
  "n": null,
  "e_ij_max": null,
  "weighted_surface_energy_EV_PER_ANG2": null,
  "weighted_surface_energy": null,
  "weighted_work_function": null,
  "surface_anisotropy": null,
  "shape_factor": null,
  "has_reconstructed": null,
  "possible_species": null,
  "has_props": null,
  "theoretical": null,
  "database_IDs": null,
  "fields_not_requested": [
    "builder_meta",
    "nsites",
    "elements",
    "nelements",
    "composition",
    "composition_reduced",
    "chemsys",
    "symmetry",
    "property_name",
    "deprecated",
    "deprecation_reasons",
    "last_updated",
    "origins",
    "warnings",
    "task_ids",
    "uncorrected_energy_per_atom",
    "equilibrium_reaction_energy_per_atom",
    "decomposes_to",
    "xas",
    "grain_boundaries",
    "cbm",
    "vbm",
    "is_gap_direct",
    "is_metal",
    "es_source_calc_id",
    "bandstructure",
    "dos",
    "dos_energy_up",
    "dos_energy_down",
    "is_magnetic",
    "ordering",
    "total_magnetization_normalized_vol",
    "total_magnetization_normalized_formula_units",
    "num_magnetic_sites",
    "num_unique_magnetic_sites",
    "types_of_magnetic_species",
    "bulk_modulus",
    "shear_modulus",
    "universal_anisotropy",
    "homogeneous_poisson",
    "e_total",
    "e_ionic",
    "e_electronic",
    "n",
    "e_ij_max",
    "weighted_surface_energy_EV_PER_ANG2",
    "weighted_surface_energy",
    "weighted_work_function",
    "surface_anisotropy",
    "shape_factor",
    "has_reconstructed",
    "possible_species",
    "has_props",
    "theoretical",
    "database_IDs"
  ]
}
