{"builder_meta": null, "nsites": null, "elements": null, "nelements": null, "composition": null, "composition_reduced": null, "formula_pretty": "MgSi3", "formula_anonymous": "AB3", "chemsys": null, "volume": 130.86159897796756, "density": 2.755133870999804, "density_atomic": 16.357699872245945, "symmetry": null, "property_name": null, "material_id": "mp-1185967", "deprecated": null, "deprecation_reasons": null, "last_updated": null, "origins": null, "warnings": null, "structure": {"@module": "pymatgen.core.structure", "@class": "Structure", "charge": 0, "lattice": {"matrix": [[2.829657, -4.901109, 0.0], [2.829657, 4.901109, 0.0], [0.0, 0.0, 4.717958]], "pbc": [true, true, true], "a": 5.659313400716557, "b": 5.659313400716557, "c": 4.717958, "alpha": 90.0, "beta": 90.0, "gamma": 119.99999299415471, "volume": 130.86159897796756}, "properties": {}, "sites": [{"species": [{"element": "Mg", "occu": 1}], "abc": [0.666667, 0.333333, 0.25], "properties": {"magmom": 0.0}, "label": "Mg", "xyz": [2.829657, -1.633706267406, 1.1794895]}, {"species": [{"element": "Mg", "occu": 1}], "abc": [0.333333, 0.666667, 0.75], "properties": {"magmom": -0.0}, "label": "Mg", "xyz": [2.829657, 1.633706267406, 3.5384685000000005]}, {"species": [{"element": "Si", "occu": 1}], "abc": [0.153092, 0.306183, 0.25], "properties": {"magmom": 0.0}, "label": "Si", "xyz": [1.299590718675, 0.750315677919, 1.1794895]}, {"species": [{"element": "Si", "occu": 1}], "abc": [0.153092, 0.846908, 0.25], "properties": {"magmom": 0.0}, "label": "Si", "xyz": [2.829657, 3.4004678419439998, 1.1794895]}, {"species": [{"element": "Si", "occu": 1}], "abc": [0.693817, 0.846908, 0.25], "properties": {"magmom": 0.0}, "label": "Si", "xyz": [4.359723281325, 0.7503156779189997, 1.1794895]}, {"species": [{"element": "Si", "occu": 1}], "abc": [0.306183, 0.153092, 0.75], "properties": {"magmom": 0.0}, "label": "Si", "xyz": [1.299590718675, -0.750315677919, 3.5384685000000005]}, {"species": [{"element": "Si", "occu": 1}], "abc": [0.846908, 0.153092, 0.75], "properties": {"magmom": -0.0}, "label": "Si", "xyz": [2.829657, -3.4004678419439998, 3.5384685000000005]}, {"species": [{"element": "Si", "occu": 1}], "abc": [0.846908, 0.693817, 0.75], "properties": {"magmom": 0.0}, "label": "Si", "xyz": [4.359723281325, -0.7503156779189997, 3.5384685000000005]}]}, "task_ids": null, "uncorrected_energy_per_atom": null, "energy_per_atom": -4.110064755, "formation_energy_per_atom": 0.366541271249999, "energy_above_hull": 0.407265807499999, "is_stable": false, "equilibrium_reaction_energy_per_atom": null, "decomposes_to": null, "xas": null, "grain_boundaries": null, "band_gap": 0.0, "cbm": null, "vbm": null, "efermi": 8.01517547, "is_gap_direct": null, "is_metal": null, "es_source_calc_id": null, "bandstructure": null, "dos": null, "dos_energy_up": null, "dos_energy_down": null, "is_magnetic": null, "ordering": null, "total_magnetization": 0.0009762999999990001, "total_magnetization_normalized_vol": null, "total_magnetization_normalized_formula_units": null, "num_magnetic_sites": null, "num_unique_magnetic_sites": null, "types_of_magnetic_species": null, "bulk_modulus": null, "shear_modulus": null, "universal_anisotropy": null, "homogeneous_poisson": null, "e_total": null, "e_ionic": null, "e_electronic": null, "n": null, "e_ij_max": null, "weighted_surface_energy_EV_PER_ANG2": null, "weighted_surface_energy": null, "weighted_work_function": null, "surface_anisotropy": null, "shape_factor": null, "has_reconstructed": null, "possible_species": null, "has_props": null, "theoretical": null, "database_IDs": null, "fields_not_requested": ["builder_meta", "nsites", "elements", "nelements", "composition", "composition_reduced", "chemsys", "symmetry", "property_name", "deprecated", "deprecation_reasons", "last_updated", "origins", "warnings", "task_ids", "uncorrected_energy_per_atom", "equilibrium_reaction_energy_per_atom", "decomposes_to", "xas", "grain_boundaries", "cbm", "vbm", "is_gap_direct", "is_metal", "es_source_calc_id", "bandstructure", "dos", "dos_energy_up", "dos_energy_down", "is_magnetic", "ordering", "total_magnetization_normalized_vol", "total_magnetization_normalized_formula_units", "num_magnetic_sites", "num_unique_magnetic_sites", "types_of_magnetic_species", "bulk_modulus", "shear_modulus", "universal_anisotropy", "homogeneous_poisson", "e_total", "e_ionic", "e_electronic", "n", "e_ij_max", "weighted_surface_energy_EV_PER_ANG2", "weighted_surface_energy", "weighted_work_function", "surface_anisotropy", "shape_factor", "has_reconstructed", "possible_species", "has_props", "theoretical", "database_IDs"]}