{"builder_meta": null, "nsites": null, "elements": null, "nelements": null, "composition": null, "composition_reduced": null, "formula_pretty": "MgSi", "formula_anonymous": "AB", "chemsys": null, "volume": 230.059130295984, "density": 2.2688898768794292, "density_atomic": 19.171594191332, "symmetry": null, "property_name": null, "material_id": "mp-1073794", "deprecated": null, "deprecation_reasons": null, "last_updated": null, "origins": null, "warnings": null, "structure": {"@module": "pymatgen.core.structure", "@class": "Structure", "charge": 0, "lattice": {"matrix": [[3.614307, 0.0, 0.0], [0.0, 5.186891, 0.0], [0.0, 1.600705, 12.271773]], "pbc": [true, true, true], "a": 3.614307, "b": 5.186891, "c": 12.375729031477459, "alpha": 82.56841318715921, "beta": 90.0, "gamma": 90.0, "volume": 230.059130295984}, "properties": {}, "sites": [{"species": [{"element": "Mg", "occu": 1}], "abc": [0.75, 0.255344, 0.054809], "properties": {"magmom": 0.0}, "label": "Mg", "xyz": [2.71073025, 1.412174535849, 0.6726036063569999]}, {"species": [{"element": "Mg", "occu": 1}], "abc": [0.75, 0.427094, 0.387067], "properties": {"magmom": -0.0}, "label": "Mg", "xyz": [2.71073025, 2.834870106989, 4.749998359790999]}, {"species": [{"element": "Mg", "occu": 1}], "abc": [0.25, 0.572906, 0.612933], "properties": {"magmom": -0.0}, "label": "Mg", "xyz": [0.90357675, 3.9527258930110003, 7.521774640208999]}, {"species": [{"element": "Mg", "occu": 1}], "abc": [0.75, 0.032922, 0.72084], "properties": {"magmom": -0.0}, "label": "Mg", "xyz": [2.71073025, 1.324615017702, 8.84598484932]}, {"species": [{"element": "Mg", "occu": 1}], "abc": [0.25, 0.967078, 0.27916], "properties": {"magmom": -0.0}, "label": "Mg", "xyz": [0.90357675, 5.462980982298, 3.4257881506800003]}, {"species": [{"element": "Mg", "occu": 1}], "abc": [0.25, 0.744656, 0.945191], "properties": {"magmom": 0.0}, "label": "Mg", "xyz": [0.90357675, 5.375421464151, 11.599169393642999]}, {"species": [{"element": "Si", "occu": 1}], "abc": [0.25, 0.260152999999999, 0.874447], "properties": {"magmom": -0.0}, "label": "Si", "xyz": [0.90357675, 2.749116939457995, 10.731015084531]}, {"species": [{"element": "Si", "occu": 1}], "abc": [0.25, 0.106163, 0.538084], "properties": {"magmom": -0.0}, "label": "Si", "xyz": [0.90357675, 1.4119696584530002, 6.603244702932]}, {"species": [{"element": "Si", "occu": 1}], "abc": [0.25, 0.483363999999999, 0.20733000000000001], "properties": {"magmom": -0.0}, "label": "Si", "xyz": [0.90357675, 2.839030548973995, 2.54430669609]}, {"species": [{"element": "Si", "occu": 1}], "abc": [0.75, 0.739846999999999, 0.125553], "properties": {"magmom": -0.0}, "label": "Si", "xyz": [2.71073025, 4.038479060541995, 1.5407579154689999]}, {"species": [{"element": "Si", "occu": 1}], "abc": [0.75, 0.516636, 0.7926700000000001], "properties": {"magmom": -0.0}, "label": "Si", "xyz": [2.71073025, 3.948565451026, 9.727466303910001]}, {"species": [{"element": "Si", "occu": 1}], "abc": [0.75, 0.893837, 0.461916], "properties": {"magmom": -0.0}, "label": "Si", "xyz": [2.71073025, 5.375626341547, 5.668528297068]}]}, "task_ids": null, "uncorrected_energy_per_atom": null, "energy_per_atom": -3.5102306333333333, "formation_energy_per_atom": 0.017663389166666002, "energy_above_hull": 0.09911246166666601, "is_stable": false, "equilibrium_reaction_energy_per_atom": null, "decomposes_to": null, "xas": null, "grain_boundaries": null, "band_gap": 0.0, "cbm": null, "vbm": null, "efermi": 5.08321931, "is_gap_direct": null, "is_metal": null, "es_source_calc_id": null, "bandstructure": null, "dos": null, "dos_energy_up": null, "dos_energy_down": null, "is_magnetic": null, "ordering": null, "total_magnetization": 0.0036806, "total_magnetization_normalized_vol": null, "total_magnetization_normalized_formula_units": null, "num_magnetic_sites": null, "num_unique_magnetic_sites": null, "types_of_magnetic_species": null, "bulk_modulus": null, "shear_modulus": null, "universal_anisotropy": null, "homogeneous_poisson": null, "e_total": null, "e_ionic": null, "e_electronic": null, "n": null, "e_ij_max": null, "weighted_surface_energy_EV_PER_ANG2": null, "weighted_surface_energy": null, "weighted_work_function": null, "surface_anisotropy": null, "shape_factor": null, "has_reconstructed": null, "possible_species": null, "has_props": null, "theoretical": null, "database_IDs": null, "fields_not_requested": ["builder_meta", "nsites", "elements", "nelements", "composition", "composition_reduced", "chemsys", "symmetry", "property_name", "deprecated", "deprecation_reasons", "last_updated", "origins", "warnings", "task_ids", "uncorrected_energy_per_atom", "equilibrium_reaction_energy_per_atom", "decomposes_to", "xas", "grain_boundaries", "cbm", "vbm", "is_gap_direct", "is_metal", "es_source_calc_id", "bandstructure", "dos", "dos_energy_up", "dos_energy_down", "is_magnetic", "ordering", "total_magnetization_normalized_vol", "total_magnetization_normalized_formula_units", "num_magnetic_sites", "num_unique_magnetic_sites", "types_of_magnetic_species", "bulk_modulus", "shear_modulus", "universal_anisotropy", "homogeneous_poisson", "e_total", "e_ionic", "e_electronic", "n", "e_ij_max", "weighted_surface_energy_EV_PER_ANG2", "weighted_surface_energy", "weighted_work_function", "surface_anisotropy", "shape_factor", "has_reconstructed", "possible_species", "has_props", "theoretical", "database_IDs"]}