{
  "builder_meta": null,
  "nsites": null,
  "elements": null,
  "nelements": null,
  "composition": null,
  "composition_reduced": null,
  "formula_pretty": "MgSn2",
  "formula_anonymous": "AB2",
  "chemsys": null,
  "volume": 154.66900305168403,
  "density": 5.6198020111458,
  "density_atomic": 25.77816717528067,
  "symmetry": null,
  "property_name": null,
  "material_id": "mp-1094233",
  "deprecated": null,
  "deprecation_reasons": null,
  "last_updated": null,
  "origins": null,
  "warnings": null,
  "structure": {
    "@module": "pymatgen.core.structure",
    "@class": "Structure",
    "charge": 0,
    "lattice": {
      "matrix": [
        [2.922457, 4.845051, 0.0],
        [-2.922457, 4.845051, 0.0],
        [0.0, 3.942601, 5.461686999999999]
      ],
      "pbc": [true, true, true],
      "a": 5.658204141726419,
      "b": 5.658204141726419,
      "c": 6.736032031631826,
      "alpha": 59.92154249352284,
      "beta": 59.92154249352284,
      "gamma": 62.19541110985154,
      "volume": 154.66900305168397
    },
    "properties": {},
    "sites": [
      {
        "species": [{ "element": "Mg", "occu": 1 }],
        "abc": [0.086243, 0.913756999999999, 0.25],
        "properties": { "magmom": 0.0 },
        "label": "Mg",
        "xyz": [-2.4183740818979973, 5.830701249999995, 1.3654217499999997]
      },
      {
        "species": [{ "element": "Mg", "occu": 1 }],
        "abc": [0.913756999999999, 0.086243, 0.75],
        "properties": { "magmom": 0.0 },
        "label": "Mg",
        "xyz": [2.4183740818979973, 7.802001749999995, 4.096265249999999]
      },
      {
        "species": [{ "element": "Sn", "occu": 1 }],
        "abc": [0.241678999999999, 0.42841, 0.7423200000000001],
        "properties": { "magmom": 0.0 },
        "label": "Sn",
        "xyz": [-0.5457133180670029, 6.173286953858995, 4.05431949384]
      },
      {
        "species": [{ "element": "Sn", "occu": 1 }],
        "abc": [0.57159, 0.758320999999999, 0.75768],
        "properties": { "magmom": 0.0 },
        "label": "Sn",
        "xyz": [-0.5457133180669973, 9.430716546140994, 4.138211006159999]
      },
      {
        "species": [{ "element": "Sn", "occu": 1 }],
        "abc": [0.42841, 0.241678999999999, 0.24232],
        "properties": { "magmom": 0.0 },
        "label": "Sn",
        "xyz": [0.5457133180670029, 4.2019864538589955, 1.3234759938399998]
      },
      {
        "species": [{ "element": "Sn", "occu": 1 }],
        "abc": [0.758320999999999, 0.57159, 0.25768],
        "properties": { "magmom": 0.0 },
        "label": "Sn",
        "xyz": [0.5457133180669973, 7.459416046140994, 1.4073675061599997]
      }
    ]
  },
  "task_ids": null,
  "uncorrected_energy_per_atom": null,
  "energy_per_atom": -3.239433266666667,
  "formation_energy_per_atom": -0.022895358333332002,
  "energy_above_hull": 0.060654030833333004,
  "is_stable": false,
  "equilibrium_reaction_energy_per_atom": null,
  "decomposes_to": null,
  "xas": null,
  "grain_boundaries": null,
  "band_gap": 0.0,
  "cbm": null,
  "vbm": null,
  "efermi": 6.36113852,
  "is_gap_direct": null,
  "is_metal": null,
  "es_source_calc_id": null,
  "bandstructure": null,
  "dos": null,
  "dos_energy_up": null,
  "dos_energy_down": null,
  "is_magnetic": null,
  "ordering": null,
  "total_magnetization": 0.0031338,
  "total_magnetization_normalized_vol": null,
  "total_magnetization_normalized_formula_units": null,
  "num_magnetic_sites": null,
  "num_unique_magnetic_sites": null,
  "types_of_magnetic_species": null,
  "bulk_modulus": null,
  "shear_modulus": null,
  "universal_anisotropy": null,
  "homogeneous_poisson": null,
  "e_total": null,
  "e_ionic": null,
  "e_electronic": null,
  "n": null,
  "e_ij_max": null,
  "weighted_surface_energy_EV_PER_ANG2": null,
  "weighted_surface_energy": null,
  "weighted_work_function": null,
  "surface_anisotropy": null,
  "shape_factor": null,
  "has_reconstructed": null,
  "possible_species": null,
  "has_props": null,
  "theoretical": null,
  "database_IDs": null,
  "fields_not_requested": [
    "builder_meta",
    "nsites",
    "elements",
    "nelements",
    "composition",
    "composition_reduced",
    "chemsys",
    "symmetry",
    "property_name",
    "deprecated",
    "deprecation_reasons",
    "last_updated",
    "origins",
    "warnings",
    "task_ids",
    "uncorrected_energy_per_atom",
    "equilibrium_reaction_energy_per_atom",
    "decomposes_to",
    "xas",
    "grain_boundaries",
    "cbm",
    "vbm",
    "is_gap_direct",
    "is_metal",
    "es_source_calc_id",
    "bandstructure",
    "dos",
    "dos_energy_up",
    "dos_energy_down",
    "is_magnetic",
    "ordering",
    "total_magnetization_normalized_vol",
    "total_magnetization_normalized_formula_units",
    "num_magnetic_sites",
    "num_unique_magnetic_sites",
    "types_of_magnetic_species",
    "bulk_modulus",
    "shear_modulus",
    "universal_anisotropy",
    "homogeneous_poisson",
    "e_total",
    "e_ionic",
    "e_electronic",
    "n",
    "e_ij_max",
    "weighted_surface_energy_EV_PER_ANG2",
    "weighted_surface_energy",
    "weighted_work_function",
    "surface_anisotropy",
    "shape_factor",
    "has_reconstructed",
    "possible_species",
    "has_props",
    "theoretical",
    "database_IDs"
  ]
}
