{"builder_meta": null, "nsites": null, "elements": null, "nelements": null, "composition": null, "composition_reduced": null, "formula_pretty": "MgTa3", "formula_anonymous": "AB3", "chemsys": null, "volume": 148.39551764986726, "density": 12.69273476994272, "density_atomic": 18.549439706233407, "symmetry": null, "property_name": null, "material_id": "mp-1185998", "deprecated": null, "deprecation_reasons": null, "last_updated": null, "origins": null, "warnings": null, "structure": {"@module": "pymatgen.core.structure", "@class": "Structure", "charge": 0, "lattice": {"matrix": [[2.975838, -5.154302, 0.0], [2.975838, 5.154302, 0.0], [0.0, 0.0, 4.837396]], "pbc": [true, true, true], "a": 5.951675470776948, "b": 5.951675470776948, "c": 4.837396, "alpha": 90.0, "beta": 90.0, "gamma": 119.99999411709929, "volume": 148.39551764986726}, "properties": {}, "sites": [{"species": [{"element": "Mg", "occu": 1}], "abc": [0.666667, 0.333333, 0.25], "properties": {"magmom": -0.0}, "label": "Mg", "xyz": [2.975838, -1.7181041028680004, 1.209349]}, {"species": [{"element": "Mg", "occu": 1}], "abc": [0.333333, 0.666667, 0.75], "properties": {"magmom": 0.0}, "label": "Mg", "xyz": [2.975838, 1.7181041028680004, 3.628047]}, {"species": [{"element": "Ta", "occu": 1}], "abc": [0.162383, 0.324766, 0.25], "properties": {"magmom": 0.004}, "label": "Ta", "xyz": [1.449676505862, 0.836971021666, 1.209349]}, {"species": [{"element": "Ta", "occu": 1}], "abc": [0.162383, 0.837617, 0.25], "properties": {"magmom": 0.006}, "label": "Ta", "xyz": [2.975838, 3.480359956668, 1.209349]}, {"species": [{"element": "Ta", "occu": 1}], "abc": [0.675234, 0.837617, 0.25], "properties": {"magmom": 0.004}, "label": "Ta", "xyz": [4.5019994941379995, 0.8369710216659993, 1.209349]}, {"species": [{"element": "Ta", "occu": 1}], "abc": [0.324766, 0.162383, 0.75], "properties": {"magmom": 0.001}, "label": "Ta", "xyz": [1.449676505862, -0.836971021666, 3.628047]}, {"species": [{"element": "Ta", "occu": 1}], "abc": [0.837617, 0.162383, 0.75], "properties": {"magmom": 0.004}, "label": "Ta", "xyz": [2.975838, -3.480359956668, 3.628047]}, {"species": [{"element": "Ta", "occu": 1}], "abc": [0.837617, 0.675234, 0.75], "properties": {"magmom": 0.002}, "label": "Ta", "xyz": [4.5019994941379995, -0.8369710216659993, 3.628047]}]}, "task_ids": null, "uncorrected_energy_per_atom": null, "energy_per_atom": -8.99641084, "formation_energy_per_atom": 0.311402320750001, "energy_above_hull": 0.311402320750001, "is_stable": false, "equilibrium_reaction_energy_per_atom": null, "decomposes_to": null, "xas": null, "grain_boundaries": null, "band_gap": 0.0, "cbm": null, "vbm": null, "efermi": 5.34724033, "is_gap_direct": null, "is_metal": null, "es_source_calc_id": null, "bandstructure": null, "dos": null, "dos_energy_up": null, "dos_energy_down": null, "is_magnetic": null, "ordering": null, "total_magnetization": 0.037634, "total_magnetization_normalized_vol": null, "total_magnetization_normalized_formula_units": null, "num_magnetic_sites": null, "num_unique_magnetic_sites": null, "types_of_magnetic_species": null, "bulk_modulus": null, "shear_modulus": null, "universal_anisotropy": null, "homogeneous_poisson": null, "e_total": null, "e_ionic": null, "e_electronic": null, "n": null, "e_ij_max": null, "weighted_surface_energy_EV_PER_ANG2": null, "weighted_surface_energy": null, "weighted_work_function": null, "surface_anisotropy": null, "shape_factor": null, "has_reconstructed": null, "possible_species": null, "has_props": null, "theoretical": null, "database_IDs": null, "fields_not_requested": ["builder_meta", "nsites", "elements", "nelements", "composition", "composition_reduced", "chemsys", "symmetry", "property_name", "deprecated", "deprecation_reasons", "last_updated", "origins", "warnings", "task_ids", "uncorrected_energy_per_atom", "equilibrium_reaction_energy_per_atom", "decomposes_to", "xas", "grain_boundaries", "cbm", "vbm", "is_gap_direct", "is_metal", "es_source_calc_id", "bandstructure", "dos", "dos_energy_up", "dos_energy_down", "is_magnetic", "ordering", "total_magnetization_normalized_vol", "total_magnetization_normalized_formula_units", "num_magnetic_sites", "num_unique_magnetic_sites", "types_of_magnetic_species", "bulk_modulus", "shear_modulus", "universal_anisotropy", "homogeneous_poisson", "e_total", "e_ionic", "e_electronic", "n", "e_ij_max", "weighted_surface_energy_EV_PER_ANG2", "weighted_surface_energy", "weighted_work_function", "surface_anisotropy", "shape_factor", "has_reconstructed", "possible_species", "has_props", "theoretical", "database_IDs"]}