{"builder_meta": null, "nsites": null, "elements": null, "nelements": null, "composition": null, "composition_reduced": null, "formula_pretty": "MgTe2", "formula_anonymous": "AB2", "chemsys": null, "volume": 356.0161089071634, "density": 5.214696303880582, "density_atomic": 29.668009075596952, "symmetry": null, "property_name": null, "material_id": "mp-2604", "deprecated": null, "deprecation_reasons": null, "last_updated": null, "origins": null, "warnings": null, "structure": {"@module": "pymatgen.core.structure", "@class": "Structure", "charge": 0, "lattice": {"matrix": [[7.08744796, -0.0, 0.0], [-0.0, 7.08744796, -0.0], [-0.0, -0.0, 7.08744796]], "pbc": [true, true, true], "a": 7.08744796, "b": 7.08744796, "c": 7.08744796, "alpha": 90.0, "beta": 90.0, "gamma": 90.0, "volume": 356.0161089071634}, "properties": {}, "sites": [{"species": [{"element": "Mg", "occu": 1}], "abc": [-0.0, -0.0, -0.0], "properties": {"magmom": -0.0}, "label": "Mg", "xyz": [0.0, 0.0, 0.0]}, {"species": [{"element": "Mg", "occu": 1}], "abc": [0.5, -0.0, 0.5], "properties": {"magmom": -0.0}, "label": "Mg", "xyz": [3.54372398, 0.0, 3.54372398]}, {"species": [{"element": "Mg", "occu": 1}], "abc": [0.5, 0.5, -0.0], "properties": {"magmom": -0.0}, "label": "Mg", "xyz": [3.54372398, 3.54372398, 0.0]}, {"species": [{"element": "Mg", "occu": 1}], "abc": [-0.0, 0.5, 0.5], "properties": {"magmom": -0.0}, "label": "Mg", "xyz": [0.0, 3.54372398, 3.54372398]}, {"species": [{"element": "Te", "occu": 1}], "abc": [0.38722486, 0.38722486, 0.38722486], "properties": {"magmom": 0.0}, "label": "Te", "xyz": [2.744436044068286, 2.744436044068286, 2.744436044068286]}, {"species": [{"element": "Te", "occu": 1}], "abc": [0.11277514, 0.61277514, 0.88722486], "properties": {"magmom": 0.0}, "label": "Te", "xyz": [0.7992879359317144, 4.343011915931714, 6.2881600240682864]}, {"species": [{"element": "Te", "occu": 1}], "abc": [0.88722486, 0.11277514, 0.61277514], "properties": {"magmom": 0.0}, "label": "Te", "xyz": [6.2881600240682864, 0.7992879359317144, 4.343011915931714]}, {"species": [{"element": "Te", "occu": 1}], "abc": [0.61277514, 0.88722486, 0.11277514], "properties": {"magmom": 0.0}, "label": "Te", "xyz": [4.343011915931714, 6.2881600240682864, 0.7992879359317144]}, {"species": [{"element": "Te", "occu": 1}], "abc": [0.61277514, 0.61277514, 0.61277514], "properties": {"magmom": 0.0}, "label": "Te", "xyz": [4.343011915931714, 4.343011915931714, 4.343011915931714]}, {"species": [{"element": "Te", "occu": 1}], "abc": [0.88722486, 0.38722486, 0.11277514], "properties": {"magmom": 0.0}, "label": "Te", "xyz": [6.2881600240682864, 2.744436044068286, 0.7992879359317144]}, {"species": [{"element": "Te", "occu": 1}], "abc": [0.11277514, 0.88722486, 0.38722486], "properties": {"magmom": 0.0}, "label": "Te", "xyz": [0.7992879359317144, 6.2881600240682864, 2.744436044068286]}, {"species": [{"element": "Te", "occu": 1}], "abc": [0.38722486, 0.11277514, 0.88722486], "properties": {"magmom": 0.0}, "label": "Te", "xyz": [2.744436044068286, 0.7992879359317144, 6.2881600240682864]}]}, "task_ids": null, "uncorrected_energy_per_atom": null, "energy_per_atom": -3.488444862499998, "formation_energy_per_atom": -0.849417595277775, "energy_above_hull": 0.0, "is_stable": true, "equilibrium_reaction_energy_per_atom": null, "decomposes_to": null, "xas": null, "grain_boundaries": null, "band_gap": 1.116199999999999, "cbm": null, "vbm": null, "efermi": 4.8863282, "is_gap_direct": null, "is_metal": null, "es_source_calc_id": null, "bandstructure": null, "dos": null, "dos_energy_up": null, "dos_energy_down": null, "is_magnetic": null, "ordering": null, "total_magnetization": 0.0, "total_magnetization_normalized_vol": null, "total_magnetization_normalized_formula_units": null, "num_magnetic_sites": null, "num_unique_magnetic_sites": null, "types_of_magnetic_species": null, "bulk_modulus": null, "shear_modulus": null, "universal_anisotropy": null, "homogeneous_poisson": null, "e_total": null, "e_ionic": null, "e_electronic": null, "n": null, "e_ij_max": null, "weighted_surface_energy_EV_PER_ANG2": null, "weighted_surface_energy": null, "weighted_work_function": null, "surface_anisotropy": null, "shape_factor": null, "has_reconstructed": null, "possible_species": null, "has_props": null, "theoretical": null, "database_IDs": null, "fields_not_requested": ["builder_meta", "nsites", "elements", "nelements", "composition", "composition_reduced", "chemsys", "symmetry", "property_name", "deprecated", "deprecation_reasons", "last_updated", "origins", "warnings", "task_ids", "uncorrected_energy_per_atom", "equilibrium_reaction_energy_per_atom", "decomposes_to", "xas", "grain_boundaries", "cbm", "vbm", "is_gap_direct", "is_metal", "es_source_calc_id", "bandstructure", "dos", "dos_energy_up", "dos_energy_down", "is_magnetic", "ordering", "total_magnetization_normalized_vol", "total_magnetization_normalized_formula_units", "num_magnetic_sites", "num_unique_magnetic_sites", "types_of_magnetic_species", "bulk_modulus", "shear_modulus", "universal_anisotropy", "homogeneous_poisson", "e_total", "e_ionic", "e_electronic", "n", "e_ij_max", "weighted_surface_energy_EV_PER_ANG2", "weighted_surface_energy", "weighted_work_function", "surface_anisotropy", "shape_factor", "has_reconstructed", "possible_species", "has_props", "theoretical", "database_IDs"]}