{"builder_meta": null, "nsites": null, "elements": null, "nelements": null, "composition": null, "composition_reduced": null, "formula_pretty": "MgTi5", "formula_anonymous": "AB5", "chemsys": null, "volume": 108.59052536315482, "density": 4.031516728134054, "density_atomic": 18.09842089385914, "symmetry": null, "property_name": null, "material_id": "mp-1094322", "deprecated": null, "deprecation_reasons": null, "last_updated": null, "origins": null, "warnings": null, "structure": {"@module": "pymatgen.core.structure", "@class": "Structure", "charge": 0, "lattice": {"matrix": [[1.479373, -2.562349, 0.0], [1.479373, 2.562349, 0.0], [0.0, 0.0, 14.323395]], "pbc": [true, true, true], "a": 2.9587458273616543, "b": 2.9587458273616543, "c": 14.323395, "alpha": 90.0, "beta": 90.0, "gamma": 119.99999613969507, "volume": 108.59052536315482}, "properties": {}, "sites": [{"species": [{"element": "Mg", "occu": 1}], "abc": [0.0, 0.0, 0.0], "properties": {"magmom": 0.0}, "label": "Mg", "xyz": [0.0, 0.0, 0.0]}, {"species": [{"element": "Ti", "occu": 1}], "abc": [0.333333, 0.666667, 0.820597999999999], "properties": {"magmom": 0.003}, "label": "Ti", "xyz": [1.479373, 0.8541180415660001, 11.753749290209987]}, {"species": [{"element": "Ti", "occu": 1}], "abc": [0.0, 0.0, 0.663748], "properties": {"magmom": -0.003}, "label": "Ti", "xyz": [0.0, 0.0, 9.50712478446]}, {"species": [{"element": "Ti", "occu": 1}], "abc": [0.333333, 0.666667, 0.5], "properties": {"magmom": -0.0}, "label": "Ti", "xyz": [1.479373, 0.8541180415660001, 7.1616975]}, {"species": [{"element": "Ti", "occu": 1}], "abc": [0.0, 0.0, 0.336252], "properties": {"magmom": -0.003}, "label": "Ti", "xyz": [0.0, 0.0, 4.8162702155399995]}, {"species": [{"element": "Ti", "occu": 1}], "abc": [0.333333, 0.666667, 0.179401999999999], "properties": {"magmom": 0.003}, "label": "Ti", "xyz": [1.479373, 0.8541180415660001, 2.569645709789986]}]}, "task_ids": null, "uncorrected_energy_per_atom": null, "energy_per_atom": -6.784669985, "formation_energy_per_atom": 0.066651698055556, "energy_above_hull": 0.066651698055555, "is_stable": false, "equilibrium_reaction_energy_per_atom": null, "decomposes_to": null, "xas": null, "grain_boundaries": null, "band_gap": 0.0, "cbm": null, "vbm": null, "efermi": 5.38160399, "is_gap_direct": null, "is_metal": null, "es_source_calc_id": null, "bandstructure": null, "dos": null, "dos_energy_up": null, "dos_energy_down": null, "is_magnetic": null, "ordering": null, "total_magnetization": 0.0085078, "total_magnetization_normalized_vol": null, "total_magnetization_normalized_formula_units": null, "num_magnetic_sites": null, "num_unique_magnetic_sites": null, "types_of_magnetic_species": null, "bulk_modulus": null, "shear_modulus": null, "universal_anisotropy": null, "homogeneous_poisson": null, "e_total": null, "e_ionic": null, "e_electronic": null, "n": null, "e_ij_max": null, "weighted_surface_energy_EV_PER_ANG2": null, "weighted_surface_energy": null, "weighted_work_function": null, "surface_anisotropy": null, "shape_factor": null, "has_reconstructed": null, "possible_species": null, "has_props": null, "theoretical": null, "database_IDs": null, "fields_not_requested": ["builder_meta", "nsites", "elements", "nelements", "composition", "composition_reduced", "chemsys", "symmetry", "property_name", "deprecated", "deprecation_reasons", "last_updated", "origins", "warnings", "task_ids", "uncorrected_energy_per_atom", "equilibrium_reaction_energy_per_atom", "decomposes_to", "xas", "grain_boundaries", "cbm", "vbm", "is_gap_direct", "is_metal", "es_source_calc_id", "bandstructure", "dos", "dos_energy_up", "dos_energy_down", "is_magnetic", "ordering", "total_magnetization_normalized_vol", "total_magnetization_normalized_formula_units", "num_magnetic_sites", "num_unique_magnetic_sites", "types_of_magnetic_species", "bulk_modulus", "shear_modulus", "universal_anisotropy", "homogeneous_poisson", "e_total", "e_ionic", "e_electronic", "n", "e_ij_max", "weighted_surface_energy_EV_PER_ANG2", "weighted_surface_energy", "weighted_work_function", "surface_anisotropy", "shape_factor", "has_reconstructed", "possible_species", "has_props", "theoretical", "database_IDs"]}