{"builder_meta": null, "nsites": null, "elements": null, "nelements": null, "composition": null, "composition_reduced": null, "formula_pretty": "MgW3", "formula_anonymous": "AB3", "chemsys": null, "volume": 135.7755944399098, "density": 14.084709582297153, "density_atomic": 16.971949304988726, "symmetry": null, "property_name": null, "material_id": "mp-978264", "deprecated": null, "deprecation_reasons": null, "last_updated": null, "origins": null, "warnings": null, "structure": {"@module": "pymatgen.core.structure", "@class": "Structure", "charge": 0, "lattice": {"matrix": [[2.892204, -5.009445, 0.0], [2.892204, 5.009445, 0.0], [0.0, 0.0, 4.6856860000000005]], "pbc": [true, true, true], "a": 5.784408628860949, "b": 5.784408628860949, "c": 4.6856860000000005, "alpha": 90.0, "beta": 90.0, "gamma": 120.00000719262894, "volume": 135.77559443990984}, "properties": {}, "sites": [{"species": [{"element": "Mg", "occu": 1}], "abc": [0.666667, 0.333333, 0.25], "properties": {"magmom": -0.0}, "label": "Mg", "xyz": [2.892204, -1.6698183396300001, 1.1714215000000001]}, {"species": [{"element": "Mg", "occu": 1}], "abc": [0.333333, 0.666667, 0.75], "properties": {"magmom": 0.0}, "label": "Mg", "xyz": [2.892204, 1.6698183396300001, 3.5142645000000003]}, {"species": [{"element": "W", "occu": 1}], "abc": [0.15463000000000002, 0.30926000000000003, 0.25], "properties": {"magmom": 0.0}, "label": "W", "xyz": [1.34166451356, 0.7746104803500001, 1.1714215000000001]}, {"species": [{"element": "W", "occu": 1}], "abc": [0.15463000000000002, 0.8453700000000001, 0.25], "properties": {"magmom": -0.001}, "label": "W", "xyz": [2.892204, 3.4602240393000003, 1.1714215000000001]}, {"species": [{"element": "W", "occu": 1}], "abc": [0.69074, 0.8453700000000001, 0.25], "properties": {"magmom": 0.0}, "label": "W", "xyz": [4.44274348644, 0.7746104803500002, 1.1714215000000001]}, {"species": [{"element": "W", "occu": 1}], "abc": [0.30926000000000003, 0.15463000000000002, 0.75], "properties": {"magmom": 0.001}, "label": "W", "xyz": [1.34166451356, -0.7746104803500001, 3.5142645000000003]}, {"species": [{"element": "W", "occu": 1}], "abc": [0.8453700000000001, 0.15463000000000002, 0.75], "properties": {"magmom": -0.001}, "label": "W", "xyz": [2.892204, -3.4602240393000003, 3.5142645000000003]}, {"species": [{"element": "W", "occu": 1}], "abc": [0.8453700000000001, 0.69074, 0.75], "properties": {"magmom": 0.0}, "label": "W", "xyz": [4.44274348644, -0.7746104803500002, 3.5142645000000003]}]}, "task_ids": null, "uncorrected_energy_per_atom": null, "energy_per_atom": -39.0710147025, "formation_energy_per_atom": 0.49715697874999804, "energy_above_hull": 0.49715697874999804, "is_stable": false, "equilibrium_reaction_energy_per_atom": null, "decomposes_to": null, "xas": null, "grain_boundaries": null, "band_gap": 0.0, "cbm": null, "vbm": null, "efermi": 5.98621329, "is_gap_direct": null, "is_metal": null, "es_source_calc_id": null, "bandstructure": null, "dos": null, "dos_energy_up": null, "dos_energy_down": null, "is_magnetic": null, "ordering": null, "total_magnetization": 0.0001446, "total_magnetization_normalized_vol": null, "total_magnetization_normalized_formula_units": null, "num_magnetic_sites": null, "num_unique_magnetic_sites": null, "types_of_magnetic_species": null, "bulk_modulus": null, "shear_modulus": null, "universal_anisotropy": null, "homogeneous_poisson": null, "e_total": null, "e_ionic": null, "e_electronic": null, "n": null, "e_ij_max": null, "weighted_surface_energy_EV_PER_ANG2": null, "weighted_surface_energy": null, "weighted_work_function": null, "surface_anisotropy": null, "shape_factor": null, "has_reconstructed": null, "possible_species": null, "has_props": null, "theoretical": null, "database_IDs": null, "fields_not_requested": ["builder_meta", "nsites", "elements", "nelements", "composition", "composition_reduced", "chemsys", "symmetry", "property_name", "deprecated", "deprecation_reasons", "last_updated", "origins", "warnings", "task_ids", "uncorrected_energy_per_atom", "equilibrium_reaction_energy_per_atom", "decomposes_to", "xas", "grain_boundaries", "cbm", "vbm", "is_gap_direct", "is_metal", "es_source_calc_id", "bandstructure", "dos", "dos_energy_up", "dos_energy_down", "is_magnetic", "ordering", "total_magnetization_normalized_vol", "total_magnetization_normalized_formula_units", "num_magnetic_sites", "num_unique_magnetic_sites", "types_of_magnetic_species", "bulk_modulus", "shear_modulus", "universal_anisotropy", "homogeneous_poisson", "e_total", "e_ionic", "e_electronic", "n", "e_ij_max", "weighted_surface_energy_EV_PER_ANG2", "weighted_surface_energy", "weighted_work_function", "surface_anisotropy", "shape_factor", "has_reconstructed", "possible_species", "has_props", "theoretical", "database_IDs"]}