{
  "builder_meta": null,
  "nsites": null,
  "elements": null,
  "nelements": null,
  "composition": null,
  "composition_reduced": null,
  "formula_pretty": "MgZn2",
  "formula_anonymous": "AB2",
  "chemsys": null,
  "volume": 192.8265149470189,
  "density": 5.3434104059593,
  "density_atomic": 16.068876245584907,
  "symmetry": null,
  "property_name": null,
  "material_id": "mp-1124",
  "deprecated": null,
  "deprecation_reasons": null,
  "last_updated": null,
  "origins": null,
  "warnings": null,
  "structure": {
    "@module": "pymatgen.core.structure",
    "@class": "Structure",
    "charge": 0,
    "lattice": {
      "matrix": [
        [5.15681108, -0.0, 0.0],
        [-2.57840705, 4.46592996, 0.0],
        [0.0, -0.0, 8.37285602]
      ],
      "pbc": [true, true, true],
      "a": 5.15681108,
      "b": 5.156812321882125,
      "c": 8.37285602,
      "alpha": 90.0,
      "beta": 90.0,
      "gamma": 120.0000114062071,
      "volume": 192.8265149470189
    },
    "properties": {},
    "sites": [
      {
        "species": [{ "element": "Mg", "occu": 1 }],
        "abc": [0.333333, 0.666667, 0.06223443],
        "properties": { "magmom": -0.0 },
        "label": "Mg",
        "xyz": [-3.5850727102548774e-6, 2.97728812864332, 0.5210799218767687]
      },
      {
        "species": [{ "element": "Mg", "occu": 1 }],
        "abc": [0.666667, 0.333333, 0.5622344300000001],
        "properties": { "magmom": -0.0 },
        "label": "Mg",
        "xyz": [2.5784076150727095, 1.48864183135668, 4.707507931876769]
      },
      {
        "species": [{ "element": "Mg", "occu": 1 }],
        "abc": [0.666667, 0.333333, 0.93776557],
        "properties": { "magmom": -0.0 },
        "label": "Mg",
        "xyz": [2.5784076150727095, 1.48864183135668, 7.851776098123232]
      },
      {
        "species": [{ "element": "Mg", "occu": 1 }],
        "abc": [0.333333, 0.666667, 0.43776557],
        "properties": { "magmom": -0.0 },
        "label": "Mg",
        "xyz": [-3.5850727102548774e-6, 2.97728812864332, 3.6653480881232317]
      },
      {
        "species": [{ "element": "Zn", "occu": 1 }],
        "abc": [0.0, 0.0, 0.0],
        "properties": { "magmom": 0.0 },
        "label": "Zn",
        "xyz": [0.0, 0.0, 0.0]
      },
      {
        "species": [{ "element": "Zn", "occu": 1 }],
        "abc": [0.0, 0.0, 0.5],
        "properties": { "magmom": 0.0 },
        "label": "Zn",
        "xyz": [0.0, 0.0, 4.18642801]
      },
      {
        "species": [{ "element": "Zn", "occu": 1 }],
        "abc": [0.16977898, 0.33955996, 0.75],
        "properties": { "magmom": 0.0 },
        "label": "Zn",
        "xyz": [-5.669546619735399e-6, 1.5164509985804018, 6.279642015]
      },
      {
        "species": [{ "element": "Zn", "occu": 1 }],
        "abc": [0.83022102, 0.16977898, 0.25],
        "properties": { "magmom": 0.0 },
        "label": "Zn",
        "xyz": [3.8435336358110925, 0.7582210333602408, 2.093214005]
      },
      {
        "species": [{ "element": "Zn", "occu": 1 }],
        "abc": [0.33955996, 0.16977898, 0.25],
        "properties": { "magmom": 0.0 },
        "label": "Zn",
        "xyz": [1.3132872450785478, 0.7582210333602408, 2.093214005]
      },
      {
        "species": [{ "element": "Zn", "occu": 1 }],
        "abc": [0.66044004, 0.83022102, 0.75],
        "properties": { "magmom": 0.0 },
        "label": "Zn",
        "xyz": [1.2651167849214522, 3.7077089266397594, 6.279642015]
      },
      {
        "species": [{ "element": "Zn", "occu": 1 }],
        "abc": [0.16977898, 0.83022102, 0.75],
        "properties": { "magmom": 0.0 },
        "label": "Zn",
        "xyz": [-1.2651296058110928, 3.7077089266397594, 6.279642015]
      },
      {
        "species": [{ "element": "Zn", "occu": 1 }],
        "abc": [0.83022102, 0.66044004, 0.25],
        "properties": { "magmom": 0.0 },
        "label": "Zn",
        "xyz": [2.5784096995466195, 2.9494789614195986, 2.093214005]
      }
    ]
  },
  "task_ids": null,
  "uncorrected_energy_per_atom": null,
  "energy_per_atom": -1.513949383333332,
  "formation_energy_per_atom": -0.130630304999998,
  "energy_above_hull": 0.0,
  "is_stable": true,
  "equilibrium_reaction_energy_per_atom": null,
  "decomposes_to": null,
  "xas": null,
  "grain_boundaries": null,
  "band_gap": 0.0,
  "cbm": null,
  "vbm": null,
  "efermi": 3.49752987,
  "is_gap_direct": null,
  "is_metal": null,
  "es_source_calc_id": null,
  "bandstructure": null,
  "dos": null,
  "dos_energy_up": null,
  "dos_energy_down": null,
  "is_magnetic": null,
  "ordering": null,
  "total_magnetization": 0.0,
  "total_magnetization_normalized_vol": null,
  "total_magnetization_normalized_formula_units": null,
  "num_magnetic_sites": null,
  "num_unique_magnetic_sites": null,
  "types_of_magnetic_species": null,
  "bulk_modulus": null,
  "shear_modulus": null,
  "universal_anisotropy": null,
  "homogeneous_poisson": null,
  "e_total": null,
  "e_ionic": null,
  "e_electronic": null,
  "n": null,
  "e_ij_max": null,
  "weighted_surface_energy_EV_PER_ANG2": null,
  "weighted_surface_energy": null,
  "weighted_work_function": null,
  "surface_anisotropy": null,
  "shape_factor": null,
  "has_reconstructed": null,
  "possible_species": null,
  "has_props": null,
  "theoretical": null,
  "database_IDs": null,
  "fields_not_requested": [
    "builder_meta",
    "nsites",
    "elements",
    "nelements",
    "composition",
    "composition_reduced",
    "chemsys",
    "symmetry",
    "property_name",
    "deprecated",
    "deprecation_reasons",
    "last_updated",
    "origins",
    "warnings",
    "task_ids",
    "uncorrected_energy_per_atom",
    "equilibrium_reaction_energy_per_atom",
    "decomposes_to",
    "xas",
    "grain_boundaries",
    "cbm",
    "vbm",
    "is_gap_direct",
    "is_metal",
    "es_source_calc_id",
    "bandstructure",
    "dos",
    "dos_energy_up",
    "dos_energy_down",
    "is_magnetic",
    "ordering",
    "total_magnetization_normalized_vol",
    "total_magnetization_normalized_formula_units",
    "num_magnetic_sites",
    "num_unique_magnetic_sites",
    "types_of_magnetic_species",
    "bulk_modulus",
    "shear_modulus",
    "universal_anisotropy",
    "homogeneous_poisson",
    "e_total",
    "e_ionic",
    "e_electronic",
    "n",
    "e_ij_max",
    "weighted_surface_energy_EV_PER_ANG2",
    "weighted_surface_energy",
    "weighted_work_function",
    "surface_anisotropy",
    "shape_factor",
    "has_reconstructed",
    "possible_species",
    "has_props",
    "theoretical",
    "database_IDs"
  ]
}
