{"builder_meta": null, "nsites": null, "elements": null, "nelements": null, "composition": null, "composition_reduced": null, "formula_pretty": "MgZn3", "formula_anonymous": "AB3", "chemsys": null, "volume": 124.23833220466526, "density": 5.895153209754373, "density_atomic": 15.529791525583157, "symmetry": null, "property_name": null, "material_id": "mp-1094478", "deprecated": null, "deprecation_reasons": null, "last_updated": null, "origins": null, "warnings": null, "structure": {"@module": "pymatgen.core.structure", "@class": "Structure", "charge": 0, "lattice": {"matrix": [[5.73242649, 1e-08, 0.0], [-2.86621224, 4.96442804, -0.0], [0.0, 0.0, 4.36563978]], "pbc": [true, true, true], "a": 5.73242649, "b": 5.732426917899962, "c": 4.36563978, "alpha": 90.0, "beta": 90.0, "gamma": 119.99998583182396, "volume": 124.23833220466526}, "properties": {}, "sites": [{"species": [{"element": "Mg", "occu": 1}], "abc": [0.666667, 0.333333, 0.75], "properties": {"magmom": -0.0}, "label": "Mg", "xyz": [2.8662164462129103, 1.65480769852399, 3.2742298350000003]}, {"species": [{"element": "Mg", "occu": 1}], "abc": [0.333333, 0.666667, 0.25], "properties": {"magmom": -0.0}, "label": "Mg", "xyz": [-2.196212909977291e-06, 3.30962035147601, 1.091409945]}, {"species": [{"element": "Zn", "occu": 1}], "abc": [0.67970924, 0.83985462, 0.75], "properties": {"magmom": 0.0}, "label": "Zn", "xyz": [1.4891816612092188, 4.169397831848637, 3.2742298350000003]}, {"species": [{"element": "Zn", "occu": 1}], "abc": [0.16014538, 0.32029076, 0.75], "properties": {"magmom": 0.0}, "label": "Zn", "xyz": [3.2189221388367883e-07, 1.5900604314983642, 3.2742298350000003]}, {"species": [{"element": "Zn", "occu": 1}], "abc": [0.16014538, 0.83985462, 0.75], "properties": {"magmom": 0.0}, "label": "Zn", "xyz": [-1.4891799731014324, 4.1693978266529985, 3.2742298350000003]}, {"species": [{"element": "Zn", "occu": 1}], "abc": [0.83985462, 0.67970924, 0.25], "properties": {"magmom": 0.0}, "label": "Zn", "xyz": [2.8662139281077863, 3.3743676185016356, 1.091409945]}, {"species": [{"element": "Zn", "occu": 1}], "abc": [0.83985462, 0.16014538, 0.25], "properties": {"magmom": 0.0}, "label": "Zn", "xyz": [4.355394223101433, 0.7950302233470014, 1.091409945]}, {"species": [{"element": "Zn", "occu": 1}], "abc": [0.32029076, 0.16014538, 0.25], "properties": {"magmom": 0.0}, "label": "Zn", "xyz": [1.3770325887907813, 0.7950302181513628, 1.091409945]}]}, "task_ids": null, "uncorrected_energy_per_atom": null, "energy_per_atom": -1.410285523749999, "formation_energy_per_atom": -0.057860312499999005, "energy_above_hull": 0.041114361726189, "is_stable": false, "equilibrium_reaction_energy_per_atom": null, "decomposes_to": null, "xas": null, "grain_boundaries": null, "band_gap": 0.0, "cbm": null, "vbm": null, "efermi": 3.576297959999999, "is_gap_direct": null, "is_metal": null, "es_source_calc_id": null, "bandstructure": null, "dos": null, "dos_energy_up": null, "dos_energy_down": null, "is_magnetic": null, "ordering": null, "total_magnetization": 0.0, "total_magnetization_normalized_vol": null, "total_magnetization_normalized_formula_units": null, "num_magnetic_sites": null, "num_unique_magnetic_sites": null, "types_of_magnetic_species": null, "bulk_modulus": null, "shear_modulus": null, "universal_anisotropy": null, "homogeneous_poisson": null, "e_total": null, "e_ionic": null, "e_electronic": null, "n": null, "e_ij_max": null, "weighted_surface_energy_EV_PER_ANG2": null, "weighted_surface_energy": null, "weighted_work_function": null, "surface_anisotropy": null, "shape_factor": null, "has_reconstructed": null, "possible_species": null, "has_props": null, "theoretical": null, "database_IDs": null, "fields_not_requested": ["builder_meta", "nsites", "elements", "nelements", "composition", "composition_reduced", "chemsys", "symmetry", "property_name", "deprecated", "deprecation_reasons", "last_updated", "origins", "warnings", "task_ids", "uncorrected_energy_per_atom", "equilibrium_reaction_energy_per_atom", "decomposes_to", "xas", "grain_boundaries", "cbm", "vbm", "is_gap_direct", "is_metal", "es_source_calc_id", "bandstructure", "dos", "dos_energy_up", "dos_energy_down", "is_magnetic", "ordering", "total_magnetization_normalized_vol", "total_magnetization_normalized_formula_units", "num_magnetic_sites", "num_unique_magnetic_sites", "types_of_magnetic_species", "bulk_modulus", "shear_modulus", "universal_anisotropy", "homogeneous_poisson", "e_total", "e_ionic", "e_electronic", "n", "e_ij_max", "weighted_surface_energy_EV_PER_ANG2", "weighted_surface_energy", "weighted_work_function", "surface_anisotropy", "shape_factor", "has_reconstructed", "possible_species", "has_props", "theoretical", "database_IDs"]}