{"builder_meta": null, "nsites": null, "elements": null, "nelements": null, "composition": null, "composition_reduced": null, "formula_pretty": "MgZn5", "formula_anonymous": "AB5", "chemsys": null, "volume": 392.27643414871244, "density": 5.949176144787029, "density_atomic": 16.34485142286302, "symmetry": null, "property_name": null, "material_id": "mp-580931", "deprecated": null, "deprecation_reasons": null, "last_updated": null, "origins": null, "warnings": null, "structure": {"@module": "pymatgen.core.structure", "@class": "Structure", "charge": 0, "lattice": {"matrix": [[2.521138, 9.536974, 0.0], [-2.521138, 9.536974, 0.0], [0.0, 3.43824, 8.157461]], "pbc": [true, true, true], "a": 9.86458361471583, "b": 9.86458361471583, "c": 8.85243832309048, "alpha": 67.9450384873678, "beta": 67.9450384873678, "gamma": 29.615282994247014, "volume": 392.27643414871244}, "properties": {}, "sites": [{"species": [{"element": "Mg", "occu": 1}], "abc": [0.280904999999999, 0.280904999999999, 0.373635], "properties": {"magmom": -0.0}, "label": "Mg", "xyz": [0.0, 6.642614165339982, 3.047912940735]}, {"species": [{"element": "Mg", "occu": 1}], "abc": [0.719094999999999, 0.719094999999999, 0.626365], "properties": {"magmom": -0.0}, "label": "Mg", "xyz": [0.0, 15.869573834659983, 5.109548059264999]}, {"species": [{"element": "Mg", "occu": 1}], "abc": [0.466487, 0.466487, 0.202128], "properties": {"magmom": -0.0}, "label": "Mg", "xyz": [0.0, 9.592713355396, 1.648851277008]}, {"species": [{"element": "Mg", "occu": 1}], "abc": [0.533513, 0.533513, 0.797871999999999], "properties": {"magmom": -0.0}, "label": "Mg", "xyz": [0.0, 12.919474644603998, 6.5086097229919915]}, {"species": [{"element": "Zn", "occu": 1}], "abc": [0.5, 0.5, 0.5], "properties": {"magmom": -0.0}, "label": "Zn", "xyz": [0.0, 11.256094000000001, 4.0787305]}, {"species": [{"element": "Zn", "occu": 1}], "abc": [0.035336, 0.035336, 0.295405], "properties": {"magmom": -0.0}, "label": "Zn", "xyz": [0.0, 1.689670313728, 2.409754766705]}, {"species": [{"element": "Zn", "occu": 1}], "abc": [0.210796999999999, 0.210796999999999, 0.125468], "properties": {"magmom": 0.0}, "label": "Zn", "xyz": [0.0, 4.452120112875981, 1.023500316748]}, {"species": [{"element": "Zn", "occu": 1}], "abc": [0.123144999999999, 0.123144999999999, 0.711899], "properties": {"magmom": -0.0}, "label": "Zn", "xyz": [0.0, 4.796540944219981, 5.807288328438999]}, {"species": [{"element": "Zn", "occu": 1}], "abc": [0.876854999999999, 0.876854999999999, 0.288101], "properties": {"magmom": -0.0}, "label": "Zn", "xyz": [0.0, 17.715647055779982, 2.350172671561]}, {"species": [{"element": "Zn", "occu": 1}], "abc": [0.122989, 0.616147, 0.038203], "properties": {"magmom": -0.0}, "label": "Zn", "xyz": [-1.243319373804, 7.180471897184001, 0.311639482583]}, {"species": [{"element": "Zn", "occu": 1}], "abc": [0.119103, 0.624895, 0.540264], "properties": {"magmom": -0.0}, "label": "Zn", "xyz": [-1.275171431296, 8.953046877412, 4.407182509704]}, {"species": [{"element": "Zn", "occu": 1}], "abc": [0.964664, 0.964664, 0.704595], "properties": {"magmom": -0.0}, "label": "Zn", "xyz": [0.0, 20.822517686272, 5.747706233294999]}, {"species": [{"element": "Zn", "occu": 1}], "abc": [0.746764, 0.746764, 0.23552], "properties": {"magmom": 0.0}, "label": "Zn", "xyz": [0.0, 15.053511989072, 1.9212452147199999]}, {"species": [{"element": "Zn", "occu": 1}], "abc": [0.375104999999999, 0.880896999999999, 0.459736], "properties": {"magmom": -0.0}, "label": "Zn", "xyz": [-1.275171431296, 13.559141122587981, 3.7502784902959996]}, {"species": [{"element": "Zn", "occu": 1}], "abc": [0.624895, 0.119103, 0.540264], "properties": {"magmom": -0.0}, "label": "Zn", "xyz": [1.275171431296, 8.953046877412, 4.407182509704]}, {"species": [{"element": "Zn", "occu": 1}], "abc": [0.880896999999999, 0.375104999999999, 0.459736], "properties": {"magmom": -0.0}, "label": "Zn", "xyz": [1.275171431296, 13.559141122587981, 3.7502784902959996]}, {"species": [{"element": "Zn", "occu": 1}], "abc": [0.383853, 0.877011, 0.9617969999999991], "properties": {"magmom": -0.0}, "label": "Zn", "xyz": [-1.243319373804, 15.331716102815998, 7.845821517416993]}, {"species": [{"element": "Zn", "occu": 1}], "abc": [0.789203, 0.789203, 0.874532], "properties": {"magmom": 0.0}, "label": "Zn", "xyz": [0.0, 18.060067887124, 7.133960683251999]}, {"species": [{"element": "Zn", "occu": 1}], "abc": [0.616147, 0.122989, 0.038203], "properties": {"magmom": -0.0}, "label": "Zn", "xyz": [1.243319373804, 7.180471897184001, 0.311639482583]}, {"species": [{"element": "Zn", "occu": 1}], "abc": [0.877011, 0.383853, 0.9617969999999991], "properties": {"magmom": -0.0}, "label": "Zn", "xyz": [1.243319373804, 15.331716102815998, 7.845821517416993]}, {"species": [{"element": "Zn", "occu": 1}], "abc": [0.0, 0.0, 0.0], "properties": {"magmom": -0.0}, "label": "Zn", "xyz": [0.0, 0.0, 0.0]}, {"species": [{"element": "Zn", "occu": 1}], "abc": [0.387986999999999, 0.387986999999999, 0.778971], "properties": {"magmom": -0.0}, "label": "Zn", "xyz": [0.0, 10.078733113715982, 6.354425552631]}, {"species": [{"element": "Zn", "occu": 1}], "abc": [0.612012999999999, 0.612012999999999, 0.221029], "properties": {"magmom": -0.0}, "label": "Zn", "xyz": [0.0, 12.433454886283982, 1.803035447369]}, {"species": [{"element": "Zn", "occu": 1}], "abc": [0.253235999999999, 0.253235999999999, 0.76448], "properties": {"magmom": 0.0}, "label": "Zn", "xyz": [0.0, 7.458676010927982, 6.23621578528]}]}, "task_ids": null, "uncorrected_energy_per_atom": null, "energy_per_atom": -1.358710169583333, "formation_energy_per_atom": -0.037178825416666006, "energy_above_hull": 0.030140218035712003, "is_stable": false, "equilibrium_reaction_energy_per_atom": null, "decomposes_to": null, "xas": null, "grain_boundaries": null, "band_gap": 0.0, "cbm": null, "vbm": null, "efermi": 3.27239776, "is_gap_direct": null, "is_metal": null, "es_source_calc_id": null, "bandstructure": null, "dos": null, "dos_energy_up": null, "dos_energy_down": null, "is_magnetic": null, "ordering": null, "total_magnetization": 0.003100899999999, "total_magnetization_normalized_vol": null, "total_magnetization_normalized_formula_units": null, "num_magnetic_sites": null, "num_unique_magnetic_sites": null, "types_of_magnetic_species": null, "bulk_modulus": null, "shear_modulus": null, "universal_anisotropy": null, "homogeneous_poisson": null, "e_total": null, "e_ionic": null, "e_electronic": null, "n": null, "e_ij_max": null, "weighted_surface_energy_EV_PER_ANG2": null, "weighted_surface_energy": null, "weighted_work_function": null, "surface_anisotropy": null, "shape_factor": null, "has_reconstructed": null, "possible_species": null, "has_props": null, "theoretical": null, "database_IDs": null, "fields_not_requested": ["builder_meta", "nsites", "elements", "nelements", "composition", "composition_reduced", "chemsys", "symmetry", "property_name", "deprecated", "deprecation_reasons", "last_updated", "origins", "warnings", "task_ids", "uncorrected_energy_per_atom", "equilibrium_reaction_energy_per_atom", "decomposes_to", "xas", "grain_boundaries", "cbm", "vbm", "is_gap_direct", "is_metal", "es_source_calc_id", "bandstructure", "dos", "dos_energy_up", "dos_energy_down", "is_magnetic", "ordering", "total_magnetization_normalized_vol", "total_magnetization_normalized_formula_units", "num_magnetic_sites", "num_unique_magnetic_sites", "types_of_magnetic_species", "bulk_modulus", "shear_modulus", "universal_anisotropy", "homogeneous_poisson", "e_total", "e_ionic", "e_electronic", "n", "e_ij_max", "weighted_surface_energy_EV_PER_ANG2", "weighted_surface_energy", "weighted_work_function", "surface_anisotropy", "shape_factor", "has_reconstructed", "possible_species", "has_props", "theoretical", "database_IDs"]}