{
  "builder_meta": null,
  "nsites": null,
  "elements": null,
  "nelements": null,
  "composition": null,
  "composition_reduced": null,
  "formula_pretty": "Mn2Al3",
  "formula_anonymous": "A2B3",
  "chemsys": null,
  "volume": 254.05365864176244,
  "density": 4.988949789444166,
  "density_atomic": 12.702682932088122,
  "symmetry": null,
  "property_name": null,
  "material_id": "mp-1180309",
  "deprecated": null,
  "deprecation_reasons": null,
  "last_updated": null,
  "origins": null,
  "warnings": null,
  "structure": {
    "@module": "pymatgen.core.structure",
    "@class": "Structure",
    "charge": 0,
    "lattice": {
      "matrix": [
        [6.33347146, 0.0, 0.0],
        [-0.0, 6.33347146, 0.0],
        [0.0, 0.0, 6.33347146]
      ],
      "pbc": [true, true, true],
      "a": 6.33347146,
      "b": 6.33347146,
      "c": 6.33347146,
      "alpha": 90.0,
      "beta": 90.0,
      "gamma": 90.0,
      "volume": 254.05365864176244
    },
    "properties": {},
    "sites": [
      {
        "species": [{ "element": "Mn", "occu": 1 }],
        "abc": [0.1785708, 0.8214292, 0.321429199999999],
        "properties": { "magmom": 0.0 },
        "label": "Mn",
        "xyz": [1.1309730653893681, 5.202498394610632, 2.0357626646106257]
      },
      {
        "species": [{ "element": "Mn", "occu": 1 }],
        "abc": [0.321429199999999, 0.1785708, 0.8214292],
        "properties": { "magmom": 0.0 },
        "label": "Mn",
        "xyz": [2.0357626646106257, 1.1309730653893681, 5.202498394610632]
      },
      {
        "species": [{ "element": "Mn", "occu": 1 }],
        "abc": [0.8214292, 0.321429199999999, 0.1785708],
        "properties": { "magmom": 0.0 },
        "label": "Mn",
        "xyz": [5.202498394610632, 2.0357626646106257, 1.1309730653893681]
      },
      {
        "species": [{ "element": "Mn", "occu": 1 }],
        "abc": [0.678570799999999, 0.678570799999999, 0.678570799999999],
        "properties": { "magmom": 0.0 },
        "label": "Mn",
        "xyz": [4.297708795389362, 4.297708795389362, 4.297708795389362]
      },
      {
        "species": [{ "element": "Mn", "occu": 1 }],
        "abc": [0.5714292, 0.4285708, 0.928570799999999],
        "properties": { "magmom": 0.0 },
        "label": "Mn",
        "xyz": [3.619130529610632, 2.7143409303893677, 5.881076660389362]
      },
      {
        "species": [{ "element": "Mn", "occu": 1 }],
        "abc": [0.4285708, 0.928570799999999, 0.5714292],
        "properties": { "magmom": 0.0 },
        "label": "Mn",
        "xyz": [2.7143409303893677, 5.881076660389362, 3.619130529610632]
      },
      {
        "species": [{ "element": "Mn", "occu": 1 }],
        "abc": [0.928570799999999, 0.5714292, 0.4285708],
        "properties": { "magmom": 0.0 },
        "label": "Mn",
        "xyz": [5.881076660389362, 3.619130529610632, 2.7143409303893677]
      },
      {
        "species": [{ "element": "Mn", "occu": 1 }],
        "abc": [0.0714292, 0.0714292, 0.0714292],
        "properties": { "magmom": 0.0 },
        "label": "Mn",
        "xyz": [0.452394799610632, 0.452394799610632, 0.452394799610632]
      },
      {
        "species": [{ "element": "Al", "occu": 1 }],
        "abc": [0.79587916, 0.95412084, 0.375],
        "properties": { "magmom": -0.0 },
        "label": "Al",
        "xyz": [5.040677945468774, 6.042897109531227, 2.3750517975000003]
      },
      {
        "species": [{ "element": "Al", "occu": 1 }],
        "abc": [0.70412084, 0.04587916, 0.875],
        "properties": { "magmom": -0.0 },
        "label": "Al",
        "xyz": [4.459529244531226, 0.2905743504687736, 5.5417875275]
      },
      {
        "species": [{ "element": "Al", "occu": 1 }],
        "abc": [0.20412084, 0.45412084, 0.125],
        "properties": { "magmom": -0.0 },
        "label": "Al",
        "xyz": [1.2927935145312264, 2.8761613795312266, 0.7916839325]
      },
      {
        "species": [{ "element": "Al", "occu": 1 }],
        "abc": [0.29587916000000003, 0.54587916, 0.625],
        "properties": { "magmom": -0.0 },
        "label": "Al",
        "xyz": [1.873942215468774, 3.457310080468774, 3.9584196625]
      },
      {
        "species": [{ "element": "Al", "occu": 1 }],
        "abc": [0.95412084, 0.375, 0.79587916],
        "properties": { "magmom": -0.0 },
        "label": "Al",
        "xyz": [6.042897109531227, 2.3750517975000003, 5.040677945468774]
      },
      {
        "species": [{ "element": "Al", "occu": 1 }],
        "abc": [0.04587916, 0.875, 0.70412084],
        "properties": { "magmom": -0.0 },
        "label": "Al",
        "xyz": [0.2905743504687736, 5.5417875275, 4.459529244531226]
      },
      {
        "species": [{ "element": "Al", "occu": 1 }],
        "abc": [0.45412084, 0.125, 0.20412084],
        "properties": { "magmom": -0.0 },
        "label": "Al",
        "xyz": [2.8761613795312266, 0.7916839325, 1.2927935145312264]
      },
      {
        "species": [{ "element": "Al", "occu": 1 }],
        "abc": [0.54587916, 0.625, 0.29587916000000003],
        "properties": { "magmom": -0.0 },
        "label": "Al",
        "xyz": [3.457310080468774, 3.9584196625, 1.873942215468774]
      },
      {
        "species": [{ "element": "Al", "occu": 1 }],
        "abc": [0.375, 0.79587916, 0.95412084],
        "properties": { "magmom": -0.0 },
        "label": "Al",
        "xyz": [2.3750517975000003, 5.040677945468774, 6.042897109531227]
      },
      {
        "species": [{ "element": "Al", "occu": 1 }],
        "abc": [0.875, 0.70412084, 0.04587916],
        "properties": { "magmom": -0.0 },
        "label": "Al",
        "xyz": [5.5417875275, 4.459529244531226, 0.2905743504687736]
      },
      {
        "species": [{ "element": "Al", "occu": 1 }],
        "abc": [0.125, 0.20412084, 0.45412084],
        "properties": { "magmom": -0.0 },
        "label": "Al",
        "xyz": [0.7916839325, 1.2927935145312264, 2.8761613795312266]
      },
      {
        "species": [{ "element": "Al", "occu": 1 }],
        "abc": [0.625, 0.29587916000000003, 0.54587916],
        "properties": { "magmom": -0.0 },
        "label": "Al",
        "xyz": [3.9584196625, 1.873942215468774, 3.457310080468774]
      }
    ]
  },
  "task_ids": null,
  "uncorrected_energy_per_atom": null,
  "energy_per_atom": -6.1578554215,
  "formation_energy_per_atom": -0.245703806672413,
  "energy_above_hull": 0.028598418500000004,
  "is_stable": false,
  "equilibrium_reaction_energy_per_atom": null,
  "decomposes_to": null,
  "xas": null,
  "grain_boundaries": null,
  "band_gap": 0.0,
  "cbm": null,
  "vbm": null,
  "efermi": 8.46706544,
  "is_gap_direct": null,
  "is_metal": null,
  "es_source_calc_id": null,
  "bandstructure": null,
  "dos": null,
  "dos_energy_up": null,
  "dos_energy_down": null,
  "is_magnetic": null,
  "ordering": null,
  "total_magnetization": 0.000123199999999,
  "total_magnetization_normalized_vol": null,
  "total_magnetization_normalized_formula_units": null,
  "num_magnetic_sites": null,
  "num_unique_magnetic_sites": null,
  "types_of_magnetic_species": null,
  "bulk_modulus": null,
  "shear_modulus": null,
  "universal_anisotropy": null,
  "homogeneous_poisson": null,
  "e_total": null,
  "e_ionic": null,
  "e_electronic": null,
  "n": null,
  "e_ij_max": null,
  "weighted_surface_energy_EV_PER_ANG2": null,
  "weighted_surface_energy": null,
  "weighted_work_function": null,
  "surface_anisotropy": null,
  "shape_factor": null,
  "has_reconstructed": null,
  "possible_species": null,
  "has_props": null,
  "theoretical": null,
  "database_IDs": null,
  "fields_not_requested": [
    "builder_meta",
    "nsites",
    "elements",
    "nelements",
    "composition",
    "composition_reduced",
    "chemsys",
    "symmetry",
    "property_name",
    "deprecated",
    "deprecation_reasons",
    "last_updated",
    "origins",
    "warnings",
    "task_ids",
    "uncorrected_energy_per_atom",
    "equilibrium_reaction_energy_per_atom",
    "decomposes_to",
    "xas",
    "grain_boundaries",
    "cbm",
    "vbm",
    "is_gap_direct",
    "is_metal",
    "es_source_calc_id",
    "bandstructure",
    "dos",
    "dos_energy_up",
    "dos_energy_down",
    "is_magnetic",
    "ordering",
    "total_magnetization_normalized_vol",
    "total_magnetization_normalized_formula_units",
    "num_magnetic_sites",
    "num_unique_magnetic_sites",
    "types_of_magnetic_species",
    "bulk_modulus",
    "shear_modulus",
    "universal_anisotropy",
    "homogeneous_poisson",
    "e_total",
    "e_ionic",
    "e_electronic",
    "n",
    "e_ij_max",
    "weighted_surface_energy_EV_PER_ANG2",
    "weighted_surface_energy",
    "weighted_work_function",
    "surface_anisotropy",
    "shape_factor",
    "has_reconstructed",
    "possible_species",
    "has_props",
    "theoretical",
    "database_IDs"
  ]
}
