{"builder_meta": null, "nsites": null, "elements": null, "nelements": null, "composition": null, "composition_reduced": null, "formula_pretty": "Mn2Au5", "formula_anonymous": "A2B5", "chemsys": null, "volume": 118.0676727331639, "density": 15.396313919322115, "density_atomic": 16.866810390451985, "symmetry": null, "property_name": null, "material_id": "mp-30410", "deprecated": null, "deprecation_reasons": null, "last_updated": null, "origins": null, "warnings": null, "structure": {"@module": "pymatgen.core.structure", "@class": "Structure", "charge": 0, "lattice": {"matrix": [[3.91278441, -1e-08, 0.0], [-1.95639272, 4.590241, -0.59350969], [0.0, 0.02788767, 6.57008987]], "pbc": [true, true, true], "a": 3.91278441, "b": 5.024941657877621, "c": 6.5701490563011316, "alpha": 96.55946151368903, "beta": 90.00000000062154, "gamma": 112.91321502589811, "volume": 118.0676727331639}, "properties": {}, "sites": [{"species": [{"element": "Mn", "occu": 1}], "abc": [0.57714323, 0.15428646000000001, 0.71901072], "properties": {"magmom": 4.211}, "label": "Mn", "xyz": [1.9563921255424732, 0.72826356235125, 4.632394538847609]}, {"species": [{"element": "Mn", "occu": 1}], "abc": [0.42285677, 0.84571354, 0.28098928], "properties": {"magmom": 4.211}, "label": "Mn", "xyz": [-4.3554247319832484e-07, 3.8898650976487494, 1.3441856411523911]}, {"species": [{"element": "Au", "occu": 1}], "abc": [0.863240599999999, 0.7264802100000001, 0.56733118], "properties": {"magmom": 0.033}, "label": "Au", "xyz": [1.9563937676909708, 3.350540781726755, 3.296243794424912]}, {"species": [{"element": "Au", "occu": 1}], "abc": [0.71259689, 0.42519379, 0.14445119], "properties": {"magmom": 0.033}, "label": "Au", "xyz": [1.956391966461276, 1.9557703677952485, 0.6967006656356203]}, {"species": [{"element": "Au", "occu": 1}], "abc": [0.28740311, 0.57480621, 0.85554881], "properties": {"magmom": 0.033}, "label": "Au", "xyz": [-2.7646127587210856e-07, 2.6623582922047513, 5.27987951436438]}, {"species": [{"element": "Au", "occu": 1}], "abc": [0.1367594, 0.27351979, 0.43266882], "properties": {"magmom": 0.033}, "label": "Au", "xyz": [-2.077690974822133e-06, 1.2675878782732453, 2.6803363855750884]}, {"species": [{"element": "Au", "occu": 1}], "abc": [0.0, 0.0, 0.0], "properties": {"magmom": 0.033}, "label": "Au", "xyz": [0.0, 0.0, 0.0]}]}, "task_ids": null, "uncorrected_energy_per_atom": null, "energy_per_atom": -40.62819491142857, "formation_energy_per_atom": -0.300842039852219, "energy_above_hull": 0.014431074999997, "is_stable": false, "equilibrium_reaction_energy_per_atom": null, "decomposes_to": null, "xas": null, "grain_boundaries": null, "band_gap": 0.0, "cbm": null, "vbm": null, "efermi": 5.48006131, "is_gap_direct": null, "is_metal": null, "es_source_calc_id": null, "bandstructure": null, "dos": null, "dos_energy_up": null, "dos_energy_down": null, "is_magnetic": null, "ordering": null, "total_magnetization": 8.8075827, "total_magnetization_normalized_vol": null, "total_magnetization_normalized_formula_units": null, "num_magnetic_sites": null, "num_unique_magnetic_sites": null, "types_of_magnetic_species": null, "bulk_modulus": null, "shear_modulus": null, "universal_anisotropy": null, "homogeneous_poisson": null, "e_total": null, "e_ionic": null, "e_electronic": null, "n": null, "e_ij_max": null, "weighted_surface_energy_EV_PER_ANG2": null, "weighted_surface_energy": null, "weighted_work_function": null, "surface_anisotropy": null, "shape_factor": null, "has_reconstructed": null, "possible_species": null, "has_props": null, "theoretical": null, "database_IDs": null, "fields_not_requested": ["builder_meta", "nsites", "elements", "nelements", "composition", "composition_reduced", "chemsys", "symmetry", "property_name", "deprecated", "deprecation_reasons", "last_updated", "origins", "warnings", "task_ids", "uncorrected_energy_per_atom", "equilibrium_reaction_energy_per_atom", "decomposes_to", "xas", "grain_boundaries", "cbm", "vbm", "is_gap_direct", "is_metal", "es_source_calc_id", "bandstructure", "dos", "dos_energy_up", "dos_energy_down", "is_magnetic", "ordering", "total_magnetization_normalized_vol", "total_magnetization_normalized_formula_units", "num_magnetic_sites", "num_unique_magnetic_sites", "types_of_magnetic_species", "bulk_modulus", "shear_modulus", "universal_anisotropy", "homogeneous_poisson", "e_total", "e_ionic", "e_electronic", "n", "e_ij_max", "weighted_surface_energy_EV_PER_ANG2", "weighted_surface_energy", "weighted_work_function", "surface_anisotropy", "shape_factor", "has_reconstructed", "possible_species", "has_props", "theoretical", "database_IDs"]}