{
  "builder_meta": null,
  "nsites": null,
  "elements": null,
  "nelements": null,
  "composition": null,
  "composition_reduced": null,
  "formula_pretty": "Mn2F7",
  "formula_anonymous": "A2B7",
  "chemsys": null,
  "volume": 458.2306257581259,
  "density": 3.520381679241657,
  "density_atomic": 12.728628493281274,
  "symmetry": null,
  "property_name": null,
  "material_id": "mp-760309",
  "deprecated": null,
  "deprecation_reasons": null,
  "last_updated": null,
  "origins": null,
  "warnings": null,
  "structure": {
    "@module": "pymatgen.core.structure",
    "@class": "Structure",
    "charge": 0,
    "lattice": {
      "matrix": [
        [5.00013574, 0.00012237, -3.983e-5],
        [0.00017219999999900002, 7.18631051, -0.04082945],
        [-3.983e-5, 1.7551763500000002, 12.74255743]
      ],
      "pbc": [true, true, true],
      "a": 5.00013574165604,
      "b": 7.1864264985997455,
      "c": 12.862869581785938,
      "alpha": 82.48288121056504,
      "beta": 90.00043821687636,
      "gamma": 89.99722229845051,
      "volume": 458.2306257581259
    },
    "properties": {},
    "sites": [
      {
        "species": [{ "element": "Mn", "occu": 1 }],
        "abc": [0.7542792700000001, 0.9715906, 0.10941591],
        "properties": { "magmom": 3.7030000000000003 },
        "label": "Mn",
        "xyz": [3.7716616857337337, 7.174288258897204, 1.3545389641642174]
      },
      {
        "species": [{ "element": "Mn", "occu": 1 }],
        "abc": [0.27173155, 0.9191001, 0.32164723],
        "properties": { "magmom": 2.727 },
        "label": "Mn",
        "xyz": [1.3588400926686452, 7.169519571300835, 4.061071125829837]
      },
      {
        "species": [{ "element": "Mn", "occu": 1 }],
        "abc": [0.77203502, 0.5802626, 0.67923331],
        "properties": { "magmom": -2.725 },
        "label": "Mn",
        "xyz": [3.860352763390597, 5.362215936709541, 8.631446908075576]
      },
      {
        "species": [{ "element": "Mn", "occu": 1 }],
        "abc": [0.25276129, 0.52571464, 0.89045498],
        "properties": { "magmom": -3.703999999999999 },
        "label": "Mn",
        "xyz": [1.2638958210566589, 5.340885094727647, 11.325199014389172]
      },
      {
        "species": [{ "element": "Mn", "occu": 1 }],
        "abc": [0.75276758, 0.4742453, 0.10955089999999901],
        "properties": { "magmom": -3.705 },
        "label": "Mn",
        "xyz": [3.764017382299622, 3.6004472486780807, 1.3765654772613778]
      },
      {
        "species": [{ "element": "Mn", "occu": 1 }],
        "abc": [0.27198897, 0.41977989, 0.32074836],
        "properties": { "magmom": -2.725 },
        "label": "Mn",
        "xyz": [1.3600412804726667, 3.579671854457189, 4.07000418252788]
      },
      {
        "species": [{ "element": "Mn", "occu": 1 }],
        "abc": [0.7718204200000001, 0.08091348, 0.6783679],
        "properties": { "magmom": 2.727 },
        "label": "Mn",
        "xyz": [3.8591937808116104, 1.7722191340686353, 8.640807529925182]
      },
      {
        "species": [{ "element": "Mn", "occu": 1 }],
        "abc": [0.25434716, 0.02836106, 0.8905965100000001],
        "properties": { "magmom": 3.703999999999999 },
        "label": "Mn",
        "xyz": [1.2717397363990373, 1.7669964397592484, 11.34730907850397]
      },
      {
        "species": [{ "element": "F", "occu": 1 }],
        "abc": [0.95759571, 0.9917733400000001, 0.80835198],
        "properties": { "magmom": 0.023 },
        "label": "F",
        "xyz": [4.788247120751459, 8.54610863553851, 10.259939827770218]
      },
      {
        "species": [{ "element": "F", "occu": 1 }],
        "abc": [0.56032293, 0.95462978, 0.38894794],
        "properties": { "magmom": 0.10200000000000001 },
        "label": "F",
        "xyz": [2.8018396036861835, 7.543006813559151, 4.917192136196872]
      },
      {
        "species": [{ "element": "F", "occu": 1 }],
        "abc": [0.65855349, 0.83003741, 0.67983238],
        "properties": { "magmom": -0.0 },
        "label": "F",
        "xyz": [3.2929726967690387, 7.158212865706964, 8.628886943808352]
      },
      {
        "species": [{ "element": "F", "occu": 1 }],
        "abc": [0.36891171, 0.77747171, 0.88712969],
        "properties": { "magmom": 0.0 },
        "label": "F",
        "xyz": [1.8447071723284238, 7.144267315797457, 11.272542586619828]
      },
      {
        "species": [{ "element": "F", "occu": 1 }],
        "abc": [0.08393793000000001, 0.84455272, 0.42947899],
        "properties": { "magmom": 0.091 },
        "label": "F",
        "xyz": [0.41982936956482975, 6.823039725539468, 5.43817472875204]
      },
      {
        "species": [{ "element": "F", "occu": 1 }],
        "abc": [0.02796872, 0.94131967, 0.01945892],
        "properties": { "magmom": 0.024 },
        "label": "F",
        "xyz": [0.14000871667244227, 6.798772696503541, 0.20952172723137652]
      },
      {
        "species": [{ "element": "F", "occu": 1 }],
        "abc": [0.98060358, 0.88795924, 0.23365977000000002],
        "properties": { "magmom": 0.068 },
        "label": "F",
        "xyz": [4.9032946070424375, 6.791384917574137, 2.9411290934733816]
      },
      {
        "species": [{ "element": "F", "occu": 1 }],
        "abc": [0.94722461, 0.60072938, 0.81275999],
        "properties": { "magmom": -0.02 },
        "label": "F",
        "xyz": [4.736322699637395, 5.743680881709546, 10.332075671240768]
      },
      {
        "species": [{ "element": "F", "occu": 1 }],
        "abc": [0.06978757000000001, 0.64799229, 0.61930748],
        "properties": { "magmom": -0.10300000000000001 },
        "label": "F",
        "xyz": [0.34903424022016083, 5.743676186205007, 7.865101182284723]
      },
      {
        "species": [{ "element": "F", "occu": 1 }],
        "abc": [0.62901393, 0.72486384, 0.10120209000000001],
        "properties": { "magmom": 0.001 },
        "label": "F",
        "xyz": [3.145275823024861, 5.386801119084144, 1.2599525983241087]
      },
      {
        "species": [{ "element": "F", "occu": 1 }],
        "abc": [0.38186093, 0.67358766, 0.30477814000000003],
        "properties": { "magmom": 0.0 },
        "label": "F",
        "xyz": [1.9094603362843734, 5.3755961921113, 3.8561355291531516]
      },
      {
        "species": [{ "element": "F", "occu": 1 }],
        "abc": [0.59919761, 0.56105362, 0.56667249],
        "properties": { "magmom": -0.09 },
        "label": "F",
        "xyz": [2.9961434279516683, 5.026589002534693, 7.197925371060185]
      },
      {
        "species": [{ "element": "F", "occu": 1 }],
        "abc": [0.4734102, 0.50602469, 0.76268798],
        "properties": { "magmom": -0.07 },
        "label": "F",
        "xyz": [2.367172020289922, 4.97516038419794, 9.697915820613305]
      },
      {
        "species": [{ "element": "F", "occu": 1 }],
        "abc": [0.53174996, 0.45213768, 0.97759876],
        "properties": { "magmom": -0.025 },
        "label": "F",
        "xyz": [2.658860900089455, 4.965125055334948, 12.438626630397204]
      },
      {
        "species": [{ "element": "F", "occu": 1 }],
        "abc": [0.031687560000000004, 0.54780124, 0.02239297],
        "properties": { "magmom": -0.025 },
        "label": "F",
        "xyz": [0.1585355407309268, 3.975977297360009, 0.2629760207992343]
      },
      {
        "species": [{ "element": "F", "occu": 1 }],
        "abc": [0.97336577, 0.49399344, 0.23731398],
        "properties": { "magmom": -0.07 },
        "label": "F",
        "xyz": [4.867036588124164, 3.966637245732702, 3.0037787694744447]
      },
      {
        "species": [{ "element": "F", "occu": 1 }],
        "abc": [0.09923554, 0.43898255, 0.43332673],
        "properties": { "magmom": -0.09 },
        "label": "F",
        "xyz": [0.4962495036236533, 3.915241884543466, 5.503763374351448]
      },
      {
        "species": [{ "element": "F", "occu": 1 }],
        "abc": [0.88186036, 0.32642956, 0.69526036],
        "properties": { "magmom": 0.0 },
        "label": "F",
        "xyz": [4.409450022675359, 3.566236632019415, 8.846032002205796]
      },
      {
        "species": [{ "element": "F", "occu": 1 }],
        "abc": [0.12903427, 0.27516611, 0.89874186],
        "properties": { "magmom": 0.001 },
        "label": "F",
        "xyz": [0.6452004518276677, 3.5548953556394474, 11.441029745430106]
      },
      {
        "species": [{ "element": "F", "occu": 1 }],
        "abc": [0.56976153, 0.35197347, 0.38065338],
        "properties": { "magmom": -0.10300000000000001 },
        "label": "F",
        "xyz": [2.8489304378374904, 3.1975741785441594, 4.836103978777182]
      },
      {
        "species": [{ "element": "F", "occu": 1 }],
        "abc": [0.44719439, 0.399360799999999, 0.18722381],
        "properties": { "magmom": -0.02 },
        "label": "F",
        "xyz": [2.2360939649719063, 3.198596240968399, 2.369386657620294]
      },
      {
        "species": [{ "element": "F", "occu": 1 }],
        "abc": [0.48066394, 0.11203701, 0.7663587],
        "properties": { "magmom": 0.068 },
        "label": "F",
        "xyz": [2.4033737140293163, 2.1502862271750582, 9.760776192387466]
      },
      {
        "species": [{ "element": "F", "occu": 1 }],
        "abc": [0.5280755, 0.05866125, 0.9805432900000001],
        "properties": { "magmom": 0.024 },
        "label": "F",
        "xyz": [2.6404202273963793, 2.142648970762864, 12.492213045605167]
      },
      {
        "species": [{ "element": "F", "occu": 1 }],
        "abc": [0.58392139, 0.15548703, 0.57056556],
        "properties": { "magmom": 0.091 },
        "label": "F",
        "xyz": [2.91969026072979, 2.118892709354686, 7.264092708374114]
      },
      {
        "species": [{ "element": "F", "occu": 1 }],
        "abc": [0.8688594, 0.22241834, 0.11286216],
        "properties": { "magmom": 0.0 },
        "label": "F",
        "xyz": [4.344448744113271, 1.7965665707254475, 1.4290367303118339]
      },
      {
        "species": [{ "element": "F", "occu": 1 }],
        "abc": [0.15847529, 0.16999217, 0.32018255],
        "properties": { "magmom": -0.0 },
        "label": "F",
        "xyz": [0.792414481216572, 1.7836127499526366, 4.072997532582639]
      },
      {
        "species": [{ "element": "F", "occu": 1 }],
        "abc": [0.06039955, 0.04539477, 0.6110405600000001],
        "properties": { "magmom": 0.10200000000000001 },
        "label": "F",
        "xyz": [0.30198942786880617, 1.3987122436457224, 7.784363578653308]
      },
      {
        "species": [{ "element": "F", "occu": 1 }],
        "abc": [0.45754536, 0.00820059, 0.19164936],
        "properties": { "magmom": 0.023 },
        "label": "F",
        "xyz": [2.2877826859547556, 0.39536640009554014, 2.4417499266116804]
      }
    ]
  },
  "task_ids": null,
  "uncorrected_energy_per_atom": null,
  "energy_per_atom": -6.06963684,
  "formation_energy_per_atom": -2.54508159454023,
  "energy_above_hull": 0.015139468055555001,
  "is_stable": false,
  "equilibrium_reaction_energy_per_atom": null,
  "decomposes_to": null,
  "xas": null,
  "grain_boundaries": null,
  "band_gap": 0.6527000000000001,
  "cbm": null,
  "vbm": null,
  "efermi": -2.33667387,
  "is_gap_direct": null,
  "is_metal": null,
  "es_source_calc_id": null,
  "bandstructure": null,
  "dos": null,
  "dos_energy_up": null,
  "dos_energy_down": null,
  "is_magnetic": null,
  "ordering": null,
  "total_magnetization": 2e-7,
  "total_magnetization_normalized_vol": null,
  "total_magnetization_normalized_formula_units": null,
  "num_magnetic_sites": null,
  "num_unique_magnetic_sites": null,
  "types_of_magnetic_species": null,
  "bulk_modulus": null,
  "shear_modulus": null,
  "universal_anisotropy": null,
  "homogeneous_poisson": null,
  "e_total": null,
  "e_ionic": null,
  "e_electronic": null,
  "n": null,
  "e_ij_max": null,
  "weighted_surface_energy_EV_PER_ANG2": null,
  "weighted_surface_energy": null,
  "weighted_work_function": null,
  "surface_anisotropy": null,
  "shape_factor": null,
  "has_reconstructed": null,
  "possible_species": null,
  "has_props": null,
  "theoretical": null,
  "database_IDs": null,
  "fields_not_requested": [
    "builder_meta",
    "nsites",
    "elements",
    "nelements",
    "composition",
    "composition_reduced",
    "chemsys",
    "symmetry",
    "property_name",
    "deprecated",
    "deprecation_reasons",
    "last_updated",
    "origins",
    "warnings",
    "task_ids",
    "uncorrected_energy_per_atom",
    "equilibrium_reaction_energy_per_atom",
    "decomposes_to",
    "xas",
    "grain_boundaries",
    "cbm",
    "vbm",
    "is_gap_direct",
    "is_metal",
    "es_source_calc_id",
    "bandstructure",
    "dos",
    "dos_energy_up",
    "dos_energy_down",
    "is_magnetic",
    "ordering",
    "total_magnetization_normalized_vol",
    "total_magnetization_normalized_formula_units",
    "num_magnetic_sites",
    "num_unique_magnetic_sites",
    "types_of_magnetic_species",
    "bulk_modulus",
    "shear_modulus",
    "universal_anisotropy",
    "homogeneous_poisson",
    "e_total",
    "e_ionic",
    "e_electronic",
    "n",
    "e_ij_max",
    "weighted_surface_energy_EV_PER_ANG2",
    "weighted_surface_energy",
    "weighted_work_function",
    "surface_anisotropy",
    "shape_factor",
    "has_reconstructed",
    "possible_species",
    "has_props",
    "theoretical",
    "database_IDs"
  ]
}
