{"builder_meta": null, "nsites": null, "elements": null, "nelements": null, "composition": null, "composition_reduced": null, "formula_pretty": "Mn2F5", "formula_anonymous": "A2B5", "chemsys": null, "volume": 214.3785185378672, "density": 3.173746099502589, "density_atomic": 15.312751324133371, "symmetry": null, "property_name": null, "material_id": "mp-753215", "deprecated": null, "deprecation_reasons": null, "last_updated": null, "origins": null, "warnings": null, "structure": {"@module": "pymatgen.core.structure", "@class": "Structure", "charge": 0, "lattice": {"matrix": [[2.653985, 5.478664, 0.0], [-2.653985, 5.478664, 0.0], [0.0, 3.053461, 7.371878]], "pbc": [true, true, true], "a": 6.087642861167285, "b": 6.087642861167285, "c": 7.979236136711646, "alpha": 69.85514473482141, "beta": 69.85514473482141, "gamma": 51.69313104285115, "volume": 214.3785185378672}, "properties": {}, "sites": [{"species": [{"element": "Mn", "occu": 1}], "abc": [0.403678, 0.360483, 0.703878], "properties": {"magmom": 4.336}, "label": "Mn", "xyz": [0.11463888207500006, 6.335845382662001, 5.188902742884]}, {"species": [{"element": "Mn", "occu": 1}], "abc": [0.360483, 0.403678, 0.203878], "properties": {"magmom": 4.336}, "label": "Mn", "xyz": [-0.11463888207500006, 4.8091148826620005, 1.502963742884]}, {"species": [{"element": "Mn", "occu": 1}], "abc": [0.639517, 0.596322, 0.796122], "properties": {"magmom": 4.336}, "label": "Mn", "xyz": [0.11463888207499995, 9.201674117338, 5.868914257116]}, {"species": [{"element": "Mn", "occu": 1}], "abc": [0.596322, 0.639517, 0.296122], "properties": {"magmom": 4.336}, "label": "Mn", "xyz": [-0.11463888207499995, 7.674943617338, 2.182975257116]}, {"species": [{"element": "F", "occu": 1}], "abc": [0.563968, 0.291411, 0.429901], "properties": {"magmom": 0.047}, "label": "F", "xyz": [0.7233621896450002, 5.999020071017, 3.1691777240779997]}, {"species": [{"element": "F", "occu": 1}], "abc": [0.452976, 0.990656, 0.811489], "properties": {"magmom": -0.014}, "label": "F", "xyz": [-1.4269946548, 10.387024681077001, 5.982197906342]}, {"species": [{"element": "F", "occu": 1}], "abc": [0.990656, 0.452976, 0.311488999999999], "properties": {"magmom": -0.014}, "label": "F", "xyz": [1.4269946548, 8.860294181076997, 2.2962589063419925]}, {"species": [{"element": "F", "occu": 1}], "abc": [0.291411, 0.563968, 0.929901], "properties": {"magmom": 0.047}, "label": "F", "xyz": [-0.7233621896450002, 7.525750571017, 6.855116724078]}, {"species": [{"element": "F", "occu": 1}], "abc": [0.7762500000000001, 0.22375, 0.75], "properties": {"magmom": -0.02}, "label": "F", "xyz": [1.4663267125000001, 7.768759750000001, 5.5289085]}, {"species": [{"element": "F", "occu": 1}], "abc": [0.708588999999999, 0.436032, 0.070099], "properties": {"magmom": 0.047}, "label": "F", "xyz": [0.7233621896449975, 6.485038428982994, 0.5167612759219999]}, {"species": [{"element": "F", "occu": 1}], "abc": [0.009344, 0.547024, 0.688511], "properties": {"magmom": -0.014}, "label": "F", "xyz": [-1.4269946547999999, 5.150494818923, 5.075619093658]}, {"species": [{"element": "F", "occu": 1}], "abc": [0.547024, 0.009344, 0.188510999999999], "properties": {"magmom": -0.014}, "label": "F", "xyz": [1.4269946547999999, 3.623764318922997, 1.3896800936579927]}, {"species": [{"element": "F", "occu": 1}], "abc": [0.436032, 0.708588999999999, 0.570099], "properties": {"magmom": 0.047}, "label": "F", "xyz": [-0.7233621896449975, 8.011768928982995, 4.202700275922]}, {"species": [{"element": "F", "occu": 1}], "abc": [0.22375, 0.7762500000000001, 0.25], "properties": {"magmom": -0.02}, "label": "F", "xyz": [-1.4663267125000001, 6.242029250000001, 1.8429695]}]}, "task_ids": null, "uncorrected_energy_per_atom": null, "energy_per_atom": -6.762831915, "formation_energy_per_atom": -2.778075849408868, "energy_above_hull": 0.07338494821428501, "is_stable": false, "equilibrium_reaction_energy_per_atom": null, "decomposes_to": null, "xas": null, "grain_boundaries": null, "band_gap": 0.0, "cbm": null, "vbm": null, "efermi": -1.0648689, "is_gap_direct": null, "is_metal": null, "es_source_calc_id": null, "bandstructure": null, "dos": null, "dos_energy_up": null, "dos_energy_down": null, "is_magnetic": null, "ordering": null, "total_magnetization": 18.0000001, "total_magnetization_normalized_vol": null, "total_magnetization_normalized_formula_units": null, "num_magnetic_sites": null, "num_unique_magnetic_sites": null, "types_of_magnetic_species": null, "bulk_modulus": null, "shear_modulus": null, "universal_anisotropy": null, "homogeneous_poisson": null, "e_total": null, "e_ionic": null, "e_electronic": null, "n": null, "e_ij_max": null, "weighted_surface_energy_EV_PER_ANG2": null, "weighted_surface_energy": null, "weighted_work_function": null, "surface_anisotropy": null, "shape_factor": null, "has_reconstructed": null, "possible_species": null, "has_props": null, "theoretical": null, "database_IDs": null, "fields_not_requested": ["builder_meta", "nsites", "elements", "nelements", "composition", "composition_reduced", "chemsys", "symmetry", "property_name", "deprecated", "deprecation_reasons", "last_updated", "origins", "warnings", "task_ids", "uncorrected_energy_per_atom", "equilibrium_reaction_energy_per_atom", "decomposes_to", "xas", "grain_boundaries", "cbm", "vbm", "is_gap_direct", "is_metal", "es_source_calc_id", "bandstructure", "dos", "dos_energy_up", "dos_energy_down", "is_magnetic", "ordering", "total_magnetization_normalized_vol", "total_magnetization_normalized_formula_units", "num_magnetic_sites", "num_unique_magnetic_sites", "types_of_magnetic_species", "bulk_modulus", "shear_modulus", "universal_anisotropy", "homogeneous_poisson", "e_total", "e_ionic", "e_electronic", "n", "e_ij_max", "weighted_surface_energy_EV_PER_ANG2", "weighted_surface_energy", "weighted_work_function", "surface_anisotropy", "shape_factor", "has_reconstructed", "possible_species", "has_props", "theoretical", "database_IDs"]}