{"builder_meta": null, "nsites": null, "elements": null, "nelements": null, "composition": null, "composition_reduced": null, "formula_pretty": "Mn2Ga5", "formula_anonymous": "A2B5", "chemsys": null, "volume": 211.48028010661886, "density": 7.200126330920139, "density_atomic": 15.105734293329919, "symmetry": null, "property_name": null, "material_id": "mp-607225", "deprecated": null, "deprecation_reasons": null, "last_updated": null, "origins": null, "warnings": null, "structure": {"@module": "pymatgen.core.structure", "@class": "Structure", "charge": 0, "lattice": {"matrix": [[8.847074, 0.0, 0.0], [0.0, 8.847074, 0.0], [0.0, 0.0, 2.701908]], "pbc": [true, true, true], "a": 8.847074, "b": 8.847074, "c": 2.701908, "alpha": 90.0, "beta": 90.0, "gamma": 90.0, "volume": 211.48028010661886}, "properties": {}, "sites": [{"species": [{"element": "Mn", "occu": 1}], "abc": [0.678651, 0.178651, 0.5], "properties": {"magmom": 2.383}, "label": "Mn", "xyz": [6.004075617173999, 1.580538617174, 1.350954]}, {"species": [{"element": "Mn", "occu": 1}], "abc": [0.321349, 0.821349, 0.5], "properties": {"magmom": 2.383}, "label": "Mn", "xyz": [2.842998382826, 7.2665353828259995, 1.350954]}, {"species": [{"element": "Mn", "occu": 1}], "abc": [0.178651, 0.321349, 0.5], "properties": {"magmom": 2.383}, "label": "Mn", "xyz": [1.580538617174, 2.842998382826, 1.350954]}, {"species": [{"element": "Mn", "occu": 1}], "abc": [0.821349, 0.678651, 0.5], "properties": {"magmom": 2.383}, "label": "Mn", "xyz": [7.2665353828259995, 6.004075617173999, 1.350954]}, {"species": [{"element": "Ga", "occu": 1}], "abc": [0.5, 0.0, 0.0], "properties": {"magmom": -0.059000000000000004}, "label": "Ga", "xyz": [4.423537, 0.0, 0.0]}, {"species": [{"element": "Ga", "occu": 1}], "abc": [0.0, 0.5, 0.0], "properties": {"magmom": -0.059000000000000004}, "label": "Ga", "xyz": [0.0, 4.423537, 0.0]}, {"species": [{"element": "Ga", "occu": 1}], "abc": [0.564785, 0.7068700000000001, 0.0], "properties": {"magmom": -0.064}, "label": "Ga", "xyz": [4.996694689089999, 6.253731198380001, 0.0]}, {"species": [{"element": "Ga", "occu": 1}], "abc": [0.435214999999999, 0.29313, 0.0], "properties": {"magmom": -0.064}, "label": "Ga", "xyz": [3.850379310909991, 2.59334280162, 0.0]}, {"species": [{"element": "Ga", "occu": 1}], "abc": [0.064785, 0.7931300000000001, 0.0], "properties": {"magmom": -0.064}, "label": "Ga", "xyz": [0.5731576890899999, 7.01687980162, 0.0]}, {"species": [{"element": "Ga", "occu": 1}], "abc": [0.935214999999999, 0.20687000000000003, 0.0], "properties": {"magmom": -0.064}, "label": "Ga", "xyz": [8.273916310909991, 1.83019419838, 0.0]}, {"species": [{"element": "Ga", "occu": 1}], "abc": [0.29313, 0.564785, 0.0], "properties": {"magmom": -0.064}, "label": "Ga", "xyz": [2.59334280162, 4.996694689089999, 0.0]}, {"species": [{"element": "Ga", "occu": 1}], "abc": [0.7068700000000001, 0.435214999999999, 0.0], "properties": {"magmom": -0.064}, "label": "Ga", "xyz": [6.253731198380001, 3.850379310909991, 0.0]}, {"species": [{"element": "Ga", "occu": 1}], "abc": [0.20687000000000003, 0.064785, 0.0], "properties": {"magmom": -0.064}, "label": "Ga", "xyz": [1.83019419838, 0.5731576890899999, 0.0]}, {"species": [{"element": "Ga", "occu": 1}], "abc": [0.7931300000000001, 0.935214999999999, 0.0], "properties": {"magmom": -0.064}, "label": "Ga", "xyz": [7.01687980162, 8.273916310909991, 0.0]}]}, "task_ids": null, "uncorrected_energy_per_atom": null, "energy_per_atom": -12.514606299999999, "formation_energy_per_atom": -0.145956428423644, "energy_above_hull": 0.032226584285714004, "is_stable": false, "equilibrium_reaction_energy_per_atom": null, "decomposes_to": null, "xas": null, "grain_boundaries": null, "band_gap": 0.0, "cbm": null, "vbm": null, "efermi": 4.79765748, "is_gap_direct": null, "is_metal": null, "es_source_calc_id": null, "bandstructure": null, "dos": null, "dos_energy_up": null, "dos_energy_down": null, "is_magnetic": null, "ordering": null, "total_magnetization": 9.0532129, "total_magnetization_normalized_vol": null, "total_magnetization_normalized_formula_units": null, "num_magnetic_sites": null, "num_unique_magnetic_sites": null, "types_of_magnetic_species": null, "bulk_modulus": null, "shear_modulus": null, "universal_anisotropy": null, "homogeneous_poisson": null, "e_total": null, "e_ionic": null, "e_electronic": null, "n": null, "e_ij_max": null, "weighted_surface_energy_EV_PER_ANG2": null, "weighted_surface_energy": null, "weighted_work_function": null, "surface_anisotropy": null, "shape_factor": null, "has_reconstructed": null, "possible_species": null, "has_props": null, "theoretical": null, "database_IDs": null, "fields_not_requested": ["builder_meta", "nsites", "elements", "nelements", "composition", "composition_reduced", "chemsys", "symmetry", "property_name", "deprecated", "deprecation_reasons", "last_updated", "origins", "warnings", "task_ids", "uncorrected_energy_per_atom", "equilibrium_reaction_energy_per_atom", "decomposes_to", "xas", "grain_boundaries", "cbm", "vbm", "is_gap_direct", "is_metal", "es_source_calc_id", "bandstructure", "dos", "dos_energy_up", "dos_energy_down", "is_magnetic", "ordering", "total_magnetization_normalized_vol", "total_magnetization_normalized_formula_units", "num_magnetic_sites", "num_unique_magnetic_sites", "types_of_magnetic_species", "bulk_modulus", "shear_modulus", "universal_anisotropy", "homogeneous_poisson", "e_total", "e_ionic", "e_electronic", "n", "e_ij_max", "weighted_surface_energy_EV_PER_ANG2", "weighted_surface_energy", "weighted_work_function", "surface_anisotropy", "shape_factor", "has_reconstructed", "possible_species", "has_props", "theoretical", "database_IDs"]}