{
  "builder_meta": null,
  "nsites": null,
  "elements": null,
  "nelements": null,
  "composition": null,
  "composition_reduced": null,
  "formula_pretty": "Mn2Hg5",
  "formula_anonymous": "A2B5",
  "chemsys": null,
  "volume": 302.00882586836343,
  "density": 12.237332412147238,
  "density_atomic": 21.572058990597387,
  "symmetry": null,
  "property_name": null,
  "material_id": "mp-30720",
  "deprecated": null,
  "deprecation_reasons": null,
  "last_updated": null,
  "origins": null,
  "warnings": null,
  "structure": {
    "@module": "pymatgen.core.structure",
    "@class": "Structure",
    "charge": 0,
    "lattice": {
      "matrix": [
        [10.00514, 0.0, 0.0],
        [0.0, 10.00514, 0.0],
        [0.0, 0.0, 3.016986]
      ],
      "pbc": [true, true, true],
      "a": 10.00514,
      "b": 10.00514,
      "c": 3.016986,
      "alpha": 90.0,
      "beta": 90.0,
      "gamma": 90.0,
      "volume": 302.00882586836343
    },
    "properties": {},
    "sites": [
      {
        "species": [{ "element": "Mn", "occu": 1 }],
        "abc": [0.319422, 0.819422, 0.5],
        "properties": { "magmom": 3.829 },
        "label": "Mn",
        "xyz": [3.19586182908, 8.19843182908, 1.508493]
      },
      {
        "species": [{ "element": "Mn", "occu": 1 }],
        "abc": [0.819422, 0.680578, 0.5],
        "properties": { "magmom": 3.829 },
        "label": "Mn",
        "xyz": [8.19843182908, 6.809278170920001, 1.508493]
      },
      {
        "species": [{ "element": "Mn", "occu": 1 }],
        "abc": [0.180578, 0.319422, 0.5],
        "properties": { "magmom": 3.829 },
        "label": "Mn",
        "xyz": [1.8067081709200001, 3.19586182908, 1.508493]
      },
      {
        "species": [{ "element": "Mn", "occu": 1 }],
        "abc": [0.680578, 0.180578, 0.5],
        "properties": { "magmom": 3.829 },
        "label": "Mn",
        "xyz": [6.809278170920001, 1.8067081709200001, 1.508493]
      },
      {
        "species": [{ "element": "Hg", "occu": 1 }],
        "abc": [0.935778, 0.203326999999999, 0.0],
        "properties": { "magmom": -0.03 },
        "label": "Hg",
        "xyz": [9.362589898920001, 2.0343151007799904, 0.0]
      },
      {
        "species": [{ "element": "Hg", "occu": 1 }],
        "abc": [0.796673, 0.935778, 0.0],
        "properties": { "magmom": -0.03 },
        "label": "Hg",
        "xyz": [7.97082489922, 9.362589898920001, 0.0]
      },
      {
        "species": [{ "element": "Hg", "occu": 1 }],
        "abc": [0.296672999999999, 0.564222, 0.0],
        "properties": { "magmom": -0.03 },
        "label": "Hg",
        "xyz": [2.9682548992199904, 5.645120101080001, 0.0]
      },
      {
        "species": [{ "element": "Hg", "occu": 1 }],
        "abc": [0.703326999999999, 0.435778, 0.0],
        "properties": { "magmom": -0.03 },
        "label": "Hg",
        "xyz": [7.036885100779991, 4.36001989892, 0.0]
      },
      {
        "species": [{ "element": "Hg", "occu": 1 }],
        "abc": [0.564222, 0.703326999999999, 0.0],
        "properties": { "magmom": -0.03 },
        "label": "Hg",
        "xyz": [5.645120101080001, 7.036885100779991, 0.0]
      },
      {
        "species": [{ "element": "Hg", "occu": 1 }],
        "abc": [0.435778, 0.296672999999999, 0.0],
        "properties": { "magmom": -0.03 },
        "label": "Hg",
        "xyz": [4.36001989892, 2.9682548992199904, 0.0]
      },
      {
        "species": [{ "element": "Hg", "occu": 1 }],
        "abc": [0.064222, 0.796673, 0.0],
        "properties": { "magmom": -0.03 },
        "label": "Hg",
        "xyz": [0.6425501010800001, 7.97082489922, 0.0]
      },
      {
        "species": [{ "element": "Hg", "occu": 1 }],
        "abc": [0.203326999999999, 0.064222, 0.0],
        "properties": { "magmom": -0.03 },
        "label": "Hg",
        "xyz": [2.0343151007799904, 0.6425501010800001, 0.0]
      },
      {
        "species": [{ "element": "Hg", "occu": 1 }],
        "abc": [0.0, 0.5, 0.0],
        "properties": { "magmom": -0.047 },
        "label": "Hg",
        "xyz": [0.0, 5.00257, 0.0]
      },
      {
        "species": [{ "element": "Hg", "occu": 1 }],
        "abc": [0.5, 0.0, 0.0],
        "properties": { "magmom": -0.047 },
        "label": "Hg",
        "xyz": [5.00257, 0.0, 0.0]
      }
    ]
  },
  "task_ids": null,
  "uncorrected_energy_per_atom": null,
  "energy_per_atom": -39.22175535777093,
  "formation_energy_per_atom": 0.23620206559113302,
  "energy_above_hull": 0.23620206559113602,
  "is_stable": false,
  "equilibrium_reaction_energy_per_atom": null,
  "decomposes_to": null,
  "xas": null,
  "grain_boundaries": null,
  "band_gap": 0.0,
  "cbm": null,
  "vbm": null,
  "efermi": 2.8721207,
  "is_gap_direct": null,
  "is_metal": null,
  "es_source_calc_id": null,
  "bandstructure": null,
  "dos": null,
  "dos_energy_up": null,
  "dos_energy_down": null,
  "is_magnetic": null,
  "ordering": null,
  "total_magnetization": 15.4834129,
  "total_magnetization_normalized_vol": null,
  "total_magnetization_normalized_formula_units": null,
  "num_magnetic_sites": null,
  "num_unique_magnetic_sites": null,
  "types_of_magnetic_species": null,
  "bulk_modulus": null,
  "shear_modulus": null,
  "universal_anisotropy": null,
  "homogeneous_poisson": null,
  "e_total": null,
  "e_ionic": null,
  "e_electronic": null,
  "n": null,
  "e_ij_max": null,
  "weighted_surface_energy_EV_PER_ANG2": null,
  "weighted_surface_energy": null,
  "weighted_work_function": null,
  "surface_anisotropy": null,
  "shape_factor": null,
  "has_reconstructed": null,
  "possible_species": null,
  "has_props": null,
  "theoretical": null,
  "database_IDs": null,
  "fields_not_requested": [
    "builder_meta",
    "nsites",
    "elements",
    "nelements",
    "composition",
    "composition_reduced",
    "chemsys",
    "symmetry",
    "property_name",
    "deprecated",
    "deprecation_reasons",
    "last_updated",
    "origins",
    "warnings",
    "task_ids",
    "uncorrected_energy_per_atom",
    "equilibrium_reaction_energy_per_atom",
    "decomposes_to",
    "xas",
    "grain_boundaries",
    "cbm",
    "vbm",
    "is_gap_direct",
    "is_metal",
    "es_source_calc_id",
    "bandstructure",
    "dos",
    "dos_energy_up",
    "dos_energy_down",
    "is_magnetic",
    "ordering",
    "total_magnetization_normalized_vol",
    "total_magnetization_normalized_formula_units",
    "num_magnetic_sites",
    "num_unique_magnetic_sites",
    "types_of_magnetic_species",
    "bulk_modulus",
    "shear_modulus",
    "universal_anisotropy",
    "homogeneous_poisson",
    "e_total",
    "e_ionic",
    "e_electronic",
    "n",
    "e_ij_max",
    "weighted_surface_energy_EV_PER_ANG2",
    "weighted_surface_energy",
    "weighted_work_function",
    "surface_anisotropy",
    "shape_factor",
    "has_reconstructed",
    "possible_species",
    "has_props",
    "theoretical",
    "database_IDs"
  ]
}
