{"builder_meta": null, "nsites": null, "elements": null, "nelements": null, "composition": null, "composition_reduced": null, "formula_pretty": "Mn2Nb", "formula_anonymous": "AB2", "chemsys": null, "volume": 177.97166056954623, "density": 7.568131069385818, "density_atomic": 14.830971714128852, "symmetry": null, "property_name": null, "material_id": "mp-12659", "deprecated": null, "deprecation_reasons": null, "last_updated": null, "origins": null, "warnings": null, "structure": {"@module": "pymatgen.core.structure", "@class": "Structure", "charge": 0, "lattice": {"matrix": [[2.54424796, -4.40669823, -9e-08], [2.54424946, 4.40669739, 2.5e-07], [2.799999999999998e-07, 4e-07, 7.93684729]], "pbc": [true, true, true], "a": 5.088436594107201, "b": 5.08843661665773, "c": 7.936847290000015, "alpha": 89.99999367362338, "beta": 90.0000025034448, "gamma": 119.99920929137171, "volume": 177.97166056954623}, "properties": {}, "sites": [{"species": [{"element": "Mn", "occu": 1}], "abc": [0.1700248, 0.34005262, 0.75002181], "properties": {"magmom": 3.108}, "label": "Mn", "xyz": [1.2977641553621, 0.7492613078092817, 5.952808639850319]}, {"species": [{"element": "Mn", "occu": 1}], "abc": [0.83037659, 0.169624, 0.24997624000000002], "properties": {"magmom": 3.049}, "label": "Mn", "xyz": [2.5442497855356434, -2.91173731131458, 1.9840232106804967]}, {"species": [{"element": "Mn", "occu": 1}], "abc": [0.33924897, 0.16962371, 0.2499766], "properties": {"magmom": 3.049}, "label": "Mn", "xyz": [1.2946986024187457, -0.747487375498566, 1.9840261121469343]}, {"species": [{"element": "Mn", "occu": 1}], "abc": [0.6599475300000001, 0.8299755400000001, 0.75002163], "properties": {"magmom": 3.108}, "label": "Mn", "xyz": [3.7907351863738037, 0.7492617335466204, 5.95280728960549]}, {"species": [{"element": "Mn", "occu": 1}], "abc": [0.0, -3.5e-07, 0.00030227], "properties": {"magmom": -2.985999999999999}, "label": "Mn", "xyz": [-8.904026754e-07, -1.5422231784999998e-06, 0.0023990708302608003]}, {"species": [{"element": "Mn", "occu": 1}], "abc": [-1.2e-07, -4.099999999999998e-07, 0.49969792], "properties": {"magmom": -2.987}, "label": "Mn", "xyz": [-1.2085366161999995e-06, -1.078062974299999e-06, 3.9660260821705458]}, {"species": [{"element": "Mn", "occu": 1}], "abc": [0.83037664, 0.66075151, 0.24997641], "properties": {"magmom": 3.049}, "label": "Mn", "xyz": [3.7938008148567337, -0.7474872151752245, 1.984024682726409]}, {"species": [{"element": "Mn", "occu": 1}], "abc": [0.17002622, 0.82997445, 0.75002156], "properties": {"magmom": 3.108}, "label": "Mn", "xyz": [2.544251119613845, 2.908192299862719, 5.952806778118825]}, {"species": [{"element": "Nb", "occu": 1}], "abc": [0.33333287, 0.66666689, 0.43690085], "properties": {"magmom": -0.311}, "label": "Nb", "xyz": [2.544248471713063, 1.468902050692937, 3.467615463987961]}, {"species": [{"element": "Nb", "occu": 1}], "abc": [0.66666716, 0.33333267, 0.9428571], "properties": {"magmom": -0.683}, "label": "Nb", "xyz": [2.54424829147684, -1.4689044099375557, 7.4833128423253825]}, {"species": [{"element": "Nb", "occu": 1}], "abc": [0.666667599999999, 0.33333223, 0.55715413], "properties": {"magmom": -0.683}, "label": "Nb", "xyz": [2.544248183479346, -1.4689084421128118, 4.422047270135781]}, {"species": [{"element": "Nb", "occu": 1}], "abc": [0.33333273, 0.66666713, 0.06309348000000001], "properties": {"magmom": -0.311}, "label": "Nb", "xyz": [2.544248621472155, 1.4689035757151148, 0.5007634524215061]}]}, "task_ids": null, "uncorrected_energy_per_atom": null, "energy_per_atom": -18.1150235225, "formation_energy_per_atom": -0.08144218882183901, "energy_above_hull": 0.0, "is_stable": true, "equilibrium_reaction_energy_per_atom": null, "decomposes_to": null, "xas": null, "grain_boundaries": null, "band_gap": 0.0, "cbm": null, "vbm": null, "efermi": 6.00963019, "is_gap_direct": null, "is_metal": null, "es_source_calc_id": null, "bandstructure": null, "dos": null, "dos_energy_up": null, "dos_energy_down": null, "is_magnetic": null, "ordering": null, "total_magnetization": 10.3085639, "total_magnetization_normalized_vol": null, "total_magnetization_normalized_formula_units": null, "num_magnetic_sites": null, "num_unique_magnetic_sites": null, "types_of_magnetic_species": null, "bulk_modulus": null, "shear_modulus": null, "universal_anisotropy": null, "homogeneous_poisson": null, "e_total": null, "e_ionic": null, "e_electronic": null, "n": null, "e_ij_max": null, "weighted_surface_energy_EV_PER_ANG2": null, "weighted_surface_energy": null, "weighted_work_function": null, "surface_anisotropy": null, "shape_factor": null, "has_reconstructed": null, "possible_species": null, "has_props": null, "theoretical": null, "database_IDs": null, "fields_not_requested": ["builder_meta", "nsites", "elements", "nelements", "composition", "composition_reduced", "chemsys", "symmetry", "property_name", "deprecated", "deprecation_reasons", "last_updated", "origins", "warnings", "task_ids", "uncorrected_energy_per_atom", "equilibrium_reaction_energy_per_atom", "decomposes_to", "xas", "grain_boundaries", "cbm", "vbm", "is_gap_direct", "is_metal", "es_source_calc_id", "bandstructure", "dos", "dos_energy_up", "dos_energy_down", "is_magnetic", "ordering", "total_magnetization_normalized_vol", "total_magnetization_normalized_formula_units", "num_magnetic_sites", "num_unique_magnetic_sites", "types_of_magnetic_species", "bulk_modulus", "shear_modulus", "universal_anisotropy", "homogeneous_poisson", "e_total", "e_ionic", "e_electronic", "n", "e_ij_max", "weighted_surface_energy_EV_PER_ANG2", "weighted_surface_energy", "weighted_work_function", "surface_anisotropy", "shape_factor", "has_reconstructed", "possible_species", "has_props", "theoretical", "database_IDs"]}