{"builder_meta": null, "nsites": null, "elements": null, "nelements": null, "composition": null, "composition_reduced": null, "formula_pretty": "Mn2N", "formula_anonymous": "AB2", "chemsys": null, "volume": 120.29446764016485, "density": 6.840288385987886, "density_atomic": 10.024538970013738, "symmetry": null, "property_name": null, "material_id": "mp-9981", "deprecated": null, "deprecation_reasons": null, "last_updated": null, "origins": null, "warnings": null, "structure": {"@module": "pymatgen.core.structure", "@class": "Structure", "charge": 0, "lattice": {"matrix": [[4.39070804, 1.018e-05, 3.753e-05], [8.54e-06, 4.87246924, 2.271e-05], [4.9900000000000014e-05, 2.6230000000000005e-05, 5.62292109]], "pbc": [true, true, true], "a": 4.390708040172197, "b": 4.872469240060409, "c": 5.6229210902825955, "alpha": 89.99946567492378, "beta": 89.9990017930379, "gamma": 89.99976673299608, "volume": 120.29446764016485}, "properties": {}, "sites": [{"species": [{"element": "Mn", "occu": 1}], "abc": [0.24543781, 0.08236807, 0.12347293000000001], "properties": {"magmom": 2.68}, "label": "Mn", "xyz": [1.0776526304095173, 0.40134162468502654, 0.6942896240009727]}, {"species": [{"element": "Mn", "occu": 1}], "abc": [0.74545478, 0.91763154, 0.37657058], "properties": {"magmom": 2.68}, "label": "Mn", "xyz": [3.2731009234477244, 4.471148918479804, 2.117475472485699]}, {"species": [{"element": "Mn", "occu": 1}], "abc": [0.25456299, 0.58218253, 0.37656341], "properties": {"magmom": 2.6790000000000003}, "label": "Mn", "xyz": [1.1177355292324047, 2.836678938199859, 2.117409114925588]}, {"species": [{"element": "Mn", "occu": 1}], "abc": [0.7545511300000001, 0.41783106000000003, 0.12347555], "properties": {"magmom": 2.6790000000000003}, "label": "Mn", "xyz": [3.3130234427892824, 2.035879907460774, 0.694331081441631]}, {"species": [{"element": "Mn", "occu": 1}], "abc": [0.24544887, 0.58216894, 0.87652445], "properties": {"magmom": 2.6790000000000003}, "label": "Mn", "xyz": [1.0777430372107173, 2.836625742539226, 4.92865024855837]}, {"species": [{"element": "Mn", "occu": 1}], "abc": [0.7454370100000001, 0.41781747, 0.6234365900000001], "properties": {"magmom": 2.6790000000000003}, "label": "Mn", "xyz": [3.273030950767595, 2.0358267118001407, 3.5055722150744124]}, {"species": [{"element": "Mn", "occu": 1}], "abc": [0.25454522, 0.08236846, 0.62342942], "properties": {"magmom": 2.68}, "label": "Mn", "xyz": [1.1176655565522753, 0.4013567315201966, 3.505505857514301]}, {"species": [{"element": "Mn", "occu": 1}], "abc": [0.75456219, 0.91763193, 0.87652707], "properties": {"magmom": 2.68}, "label": "Mn", "xyz": [3.313113849590483, 4.471164025314974, 4.928691705999028]}, {"species": [{"element": "N", "occu": 1}], "abc": [0.49996913, 0.74998772, 0.12783373], "properties": {"magmom": -0.188}, "label": "N", "xyz": [2.195231262641061, 3.654300538842214, 0.7188347724929358]}, {"species": [{"element": "N", "occu": 1}], "abc": [-2.2210000000000002e-05, 0.25001559, 0.37217333], "properties": {"magmom": -0.188}, "label": "N", "xyz": [-7.681104326279999e-05, 1.2182030336757996, 2.092706943413037]}, {"species": [{"element": "N", "occu": 1}], "abc": [0.50003087, 0.25001228000000003, 0.87216627], "properties": {"magmom": -0.188}, "label": "N", "xyz": [2.195535217358939, 1.2182051111577858, 4.904146557507064]}, {"species": [{"element": "N", "occu": 1}], "abc": [2.2210000000000002e-05, 0.74998441, 0.62782667], "properties": {"magmom": -0.188}, "label": "N", "xyz": [0.00013525104326280002, 3.6542924363242006, 3.5302368565869626]}]}, "task_ids": null, "uncorrected_energy_per_atom": null, "energy_per_atom": -13.26729012, "formation_energy_per_atom": -0.435483445905172, "energy_above_hull": 0.0, "is_stable": true, "equilibrium_reaction_energy_per_atom": null, "decomposes_to": null, "xas": null, "grain_boundaries": null, "band_gap": 0.0, "cbm": null, "vbm": null, "efermi": 6.99892643, "is_gap_direct": null, "is_metal": null, "es_source_calc_id": null, "bandstructure": null, "dos": null, "dos_energy_up": null, "dos_energy_down": null, "is_magnetic": null, "ordering": null, "total_magnetization": 20.3199363, "total_magnetization_normalized_vol": null, "total_magnetization_normalized_formula_units": null, "num_magnetic_sites": null, "num_unique_magnetic_sites": null, "types_of_magnetic_species": null, "bulk_modulus": null, "shear_modulus": null, "universal_anisotropy": null, "homogeneous_poisson": null, "e_total": null, "e_ionic": null, "e_electronic": null, "n": null, "e_ij_max": null, "weighted_surface_energy_EV_PER_ANG2": null, "weighted_surface_energy": null, "weighted_work_function": null, "surface_anisotropy": null, "shape_factor": null, "has_reconstructed": null, "possible_species": null, "has_props": null, "theoretical": null, "database_IDs": null, "fields_not_requested": ["builder_meta", "nsites", "elements", "nelements", "composition", "composition_reduced", "chemsys", "symmetry", "property_name", "deprecated", "deprecation_reasons", "last_updated", "origins", "warnings", "task_ids", "uncorrected_energy_per_atom", "equilibrium_reaction_energy_per_atom", "decomposes_to", "xas", "grain_boundaries", "cbm", "vbm", "is_gap_direct", "is_metal", "es_source_calc_id", "bandstructure", "dos", "dos_energy_up", "dos_energy_down", "is_magnetic", "ordering", "total_magnetization_normalized_vol", "total_magnetization_normalized_formula_units", "num_magnetic_sites", "num_unique_magnetic_sites", "types_of_magnetic_species", "bulk_modulus", "shear_modulus", "universal_anisotropy", "homogeneous_poisson", "e_total", "e_ionic", "e_electronic", "n", "e_ij_max", "weighted_surface_energy_EV_PER_ANG2", "weighted_surface_energy", "weighted_work_function", "surface_anisotropy", "shape_factor", "has_reconstructed", "possible_species", "has_props", "theoretical", "database_IDs"]}