{"builder_meta": null, "nsites": null, "elements": null, "nelements": null, "composition": null, "composition_reduced": null, "formula_pretty": "Mn2O3", "formula_anonymous": "A2B3", "chemsys": null, "volume": 889.1007007723838, "density": 4.717691499808666, "density_atomic": 11.113758759654797, "symmetry": null, "property_name": null, "material_id": "mp-1172875", "deprecated": null, "deprecation_reasons": null, "last_updated": null, "origins": null, "warnings": null, "structure": {"@module": "pymatgen.core.structure", "@class": "Structure", "charge": 0, "lattice": {"matrix": [[9.580269, 0.0, 0.0], [0.0, 9.608742, 0.0], [0.0, 0.0, 9.658434]], "pbc": [true, true, true], "a": 9.580269, "b": 9.608742, "c": 9.658434, "alpha": 90.0, "beta": 90.0, "gamma": 90.0, "volume": 889.1007007723838}, "properties": {}, "sites": [{"species": [{"element": "Mn", "occu": 1}], "abc": [0.5, 0.5, 0.0], "properties": {"magmom": 3.9530000000000003}, "label": "Mn", "xyz": [4.7901345, 4.804371, 0.0]}, {"species": [{"element": "Mn", "occu": 1}], "abc": [0.5, 0.0, 0.5], "properties": {"magmom": 3.9530000000000003}, "label": "Mn", "xyz": [4.7901345, 0.0, 4.829217]}, {"species": [{"element": "Mn", "occu": 1}], "abc": [0.0, 0.5, 0.5], "properties": {"magmom": 3.9530000000000003}, "label": "Mn", "xyz": [0.0, 4.804371, 4.829217]}, {"species": [{"element": "Mn", "occu": 1}], "abc": [0.0, 0.0, 0.0], "properties": {"magmom": 3.9530000000000003}, "label": "Mn", "xyz": [0.0, 0.0, 0.0]}, {"species": [{"element": "Mn", "occu": 1}], "abc": [0.0, 0.0, 0.5], "properties": {"magmom": 3.961999999999999}, "label": "Mn", "xyz": [0.0, 0.0, 4.829217]}, {"species": [{"element": "Mn", "occu": 1}], "abc": [0.0, 0.5, 0.0], "properties": {"magmom": 3.961999999999999}, "label": "Mn", "xyz": [0.0, 4.804371, 0.0]}, {"species": [{"element": "Mn", "occu": 1}], "abc": [0.5, 0.0, 0.0], "properties": {"magmom": 3.961999999999999}, "label": "Mn", "xyz": [4.7901345, 0.0, 0.0]}, {"species": [{"element": "Mn", "occu": 1}], "abc": [0.5, 0.5, 0.5], "properties": {"magmom": 3.961999999999999}, "label": "Mn", "xyz": [4.7901345, 4.804371, 4.829217]}, {"species": [{"element": "Mn", "occu": 1}], "abc": [0.509135999999999, 0.758838999999999, 0.285941], "properties": {"magmom": 3.996}, "label": "Mn", "xyz": [4.87765983758399, 7.29148817053799, 2.761742276394]}, {"species": [{"element": "Mn", "occu": 1}], "abc": [0.490863999999999, 0.258839, 0.214059], "properties": {"magmom": 3.996}, "label": "Mn", "xyz": [4.702609162415991, 2.4871171705379997, 2.067474723606]}, {"species": [{"element": "Mn", "occu": 1}], "abc": [0.990864, 0.241161, 0.785941], "properties": {"magmom": 3.996}, "label": "Mn", "xyz": [9.492743662415998, 2.3172538294619995, 7.590959276394]}, {"species": [{"element": "Mn", "occu": 1}], "abc": [0.009136, 0.741161, 0.714059], "properties": {"magmom": 3.996}, "label": "Mn", "xyz": [0.087525337584, 7.121624829461999, 6.896691723606]}, {"species": [{"element": "Mn", "occu": 1}], "abc": [0.490863999999999, 0.241161, 0.714059], "properties": {"magmom": 3.996}, "label": "Mn", "xyz": [4.702609162415991, 2.3172538294619995, 6.896691723606]}, {"species": [{"element": "Mn", "occu": 1}], "abc": [0.509135999999999, 0.741161, 0.785941], "properties": {"magmom": 3.996}, "label": "Mn", "xyz": [4.87765983758399, 7.121624829461999, 7.590959276394]}, {"species": [{"element": "Mn", "occu": 1}], "abc": [0.009136, 0.758838999999999, 0.214059], "properties": {"magmom": 3.996}, "label": "Mn", "xyz": [0.087525337584, 7.29148817053799, 2.067474723606]}, {"species": [{"element": "Mn", "occu": 1}], "abc": [0.990864, 0.258839, 0.285941], "properties": {"magmom": 3.996}, "label": "Mn", "xyz": [9.492743662415998, 2.4871171705379997, 2.761742276394]}, {"species": [{"element": "Mn", "occu": 1}], "abc": [0.256414, 0.787943, 0.999876], "properties": {"magmom": 3.985}, "label": "Mn", "xyz": [2.4565150953659995, 7.571140997705999, 9.657236354184]}, {"species": [{"element": "Mn", "occu": 1}], "abc": [0.743586, 0.287943, 0.500124], "properties": {"magmom": 3.985}, "label": "Mn", "xyz": [7.1237539046339995, 2.766769997706, 4.830414645816]}, {"species": [{"element": "Mn", "occu": 1}], "abc": [0.243586, 0.212057, 0.499876], "properties": {"magmom": 3.985}, "label": "Mn", "xyz": [2.3336194046339997, 2.0376010022939997, 4.828019354184]}, {"species": [{"element": "Mn", "occu": 1}], "abc": [0.756413999999999, 0.712056999999999, 0.000124], "properties": {"magmom": 3.985}, "label": "Mn", "xyz": [7.24664959536599, 6.841972002293991, 0.001197645816]}, {"species": [{"element": "Mn", "occu": 1}], "abc": [0.743586, 0.212057, 0.000124], "properties": {"magmom": 3.985}, "label": "Mn", "xyz": [7.1237539046339995, 2.0376010022939997, 0.001197645816]}, {"species": [{"element": "Mn", "occu": 1}], "abc": [0.256414, 0.712056999999999, 0.499876], "properties": {"magmom": 3.985}, "label": "Mn", "xyz": [2.4565150953659995, 6.841972002293991, 4.828019354184]}, {"species": [{"element": "Mn", "occu": 1}], "abc": [0.756413999999999, 0.787943, 0.500124], "properties": {"magmom": 3.985}, "label": "Mn", "xyz": [7.24664959536599, 7.571140997705999, 4.830414645816]}, {"species": [{"element": "Mn", "occu": 1}], "abc": [0.243586, 0.287943, 0.999876], "properties": {"magmom": 3.985}, "label": "Mn", "xyz": [2.3336194046339997, 2.766769997706, 9.657236354184]}, {"species": [{"element": "Mn", "occu": 1}], "abc": [0.215751, 0.511796, 0.246639], "properties": {"magmom": 3.996}, "label": "Mn", "xyz": [2.066952617019, 4.917715720632, 2.382146503326]}, {"species": [{"element": "Mn", "occu": 1}], "abc": [0.784249, 0.011796, 0.253361], "properties": {"magmom": 3.996}, "label": "Mn", "xyz": [7.5133163829809995, 0.11334472063199999, 2.447070496674]}, {"species": [{"element": "Mn", "occu": 1}], "abc": [0.284249, 0.488203999999999, 0.746638999999999], "properties": {"magmom": 3.996}, "label": "Mn", "xyz": [2.7231818829809997, 4.69102627936799, 7.211363503325991]}, {"species": [{"element": "Mn", "occu": 1}], "abc": [0.715750999999999, 0.988204, 0.753361], "properties": {"magmom": 3.996}, "label": "Mn", "xyz": [6.85708711701899, 9.495397279368, 7.276287496674]}, {"species": [{"element": "Mn", "occu": 1}], "abc": [0.784249, 0.488203999999999, 0.753361], "properties": {"magmom": 3.996}, "label": "Mn", "xyz": [7.5133163829809995, 4.69102627936799, 7.276287496674]}, {"species": [{"element": "Mn", "occu": 1}], "abc": [0.215751, 0.988204, 0.746638999999999], "properties": {"magmom": 3.996}, "label": "Mn", "xyz": [2.066952617019, 9.495397279368, 7.211363503325991]}, {"species": [{"element": "Mn", "occu": 1}], "abc": [0.715750999999999, 0.511796, 0.253361], "properties": {"magmom": 3.996}, "label": "Mn", "xyz": [6.85708711701899, 4.917715720632, 2.447070496674]}, {"species": [{"element": "Mn", "occu": 1}], "abc": [0.284249, 0.011796, 0.246639], "properties": {"magmom": 3.996}, "label": "Mn", "xyz": [2.7231818829809997, 0.11334472063199999, 2.382146503326]}, {"species": [{"element": "O", "occu": 1}], "abc": [0.148652999999999, 0.9232500000000001, 0.125336], "properties": {"magmom": -0.068}, "label": "O", "xyz": [1.4241357276569904, 8.8712710515, 1.210549483824]}, {"species": [{"element": "O", "occu": 1}], "abc": [0.851347, 0.42325, 0.374664], "properties": {"magmom": -0.068}, "label": "O", "xyz": [8.156133272342998, 4.0669000515, 3.618667516176]}, {"species": [{"element": "O", "occu": 1}], "abc": [0.351346999999999, 0.07675000000000001, 0.625336], "properties": {"magmom": -0.068}, "label": "O", "xyz": [3.3659987723429903, 0.7374709485000001, 6.039766483824]}, {"species": [{"element": "O", "occu": 1}], "abc": [0.648652999999999, 0.5767500000000001, 0.874664], "properties": {"magmom": -0.068}, "label": "O", "xyz": [6.21427022765699, 5.541841948500001, 8.447884516176]}, {"species": [{"element": "O", "occu": 1}], "abc": [0.851347, 0.07675000000000001, 0.874664], "properties": {"magmom": -0.068}, "label": "O", "xyz": [8.156133272342998, 0.7374709485000001, 8.447884516176]}, {"species": [{"element": "O", "occu": 1}], "abc": [0.148652999999999, 0.5767500000000001, 0.625336], "properties": {"magmom": -0.068}, "label": "O", "xyz": [1.4241357276569904, 5.541841948500001, 6.039766483824]}, {"species": [{"element": "O", "occu": 1}], "abc": [0.648652999999999, 0.9232500000000001, 0.374664], "properties": {"magmom": -0.068}, "label": "O", "xyz": [6.21427022765699, 8.8712710515, 3.618667516176]}, {"species": [{"element": "O", "occu": 1}], "abc": [0.351346999999999, 0.42325, 0.125336], "properties": {"magmom": -0.068}, "label": "O", "xyz": [3.3659987723429903, 4.0669000515, 1.210549483824]}, {"species": [{"element": "O", "occu": 1}], "abc": [0.093362, 0.639767, 0.352725], "properties": {"magmom": -0.048}, "label": "O", "xyz": [0.8944330743779999, 6.147356043114, 3.40677113265]}, {"species": [{"element": "O", "occu": 1}], "abc": [0.9066379999999991, 0.139767, 0.147275], "properties": {"magmom": -0.048}, "label": "O", "xyz": [8.68583592562199, 1.342985043114, 1.4224458673499998]}, {"species": [{"element": "O", "occu": 1}], "abc": [0.406638, 0.360232999999999, 0.852725], "properties": {"magmom": -0.048}, "label": "O", "xyz": [3.8957014256219997, 3.4613859568859904, 8.23598813265]}, {"species": [{"element": "O", "occu": 1}], "abc": [0.593362, 0.860232999999999, 0.647274999999999], "properties": {"magmom": -0.048}, "label": "O", "xyz": [5.684567574377999, 8.26575695688599, 6.2516628673499905]}, {"species": [{"element": "O", "occu": 1}], "abc": [0.9066379999999991, 0.360232999999999, 0.647274999999999], "properties": {"magmom": -0.048}, "label": "O", "xyz": [8.68583592562199, 3.4613859568859904, 6.2516628673499905]}, {"species": [{"element": "O", "occu": 1}], "abc": [0.093362, 0.860232999999999, 0.852725], "properties": {"magmom": -0.048}, "label": "O", "xyz": [0.8944330743779999, 8.26575695688599, 8.23598813265]}, {"species": [{"element": "O", "occu": 1}], "abc": [0.593362, 0.639767, 0.147275], "properties": {"magmom": -0.048}, "label": "O", "xyz": [5.684567574377999, 6.147356043114, 1.4224458673499998]}, {"species": [{"element": "O", "occu": 1}], "abc": [0.406638, 0.139767, 0.352725], "properties": {"magmom": -0.048}, "label": "O", "xyz": [3.8957014256219997, 1.342985043114, 3.40677113265]}, {"species": [{"element": "O", "occu": 1}], "abc": [0.377278, 0.8579, 0.416653999999999], "properties": {"magmom": -0.084}, "label": "O", "xyz": [3.6144247277819996, 8.2433397618, 4.02422515983599]}, {"species": [{"element": "O", "occu": 1}], "abc": [0.622722, 0.3579, 0.083345999999999], "properties": {"magmom": -0.084}, "label": "O", "xyz": [5.965844272218, 3.4389687617999996, 0.8049918401639904]}, {"species": [{"element": "O", "occu": 1}], "abc": [0.122722, 0.1421, 0.916654], "properties": {"magmom": -0.084}, "label": "O", "xyz": [1.1757097722179999, 1.3654022382, 8.853442159836]}, {"species": [{"element": "O", "occu": 1}], "abc": [0.877278, 0.6421, 0.583345999999999], "properties": {"magmom": -0.084}, "label": "O", "xyz": [8.404559227782, 6.1697732381999995, 5.634208840163991]}, {"species": [{"element": "O", "occu": 1}], "abc": [0.622722, 0.1421, 0.583345999999999], "properties": {"magmom": -0.084}, "label": "O", "xyz": [5.965844272218, 1.3654022382, 5.634208840163991]}, {"species": [{"element": "O", "occu": 1}], "abc": [0.377278, 0.6421, 0.916654], "properties": {"magmom": -0.084}, "label": "O", "xyz": [3.6144247277819996, 6.1697732381999995, 8.853442159836]}, {"species": [{"element": "O", "occu": 1}], "abc": [0.877278, 0.8579, 0.083345999999999], "properties": {"magmom": -0.084}, "label": "O", "xyz": [8.404559227782, 8.2433397618, 0.8049918401639904]}, {"species": [{"element": "O", "occu": 1}], "abc": [0.122722, 0.3579, 0.416653999999999], "properties": {"magmom": -0.084}, "label": "O", "xyz": [1.1757097722179999, 3.4389687617999996, 4.02422515983599]}, {"species": [{"element": "O", "occu": 1}], "abc": [0.361212, 0.5858500000000001, 0.372295999999999], "properties": {"magmom": -0.076}, "label": "O", "xyz": [3.4605081260279995, 5.6292815007, 3.59579634446399]}, {"species": [{"element": "O", "occu": 1}], "abc": [0.638788, 0.08585000000000001, 0.127703999999999], "properties": {"magmom": -0.076}, "label": "O", "xyz": [6.119760873972, 0.8249105007, 1.2334206555359903]}, {"species": [{"element": "O", "occu": 1}], "abc": [0.138788, 0.41415, 0.872296], "properties": {"magmom": -0.076}, "label": "O", "xyz": [1.3296263739719998, 3.9794604993, 8.425013344463999]}, {"species": [{"element": "O", "occu": 1}], "abc": [0.861212, 0.9141500000000001, 0.627703999999999], "properties": {"magmom": -0.076}, "label": "O", "xyz": [8.250642626028, 8.783831499300002, 6.06263765553599]}, {"species": [{"element": "O", "occu": 1}], "abc": [0.638788, 0.41415, 0.627703999999999], "properties": {"magmom": -0.076}, "label": "O", "xyz": [6.119760873972, 3.9794604993, 6.06263765553599]}, {"species": [{"element": "O", "occu": 1}], "abc": [0.361212, 0.9141500000000001, 0.872296], "properties": {"magmom": -0.076}, "label": "O", "xyz": [3.4605081260279995, 8.783831499300002, 8.425013344463999]}, {"species": [{"element": "O", "occu": 1}], "abc": [0.861212, 0.5858500000000001, 0.127703999999999], "properties": {"magmom": -0.076}, "label": "O", "xyz": [8.250642626028, 5.6292815007, 1.2334206555359903]}, {"species": [{"element": "O", "occu": 1}], "abc": [0.138788, 0.08585000000000001, 0.372295999999999], "properties": {"magmom": -0.076}, "label": "O", "xyz": [1.3296263739719998, 0.8249105007, 3.59579634446399]}, {"species": [{"element": "O", "occu": 1}], "abc": [0.41963000000000006, 0.878811999999999, 0.146192], "properties": {"magmom": -0.069}, "label": "O", "xyz": [4.02016828047, 8.44427777450399, 1.4119857833279998]}, {"species": [{"element": "O", "occu": 1}], "abc": [0.58037, 0.378812, 0.353808], "properties": {"magmom": -0.069}, "label": "O", "xyz": [5.56010071953, 3.6399067745039995, 3.417231216672]}, {"species": [{"element": "O", "occu": 1}], "abc": [0.08037000000000001, 0.121187999999999, 0.646192], "properties": {"magmom": -0.069}, "label": "O", "xyz": [0.7699662195300001, 1.1644642254959903, 6.241202783328]}, {"species": [{"element": "O", "occu": 1}], "abc": [0.9196300000000001, 0.621188, 0.853808], "properties": {"magmom": -0.069}, "label": "O", "xyz": [8.81030278047, 5.968835225495999, 8.246448216672]}, {"species": [{"element": "O", "occu": 1}], "abc": [0.58037, 0.121187999999999, 0.853808], "properties": {"magmom": -0.069}, "label": "O", "xyz": [5.56010071953, 1.1644642254959903, 8.246448216672]}, {"species": [{"element": "O", "occu": 1}], "abc": [0.41963000000000006, 0.621188, 0.646192], "properties": {"magmom": -0.069}, "label": "O", "xyz": [4.02016828047, 5.968835225495999, 6.241202783328]}, {"species": [{"element": "O", "occu": 1}], "abc": [0.9196300000000001, 0.878811999999999, 0.353808], "properties": {"magmom": -0.069}, "label": "O", "xyz": [8.81030278047, 8.44427777450399, 3.417231216672]}, {"species": [{"element": "O", "occu": 1}], "abc": [0.08037000000000001, 0.378812, 0.146192], "properties": {"magmom": -0.069}, "label": "O", "xyz": [0.7699662195300001, 3.6399067745039995, 1.4119857833279998]}, {"species": [{"element": "O", "occu": 1}], "abc": [0.138497999999999, 0.653633999999999, 0.088196], "properties": {"magmom": -0.04}, "label": "O", "xyz": [1.3268480959619904, 6.28060046842799, 0.851835245064]}, {"species": [{"element": "O", "occu": 1}], "abc": [0.861502, 0.153634, 0.411804], "properties": {"magmom": -0.04}, "label": "O", "xyz": [8.253420904038, 1.4762294684279997, 3.9773817549359998]}, {"species": [{"element": "O", "occu": 1}], "abc": [0.361502, 0.346366, 0.588195999999999], "properties": {"magmom": -0.04}, "label": "O", "xyz": [3.4632864040379996, 3.3281415315719998, 5.681052245063991]}, {"species": [{"element": "O", "occu": 1}], "abc": [0.638498, 0.846366, 0.911804], "properties": {"magmom": -0.04}, "label": "O", "xyz": [6.116982595962, 8.132512531571999, 8.806598754936]}, {"species": [{"element": "O", "occu": 1}], "abc": [0.861502, 0.346366, 0.911804], "properties": {"magmom": -0.04}, "label": "O", "xyz": [8.253420904038, 3.3281415315719998, 8.806598754936]}, {"species": [{"element": "O", "occu": 1}], "abc": [0.138497999999999, 0.846366, 0.588195999999999], "properties": {"magmom": -0.04}, "label": "O", "xyz": [1.3268480959619904, 8.132512531571999, 5.681052245063991]}, {"species": [{"element": "O", "occu": 1}], "abc": [0.638498, 0.653633999999999, 0.411804], "properties": {"magmom": -0.04}, "label": "O", "xyz": [6.116982595962, 6.28060046842799, 3.9773817549359998]}, {"species": [{"element": "O", "occu": 1}], "abc": [0.361502, 0.153634, 0.088196], "properties": {"magmom": -0.04}, "label": "O", "xyz": [3.4632864040379996, 1.4762294684279997, 0.851835245064]}]}, "task_ids": null, "uncorrected_energy_per_atom": null, "energy_per_atom": -8.647502563375, "formation_energy_per_atom": -2.013919843547413, "energy_above_hull": 0.0, "is_stable": true, "equilibrium_reaction_energy_per_atom": null, "decomposes_to": null, "xas": null, "grain_boundaries": null, "band_gap": 0.07210000000000001, "cbm": null, "vbm": null, "efermi": 3.43251628, "is_gap_direct": null, "is_metal": null, "es_source_calc_id": null, "bandstructure": null, "dos": null, "dos_energy_up": null, "dos_energy_down": null, "is_magnetic": null, "ordering": null, "total_magnetization": 128.0030446, "total_magnetization_normalized_vol": null, "total_magnetization_normalized_formula_units": null, "num_magnetic_sites": null, "num_unique_magnetic_sites": null, "types_of_magnetic_species": null, "bulk_modulus": null, "shear_modulus": null, "universal_anisotropy": null, "homogeneous_poisson": null, "e_total": null, "e_ionic": null, "e_electronic": null, "n": null, "e_ij_max": null, "weighted_surface_energy_EV_PER_ANG2": null, "weighted_surface_energy": null, "weighted_work_function": null, "surface_anisotropy": null, "shape_factor": null, "has_reconstructed": null, "possible_species": null, "has_props": null, "theoretical": null, "database_IDs": null, "fields_not_requested": ["builder_meta", "nsites", "elements", "nelements", "composition", "composition_reduced", "chemsys", "symmetry", "property_name", "deprecated", "deprecation_reasons", "last_updated", "origins", "warnings", "task_ids", "uncorrected_energy_per_atom", "equilibrium_reaction_energy_per_atom", "decomposes_to", "xas", "grain_boundaries", "cbm", "vbm", "is_gap_direct", "is_metal", "es_source_calc_id", "bandstructure", "dos", "dos_energy_up", "dos_energy_down", "is_magnetic", "ordering", "total_magnetization_normalized_vol", "total_magnetization_normalized_formula_units", "num_magnetic_sites", "num_unique_magnetic_sites", "types_of_magnetic_species", "bulk_modulus", "shear_modulus", "universal_anisotropy", "homogeneous_poisson", "e_total", "e_ionic", "e_electronic", "n", "e_ij_max", "weighted_surface_energy_EV_PER_ANG2", "weighted_surface_energy", "weighted_work_function", "surface_anisotropy", "shape_factor", "has_reconstructed", "possible_species", "has_props", "theoretical", "database_IDs"]}