{
  "builder_meta": null,
  "nsites": null,
  "elements": null,
  "nelements": null,
  "composition": null,
  "composition_reduced": null,
  "formula_pretty": "Mn2O5",
  "formula_anonymous": "A2B5",
  "chemsys": null,
  "volume": 189.94186028482588,
  "density": 3.319875704789502,
  "density_atomic": 13.567275734630421,
  "symmetry": null,
  "property_name": null,
  "material_id": "mp-1104282",
  "deprecated": null,
  "deprecation_reasons": null,
  "last_updated": null,
  "origins": null,
  "warnings": null,
  "structure": {
    "@module": "pymatgen.core.structure",
    "@class": "Structure",
    "charge": 0,
    "lattice": {
      "matrix": [
        [0.0, 0.0, 3.535049],
        [5.494186, 0.0, 0.0],
        [0.0, 9.779618, 0.0]
      ],
      "pbc": [true, true, true],
      "a": 3.535049,
      "b": 5.494186,
      "c": 9.779618,
      "alpha": 90.0,
      "beta": 90.0,
      "gamma": 90.0,
      "volume": 189.94186028482588
    },
    "properties": {},
    "sites": [
      {
        "species": [{ "element": "Mn", "occu": 1 }],
        "abc": [0.0, 0.71986, 0.359878],
        "properties": { "magmom": 3.099 },
        "label": "Mn",
        "xyz": [3.9550447339600003, 3.5194693666039996, 0.0]
      },
      {
        "species": [{ "element": "Mn", "occu": 1 }],
        "abc": [0.0, 0.28014, 0.640122],
        "properties": { "magmom": 3.099 },
        "label": "Mn",
        "xyz": [1.53914126604, 6.260148633395999, 0.0]
      },
      {
        "species": [{ "element": "Mn", "occu": 1 }],
        "abc": [0.0, 0.21986000000000003, 0.140122],
        "properties": { "magmom": 3.099 },
        "label": "Mn",
        "xyz": [1.20795173396, 1.3703396333959998, 0.0]
      },
      {
        "species": [{ "element": "Mn", "occu": 1 }],
        "abc": [0.0, 0.7801400000000001, 0.859877999999999],
        "properties": { "magmom": 3.099 },
        "label": "Mn",
        "xyz": [4.28623426604, 8.40927836660399, 0.0]
      },
      {
        "species": [{ "element": "O", "occu": 1 }],
        "abc": [0.5, 0.790723, 0.398773999999999],
        "properties": { "magmom": -0.464 },
        "label": "O",
        "xyz": [4.344379236478, 3.89985738833199, 1.7675245]
      },
      {
        "species": [{ "element": "O", "occu": 1 }],
        "abc": [0.5, 0.209277, 0.601225999999999],
        "properties": { "magmom": -0.464 },
        "label": "O",
        "xyz": [1.149806763522, 5.87976061166799, 1.7675245]
      },
      {
        "species": [{ "element": "O", "occu": 1 }],
        "abc": [0.5, 0.290723, 0.101226],
        "properties": { "magmom": -0.464 },
        "label": "O",
        "xyz": [1.597286236478, 0.9899516116679999, 1.7675245]
      },
      {
        "species": [{ "element": "O", "occu": 1 }],
        "abc": [0.5, 0.709276999999999, 0.898774],
        "properties": { "magmom": -0.464 },
        "label": "O",
        "xyz": [3.896899763521995, 8.789666388331998, 1.7675245]
      },
      {
        "species": [{ "element": "O", "occu": 1 }],
        "abc": [0.0, 0.047063999999999, 0.292842999999999],
        "properties": { "magmom": -0.38 },
        "label": "O",
        "xyz": [0.2585783699039945, 2.8638926739739903, 0.0]
      },
      {
        "species": [{ "element": "O", "occu": 1 }],
        "abc": [0.0, 0.952936, 0.707156999999999],
        "properties": { "magmom": -0.38 },
        "label": "O",
        "xyz": [5.235607630096, 6.91572532602599, 0.0]
      },
      {
        "species": [{ "element": "O", "occu": 1 }],
        "abc": [0.0, 0.547064, 0.207156999999999],
        "properties": { "magmom": -0.38 },
        "label": "O",
        "xyz": [3.005671369904, 2.0259163260259903, 0.0]
      },
      {
        "species": [{ "element": "O", "occu": 1 }],
        "abc": [0.0, 0.452936, 0.792843],
        "properties": { "magmom": -0.38 },
        "label": "O",
        "xyz": [2.488514630096, 7.753701673973999, 0.0]
      },
      {
        "species": [{ "element": "O", "occu": 1 }],
        "abc": [0.0, 0.5, 0.5],
        "properties": { "magmom": -0.34800000000000003 },
        "label": "O",
        "xyz": [2.747093, 4.889809, 0.0]
      },
      {
        "species": [{ "element": "O", "occu": 1 }],
        "abc": [0.0, 0.0, 0.0],
        "properties": { "magmom": -0.34800000000000003 },
        "label": "O",
        "xyz": [0.0, 0.0, 0.0]
      }
    ]
  },
  "task_ids": null,
  "uncorrected_energy_per_atom": null,
  "energy_per_atom": -7.303051581428571,
  "formation_energy_per_atom": -1.1510750658374391,
  "energy_above_hull": 0.411091726190476,
  "is_stable": false,
  "equilibrium_reaction_energy_per_atom": null,
  "decomposes_to": null,
  "xas": null,
  "grain_boundaries": null,
  "band_gap": 0.0,
  "cbm": null,
  "vbm": null,
  "efermi": -0.10307074000000001,
  "is_gap_direct": null,
  "is_metal": null,
  "es_source_calc_id": null,
  "bandstructure": null,
  "dos": null,
  "dos_energy_up": null,
  "dos_energy_down": null,
  "is_magnetic": null,
  "ordering": null,
  "total_magnetization": 8.0012838,
  "total_magnetization_normalized_vol": null,
  "total_magnetization_normalized_formula_units": null,
  "num_magnetic_sites": null,
  "num_unique_magnetic_sites": null,
  "types_of_magnetic_species": null,
  "bulk_modulus": null,
  "shear_modulus": null,
  "universal_anisotropy": null,
  "homogeneous_poisson": null,
  "e_total": null,
  "e_ionic": null,
  "e_electronic": null,
  "n": null,
  "e_ij_max": null,
  "weighted_surface_energy_EV_PER_ANG2": null,
  "weighted_surface_energy": null,
  "weighted_work_function": null,
  "surface_anisotropy": null,
  "shape_factor": null,
  "has_reconstructed": null,
  "possible_species": null,
  "has_props": null,
  "theoretical": null,
  "database_IDs": null,
  "fields_not_requested": [
    "builder_meta",
    "nsites",
    "elements",
    "nelements",
    "composition",
    "composition_reduced",
    "chemsys",
    "symmetry",
    "property_name",
    "deprecated",
    "deprecation_reasons",
    "last_updated",
    "origins",
    "warnings",
    "task_ids",
    "uncorrected_energy_per_atom",
    "equilibrium_reaction_energy_per_atom",
    "decomposes_to",
    "xas",
    "grain_boundaries",
    "cbm",
    "vbm",
    "is_gap_direct",
    "is_metal",
    "es_source_calc_id",
    "bandstructure",
    "dos",
    "dos_energy_up",
    "dos_energy_down",
    "is_magnetic",
    "ordering",
    "total_magnetization_normalized_vol",
    "total_magnetization_normalized_formula_units",
    "num_magnetic_sites",
    "num_unique_magnetic_sites",
    "types_of_magnetic_species",
    "bulk_modulus",
    "shear_modulus",
    "universal_anisotropy",
    "homogeneous_poisson",
    "e_total",
    "e_ionic",
    "e_electronic",
    "n",
    "e_ij_max",
    "weighted_surface_energy_EV_PER_ANG2",
    "weighted_surface_energy",
    "weighted_work_function",
    "surface_anisotropy",
    "shape_factor",
    "has_reconstructed",
    "possible_species",
    "has_props",
    "theoretical",
    "database_IDs"
  ]
}
