{"builder_meta": null, "nsites": null, "elements": null, "nelements": null, "composition": null, "composition_reduced": null, "formula_pretty": "Mn2P", "formula_anonymous": "AB2", "chemsys": null, "volume": 103.57003898873002, "density": 6.7747396077434665, "density_atomic": 11.50778210985889, "symmetry": null, "property_name": null, "material_id": "mp-1849", "deprecated": null, "deprecation_reasons": null, "last_updated": null, "origins": null, "warnings": null, "structure": {"@module": "pymatgen.core.structure", "@class": "Structure", "charge": 0, "lattice": {"matrix": [[6.07694991, -8.76e-05, 0.0], [-3.03855182, 5.2628962900000005, 0.0], [0.0, 0.0, 3.2383761]], "pbc": [true, true, true], "a": 6.076949910631383, "b": 6.077077794641194, "c": 3.2383761, "alpha": 90.0, "beta": 90.0, "gamma": 120.00096661163475, "volume": 103.57003898873005}, "properties": {}, "sites": [{"species": [{"element": "Mn", "occu": 1}], "abc": [0.60224995, 0.999979899999999, 0.5], "properties": {"magmom": 3.305}, "label": "Mn", "xyz": [0.6213520343415895, 5.262737748688946, 1.61918805]}, {"species": [{"element": "Mn", "occu": 1}], "abc": [0.39775179, 0.39773271, 0.5], "properties": {"magmom": 3.305}, "label": "Mn", "xyz": [1.2085862545988069, 2.0931911608138423, 1.61918805]}, {"species": [{"element": "Mn", "occu": 1}], "abc": [-1.129999999999999e-06, 0.60224842, 0.5], "properties": {"magmom": 3.305}, "label": "Mn", "xyz": [-1.8299698996365228, 3.16957097537535, 1.61918805]}, {"species": [{"element": "Mn", "occu": 1}], "abc": [1.34e-06, 0.25531971000000003, -0.0], "properties": {"magmom": 0.363}, "label": "Mn", "xyz": [-0.7757940263894928, 1.3437211544054921, 0.0]}, {"species": [{"element": "Mn", "occu": 1}], "abc": [0.74470987, 0.74472215, -0.0], "properties": {"magmom": 0.363}, "label": "Mn", "xyz": [2.2626877331957984, 3.9193302037312114, 0.0]}, {"species": [{"element": "Mn", "occu": 1}], "abc": [0.25528556, 1.359e-05, -0.0], "properties": {"magmom": 0.364}, "label": "Mn", "xyz": [1.551316266947066, 4.915974552510001e-05, 0.0]}, {"species": [{"element": "P", "occu": 1}], "abc": [0.66668027, 0.33332444, -0.0], "properties": {"magmom": -0.117}, "label": "P", "xyz": [3.0385590229627946, 1.7541935574506757, 0.0]}, {"species": [{"element": "P", "occu": 1}], "abc": [0.33331609, 0.66663841, -0.0], "properties": {"magmom": -0.117}, "label": "P", "xyz": [-7.017086035432385e-05, 3.508419616271015, 0.0]}, {"species": [{"element": "P", "occu": 1}], "abc": [5.269999999999999e-06, 1.965e-05, 0.5], "properties": {"magmom": -0.049}, "label": "P", "xyz": [-2.768201723730001e-05, 0.00010341545044650002, 1.61918805]}]}, "task_ids": null, "uncorrected_energy_per_atom": null, "energy_per_atom": -8.426316125555555, "formation_energy_per_atom": -0.513148089057198, "energy_above_hull": 0.0, "is_stable": true, "equilibrium_reaction_energy_per_atom": null, "decomposes_to": null, "xas": null, "grain_boundaries": null, "band_gap": 0.0, "cbm": null, "vbm": null, "efermi": 8.4242468, "is_gap_direct": null, "is_metal": null, "es_source_calc_id": null, "bandstructure": null, "dos": null, "dos_energy_up": null, "dos_energy_down": null, "is_magnetic": null, "ordering": null, "total_magnetization": 10.3898666, "total_magnetization_normalized_vol": null, "total_magnetization_normalized_formula_units": null, "num_magnetic_sites": null, "num_unique_magnetic_sites": null, "types_of_magnetic_species": null, "bulk_modulus": null, "shear_modulus": null, "universal_anisotropy": null, "homogeneous_poisson": null, "e_total": null, "e_ionic": null, "e_electronic": null, "n": null, "e_ij_max": null, "weighted_surface_energy_EV_PER_ANG2": null, "weighted_surface_energy": null, "weighted_work_function": null, "surface_anisotropy": null, "shape_factor": null, "has_reconstructed": null, "possible_species": null, "has_props": null, "theoretical": null, "database_IDs": null, "fields_not_requested": ["builder_meta", "nsites", "elements", "nelements", "composition", "composition_reduced", "chemsys", "symmetry", "property_name", "deprecated", "deprecation_reasons", "last_updated", "origins", "warnings", "task_ids", "uncorrected_energy_per_atom", "equilibrium_reaction_energy_per_atom", "decomposes_to", "xas", "grain_boundaries", "cbm", "vbm", "is_gap_direct", "is_metal", "es_source_calc_id", "bandstructure", "dos", "dos_energy_up", "dos_energy_down", "is_magnetic", "ordering", "total_magnetization_normalized_vol", "total_magnetization_normalized_formula_units", "num_magnetic_sites", "num_unique_magnetic_sites", "types_of_magnetic_species", "bulk_modulus", "shear_modulus", "universal_anisotropy", "homogeneous_poisson", "e_total", "e_ionic", "e_electronic", "n", "e_ij_max", "weighted_surface_energy_EV_PER_ANG2", "weighted_surface_energy", "weighted_work_function", "surface_anisotropy", "shape_factor", "has_reconstructed", "possible_species", "has_props", "theoretical", "database_IDs"]}