{"builder_meta": null, "nsites": null, "elements": null, "nelements": null, "composition": null, "composition_reduced": null, "formula_pretty": "Mn2Sn", "formula_anonymous": "AB2", "chemsys": null, "volume": 96.69852657395073, "density": 7.850711814849849, "density_atomic": 16.116421095658456, "symmetry": null, "property_name": null, "material_id": "mp-22514", "deprecated": null, "deprecation_reasons": null, "last_updated": null, "origins": null, "warnings": null, "structure": {"@module": "pymatgen.core.structure", "@class": "Structure", "charge": 0, "lattice": {"matrix": [[2.25388, -3.903835, 0.0], [2.25388, 3.903835, 0.0], [0.0, 0.0, 5.494999]], "pbc": [true, true, true], "a": 4.5077602821828275, "b": 4.5077602821828275, "c": 5.494999, "alpha": 90.0, "beta": 90.0, "gamma": 120.00000414153907, "volume": 96.69852657395073}, "properties": {}, "sites": [{"species": [{"element": "Mn", "occu": 1}], "abc": [0.0, 0.0, 0.0], "properties": {"magmom": 3.1}, "label": "Mn", "xyz": [0.0, 0.0, 0.0]}, {"species": [{"element": "Mn", "occu": 1}], "abc": [0.0, 0.0, 0.5], "properties": {"magmom": 3.102}, "label": "Mn", "xyz": [0.0, 0.0, 2.7474995]}, {"species": [{"element": "Mn", "occu": 1}], "abc": [0.333333, 0.666667, 0.75], "properties": {"magmom": 2.917}, "label": "Mn", "xyz": [2.25388, 1.3012809358900002, 4.12124925]}, {"species": [{"element": "Mn", "occu": 1}], "abc": [0.666667, 0.333333, 0.25], "properties": {"magmom": 2.907}, "label": "Mn", "xyz": [2.25388, -1.3012809358900002, 1.37374975]}, {"species": [{"element": "Sn", "occu": 1}], "abc": [0.333333, 0.666667, 0.25], "properties": {"magmom": -0.163}, "label": "Sn", "xyz": [2.25388, 1.3012809358900002, 1.37374975]}, {"species": [{"element": "Sn", "occu": 1}], "abc": [0.666667, 0.333333, 0.75], "properties": {"magmom": -0.162}, "label": "Sn", "xyz": [2.25388, -1.3012809358900002, 4.12124925]}]}, "task_ids": null, "uncorrected_energy_per_atom": null, "energy_per_atom": -17.876365057298848, "formation_energy_per_atom": 0.16125265304597503, "energy_above_hull": 0.16125265304597702, "is_stable": false, "equilibrium_reaction_energy_per_atom": null, "decomposes_to": null, "xas": null, "grain_boundaries": null, "band_gap": 0.0, "cbm": null, "vbm": null, "efermi": 7.44546701, "is_gap_direct": null, "is_metal": null, "es_source_calc_id": null, "bandstructure": null, "dos": null, "dos_energy_up": null, "dos_energy_down": null, "is_magnetic": null, "ordering": null, "total_magnetization": 12.0658616, "total_magnetization_normalized_vol": null, "total_magnetization_normalized_formula_units": null, "num_magnetic_sites": null, "num_unique_magnetic_sites": null, "types_of_magnetic_species": null, "bulk_modulus": null, "shear_modulus": null, "universal_anisotropy": null, "homogeneous_poisson": null, "e_total": null, "e_ionic": null, "e_electronic": null, "n": null, "e_ij_max": null, "weighted_surface_energy_EV_PER_ANG2": null, "weighted_surface_energy": null, "weighted_work_function": null, "surface_anisotropy": null, "shape_factor": null, "has_reconstructed": null, "possible_species": null, "has_props": null, "theoretical": null, "database_IDs": null, "fields_not_requested": ["builder_meta", "nsites", "elements", "nelements", "composition", "composition_reduced", "chemsys", "symmetry", "property_name", "deprecated", "deprecation_reasons", "last_updated", "origins", "warnings", "task_ids", "uncorrected_energy_per_atom", "equilibrium_reaction_energy_per_atom", "decomposes_to", "xas", "grain_boundaries", "cbm", "vbm", "is_gap_direct", "is_metal", "es_source_calc_id", "bandstructure", "dos", "dos_energy_up", "dos_energy_down", "is_magnetic", "ordering", "total_magnetization_normalized_vol", "total_magnetization_normalized_formula_units", "num_magnetic_sites", "num_unique_magnetic_sites", "types_of_magnetic_species", "bulk_modulus", "shear_modulus", "universal_anisotropy", "homogeneous_poisson", "e_total", "e_ionic", "e_electronic", "n", "e_ij_max", "weighted_surface_energy_EV_PER_ANG2", "weighted_surface_energy", "weighted_work_function", "surface_anisotropy", "shape_factor", "has_reconstructed", "possible_species", "has_props", "theoretical", "database_IDs"]}