{
  "builder_meta": null,
  "nsites": null,
  "elements": null,
  "nelements": null,
  "composition": null,
  "composition_reduced": null,
  "formula_pretty": "Mn2S3",
  "formula_anonymous": "A2B3",
  "chemsys": null,
  "volume": 180.36974944148466,
  "density": 3.794306933412436,
  "density_atomic": 18.036974944148465,
  "symmetry": null,
  "property_name": null,
  "material_id": "mp-974355",
  "deprecated": null,
  "deprecation_reasons": null,
  "last_updated": null,
  "origins": null,
  "warnings": null,
  "structure": {
    "@module": "pymatgen.core.structure",
    "@class": "Structure",
    "charge": 0,
    "lattice": {
      "matrix": [
        [5.80486101, -3.06903349, -0.04782157],
        [5.80486101, 3.06903349, -0.04782157],
        [4.2240723, -0.0, 5.02741239]
      ],
      "pbc": [true, true, true],
      "a": 6.566404252763994,
      "b": 6.566404252763994,
      "c": 6.566404049002224,
      "alpha": 55.72925883558328,
      "beta": 55.72925883558328,
      "gamma": 55.729263518630006,
      "volume": 180.36974944148466
    },
    "properties": {},
    "sites": [
      {
        "species": [{ "element": "Mn", "occu": 1 }],
        "abc": [0.84471115, 0.84471115, 0.84471115],
        "properties": { "magmom": 3.958 },
        "label": "Mn",
        "xyz": [13.374982608910667, 0.0, 4.165920474702138]
      },
      {
        "species": [{ "element": "Mn", "occu": 1 }],
        "abc": [0.65528885, 0.65528885, 0.65528885],
        "properties": { "magmom": 3.958 },
        "label": "Mn",
        "xyz": [10.375708871089332, 0.0, 3.231733400297863]
      },
      {
        "species": [{ "element": "Mn", "occu": 1 }],
        "abc": [0.34471115, 0.34471115, 0.34471115],
        "properties": { "magmom": 3.958 },
        "label": "Mn",
        "xyz": [5.458085448910667, 0.0, 1.7000358497021377]
      },
      {
        "species": [{ "element": "Mn", "occu": 1 }],
        "abc": [0.15528885, 0.15528885, 0.15528885],
        "properties": { "magmom": 3.958 },
        "label": "Mn",
        "xyz": [2.458811711089332, 0.0, 0.7658487752978625]
      },
      {
        "species": [{ "element": "S", "occu": 1 }],
        "abc": [0.25, 0.5610757200000001, 0.93892428],
        "properties": { "magmom": -0.088 },
        "label": "S",
        "xyz": [8.674265866131122, 0.9547018026058629, 4.681572644224549]
      },
      {
        "species": [{ "element": "S", "occu": 1 }],
        "abc": [0.5610757200000001, 0.93892428, 0.25],
        "properties": { "magmom": -0.088 },
        "label": "S",
        "xyz": [9.763309589999999, 1.1596298847882744, 1.1851207425]
      },
      {
        "species": [{ "element": "S", "occu": 1 }],
        "abc": [0.93892428, 0.25, 0.5610757200000001],
        "properties": { "magmom": -0.088 },
        "label": "S",
        "xyz": [9.271564603868878, -2.114331687394137, 2.7639028007754516]
      },
      {
        "species": [{ "element": "S", "occu": 1 }],
        "abc": [0.06107572, 0.75, 0.43892428],
        "properties": { "magmom": -0.088 },
        "label": "S",
        "xyz": [6.562229716131121, 2.114331687394137, 2.167866449224549]
      },
      {
        "species": [{ "element": "S", "occu": 1 }],
        "abc": [0.43892428, 0.06107572, 0.75],
        "properties": { "magmom": -0.088 },
        "label": "S",
        "xyz": [6.0704847299999996, -1.1596298847882744, 3.7466485075000002]
      },
      {
        "species": [{ "element": "S", "occu": 1 }],
        "abc": [0.75, 0.43892428, 0.06107572],
        "properties": { "magmom": -0.088 },
        "label": "S",
        "xyz": [7.159528453868878, -0.9547018026058629, 0.2501966057754512]
      }
    ]
  },
  "task_ids": null,
  "uncorrected_energy_per_atom": null,
  "energy_per_atom": -11.596895002,
  "formation_energy_per_atom": -0.9025616824806021,
  "energy_above_hull": 0.032707042000001005,
  "is_stable": false,
  "equilibrium_reaction_energy_per_atom": null,
  "decomposes_to": null,
  "xas": null,
  "grain_boundaries": null,
  "band_gap": 0.0,
  "cbm": null,
  "vbm": null,
  "efermi": 6.24610133,
  "is_gap_direct": null,
  "is_metal": null,
  "es_source_calc_id": null,
  "bandstructure": null,
  "dos": null,
  "dos_energy_up": null,
  "dos_energy_down": null,
  "is_magnetic": null,
  "ordering": null,
  "total_magnetization": 16.0,
  "total_magnetization_normalized_vol": null,
  "total_magnetization_normalized_formula_units": null,
  "num_magnetic_sites": null,
  "num_unique_magnetic_sites": null,
  "types_of_magnetic_species": null,
  "bulk_modulus": null,
  "shear_modulus": null,
  "universal_anisotropy": null,
  "homogeneous_poisson": null,
  "e_total": null,
  "e_ionic": null,
  "e_electronic": null,
  "n": null,
  "e_ij_max": null,
  "weighted_surface_energy_EV_PER_ANG2": null,
  "weighted_surface_energy": null,
  "weighted_work_function": null,
  "surface_anisotropy": null,
  "shape_factor": null,
  "has_reconstructed": null,
  "possible_species": null,
  "has_props": null,
  "theoretical": null,
  "database_IDs": null,
  "fields_not_requested": [
    "builder_meta",
    "nsites",
    "elements",
    "nelements",
    "composition",
    "composition_reduced",
    "chemsys",
    "symmetry",
    "property_name",
    "deprecated",
    "deprecation_reasons",
    "last_updated",
    "origins",
    "warnings",
    "task_ids",
    "uncorrected_energy_per_atom",
    "equilibrium_reaction_energy_per_atom",
    "decomposes_to",
    "xas",
    "grain_boundaries",
    "cbm",
    "vbm",
    "is_gap_direct",
    "is_metal",
    "es_source_calc_id",
    "bandstructure",
    "dos",
    "dos_energy_up",
    "dos_energy_down",
    "is_magnetic",
    "ordering",
    "total_magnetization_normalized_vol",
    "total_magnetization_normalized_formula_units",
    "num_magnetic_sites",
    "num_unique_magnetic_sites",
    "types_of_magnetic_species",
    "bulk_modulus",
    "shear_modulus",
    "universal_anisotropy",
    "homogeneous_poisson",
    "e_total",
    "e_ionic",
    "e_electronic",
    "n",
    "e_ij_max",
    "weighted_surface_energy_EV_PER_ANG2",
    "weighted_surface_energy",
    "weighted_work_function",
    "surface_anisotropy",
    "shape_factor",
    "has_reconstructed",
    "possible_species",
    "has_props",
    "theoretical",
    "database_IDs"
  ]
}
