{"builder_meta": null, "nsites": null, "elements": null, "nelements": null, "composition": null, "composition_reduced": null, "formula_pretty": "Mn3Au", "formula_anonymous": "AB3", "chemsys": null, "volume": 181.25980013055852, "density": 9.942927093067624, "density_atomic": 15.10498334421321, "symmetry": null, "property_name": null, "material_id": "mp-640079", "deprecated": null, "deprecation_reasons": null, "last_updated": null, "origins": null, "warnings": null, "structure": {"@module": "pymatgen.core.structure", "@class": "Structure", "charge": 0, "lattice": {"matrix": [[4.419229, 0.0, 0.0], [0.0, 4.419229, 0.0], [0.0, 0.0, 9.281293]], "pbc": [true, true, true], "a": 4.419229, "b": 4.419229, "c": 9.281293, "alpha": 90.0, "beta": 90.0, "gamma": 90.0, "volume": 181.25980013055852}, "properties": {}, "sites": [{"species": [{"element": "Mn", "occu": 1}], "abc": [0.5, 0.5, 0.677727], "properties": {"magmom": 3.4050000000000002}, "label": "Mn", "xyz": [2.2096145, 2.2096145, 6.290182861011]}, {"species": [{"element": "Mn", "occu": 1}], "abc": [0.5, 0.5, 0.322273], "properties": {"magmom": 3.4050000000000002}, "label": "Mn", "xyz": [2.2096145, 2.2096145, 2.991110138989]}, {"species": [{"element": "Mn", "occu": 1}], "abc": [0.5, 0.0, 0.16458], "properties": {"magmom": 3.293}, "label": "Mn", "xyz": [2.2096145, 0.0, 1.52751520194]}, {"species": [{"element": "Mn", "occu": 1}], "abc": [0.0, 0.5, 0.16458], "properties": {"magmom": 3.293}, "label": "Mn", "xyz": [0.0, 2.2096145, 1.52751520194]}, {"species": [{"element": "Mn", "occu": 1}], "abc": [0.0, 0.0, 0.327599], "properties": {"magmom": 3.484}, "label": "Mn", "xyz": [0.0, 0.0, 3.0405423055069996]}, {"species": [{"element": "Mn", "occu": 1}], "abc": [0.5, 0.0, 0.83542], "properties": {"magmom": 3.293}, "label": "Mn", "xyz": [2.2096145, 0.0, 7.753777798060001]}, {"species": [{"element": "Mn", "occu": 1}], "abc": [0.0, 0.0, 0.672400999999999], "properties": {"magmom": 3.484}, "label": "Mn", "xyz": [0.0, 0.0, 6.2407506944929905]}, {"species": [{"element": "Mn", "occu": 1}], "abc": [0.5, 0.5, 0.0], "properties": {"magmom": 3.596}, "label": "Mn", "xyz": [2.2096145, 2.2096145, 0.0]}, {"species": [{"element": "Mn", "occu": 1}], "abc": [0.0, 0.5, 0.83542], "properties": {"magmom": 3.293}, "label": "Mn", "xyz": [0.0, 2.2096145, 7.753777798060001]}, {"species": [{"element": "Au", "occu": 1}], "abc": [0.5, 0.0, 0.5], "properties": {"magmom": 0.111}, "label": "Au", "xyz": [2.2096145, 0.0, 4.6406465]}, {"species": [{"element": "Au", "occu": 1}], "abc": [0.0, 0.0, 0.0], "properties": {"magmom": 0.145}, "label": "Au", "xyz": [0.0, 0.0, 0.0]}, {"species": [{"element": "Au", "occu": 1}], "abc": [0.0, 0.5, 0.5], "properties": {"magmom": 0.111}, "label": "Au", "xyz": [0.0, 2.2096145, 4.6406465]}]}, "task_ids": null, "uncorrected_energy_per_atom": null, "energy_per_atom": -23.503389796882185, "formation_energy_per_atom": 0.155351247255746, "energy_above_hull": 0.34233507337643504, "is_stable": false, "equilibrium_reaction_energy_per_atom": null, "decomposes_to": null, "xas": null, "grain_boundaries": null, "band_gap": 0.0, "cbm": null, "vbm": null, "efermi": 4.60241726, "is_gap_direct": null, "is_metal": null, "es_source_calc_id": null, "bandstructure": null, "dos": null, "dos_energy_up": null, "dos_energy_down": null, "is_magnetic": null, "ordering": null, "total_magnetization": 31.8605974, "total_magnetization_normalized_vol": null, "total_magnetization_normalized_formula_units": null, "num_magnetic_sites": null, "num_unique_magnetic_sites": null, "types_of_magnetic_species": null, "bulk_modulus": null, "shear_modulus": null, "universal_anisotropy": null, "homogeneous_poisson": null, "e_total": null, "e_ionic": null, "e_electronic": null, "n": null, "e_ij_max": null, "weighted_surface_energy_EV_PER_ANG2": null, "weighted_surface_energy": null, "weighted_work_function": null, "surface_anisotropy": null, "shape_factor": null, "has_reconstructed": null, "possible_species": null, "has_props": null, "theoretical": null, "database_IDs": null, "fields_not_requested": ["builder_meta", "nsites", "elements", "nelements", "composition", "composition_reduced", "chemsys", "symmetry", "property_name", "deprecated", "deprecation_reasons", "last_updated", "origins", "warnings", "task_ids", "uncorrected_energy_per_atom", "equilibrium_reaction_energy_per_atom", "decomposes_to", "xas", "grain_boundaries", "cbm", "vbm", "is_gap_direct", "is_metal", "es_source_calc_id", "bandstructure", "dos", "dos_energy_up", "dos_energy_down", "is_magnetic", "ordering", "total_magnetization_normalized_vol", "total_magnetization_normalized_formula_units", "num_magnetic_sites", "num_unique_magnetic_sites", "types_of_magnetic_species", "bulk_modulus", "shear_modulus", "universal_anisotropy", "homogeneous_poisson", "e_total", "e_ionic", "e_electronic", "n", "e_ij_max", "weighted_surface_energy_EV_PER_ANG2", "weighted_surface_energy", "weighted_work_function", "surface_anisotropy", "shape_factor", "has_reconstructed", "possible_species", "has_props", "theoretical", "database_IDs"]}