{"builder_meta": null, "nsites": null, "elements": null, "nelements": null, "composition": null, "composition_reduced": null, "formula_pretty": "Mn3As2", "formula_anonymous": "A2B3", "chemsys": null, "volume": 145.50705987251, "density": 7.18179307337454, "density_atomic": 14.550705987251002, "symmetry": null, "property_name": null, "material_id": "mp-28916", "deprecated": null, "deprecation_reasons": null, "last_updated": null, "origins": null, "warnings": null, "structure": {"@module": "pymatgen.core.structure", "@class": "Structure", "charge": 0, "lattice": {"matrix": [[1.740657999999999, 6.433653, 0.0], [-1.740657999999999, 6.433653, 0.0], [0.0, 5.789887, 6.496553]], "pbc": [true, true, true], "a": 6.664966706396439, "b": 6.664966706396439, "c": 8.702183194726366, "alpha": 50.0404854785527, "beta": 50.0404854785527, "gamma": 30.27843578718717, "volume": 145.50705987250993}, "properties": {}, "sites": [{"species": [{"element": "Mn", "occu": 1}], "abc": [0.304272, 0.304272, 0.326206], "properties": {"magmom": 2.711}, "label": "Mn", "xyz": [0.0, 5.8038568099539996, 2.1192145679179997]}, {"species": [{"element": "Mn", "occu": 1}], "abc": [0.695728, 0.695728, 0.673794], "properties": {"magmom": 2.711}, "label": "Mn", "xyz": [0.0, 12.853336190045999, 4.3773384320819995]}, {"species": [{"element": "Mn", "occu": 1}], "abc": [0.392787999999999, 0.392787999999999, 0.9095400000000001], "properties": {"magmom": 2.481}, "label": "Mn", "xyz": [0.0, 10.32025721110799, 5.908874815620001]}, {"species": [{"element": "Mn", "occu": 1}], "abc": [0.607212, 0.607212, 0.09046000000000001], "properties": {"magmom": 2.481}, "label": "Mn", "xyz": [0.0, 8.336935788892, 0.5876781843800001]}, {"species": [{"element": "Mn", "occu": 1}], "abc": [0.5, 0.5, 0.5], "properties": {"magmom": 3.243}, "label": "Mn", "xyz": [0.0, 9.3285965, 3.2482765]}, {"species": [{"element": "Mn", "occu": 1}], "abc": [0.0, 0.0, 0.0], "properties": {"magmom": 2.2}, "label": "Mn", "xyz": [0.0, 0.0, 0.0]}, {"species": [{"element": "As", "occu": 1}], "abc": [0.060046999999999004, 0.060046999999999004, 0.655050999999999], "properties": {"magmom": -0.114}, "label": "As", "xyz": [0.0, 4.565314392618982, 4.255573539202993]}, {"species": [{"element": "As", "occu": 1}], "abc": [0.939952999999999, 0.939952999999999, 0.344949], "properties": {"magmom": -0.114}, "label": "As", "xyz": [0.0, 14.091878607380988, 2.240979460797]}, {"species": [{"element": "As", "occu": 1}], "abc": [0.249538999999999, 0.249538999999999, 0.820804], "properties": {"magmom": -0.134}, "label": "As", "xyz": [0.0, 7.963257081081987, 5.332396688612]}, {"species": [{"element": "As", "occu": 1}], "abc": [0.750460999999999, 0.750460999999999, 0.179196], "properties": {"magmom": -0.134}, "label": "As", "xyz": [0.0, 10.693935918917987, 1.1641563113879998]}]}, "task_ids": null, "uncorrected_energy_per_atom": null, "energy_per_atom": -7.518319083, "formation_energy_per_atom": -0.153060894758621, "energy_above_hull": 0.058995547413792, "is_stable": false, "equilibrium_reaction_energy_per_atom": null, "decomposes_to": null, "xas": null, "grain_boundaries": null, "band_gap": 0.0, "cbm": null, "vbm": null, "efermi": 6.25945842, "is_gap_direct": null, "is_metal": null, "es_source_calc_id": null, "bandstructure": null, "dos": null, "dos_energy_up": null, "dos_energy_down": null, "is_magnetic": null, "ordering": null, "total_magnetization": 15.5521645, "total_magnetization_normalized_vol": null, "total_magnetization_normalized_formula_units": null, "num_magnetic_sites": null, "num_unique_magnetic_sites": null, "types_of_magnetic_species": null, "bulk_modulus": null, "shear_modulus": null, "universal_anisotropy": null, "homogeneous_poisson": null, "e_total": null, "e_ionic": null, "e_electronic": null, "n": null, "e_ij_max": null, "weighted_surface_energy_EV_PER_ANG2": null, "weighted_surface_energy": null, "weighted_work_function": null, "surface_anisotropy": null, "shape_factor": null, "has_reconstructed": null, "possible_species": null, "has_props": null, "theoretical": null, "database_IDs": null, "fields_not_requested": ["builder_meta", "nsites", "elements", "nelements", "composition", "composition_reduced", "chemsys", "symmetry", "property_name", "deprecated", "deprecation_reasons", "last_updated", "origins", "warnings", "task_ids", "uncorrected_energy_per_atom", "equilibrium_reaction_energy_per_atom", "decomposes_to", "xas", "grain_boundaries", "cbm", "vbm", "is_gap_direct", "is_metal", "es_source_calc_id", "bandstructure", "dos", "dos_energy_up", "dos_energy_down", "is_magnetic", "ordering", "total_magnetization_normalized_vol", "total_magnetization_normalized_formula_units", "num_magnetic_sites", "num_unique_magnetic_sites", "types_of_magnetic_species", "bulk_modulus", "shear_modulus", "universal_anisotropy", "homogeneous_poisson", "e_total", "e_ionic", "e_electronic", "n", "e_ij_max", "weighted_surface_energy_EV_PER_ANG2", "weighted_surface_energy", "weighted_work_function", "surface_anisotropy", "shape_factor", "has_reconstructed", "possible_species", "has_props", "theoretical", "database_IDs"]}