{"builder_meta": null, "nsites": null, "elements": null, "nelements": null, "composition": null, "composition_reduced": null, "formula_pretty": "Mn3As", "formula_anonymous": "AB3", "chemsys": null, "volume": 120.69303665560894, "density": 6.59674434679268, "density_atomic": 15.086629581951117, "symmetry": null, "property_name": null, "material_id": "mp-2668", "deprecated": null, "deprecation_reasons": null, "last_updated": null, "origins": null, "warnings": null, "structure": {"@module": "pymatgen.core.structure", "@class": "Structure", "charge": 0, "lattice": {"matrix": [[3.56306607, 0.0, -0.82853802], [0.0, 3.87657417, 0.0], [0.14611951, 0.0, 8.70398588]], "pbc": [true, true, true], "a": 3.658129996291926, "b": 3.87657417, "c": 8.70521229554122, "alpha": 90.0, "beta": 102.12887074929269, "gamma": 90.0, "volume": 120.69303665560894}, "properties": {}, "sites": [{"species": [{"element": "Mn", "occu": 1}], "abc": [0.9401915200000001, 0.25, 0.88038204], "properties": {"magmom": -3.65}, "label": "Mn", "xyz": [3.478605496511327, 0.9691435425, 6.883848424764004]}, {"species": [{"element": "Mn", "occu": 1}], "abc": [0.0598376, 0.75, 0.1196742], "properties": {"magmom": -3.65}, "label": "Mn", "xyz": [0.230692057733874, 2.9074306275, 0.9920648203747439]}, {"species": [{"element": "Mn", "occu": 1}], "abc": [0.55463199, 0.25, 0.10926497], "properties": {"magmom": 3.548}, "label": "Mn", "xyz": [1.992156168782144, 0.9691435425, 0.4915070652353638]}, {"species": [{"element": "Mn", "occu": 1}], "abc": [0.44535205, 0.75, 0.8907040900000001], "properties": {"magmom": 3.549}, "label": "Mn", "xyz": [1.7169680237457394, 2.9074306275, 7.383684716908308]}, {"species": [{"element": "Mn", "occu": 1}], "abc": [0.310659099999999, 0.25, 0.6213172100000001], "properties": {"magmom": 3.951}, "label": "Mn", "xyz": [1.1976854648265007, 0.9691435425, 5.150543347232014]}, {"species": [{"element": "Mn", "occu": 1}], "abc": [0.68933606, 0.75, 0.37867413], "properties": {"magmom": 3.951}, "label": "Mn", "xyz": [2.5114816045387607, 2.9074306275, 2.7248331463742828]}, {"species": [{"element": "As", "occu": 1}], "abc": [0.16160069999999901, 0.25, 0.3232004], "properties": {"magmom": -0.056}, "label": "As", "xyz": [0.6230198551380495, 0.9691435425, 2.6792393940017387]}, {"species": [{"element": "As", "occu": 1}], "abc": [0.83839098, 0.75, 0.67678295], "properties": {"magmom": -0.056}, "label": "As", "xyz": [3.086133647262403, 2.9074306275, 5.196070438069686]}]}, "task_ids": null, "uncorrected_energy_per_atom": null, "energy_per_atom": -8.16891555, "formation_energy_per_atom": -0.129873447823277, "energy_above_hull": 0.002661828534483, "is_stable": false, "equilibrium_reaction_energy_per_atom": null, "decomposes_to": null, "xas": null, "grain_boundaries": null, "band_gap": 0.0, "cbm": null, "vbm": null, "efermi": 6.4524512, "is_gap_direct": null, "is_metal": null, "es_source_calc_id": null, "bandstructure": null, "dos": null, "dos_energy_up": null, "dos_energy_down": null, "is_magnetic": null, "ordering": null, "total_magnetization": 5.334762299999999, "total_magnetization_normalized_vol": null, "total_magnetization_normalized_formula_units": null, "num_magnetic_sites": null, "num_unique_magnetic_sites": null, "types_of_magnetic_species": null, "bulk_modulus": null, "shear_modulus": null, "universal_anisotropy": null, "homogeneous_poisson": null, "e_total": null, "e_ionic": null, "e_electronic": null, "n": null, "e_ij_max": null, "weighted_surface_energy_EV_PER_ANG2": null, "weighted_surface_energy": null, "weighted_work_function": null, "surface_anisotropy": null, "shape_factor": null, "has_reconstructed": null, "possible_species": null, "has_props": null, "theoretical": null, "database_IDs": null, "fields_not_requested": ["builder_meta", "nsites", "elements", "nelements", "composition", "composition_reduced", "chemsys", "symmetry", "property_name", "deprecated", "deprecation_reasons", "last_updated", "origins", "warnings", "task_ids", "uncorrected_energy_per_atom", "equilibrium_reaction_energy_per_atom", "decomposes_to", "xas", "grain_boundaries", "cbm", "vbm", "is_gap_direct", "is_metal", "es_source_calc_id", "bandstructure", "dos", "dos_energy_up", "dos_energy_down", "is_magnetic", "ordering", "total_magnetization_normalized_vol", "total_magnetization_normalized_formula_units", "num_magnetic_sites", "num_unique_magnetic_sites", "types_of_magnetic_species", "bulk_modulus", "shear_modulus", "universal_anisotropy", "homogeneous_poisson", "e_total", "e_ionic", "e_electronic", "n", "e_ij_max", "weighted_surface_energy_EV_PER_ANG2", "weighted_surface_energy", "weighted_work_function", "surface_anisotropy", "shape_factor", "has_reconstructed", "possible_species", "has_props", "theoretical", "database_IDs"]}