{
  "builder_meta": null,
  "nsites": null,
  "elements": null,
  "nelements": null,
  "composition": null,
  "composition_reduced": null,
  "formula_pretty": "Mn3Br",
  "formula_anonymous": "AB3",
  "chemsys": null,
  "volume": 71.45275942506073,
  "density": 5.687170470990489,
  "density_atomic": 17.863189856265183,
  "symmetry": null,
  "property_name": null,
  "material_id": "mp-1185951",
  "deprecated": null,
  "deprecation_reasons": null,
  "last_updated": null,
  "origins": null,
  "warnings": null,
  "structure": {
    "@module": "pymatgen.core.structure",
    "@class": "Structure",
    "charge": 0.0,
    "lattice": {
      "matrix": [
        [-1.97089654, 1.97089654, 4.59866062],
        [1.97089654, -1.97089654, 4.59866062],
        [1.97089654, 1.97089654, -4.59866062]
      ],
      "pbc": [true, true, true],
      "a": 5.37741070039352,
      "b": 5.37741070039352,
      "c": 5.37741070039352,
      "alpha": 136.99842144865553,
      "beta": 136.99842144865553,
      "gamma": 62.44047904147933,
      "volume": 71.45275942506073
    },
    "properties": {},
    "sites": [
      {
        "species": [{ "element": "Mn", "occu": 1 }],
        "abc": [0.75, 0.25, 0.5],
        "properties": { "magmom": 3.936 },
        "label": "Mn",
        "xyz": [0.0, 1.97089654, 2.29933031]
      },
      {
        "species": [{ "element": "Mn", "occu": 1 }],
        "abc": [0.25, 0.75, 0.5],
        "properties": { "magmom": 3.936 },
        "label": "Mn",
        "xyz": [1.97089654, 0.0, 2.29933031]
      },
      {
        "species": [{ "element": "Mn", "occu": 1 }],
        "abc": [0.5, 0.5, 0.0],
        "properties": { "magmom": 3.96 },
        "label": "Mn",
        "xyz": [0.0, 0.0, 4.59866062]
      },
      {
        "species": [{ "element": "Br", "occu": 1 }],
        "abc": [-0.0, 0.0, 0.0],
        "properties": { "magmom": 0.126 },
        "label": "Br",
        "xyz": [0.0, 0.0, 0.0]
      }
    ]
  },
  "task_ids": null,
  "uncorrected_energy_per_atom": null,
  "energy_per_atom": -6.730936007499999,
  "formation_energy_per_atom": 0.549812095301724,
  "energy_above_hull": 0.988199490043103,
  "is_stable": false,
  "equilibrium_reaction_energy_per_atom": null,
  "decomposes_to": null,
  "xas": null,
  "grain_boundaries": null,
  "band_gap": 0.0,
  "cbm": null,
  "vbm": null,
  "efermi": 5.19158188,
  "is_gap_direct": null,
  "is_metal": null,
  "es_source_calc_id": null,
  "bandstructure": null,
  "dos": null,
  "dos_energy_up": null,
  "dos_energy_down": null,
  "is_magnetic": null,
  "ordering": null,
  "total_magnetization": 12.3995707,
  "total_magnetization_normalized_vol": null,
  "total_magnetization_normalized_formula_units": null,
  "num_magnetic_sites": null,
  "num_unique_magnetic_sites": null,
  "types_of_magnetic_species": null,
  "bulk_modulus": null,
  "shear_modulus": null,
  "universal_anisotropy": null,
  "homogeneous_poisson": null,
  "e_total": null,
  "e_ionic": null,
  "e_electronic": null,
  "n": null,
  "e_ij_max": null,
  "weighted_surface_energy_EV_PER_ANG2": null,
  "weighted_surface_energy": null,
  "weighted_work_function": null,
  "surface_anisotropy": null,
  "shape_factor": null,
  "has_reconstructed": null,
  "possible_species": null,
  "has_props": null,
  "theoretical": null,
  "database_IDs": null,
  "fields_not_requested": [
    "builder_meta",
    "nsites",
    "elements",
    "nelements",
    "composition",
    "composition_reduced",
    "chemsys",
    "symmetry",
    "property_name",
    "deprecated",
    "deprecation_reasons",
    "last_updated",
    "origins",
    "warnings",
    "task_ids",
    "uncorrected_energy_per_atom",
    "equilibrium_reaction_energy_per_atom",
    "decomposes_to",
    "xas",
    "grain_boundaries",
    "cbm",
    "vbm",
    "is_gap_direct",
    "is_metal",
    "es_source_calc_id",
    "bandstructure",
    "dos",
    "dos_energy_up",
    "dos_energy_down",
    "is_magnetic",
    "ordering",
    "total_magnetization_normalized_vol",
    "total_magnetization_normalized_formula_units",
    "num_magnetic_sites",
    "num_unique_magnetic_sites",
    "types_of_magnetic_species",
    "bulk_modulus",
    "shear_modulus",
    "universal_anisotropy",
    "homogeneous_poisson",
    "e_total",
    "e_ionic",
    "e_electronic",
    "n",
    "e_ij_max",
    "weighted_surface_energy_EV_PER_ANG2",
    "weighted_surface_energy",
    "weighted_work_function",
    "surface_anisotropy",
    "shape_factor",
    "has_reconstructed",
    "possible_species",
    "has_props",
    "theoretical",
    "database_IDs"
  ]
}
