{"builder_meta": null, "nsites": null, "elements": null, "nelements": null, "composition": null, "composition_reduced": null, "formula_pretty": "Mn3B4", "formula_anonymous": "A3B4", "chemsys": null, "volume": 57.02338489965325, "density": 6.058718925567283, "density_atomic": 8.146197842807608, "symmetry": null, "property_name": null, "material_id": "mp-10118", "deprecated": null, "deprecation_reasons": null, "last_updated": null, "origins": null, "warnings": null, "structure": {"@module": "pymatgen.core.structure", "@class": "Structure", "charge": 0, "lattice": {"matrix": [[2.87294788, -2e-08, -0.6436226700000001], [-0.15082947, 2.9264938, -0.6732566], [0.009568440000000001, 0.01504595, 6.77653129]], "pbc": [true, true, true], "a": 2.944160264410622, "b": 3.006724121016506, "c": 6.776554748543282, "alpha": 102.81630494532092, "beta": 102.54646779903385, "gamma": 90.00001329516033, "volume": 57.02338489965325}, "properties": {}, "sites": [{"species": [{"element": "Mn", "occu": 1}], "abc": [0.18741203, 0.18733389, 0.37482207], "properties": {"magmom": 2.489}, "label": "Mn", "xyz": [0.5137559854207289, 0.5538710179907579, 2.2932470765526762]}, {"species": [{"element": "Mn", "occu": 1}], "abc": [0.81258797, 0.81266611, 0.62517793], "properties": {"magmom": 2.489}, "label": "Mn", "xyz": [2.2179308645792712, 2.387668712009242, 3.1664049434473243]}, {"species": [{"element": "Mn", "occu": 1}], "abc": [0.5, -0.0, -0.0], "properties": {"magmom": 2.564}, "label": "Mn", "xyz": [1.43647394, -1e-08, -0.32181133500000003]}, {"species": [{"element": "B", "occu": 1}], "abc": [0.9334260400000001, 0.4333932, 0.86685208], "properties": {"magmom": -0.061}, "label": "B", "xyz": [2.6246103182135463, 1.2813651071467151, 4.981691251514136]}, {"species": [{"element": "B", "occu": 1}], "abc": [0.06657396, 0.5666068, 0.13314792], "properties": {"magmom": -0.061}, "label": "B", "xyz": [0.1070765317864536, 1.6601746228532845, 0.4779607684858637]}, {"species": [{"element": "B", "occu": 1}], "abc": [0.35841473, 0.35829544, 0.71683146], "properties": {"magmom": -0.127}, "label": "B", "xyz": [0.9825242862107781, 1.0593347868655645, 4.385722203126551]}, {"species": [{"element": "B", "occu": 1}], "abc": [0.64158527, 0.64170456, 0.28316854], "properties": {"magmom": -0.127}, "label": "B", "xyz": [1.7491625637892219, 1.8822049431344354, 1.07392981687345]}]}, "task_ids": null, "uncorrected_energy_per_atom": null, "energy_per_atom": -10.935840534285715, "formation_energy_per_atom": -0.44506613192118205, "energy_above_hull": 0.018044119047617, "is_stable": false, "equilibrium_reaction_energy_per_atom": null, "decomposes_to": null, "xas": null, "grain_boundaries": null, "band_gap": 0.0, "cbm": null, "vbm": null, "efermi": 7.84524644, "is_gap_direct": null, "is_metal": null, "es_source_calc_id": null, "bandstructure": null, "dos": null, "dos_energy_up": null, "dos_energy_down": null, "is_magnetic": null, "ordering": null, "total_magnetization": 7.0516034, "total_magnetization_normalized_vol": null, "total_magnetization_normalized_formula_units": null, "num_magnetic_sites": null, "num_unique_magnetic_sites": null, "types_of_magnetic_species": null, "bulk_modulus": null, "shear_modulus": null, "universal_anisotropy": null, "homogeneous_poisson": null, "e_total": null, "e_ionic": null, "e_electronic": null, "n": null, "e_ij_max": null, "weighted_surface_energy_EV_PER_ANG2": null, "weighted_surface_energy": null, "weighted_work_function": null, "surface_anisotropy": null, "shape_factor": null, "has_reconstructed": null, "possible_species": null, "has_props": null, "theoretical": null, "database_IDs": null, "fields_not_requested": ["builder_meta", "nsites", "elements", "nelements", "composition", "composition_reduced", "chemsys", "symmetry", "property_name", "deprecated", "deprecation_reasons", "last_updated", "origins", "warnings", "task_ids", "uncorrected_energy_per_atom", "equilibrium_reaction_energy_per_atom", "decomposes_to", "xas", "grain_boundaries", "cbm", "vbm", "is_gap_direct", "is_metal", "es_source_calc_id", "bandstructure", "dos", "dos_energy_up", "dos_energy_down", "is_magnetic", "ordering", "total_magnetization_normalized_vol", "total_magnetization_normalized_formula_units", "num_magnetic_sites", "num_unique_magnetic_sites", "types_of_magnetic_species", "bulk_modulus", "shear_modulus", "universal_anisotropy", "homogeneous_poisson", "e_total", "e_ionic", "e_electronic", "n", "e_ij_max", "weighted_surface_energy_EV_PER_ANG2", "weighted_surface_energy", "weighted_work_function", "surface_anisotropy", "shape_factor", "has_reconstructed", "possible_species", "has_props", "theoretical", "database_IDs"]}