{
  "builder_meta": null,
  "nsites": null,
  "elements": null,
  "nelements": null,
  "composition": null,
  "composition_reduced": null,
  "formula_pretty": "Mn3C",
  "formula_anonymous": "AB3",
  "chemsys": null,
  "volume": 146.92153425911712,
  "density": 7.994050645965898,
  "density_atomic": 9.18259589119482,
  "symmetry": null,
  "property_name": null,
  "material_id": "mp-1188188",
  "deprecated": null,
  "deprecation_reasons": null,
  "last_updated": null,
  "origins": null,
  "warnings": null,
  "structure": {
    "@module": "pymatgen.core.structure",
    "@class": "Structure",
    "charge": 0,
    "lattice": {
      "matrix": [
        [4.939463, 0.0, 0.0],
        [0.0, 6.704204, 0.0],
        [0.0, 0.0, 4.436684]
      ],
      "pbc": [true, true, true],
      "a": 4.939463,
      "b": 6.704204,
      "c": 4.436684,
      "alpha": 90.0,
      "beta": 90.0,
      "gamma": 90.0,
      "volume": 146.92153425911712
    },
    "properties": {},
    "sites": [
      {
        "species": [{ "element": "Mn", "occu": 1 }],
        "abc": [0.685429, 0.065845, 0.342107999999999],
        "properties": { "magmom": -0.024 },
        "label": "Mn",
        "xyz": [3.3856511846269997, 0.44143831238, 1.5178250898719956]
      },
      {
        "species": [{ "element": "Mn", "occu": 1 }],
        "abc": [0.185428999999999, 0.434154999999999, 0.157892],
        "properties": { "magmom": -0.024 },
        "label": "Mn",
        "xyz": [0.9159196846269951, 2.9106636876199934, 0.700516910128]
      },
      {
        "species": [{ "element": "Mn", "occu": 1 }],
        "abc": [0.314571, 0.565844999999999, 0.657891999999999],
        "properties": { "magmom": -0.024 },
        "label": "Mn",
        "xyz": [1.5538118153729998, 3.7935403123799936, 2.9188589101279954]
      },
      {
        "species": [{ "element": "Mn", "occu": 1 }],
        "abc": [0.814570999999999, 0.934155, 0.842108],
        "properties": { "magmom": -0.024 },
        "label": "Mn",
        "xyz": [4.023543315372995, 6.26276568762, 3.7361670898719996]
      },
      {
        "species": [{ "element": "Mn", "occu": 1 }],
        "abc": [0.314571, 0.934155, 0.657891999999999],
        "properties": { "magmom": -0.024 },
        "label": "Mn",
        "xyz": [1.5538118153729998, 6.26276568762, 2.9188589101279954]
      },
      {
        "species": [{ "element": "Mn", "occu": 1 }],
        "abc": [0.814570999999999, 0.565844999999999, 0.842108],
        "properties": { "magmom": -0.024 },
        "label": "Mn",
        "xyz": [4.023543315372995, 3.7935403123799936, 3.7361670898719996]
      },
      {
        "species": [{ "element": "Mn", "occu": 1 }],
        "abc": [0.685429, 0.434154999999999, 0.342107999999999],
        "properties": { "magmom": -0.024 },
        "label": "Mn",
        "xyz": [3.3856511846269997, 2.9106636876199934, 1.5178250898719956]
      },
      {
        "species": [{ "element": "Mn", "occu": 1 }],
        "abc": [0.185428999999999, 0.065845, 0.157892],
        "properties": { "magmom": -0.024 },
        "label": "Mn",
        "xyz": [0.9159196846269951, 0.44143831238, 0.700516910128]
      },
      {
        "species": [{ "element": "Mn", "occu": 1 }],
        "abc": [0.531403, 0.25, 0.839561],
        "properties": { "magmom": 0.5700000000000001 },
        "label": "Mn",
        "xyz": [2.6248454565889996, 1.676051, 3.7248668557239997]
      },
      {
        "species": [{ "element": "Mn", "occu": 1 }],
        "abc": [0.031403, 0.25, 0.660439],
        "properties": { "magmom": 0.5700000000000001 },
        "label": "Mn",
        "xyz": [0.155113956589, 1.676051, 2.9301591442759998]
      },
      {
        "species": [{ "element": "Mn", "occu": 1 }],
        "abc": [0.468597, 0.75, 0.160439],
        "properties": { "magmom": 0.5700000000000001 },
        "label": "Mn",
        "xyz": [2.314617543411, 5.028153, 0.711817144276]
      },
      {
        "species": [{ "element": "Mn", "occu": 1 }],
        "abc": [0.968596999999999, 0.75, 0.339561],
        "properties": { "magmom": 0.5700000000000001 },
        "label": "Mn",
        "xyz": [4.784349043410995, 5.028153, 1.5065248557239999]
      },
      {
        "species": [{ "element": "C", "occu": 1 }],
        "abc": [0.878413, 0.25, 0.065612999999999],
        "properties": { "magmom": -0.005 },
        "label": "C",
        "xyz": [4.3388885122189995, 1.676051, 0.2911041472919956]
      },
      {
        "species": [{ "element": "C", "occu": 1 }],
        "abc": [0.378413, 0.25, 0.434386999999999],
        "properties": { "magmom": -0.005 },
        "label": "C",
        "xyz": [1.869157012219, 1.676051, 1.9272378527079954]
      },
      {
        "species": [{ "element": "C", "occu": 1 }],
        "abc": [0.121587, 0.75, 0.934387],
        "properties": { "magmom": -0.005 },
        "label": "C",
        "xyz": [0.600574487781, 5.028153, 4.145579852708]
      },
      {
        "species": [{ "element": "C", "occu": 1 }],
        "abc": [0.621587, 0.75, 0.565612999999999],
        "properties": { "magmom": -0.005 },
        "label": "C",
        "xyz": [3.070305987781, 5.028153, 2.5094461472919956]
      }
    ]
  },
  "task_ids": null,
  "uncorrected_energy_per_atom": null,
  "energy_per_atom": -9.251069660625,
  "formation_energy_per_atom": -0.07239181844827501,
  "energy_above_hull": 0.016571311684781,
  "is_stable": false,
  "equilibrium_reaction_energy_per_atom": null,
  "decomposes_to": null,
  "xas": null,
  "grain_boundaries": null,
  "band_gap": 0.0,
  "cbm": null,
  "vbm": null,
  "efermi": 7.67604072,
  "is_gap_direct": null,
  "is_metal": null,
  "es_source_calc_id": null,
  "bandstructure": null,
  "dos": null,
  "dos_energy_up": null,
  "dos_energy_down": null,
  "is_magnetic": null,
  "ordering": null,
  "total_magnetization": 2.0695875,
  "total_magnetization_normalized_vol": null,
  "total_magnetization_normalized_formula_units": null,
  "num_magnetic_sites": null,
  "num_unique_magnetic_sites": null,
  "types_of_magnetic_species": null,
  "bulk_modulus": null,
  "shear_modulus": null,
  "universal_anisotropy": null,
  "homogeneous_poisson": null,
  "e_total": null,
  "e_ionic": null,
  "e_electronic": null,
  "n": null,
  "e_ij_max": null,
  "weighted_surface_energy_EV_PER_ANG2": null,
  "weighted_surface_energy": null,
  "weighted_work_function": null,
  "surface_anisotropy": null,
  "shape_factor": null,
  "has_reconstructed": null,
  "possible_species": null,
  "has_props": null,
  "theoretical": null,
  "database_IDs": null,
  "fields_not_requested": [
    "builder_meta",
    "nsites",
    "elements",
    "nelements",
    "composition",
    "composition_reduced",
    "chemsys",
    "symmetry",
    "property_name",
    "deprecated",
    "deprecation_reasons",
    "last_updated",
    "origins",
    "warnings",
    "task_ids",
    "uncorrected_energy_per_atom",
    "equilibrium_reaction_energy_per_atom",
    "decomposes_to",
    "xas",
    "grain_boundaries",
    "cbm",
    "vbm",
    "is_gap_direct",
    "is_metal",
    "es_source_calc_id",
    "bandstructure",
    "dos",
    "dos_energy_up",
    "dos_energy_down",
    "is_magnetic",
    "ordering",
    "total_magnetization_normalized_vol",
    "total_magnetization_normalized_formula_units",
    "num_magnetic_sites",
    "num_unique_magnetic_sites",
    "types_of_magnetic_species",
    "bulk_modulus",
    "shear_modulus",
    "universal_anisotropy",
    "homogeneous_poisson",
    "e_total",
    "e_ionic",
    "e_electronic",
    "n",
    "e_ij_max",
    "weighted_surface_energy_EV_PER_ANG2",
    "weighted_surface_energy",
    "weighted_work_function",
    "surface_anisotropy",
    "shape_factor",
    "has_reconstructed",
    "possible_species",
    "has_props",
    "theoretical",
    "database_IDs"
  ]
}
