{
  "builder_meta": null,
  "nsites": null,
  "elements": null,
  "nelements": null,
  "composition": null,
  "composition_reduced": null,
  "formula_pretty": "Mn3F8",
  "formula_anonymous": "A3B8",
  "chemsys": null,
  "volume": 336.0249346710483,
  "density": 3.131083329535181,
  "density_atomic": 15.273860666865831,
  "symmetry": null,
  "property_name": null,
  "material_id": "mp-752616",
  "deprecated": null,
  "deprecation_reasons": null,
  "last_updated": null,
  "origins": null,
  "warnings": null,
  "structure": {
    "@module": "pymatgen.core.structure",
    "@class": "Structure",
    "charge": 0,
    "lattice": {
      "matrix": [
        [5.619027, 3.220999, 0.0],
        [-5.619027, 3.220999, 0.0],
        [0.0, 0.111877999999999, 9.283031]
      ],
      "pbc": [true, true, true],
      "a": 6.476750650189492,
      "b": 6.476750650189492,
      "c": 9.28370514578339,
      "alpha": 89.6566144621472,
      "beta": 89.6566144621472,
      "gamma": 120.35467908423445,
      "volume": 336.0249346710483
    },
    "properties": {},
    "sites": [
      {
        "species": [{ "element": "Mn", "occu": 1 }],
        "abc": [0.8332400000000001, 0.16663, 0.247991],
        "properties": { "magmom": 3.879 },
        "label": "Mn",
        "xyz": [3.7456995884700004, 3.248325007228, 2.302108140721]
      },
      {
        "species": [{ "element": "Mn", "occu": 1 }],
        "abc": [0.333835999999999, 0.167058999999999, 0.248361],
        "properties": { "magmom": 3.886 },
        "label": "Mn",
        "xyz": [0.9371244659790001, 1.6411684260629935, 2.305542862191]
      },
      {
        "species": [{ "element": "Mn", "occu": 1 }],
        "abc": [0.167058999999999, 0.333835999999999, 0.748360999999999],
        "properties": { "magmom": 3.886 },
        "label": "Mn",
        "xyz": [-0.9371244659790001, 1.697107426062993, 6.947058362190991]
      },
      {
        "species": [{ "element": "Mn", "occu": 1 }],
        "abc": [0.833428, 0.666103, 0.247245],
        "properties": { "magmom": 4.677 },
        "label": "Mn",
        "xyz": [0.9402036927749995, 4.857649127578999, 2.2951829995949997]
      },
      {
        "species": [{ "element": "Mn", "occu": 1 }],
        "abc": [0.666103, 0.833428, 0.747244999999999],
        "properties": { "magmom": 4.677 },
        "label": "Mn",
        "xyz": [-0.9402036927749995, 4.913588127578999, 6.936698499594991]
      },
      {
        "species": [{ "element": "Mn", "occu": 1 }],
        "abc": [0.16663, 0.8332400000000001, 0.747991],
        "properties": { "magmom": 3.879 },
        "label": "Mn",
        "xyz": [-3.7456995884700004, 3.3042640072279994, 6.9436236407209995]
      },
      {
        "species": [{ "element": "F", "occu": 1 }],
        "abc": [0.0026200000000000004, 0.014919, 0.629265],
        "properties": { "magmom": 0.073 },
        "label": "F",
        "xyz": [-0.069108413073, 0.12689401113099938, 5.841486502214999]
      },
      {
        "species": [{ "element": "F", "occu": 1 }],
        "abc": [0.014919, 0.0026200000000000004, 0.129265],
        "properties": { "magmom": 0.073 },
        "label": "F",
        "xyz": [0.069108413073, 0.07095501113099988, 1.1999710022149999]
      },
      {
        "species": [{ "element": "F", "occu": 1 }],
        "abc": [0.879308, 0.173148, 0.849588999999999],
        "properties": { "magmom": 0.0 },
        "label": "F",
        "xyz": [3.96793210632, 3.485010041685999, 7.88676102425899]
      },
      {
        "species": [{ "element": "F", "occu": 1 }],
        "abc": [0.534662, 0.048073, 0.148866],
        "properties": { "magmom": -0.0 },
        "label": "F",
        "xyz": [2.7341567289029998, 1.8936436826129996, 1.3819276928459998]
      },
      {
        "species": [{ "element": "F", "occu": 1 }],
        "abc": [0.2864, 0.132441, 0.846321],
        "properties": { "magmom": -0.0 },
        "label": "F",
        "xyz": [0.865099777893, 1.443771142996999, 7.856424078950999]
      },
      {
        "species": [{ "element": "F", "occu": 1 }],
        "abc": [0.960751999999999, 0.457791, 0.148183999999999],
        "properties": { "magmom": 0.009000000000000001 },
        "label": "F",
        "xyz": [2.826151438946995, 4.585704114008997, 1.3755966657039906]
      },
      {
        "species": [{ "element": "F", "occu": 1 }],
        "abc": [0.65154, 0.33092000000000005, 0.367660999999999],
        "properties": { "magmom": 0.073 },
        "label": "F",
        "xyz": [1.8015724367399997, 3.2056358548979995, 3.4130084604909907]
      },
      {
        "species": [{ "element": "F", "occu": 1 }],
        "abc": [0.493523, 0.453318, 0.145767999999999],
        "properties": { "magmom": 0.0 },
        "label": "F",
        "xyz": [0.22591298053499997, 3.0660821464629997, 1.3531688628079908]
      },
      {
        "species": [{ "element": "F", "occu": 1 }],
        "abc": [0.874838999999999, 0.705699, 0.848182],
        "properties": { "magmom": 0.01 },
        "label": "F",
        "xyz": [0.9504022267799948, 5.185804223257995, 7.873699799641999]
      },
      {
        "species": [{ "element": "F", "occu": 1 }],
        "abc": [0.132441, 0.2864, 0.346321],
        "properties": { "magmom": -0.0 },
        "label": "F",
        "xyz": [-0.865099777893, 1.3878321429969995, 3.214908578951]
      },
      {
        "species": [{ "element": "F", "occu": 1 }],
        "abc": [0.453318, 0.493523, 0.645768],
        "properties": { "magmom": 0.0 },
        "label": "F",
        "xyz": [-0.22591298053499997, 3.1220211464629997, 5.994684362808]
      },
      {
        "species": [{ "element": "F", "occu": 1 }],
        "abc": [0.33092000000000005, 0.65154, 0.867661],
        "properties": { "magmom": 0.073 },
        "label": "F",
        "xyz": [-1.8015724367399997, 3.261574854897999, 8.054523960491]
      },
      {
        "species": [{ "element": "F", "occu": 1 }],
        "abc": [0.048073, 0.534662, 0.648865999999999],
        "properties": { "magmom": -0.0 },
        "label": "F",
        "xyz": [-2.7341567289029998, 1.949582682612999, 6.023443192845991]
      },
      {
        "species": [{ "element": "F", "occu": 1 }],
        "abc": [0.705699, 0.874838999999999, 0.348182],
        "properties": { "magmom": 0.01 },
        "label": "F",
        "xyz": [-0.9504022267799948, 5.129865223257996, 3.232184299642]
      },
      {
        "species": [{ "element": "F", "occu": 1 }],
        "abc": [0.457791, 0.960751999999999, 0.648184],
        "properties": { "magmom": 0.009000000000000001 },
        "label": "F",
        "xyz": [-2.826151438946995, 4.641643114008996, 6.017112165703999]
      },
      {
        "species": [{ "element": "F", "occu": 1 }],
        "abc": [0.173148, 0.879308, 0.349589],
        "properties": { "magmom": 0.0 },
        "label": "F",
        "xyz": [-3.96793210632, 3.4290710416859995, 3.2452455242589995]
      }
    ]
  },
  "task_ids": null,
  "uncorrected_energy_per_atom": null,
  "energy_per_atom": -6.632290373636365,
  "formation_energy_per_atom": -2.741666293981191,
  "energy_above_hull": 0.078292780227271,
  "is_stable": false,
  "equilibrium_reaction_energy_per_atom": null,
  "decomposes_to": null,
  "xas": null,
  "grain_boundaries": null,
  "band_gap": 0.9143000000000001,
  "cbm": null,
  "vbm": null,
  "efermi": -1.60870069,
  "is_gap_direct": null,
  "is_metal": null,
  "es_source_calc_id": null,
  "bandstructure": null,
  "dos": null,
  "dos_energy_up": null,
  "dos_energy_down": null,
  "is_magnetic": null,
  "ordering": null,
  "total_magnetization": 26.0052167,
  "total_magnetization_normalized_vol": null,
  "total_magnetization_normalized_formula_units": null,
  "num_magnetic_sites": null,
  "num_unique_magnetic_sites": null,
  "types_of_magnetic_species": null,
  "bulk_modulus": null,
  "shear_modulus": null,
  "universal_anisotropy": null,
  "homogeneous_poisson": null,
  "e_total": null,
  "e_ionic": null,
  "e_electronic": null,
  "n": null,
  "e_ij_max": null,
  "weighted_surface_energy_EV_PER_ANG2": null,
  "weighted_surface_energy": null,
  "weighted_work_function": null,
  "surface_anisotropy": null,
  "shape_factor": null,
  "has_reconstructed": null,
  "possible_species": null,
  "has_props": null,
  "theoretical": null,
  "database_IDs": null,
  "fields_not_requested": [
    "builder_meta",
    "nsites",
    "elements",
    "nelements",
    "composition",
    "composition_reduced",
    "chemsys",
    "symmetry",
    "property_name",
    "deprecated",
    "deprecation_reasons",
    "last_updated",
    "origins",
    "warnings",
    "task_ids",
    "uncorrected_energy_per_atom",
    "equilibrium_reaction_energy_per_atom",
    "decomposes_to",
    "xas",
    "grain_boundaries",
    "cbm",
    "vbm",
    "is_gap_direct",
    "is_metal",
    "es_source_calc_id",
    "bandstructure",
    "dos",
    "dos_energy_up",
    "dos_energy_down",
    "is_magnetic",
    "ordering",
    "total_magnetization_normalized_vol",
    "total_magnetization_normalized_formula_units",
    "num_magnetic_sites",
    "num_unique_magnetic_sites",
    "types_of_magnetic_species",
    "bulk_modulus",
    "shear_modulus",
    "universal_anisotropy",
    "homogeneous_poisson",
    "e_total",
    "e_ionic",
    "e_electronic",
    "n",
    "e_ij_max",
    "weighted_surface_energy_EV_PER_ANG2",
    "weighted_surface_energy",
    "weighted_work_function",
    "surface_anisotropy",
    "shape_factor",
    "has_reconstructed",
    "possible_species",
    "has_props",
    "theoretical",
    "database_IDs"
  ]
}
