{"builder_meta": null, "nsites": null, "elements": null, "nelements": null, "composition": null, "composition_reduced": null, "formula_pretty": "Mn3Ge5", "formula_anonymous": "A3B5", "chemsys": null, "volume": 449.9697912372623, "density": 7.7941952189602794, "density_atomic": 14.061555976164447, "symmetry": null, "property_name": null, "material_id": "mp-1097859", "deprecated": null, "deprecation_reasons": null, "last_updated": null, "origins": null, "warnings": null, "structure": {"@module": "pymatgen.core.structure", "@class": "Structure", "charge": 0, "lattice": {"matrix": [[5.704243, 0.0, 0.0], [0.0, 5.704243, 0.0], [0.0, 0.0, 13.82889]], "pbc": [true, true, true], "a": 5.704243, "b": 5.704243, "c": 13.82889, "alpha": 90.0, "beta": 90.0, "gamma": 90.0, "volume": 449.9697912372623}, "properties": {}, "sites": [{"species": [{"element": "Mn", "occu": 1}], "abc": [0.5, 0.0, 0.7498400000000001], "properties": {"magmom": 1.744}, "label": "Mn", "xyz": [2.8521215, 0.0, 10.3694548776]}, {"species": [{"element": "Mn", "occu": 1}], "abc": [0.0, 0.5, 0.25016], "properties": {"magmom": 1.744}, "label": "Mn", "xyz": [0.0, 2.8521215, 3.4594351224]}, {"species": [{"element": "Mn", "occu": 1}], "abc": [0.0, 0.0, 0.0], "properties": {"magmom": -0.493}, "label": "Mn", "xyz": [0.0, 0.0, 0.0]}, {"species": [{"element": "Mn", "occu": 1}], "abc": [0.5, 0.5, 0.5], "properties": {"magmom": -0.493}, "label": "Mn", "xyz": [2.8521215, 2.8521215, 6.914445]}, {"species": [{"element": "Mn", "occu": 1}], "abc": [0.5, 0.0, 0.086978], "properties": {"magmom": -0.048}, "label": "Mn", "xyz": [2.8521215, 0.0, 1.20280919442]}, {"species": [{"element": "Mn", "occu": 1}], "abc": [0.0, 0.5, 0.913022], "properties": {"magmom": -0.048}, "label": "Mn", "xyz": [0.0, 2.8521215, 12.62608080558]}, {"species": [{"element": "Mn", "occu": 1}], "abc": [0.0, 0.5, 0.58691], "properties": {"magmom": -0.042}, "label": "Mn", "xyz": [0.0, 2.8521215, 8.116313829900001]}, {"species": [{"element": "Mn", "occu": 1}], "abc": [0.5, 0.0, 0.41309], "properties": {"magmom": -0.042}, "label": "Mn", "xyz": [2.8521215, 0.0, 5.7125761701]}, {"species": [{"element": "Mn", "occu": 1}], "abc": [0.0, 0.0, 0.327843], "properties": {"magmom": 0.603}, "label": "Mn", "xyz": [0.0, 0.0, 4.533704784269999]}, {"species": [{"element": "Mn", "occu": 1}], "abc": [0.0, 0.0, 0.672157], "properties": {"magmom": 0.603}, "label": "Mn", "xyz": [0.0, 0.0, 9.29518521573]}, {"species": [{"element": "Mn", "occu": 1}], "abc": [0.5, 0.5, 0.827842], "properties": {"magmom": 0.587}, "label": "Mn", "xyz": [2.8521215, 2.8521215, 11.44813595538]}, {"species": [{"element": "Mn", "occu": 1}], "abc": [0.5, 0.5, 0.172158], "properties": {"magmom": 0.587}, "label": "Mn", "xyz": [2.8521215, 2.8521215, 2.38075404462]}, {"species": [{"element": "Ge", "occu": 1}], "abc": [0.67113, 0.171202, 0.249973], "properties": {"magmom": -0.033}, "label": "Ge", "xyz": [3.82828860459, 0.976577810086, 3.4568491199699998]}, {"species": [{"element": "Ge", "occu": 1}], "abc": [0.828797999999999, 0.67113, 0.750027], "properties": {"magmom": -0.033}, "label": "Ge", "xyz": [4.727665189913995, 3.82828860459, 10.37204088003]}, {"species": [{"element": "Ge", "occu": 1}], "abc": [0.32887000000000005, 0.828797999999999, 0.249973], "properties": {"magmom": -0.033}, "label": "Ge", "xyz": [1.8759543954100002, 4.727665189913995, 3.4568491199699998]}, {"species": [{"element": "Ge", "occu": 1}], "abc": [0.171202, 0.32887000000000005, 0.750027], "properties": {"magmom": -0.033}, "label": "Ge", "xyz": [0.976577810086, 1.8759543954100002, 10.37204088003]}, {"species": [{"element": "Ge", "occu": 1}], "abc": [0.159957, 0.19514, 0.150857], "properties": {"magmom": -0.035}, "label": "Ge", "xyz": [0.912433597551, 1.11312597902, 2.08618485873]}, {"species": [{"element": "Ge", "occu": 1}], "abc": [0.80486, 0.159957, 0.849143], "properties": {"magmom": -0.035}, "label": "Ge", "xyz": [4.5911170209800005, 0.912433597551, 11.74270514127]}, {"species": [{"element": "Ge", "occu": 1}], "abc": [0.840043, 0.80486, 0.150857], "properties": {"magmom": -0.035}, "label": "Ge", "xyz": [4.791809402449, 4.5911170209800005, 2.08618485873]}, {"species": [{"element": "Ge", "occu": 1}], "abc": [0.19514, 0.840043, 0.849143], "properties": {"magmom": -0.035}, "label": "Ge", "xyz": [1.11312597902, 4.791809402449, 11.74270514127]}, {"species": [{"element": "Ge", "occu": 1}], "abc": [0.340181, 0.694653, 0.650841999999999], "properties": {"magmom": -0.035}, "label": "Ge", "xyz": [1.940475087983, 3.9624695126789997, 9.000422425379986]}, {"species": [{"element": "Ge", "occu": 1}], "abc": [0.694653, 0.659818999999999, 0.349157999999999], "properties": {"magmom": -0.035}, "label": "Ge", "xyz": [3.9624695126789997, 3.7637679120169945, 4.828467574619986]}, {"species": [{"element": "Ge", "occu": 1}], "abc": [0.659818999999999, 0.305347, 0.650841999999999], "properties": {"magmom": -0.035}, "label": "Ge", "xyz": [3.7637679120169945, 1.7417734873209998, 9.000422425379986]}, {"species": [{"element": "Ge", "occu": 1}], "abc": [0.305347, 0.340181, 0.349157999999999], "properties": {"magmom": -0.035}, "label": "Ge", "xyz": [1.7417734873209998, 1.940475087983, 4.828467574619986]}, {"species": [{"element": "Ge", "occu": 1}], "abc": [0.343273999999999, 0.233205, 0.949714], "properties": {"magmom": -0.016}, "label": "Ge", "xyz": [1.9581183115819945, 1.330257988815, 13.133490437459999]}, {"species": [{"element": "Ge", "occu": 1}], "abc": [0.766795, 0.343273999999999, 0.050286], "properties": {"magmom": -0.016}, "label": "Ge", "xyz": [4.373985011185, 1.9581183115819945, 0.6953995625399999]}, {"species": [{"element": "Ge", "occu": 1}], "abc": [0.656725999999999, 0.766795, 0.949714], "properties": {"magmom": -0.016}, "label": "Ge", "xyz": [3.7461246884179946, 4.373985011185, 13.133490437459999]}, {"species": [{"element": "Ge", "occu": 1}], "abc": [0.233205, 0.656725999999999, 0.050286], "properties": {"magmom": -0.016}, "label": "Ge", "xyz": [1.330257988815, 3.7461246884179946, 0.6953995625399999]}, {"species": [{"element": "Ge", "occu": 1}], "abc": [0.157033999999999, 0.733074999999999, 0.449769], "properties": {"magmom": -0.017}, "label": "Ge", "xyz": [0.8957600952619943, 4.181637937224995, 6.21980602641]}, {"species": [{"element": "Ge", "occu": 1}], "abc": [0.733074999999999, 0.842966, 0.550231], "properties": {"magmom": -0.017}, "label": "Ge", "xyz": [4.181637937224995, 4.808482904738, 7.60908397359]}, {"species": [{"element": "Ge", "occu": 1}], "abc": [0.842966, 0.266924999999999, 0.449769], "properties": {"magmom": -0.017}, "label": "Ge", "xyz": [4.808482904738, 1.5226050627749945, 6.21980602641]}, {"species": [{"element": "Ge", "occu": 1}], "abc": [0.266924999999999, 0.157033999999999, 0.550231], "properties": {"magmom": -0.017}, "label": "Ge", "xyz": [1.5226050627749945, 0.8957600952619943, 7.60908397359]}]}, "task_ids": null, "uncorrected_energy_per_atom": null, "energy_per_atom": -6.403422230625, "formation_energy_per_atom": -0.078274086724138, "energy_above_hull": 0.013796131875000001, "is_stable": false, "equilibrium_reaction_energy_per_atom": null, "decomposes_to": null, "xas": null, "grain_boundaries": null, "band_gap": 0.0, "cbm": null, "vbm": null, "efermi": 5.7238982400000005, "is_gap_direct": null, "is_metal": null, "es_source_calc_id": null, "bandstructure": null, "dos": null, "dos_energy_up": null, "dos_energy_down": null, "is_magnetic": null, "ordering": null, "total_magnetization": 4.0063219, "total_magnetization_normalized_vol": null, "total_magnetization_normalized_formula_units": null, "num_magnetic_sites": null, "num_unique_magnetic_sites": null, "types_of_magnetic_species": null, "bulk_modulus": null, "shear_modulus": null, "universal_anisotropy": null, "homogeneous_poisson": null, "e_total": null, "e_ionic": null, "e_electronic": null, "n": null, "e_ij_max": null, "weighted_surface_energy_EV_PER_ANG2": null, "weighted_surface_energy": null, "weighted_work_function": null, "surface_anisotropy": null, "shape_factor": null, "has_reconstructed": null, "possible_species": null, "has_props": null, "theoretical": null, "database_IDs": null, "fields_not_requested": ["builder_meta", "nsites", "elements", "nelements", "composition", "composition_reduced", "chemsys", "symmetry", "property_name", "deprecated", "deprecation_reasons", "last_updated", "origins", "warnings", "task_ids", "uncorrected_energy_per_atom", "equilibrium_reaction_energy_per_atom", "decomposes_to", "xas", "grain_boundaries", "cbm", "vbm", "is_gap_direct", "is_metal", "es_source_calc_id", "bandstructure", "dos", "dos_energy_up", "dos_energy_down", "is_magnetic", "ordering", "total_magnetization_normalized_vol", "total_magnetization_normalized_formula_units", "num_magnetic_sites", "num_unique_magnetic_sites", "types_of_magnetic_species", "bulk_modulus", "shear_modulus", "universal_anisotropy", "homogeneous_poisson", "e_total", "e_ionic", "e_electronic", "n", "e_ij_max", "weighted_surface_energy_EV_PER_ANG2", "weighted_surface_energy", "weighted_work_function", "surface_anisotropy", "shape_factor", "has_reconstructed", "possible_species", "has_props", "theoretical", "database_IDs"]}