{
  "builder_meta": null,
  "nsites": null,
  "elements": null,
  "nelements": null,
  "composition": null,
  "composition_reduced": null,
  "formula_pretty": "Mn3Ir",
  "formula_anonymous": "AB3",
  "chemsys": null,
  "volume": 112.90798040284868,
  "density": 10.501722651396936,
  "density_atomic": 14.113497550356085,
  "symmetry": null,
  "property_name": null,
  "material_id": "mp-2017103",
  "deprecated": null,
  "deprecation_reasons": null,
  "last_updated": null,
  "origins": null,
  "warnings": null,
  "structure": {
    "@module": "pymatgen.core.structure",
    "@class": "Structure",
    "charge": 0,
    "lattice": {
      "matrix": [
        [5.38687034, -0.00255644, 0.0],
        [-2.69441892, 4.75018937, 0.0],
        [0.0, 0.0, 4.41361163]
      ],
      "pbc": [true, true, true],
      "a": 5.386870946603157,
      "b": 5.461153025443891,
      "c": 4.41361163,
      "alpha": 90.0,
      "beta": 90.0,
      "gamma": 119.59011569692993,
      "volume": 112.90798040284868
    },
    "properties": {},
    "sites": [
      {
        "species": [{ "element": "Mn", "occu": 1 }],
        "abc": [0.16899287000000002, 0.34055723, 0.25],
        "properties": { "magmom": -3.731 },
        "label": "Mn",
        "xyz": [-0.007261164780315688, 1.6172793136900625, 1.1034029075]
      },
      {
        "species": [{ "element": "Mn", "occu": 1 }],
        "abc": [0.6623612600000001, 0.83472634, 0.25],
        "properties": { "magmom": -3.737 },
        "label": "Mn",
        "xyz": [1.3189517823406756, 3.963414900307492, 1.1034029075]
      },
      {
        "species": [{ "element": "Mn", "occu": 1 }],
        "abc": [0.17674915, 0.83604028, 0.25],
        "properties": { "magmom": 3.743 },
        "label": "Mn",
        "xyz": [-1.3005179945588867, 3.9708978023507977, 1.1034029075]
      },
      {
        "species": [{ "element": "Mn", "occu": 1 }],
        "abc": [0.8283909700000001, 0.65959071, 0.75],
        "properties": { "magmom": 3.73 },
        "label": "Mn",
        "xyz": [2.6852210577365963, 3.131063047381406, 3.3102087225]
      },
      {
        "species": [{ "element": "Mn", "occu": 1 }],
        "abc": [0.33986737, 0.16371507, 0.75],
        "properties": { "magmom": -3.743999999999999 },
        "label": "Mn",
        "xyz": [1.3897044728896815, 0.776808734683443, 3.3102087225]
      },
      {
        "species": [{ "element": "Mn", "occu": 1 }],
        "abc": [0.82691224, 0.1653169, 0.75],
        "properties": { "magmom": 3.737 },
        "label": "Mn",
        "xyz": [4.009036036283213, 0.7831726295345274, 3.3102087225]
      },
      {
        "species": [{ "element": "Ir", "occu": 1 }],
        "abc": [0.66974015, 0.34266987, 0.25],
        "properties": { "magmom": 0.003 },
        "label": "Ir",
        "xyz": [2.6845071685002106, 1.6260346233842158, 1.1034029075]
      },
      {
        "species": [{ "element": "Ir", "occu": 1 }],
        "abc": [0.32698499000000003, 0.6573796, 0.75],
        "properties": { "magmom": -0.002 },
        "label": "Ir",
        "xyz": [-0.009830287605835153, 3.1218416704670164, 3.3102087225]
      }
    ]
  },
  "task_ids": null,
  "uncorrected_energy_per_atom": null,
  "energy_per_atom": -24.5377106175,
  "formation_energy_per_atom": -0.43537124836207003,
  "energy_above_hull": 0.0,
  "is_stable": true,
  "equilibrium_reaction_energy_per_atom": null,
  "decomposes_to": null,
  "xas": null,
  "grain_boundaries": null,
  "band_gap": 0.0,
  "cbm": null,
  "vbm": null,
  "efermi": 8.49584255,
  "is_gap_direct": null,
  "is_metal": null,
  "es_source_calc_id": null,
  "bandstructure": null,
  "dos": null,
  "dos_energy_up": null,
  "dos_energy_down": null,
  "is_magnetic": null,
  "ordering": null,
  "total_magnetization": 0.0008592999999990001,
  "total_magnetization_normalized_vol": null,
  "total_magnetization_normalized_formula_units": null,
  "num_magnetic_sites": null,
  "num_unique_magnetic_sites": null,
  "types_of_magnetic_species": null,
  "bulk_modulus": null,
  "shear_modulus": null,
  "universal_anisotropy": null,
  "homogeneous_poisson": null,
  "e_total": null,
  "e_ionic": null,
  "e_electronic": null,
  "n": null,
  "e_ij_max": null,
  "weighted_surface_energy_EV_PER_ANG2": null,
  "weighted_surface_energy": null,
  "weighted_work_function": null,
  "surface_anisotropy": null,
  "shape_factor": null,
  "has_reconstructed": null,
  "possible_species": null,
  "has_props": null,
  "theoretical": null,
  "database_IDs": null,
  "fields_not_requested": [
    "builder_meta",
    "nsites",
    "elements",
    "nelements",
    "composition",
    "composition_reduced",
    "chemsys",
    "symmetry",
    "property_name",
    "deprecated",
    "deprecation_reasons",
    "last_updated",
    "origins",
    "warnings",
    "task_ids",
    "uncorrected_energy_per_atom",
    "equilibrium_reaction_energy_per_atom",
    "decomposes_to",
    "xas",
    "grain_boundaries",
    "cbm",
    "vbm",
    "is_gap_direct",
    "is_metal",
    "es_source_calc_id",
    "bandstructure",
    "dos",
    "dos_energy_up",
    "dos_energy_down",
    "is_magnetic",
    "ordering",
    "total_magnetization_normalized_vol",
    "total_magnetization_normalized_formula_units",
    "num_magnetic_sites",
    "num_unique_magnetic_sites",
    "types_of_magnetic_species",
    "bulk_modulus",
    "shear_modulus",
    "universal_anisotropy",
    "homogeneous_poisson",
    "e_total",
    "e_ionic",
    "e_electronic",
    "n",
    "e_ij_max",
    "weighted_surface_energy_EV_PER_ANG2",
    "weighted_surface_energy",
    "weighted_work_function",
    "surface_anisotropy",
    "shape_factor",
    "has_reconstructed",
    "possible_species",
    "has_props",
    "theoretical",
    "database_IDs"
  ]
}
