{"builder_meta": null, "nsites": null, "elements": null, "nelements": null, "composition": null, "composition_reduced": null, "formula_pretty": "Mn3In", "formula_anonymous": "AB3", "chemsys": null, "volume": 788.8468760828232, "density": 7.652208915056496, "density_atomic": 15.170132232361984, "symmetry": null, "property_name": null, "material_id": "mp-1225318", "deprecated": null, "deprecation_reasons": null, "last_updated": null, "origins": null, "warnings": null, "structure": {"@module": "pymatgen.core.structure", "@class": "Structure", "charge": 0, "lattice": {"matrix": [[6.527734, -6.539382, 0.0], [6.527734, 6.539382, 0.0], [-0.023316999999999, 0.0, 9.239821]], "pbc": [true, true, true], "a": 9.239850005096402, "b": 9.239850005096402, "c": 9.23985042057121, "alpha": 90.10214758943995, "beta": 90.10214758943995, "gamma": 90.10214665011064, "volume": 788.8468760828232}, "properties": {}, "sites": [{"species": [{"element": "Mn", "occu": 1}], "abc": [0.847008, 0.847008, 0.847008], "properties": {"magmom": -0.846}, "label": "Mn", "xyz": [11.038336154208, 0.0, 7.826202305567999]}, {"species": [{"element": "Mn", "occu": 1}], "abc": [0.836908, 0.160212, 0.160212], "properties": {"magmom": 2.433}, "label": "Mn", "xyz": [6.505198462876, -4.425173641872, 1.4803302020519997]}, {"species": [{"element": "Mn", "occu": 1}], "abc": [0.160212, 0.160212, 0.836908], "properties": {"magmom": 2.433}, "label": "Mn", "xyz": [2.0721284553800006, 0.0, 7.732880113467999]}, {"species": [{"element": "Mn", "occu": 1}], "abc": [0.160212, 0.836908, 0.160212], "properties": {"magmom": 2.433}, "label": "Mn", "xyz": [6.505198462876, 4.425173641872, 1.4803302020519997]}, {"species": [{"element": "Mn", "occu": 1}], "abc": [0.595924, 0.595924, 0.595924], "properties": {"magmom": -2.126}, "label": "Mn", "xyz": [7.766171552524001, 0.0, 5.506231089603999]}, {"species": [{"element": "Mn", "occu": 1}], "abc": [0.588167, 0.404812, 0.404812], "properties": {"magmom": -1.316}, "label": "Mn", "xyz": [6.472463778181999, -1.1990283866100002, 3.740390418652]}, {"species": [{"element": "Mn", "occu": 1}], "abc": [0.404812, 0.404812, 0.588167], "properties": {"magmom": -1.316}, "label": "Mn", "xyz": [5.2712958220770005, 0.0, 5.434557798107]}, {"species": [{"element": "Mn", "occu": 1}], "abc": [0.404812, 0.588167, 0.404812], "properties": {"magmom": -1.316}, "label": "Mn", "xyz": [6.472463778181999, 1.1990283866100002, 3.740390418652]}, {"species": [{"element": "Mn", "occu": 1}], "abc": [0.495382999999999, 0.850406, 0.495382999999999], "properties": {"magmom": 3.383}, "label": "Mn", "xyz": [8.773401766714993, 2.3216310157860063, 4.577250246442991]}, {"species": [{"element": "Mn", "occu": 1}], "abc": [0.495382999999999, 0.495382999999999, 0.850406], "properties": {"magmom": 3.383}, "label": "Mn", "xyz": [6.4476279875419875, 0.0, 7.857599217325999]}, {"species": [{"element": "Mn", "occu": 1}], "abc": [0.850406, 0.495382999999999, 0.495382999999999], "properties": {"magmom": 3.383}, "label": "Mn", "xyz": [8.773401766714993, -2.3216310157860063, 4.577250246442991]}, {"species": [{"element": "Mn", "occu": 1}], "abc": [0.499503, 0.150561, 0.499503], "properties": {"magmom": 3.178}, "label": "Mn", "xyz": [4.231797963525, -2.281865033844, 4.615318308962999]}, {"species": [{"element": "Mn", "occu": 1}], "abc": [0.499503, 0.499503, 0.150561], "properties": {"magmom": 3.178}, "label": "Mn", "xyz": [6.517734801566999, 0.0, 1.391156689581]}, {"species": [{"element": "Mn", "occu": 1}], "abc": [0.150561, 0.499503, 0.499503], "properties": {"magmom": 3.178}, "label": "Mn", "xyz": [4.231797963525, 2.281865033844, 4.615318308962999]}, {"species": [{"element": "Mn", "occu": 1}], "abc": [0.028918, 0.320656999999999, 0.320656999999999], "properties": {"magmom": 3.206}, "label": "Mn", "xyz": [2.274455853780994, 1.9077927652979934, 2.962813282396991]}, {"species": [{"element": "Mn", "occu": 1}], "abc": [0.320656999999999, 0.028918, 0.320656999999999], "properties": {"magmom": 3.206}, "label": "Mn", "xyz": [2.274455853780994, -1.9077927652979934, 2.962813282396991]}, {"species": [{"element": "Mn", "occu": 1}], "abc": [0.320656999999999, 0.320656999999999, 0.028918], "properties": {"magmom": 3.206}, "label": "Mn", "xyz": [4.185652921469988, 0.0, 0.26719714367799996]}, {"species": [{"element": "Mn", "occu": 1}], "abc": [0.067221, 0.719911, 0.719911], "properties": {"magmom": 3.005}, "label": "Mn", "xyz": [5.121402154101001, 4.26818923758, 6.651848775930999]}, {"species": [{"element": "Mn", "occu": 1}], "abc": [0.286147, 0.9311200000000001, 0.705772], "properties": {"magmom": 3.075}, "label": "Mn", "xyz": [7.929538697254, 4.217724826686001, 6.521206946811999]}, {"species": [{"element": "Mn", "occu": 1}], "abc": [0.286147, 0.705772, 0.9311200000000001], "properties": {"magmom": 3.075}, "label": "Mn", "xyz": [6.453272456506, 2.7440881717499996, 8.60338212952]}, {"species": [{"element": "Mn", "occu": 1}], "abc": [0.9311200000000001, 0.705772, 0.286147], "properties": {"magmom": 3.075}, "label": "Mn", "xyz": [10.678523473129, -1.4736366549360014, 2.6439470596869996]}, {"species": [{"element": "Mn", "occu": 1}], "abc": [0.705772, 0.9311200000000001, 0.286147], "properties": {"magmom": 3.075}, "label": "Mn", "xyz": [10.678523473129, 1.4736366549360014, 2.6439470596869996]}, {"species": [{"element": "Mn", "occu": 1}], "abc": [0.719911, 0.719911, 0.067221], "properties": {"magmom": 3.005}, "label": "Mn", "xyz": [9.397207631291, 0.0, 0.621110007441]}, {"species": [{"element": "Mn", "occu": 1}], "abc": [0.9311200000000001, 0.286147, 0.705772], "properties": {"magmom": 3.075}, "label": "Mn", "xyz": [7.929538697254, -4.217724826686001, 6.521206946811999]}, {"species": [{"element": "Mn", "occu": 1}], "abc": [0.719911, 0.067221, 0.719911], "properties": {"magmom": 3.005}, "label": "Mn", "xyz": [5.121402154101001, -4.26818923758, 6.651848775930999]}, {"species": [{"element": "Mn", "occu": 1}], "abc": [0.705772, 0.286147, 0.9311200000000001], "properties": {"magmom": 3.075}, "label": "Mn", "xyz": [6.453272456506, -2.7440881717499996, 8.60338212952]}, {"species": [{"element": "Mn", "occu": 1}], "abc": [0.33004, 0.33004, 0.33004], "properties": {"magmom": 2.7560000000000002}, "label": "Mn", "xyz": [4.3011311160400005, 0.0, 3.04951052284]}, {"species": [{"element": "Mn", "occu": 1}], "abc": [0.344371, 0.655825, 0.655825], "properties": {"magmom": 1.8050000000000002}, "label": "Mn", "xyz": [6.513721564339001, 2.0367166814279996, 6.059705607324999]}, {"species": [{"element": "Mn", "occu": 1}], "abc": [0.655825, 0.655825, 0.344371], "properties": {"magmom": 1.8050000000000002}, "label": "Mn", "xyz": [8.554072602493, 0.0, 3.1819263975909995]}, {"species": [{"element": "Mn", "occu": 1}], "abc": [0.655825, 0.344371, 0.655825], "properties": {"magmom": 1.8050000000000002}, "label": "Mn", "xyz": [6.513721564339001, -2.0367166814279996, 6.059705607324999]}, {"species": [{"element": "Mn", "occu": 1}], "abc": [0.993070999999999, 0.347283, 0.993070999999999], "properties": {"magmom": 3.073}, "label": "Mn", "xyz": [8.726318941328994, -4.223054423015993, 9.17579828029099]}, {"species": [{"element": "Mn", "occu": 1}], "abc": [0.993070999999999, 0.993070999999999, 0.347283], "properties": {"magmom": 3.073}, "label": "Mn", "xyz": [12.956909064516987, 0.0, 3.208832756343]}, {"species": [{"element": "Mn", "occu": 1}], "abc": [0.347283, 0.993070999999999, 0.993070999999999], "properties": {"magmom": 3.073}, "label": "Mn", "xyz": [8.726318941328994, 4.223054423015993, 9.17579828029099]}, {"species": [{"element": "Mn", "occu": 1}], "abc": [0.999872, 0.668997, 0.999872], "properties": {"magmom": 2.586999999999999}, "label": "Mn", "xyz": [10.870618897422, -2.16371801925, 9.238638302912]}, {"species": [{"element": "Mn", "occu": 1}], "abc": [0.999872, 0.999872, 0.668997], "properties": {"magmom": 2.586999999999999}, "label": "Mn", "xyz": [13.038197897047, 0.0, 6.181412529536999]}, {"species": [{"element": "Mn", "occu": 1}], "abc": [0.668997, 0.999872, 0.999872], "properties": {"magmom": 2.586999999999999}, "label": "Mn", "xyz": [10.870618897422, 2.16371801925, 9.238638302912]}, {"species": [{"element": "Mn", "occu": 1}], "abc": [0.100227, 0.906246, 0.906246], "properties": {"magmom": -1.762}, "label": "Mn", "xyz": [6.548857084200001, 5.270866140258, 8.373550821965999]}, {"species": [{"element": "Mn", "occu": 1}], "abc": [0.906246, 0.906246, 0.100227], "properties": {"magmom": -1.762}, "label": "Mn", "xyz": [11.829128660169, 0.0, 0.9260795393669999]}, {"species": [{"element": "Mn", "occu": 1}], "abc": [0.906246, 0.100227, 0.906246], "properties": {"magmom": -1.762}, "label": "Mn", "xyz": [6.548857084200001, -5.270866140258, 8.373550821965999]}, {"species": [{"element": "In", "occu": 1}], "abc": [0.547071, 0.810724, 0.810724], "properties": {"magmom": -0.077}, "label": "In", "xyz": [8.844420935022, 1.724127682446, 7.490944640403999]}, {"species": [{"element": "In", "occu": 1}], "abc": [0.810724, 0.547071, 0.810724], "properties": {"magmom": -0.077}, "label": "In", "xyz": [8.844420935022, -1.724127682446, 7.490944640403999]}, {"species": [{"element": "In", "occu": 1}], "abc": [0.810724, 0.810724, 0.547071], "properties": {"magmom": -0.077}, "label": "In", "xyz": [10.571625184325, 0.0, 5.054838114290999]}, {"species": [{"element": "In", "occu": 1}], "abc": [0.541980999999999, 0.186913, 0.186913], "properties": {"magmom": -0.109}, "label": "In", "xyz": [4.753667895774993, -2.3219252879759935, 1.7270426625729998]}, {"species": [{"element": "In", "occu": 1}], "abc": [0.799412, 0.458053999999999, 0.179799], "properties": {"magmom": -0.11}, "label": "In", "xyz": [8.204211188760993, -2.2322703607560066, 1.6613105759789997]}, {"species": [{"element": "In", "occu": 1}], "abc": [0.799412, 0.179799, 0.458053999999999], "properties": {"magmom": -0.11}, "label": "In", "xyz": [6.3813484927560005, -4.0518860991659995, 4.232336968333991]}, {"species": [{"element": "In", "occu": 1}], "abc": [0.458053999999999, 0.179799, 0.799412], "properties": {"magmom": -0.11}, "label": "In", "xyz": [4.145094825497995, -1.8196157384099934, 7.386423785251999]}, {"species": [{"element": "In", "occu": 1}], "abc": [0.179799, 0.458053999999999, 0.799412], "properties": {"magmom": -0.11}, "label": "In", "xyz": [4.145094825497995, 1.8196157384099934, 7.386423785251999]}, {"species": [{"element": "In", "occu": 1}], "abc": [0.186913, 0.186913, 0.541980999999999], "properties": {"magmom": -0.109}, "label": "In", "xyz": [2.4275993193070002, 0.0, 5.0078074254009906]}, {"species": [{"element": "In", "occu": 1}], "abc": [0.458053999999999, 0.799412, 0.179799], "properties": {"magmom": -0.11}, "label": "In", "xyz": [8.204211188760993, 2.2322703607560066, 1.6613105759789997]}, {"species": [{"element": "In", "occu": 1}], "abc": [0.186913, 0.541980999999999, 0.186913], "properties": {"magmom": -0.109}, "label": "In", "xyz": [4.753667895774993, 2.3219252879759935, 1.7270426625729998]}, {"species": [{"element": "In", "occu": 1}], "abc": [0.179799, 0.799412, 0.458053999999999], "properties": {"magmom": -0.11}, "label": "In", "xyz": [6.3813484927560005, 4.0518860991659995, 4.232336968333991]}, {"species": [{"element": "In", "occu": 1}], "abc": [0.128052, 0.128052, 0.128052], "properties": {"magmom": -0.10200000000000001}, "label": "In", "xyz": [1.6687929998520001, 0.0, 1.183177558692]}]}, "task_ids": null, "uncorrected_energy_per_atom": null, "energy_per_atom": -16.43608774124005, "formation_energy_per_atom": 0.221060860397878, "energy_above_hull": 0.22106086039788, "is_stable": false, "equilibrium_reaction_energy_per_atom": null, "decomposes_to": null, "xas": null, "grain_boundaries": null, "band_gap": 0.0, "cbm": null, "vbm": null, "efermi": 6.71983554, "is_gap_direct": null, "is_metal": null, "es_source_calc_id": null, "bandstructure": null, "dos": null, "dos_energy_up": null, "dos_energy_down": null, "is_magnetic": null, "ordering": null, "total_magnetization": 78.0119298, "total_magnetization_normalized_vol": null, "total_magnetization_normalized_formula_units": null, "num_magnetic_sites": null, "num_unique_magnetic_sites": null, "types_of_magnetic_species": null, "bulk_modulus": null, "shear_modulus": null, "universal_anisotropy": null, "homogeneous_poisson": null, "e_total": null, "e_ionic": null, "e_electronic": null, "n": null, "e_ij_max": null, "weighted_surface_energy_EV_PER_ANG2": null, "weighted_surface_energy": null, "weighted_work_function": null, "surface_anisotropy": null, "shape_factor": null, "has_reconstructed": null, "possible_species": null, "has_props": null, "theoretical": null, "database_IDs": null, "fields_not_requested": ["builder_meta", "nsites", "elements", "nelements", "composition", "composition_reduced", "chemsys", "symmetry", "property_name", "deprecated", "deprecation_reasons", "last_updated", "origins", "warnings", "task_ids", "uncorrected_energy_per_atom", "equilibrium_reaction_energy_per_atom", "decomposes_to", "xas", "grain_boundaries", "cbm", "vbm", "is_gap_direct", "is_metal", "es_source_calc_id", "bandstructure", "dos", "dos_energy_up", "dos_energy_down", "is_magnetic", "ordering", "total_magnetization_normalized_vol", "total_magnetization_normalized_formula_units", "num_magnetic_sites", "num_unique_magnetic_sites", "types_of_magnetic_species", "bulk_modulus", "shear_modulus", "universal_anisotropy", "homogeneous_poisson", "e_total", "e_ionic", "e_electronic", "n", "e_ij_max", "weighted_surface_energy_EV_PER_ANG2", "weighted_surface_energy", "weighted_work_function", "surface_anisotropy", "shape_factor", "has_reconstructed", "possible_species", "has_props", "theoretical", "database_IDs"]}