{"builder_meta": null, "nsites": null, "elements": null, "nelements": null, "composition": null, "composition_reduced": null, "formula_pretty": "Mn3N2", "formula_anonymous": "A2B3", "chemsys": null, "volume": 49.374635374481045, "density": 6.485063688169957, "density_atomic": 9.87492707489621, "symmetry": null, "property_name": null, "material_id": "mp-12857", "deprecated": null, "deprecation_reasons": null, "last_updated": null, "origins": null, "warnings": null, "structure": {"@module": "pymatgen.core.structure", "@class": "Structure", "charge": 0, "lattice": {"matrix": [[-1.4313, 1.4313, 6.025354], [1.4313, -1.4313, 6.025354], [1.4313, 1.4313, -6.025354]], "pbc": [true, true, true], "a": 6.356267002361999, "b": 6.356267002361999, "c": 6.356267002361999, "alpha": 153.97315171565234, "beta": 153.97315171565234, "gamma": 37.138629100813, "volume": 49.374635374481045}, "properties": {}, "sites": [{"species": [{"element": "Mn", "occu": 1}], "abc": [0.668851, 0.668851, 0.0], "properties": {"magmom": 2.646}, "label": "Mn", "xyz": [0.0, 0.0, 8.060128096508]}, {"species": [{"element": "Mn", "occu": 1}], "abc": [0.331148999999999, 0.331148999999999, 0.0], "properties": {"magmom": 2.646}, "label": "Mn", "xyz": [0.0, 0.0, 3.990579903491988]}, {"species": [{"element": "Mn", "occu": 1}], "abc": [0.0, 0.0, 0.0], "properties": {"magmom": 2.85}, "label": "Mn", "xyz": [0.0, 0.0, 0.0]}, {"species": [{"element": "N", "occu": 1}], "abc": [0.840065, 0.840065, 0.0], "properties": {"magmom": 0.011}, "label": "N", "xyz": [0.0, 0.0, 10.12337801602]}, {"species": [{"element": "N", "occu": 1}], "abc": [0.159935, 0.159935, 0.0], "properties": {"magmom": 0.011}, "label": "N", "xyz": [0.0, 0.0, 1.92732998398]}]}, "task_ids": null, "uncorrected_energy_per_atom": null, "energy_per_atom": -12.757884240625, "formation_energy_per_atom": -0.29638316681465404, "energy_above_hull": 0.095551934499999, "is_stable": false, "equilibrium_reaction_energy_per_atom": null, "decomposes_to": null, "xas": null, "grain_boundaries": null, "band_gap": 0.0, "cbm": null, "vbm": null, "efermi": 6.57047935, "is_gap_direct": null, "is_metal": null, "es_source_calc_id": null, "bandstructure": null, "dos": null, "dos_energy_up": null, "dos_energy_down": null, "is_magnetic": null, "ordering": null, "total_magnetization": 8.3360472, "total_magnetization_normalized_vol": null, "total_magnetization_normalized_formula_units": null, "num_magnetic_sites": null, "num_unique_magnetic_sites": null, "types_of_magnetic_species": null, "bulk_modulus": null, "shear_modulus": null, "universal_anisotropy": null, "homogeneous_poisson": null, "e_total": null, "e_ionic": null, "e_electronic": null, "n": null, "e_ij_max": null, "weighted_surface_energy_EV_PER_ANG2": null, "weighted_surface_energy": null, "weighted_work_function": null, "surface_anisotropy": null, "shape_factor": null, "has_reconstructed": null, "possible_species": null, "has_props": null, "theoretical": null, "database_IDs": null, "fields_not_requested": ["builder_meta", "nsites", "elements", "nelements", "composition", "composition_reduced", "chemsys", "symmetry", "property_name", "deprecated", "deprecation_reasons", "last_updated", "origins", "warnings", "task_ids", "uncorrected_energy_per_atom", "equilibrium_reaction_energy_per_atom", "decomposes_to", "xas", "grain_boundaries", "cbm", "vbm", "is_gap_direct", "is_metal", "es_source_calc_id", "bandstructure", "dos", "dos_energy_up", "dos_energy_down", "is_magnetic", "ordering", "total_magnetization_normalized_vol", "total_magnetization_normalized_formula_units", "num_magnetic_sites", "num_unique_magnetic_sites", "types_of_magnetic_species", "bulk_modulus", "shear_modulus", "universal_anisotropy", "homogeneous_poisson", "e_total", "e_ionic", "e_electronic", "n", "e_ij_max", "weighted_surface_energy_EV_PER_ANG2", "weighted_surface_energy", "weighted_work_function", "surface_anisotropy", "shape_factor", "has_reconstructed", "possible_species", "has_props", "theoretical", "database_IDs"]}