{
  "builder_meta": null,
  "nsites": null,
  "elements": null,
  "nelements": null,
  "composition": null,
  "composition_reduced": null,
  "formula_pretty": "Mn3N4",
  "formula_anonymous": "A3B4",
  "chemsys": null,
  "volume": 264.11267775310364,
  "density": 5.5539174142148795,
  "density_atomic": 9.432595634039416,
  "symmetry": null,
  "property_name": null,
  "material_id": "mp-1080204",
  "deprecated": null,
  "deprecation_reasons": null,
  "last_updated": null,
  "origins": null,
  "warnings": null,
  "structure": {
    "@module": "pymatgen.core.structure",
    "@class": "Structure",
    "charge": 0,
    "lattice": {
      "matrix": [
        [9.850387, 0.0, 0.0],
        [0.0, 5.727734, 0.0],
        [0.0, 0.0, 4.681156]
      ],
      "pbc": [true, true, true],
      "a": 9.850387,
      "b": 5.727734,
      "c": 4.681156,
      "alpha": 90.0,
      "beta": 90.0,
      "gamma": 90.0,
      "volume": 264.11267775310364
    },
    "properties": {},
    "sites": [
      {
        "species": [{ "element": "Mn", "occu": 1 }],
        "abc": [0.5, 0.0, 0.5],
        "properties": { "magmom": 2.049 },
        "label": "Mn",
        "xyz": [4.9251935, 0.0, 2.340578]
      },
      {
        "species": [{ "element": "Mn", "occu": 1 }],
        "abc": [0.0, 0.5, 0.0],
        "properties": { "magmom": 2.049 },
        "label": "Mn",
        "xyz": [0.0, 2.863867, 0.0]
      },
      {
        "species": [{ "element": "Mn", "occu": 1 }],
        "abc": [0.5, 0.5, 0.5],
        "properties": { "magmom": 2.049 },
        "label": "Mn",
        "xyz": [4.9251935, 2.863867, 2.340578]
      },
      {
        "species": [{ "element": "Mn", "occu": 1 }],
        "abc": [0.0, 0.0, 0.0],
        "properties": { "magmom": 2.049 },
        "label": "Mn",
        "xyz": [0.0, 0.0, 0.0]
      },
      {
        "species": [{ "element": "Mn", "occu": 1 }],
        "abc": [0.757525, 0.25, 0.505417],
        "properties": { "magmom": 2.253 },
        "label": "Mn",
        "xyz": [7.461914412175, 1.4319335, 2.3659358220519997]
      },
      {
        "species": [{ "element": "Mn", "occu": 1 }],
        "abc": [0.257525, 0.25, 0.994583],
        "properties": { "magmom": 2.253 },
        "label": "Mn",
        "xyz": [2.536720912175, 1.4319335, 4.655798177947999]
      },
      {
        "species": [{ "element": "Mn", "occu": 1 }],
        "abc": [0.242475, 0.75, 0.494583],
        "properties": { "magmom": 2.253 },
        "label": "Mn",
        "xyz": [2.388472587825, 4.2958005, 2.315220177948]
      },
      {
        "species": [{ "element": "Mn", "occu": 1 }],
        "abc": [0.742475, 0.75, 0.005417],
        "properties": { "magmom": 2.253 },
        "label": "Mn",
        "xyz": [7.313666087824999, 4.2958005, 0.025357822051999997]
      },
      {
        "species": [{ "element": "Mn", "occu": 1 }],
        "abc": [0.58735, 0.25, 0.095945999999999],
        "properties": { "magmom": -1.093 },
        "label": "Mn",
        "xyz": [5.78562480445, 1.4319335, 0.4491381935759953]
      },
      {
        "species": [{ "element": "Mn", "occu": 1 }],
        "abc": [0.08735000000000001, 0.25, 0.404053999999999],
        "properties": { "magmom": -1.093 },
        "label": "Mn",
        "xyz": [0.86043130445, 1.4319335, 1.8914398064239952]
      },
      {
        "species": [{ "element": "Mn", "occu": 1 }],
        "abc": [0.41265, 0.75, 0.904053999999999],
        "properties": { "magmom": -1.093 },
        "label": "Mn",
        "xyz": [4.06476219555, 4.2958005, 4.232017806423995]
      },
      {
        "species": [{ "element": "Mn", "occu": 1 }],
        "abc": [0.9126500000000001, 0.75, 0.595946],
        "properties": { "magmom": -1.093 },
        "label": "Mn",
        "xyz": [8.98995569555, 4.2958005, 2.7897161935759995]
      },
      {
        "species": [{ "element": "N", "occu": 1 }],
        "abc": [0.586376999999999, 0.25, 0.717363],
        "properties": { "magmom": -0.004 },
        "label": "N",
        "xyz": [5.77604037789899, 1.4319335, 3.3580881116279997]
      },
      {
        "species": [{ "element": "N", "occu": 1 }],
        "abc": [0.086377, 0.25, 0.782636999999999],
        "properties": { "magmom": -0.004 },
        "label": "N",
        "xyz": [0.8508468778989999, 1.4319335, 3.6636458883719953]
      },
      {
        "species": [{ "element": "N", "occu": 1 }],
        "abc": [0.413622999999999, 0.75, 0.28263699999999903],
        "properties": { "magmom": -0.004 },
        "label": "N",
        "xyz": [4.0743466221009905, 4.2958005, 1.3230678883719953]
      },
      {
        "species": [{ "element": "N", "occu": 1 }],
        "abc": [0.913623, 0.75, 0.217363],
        "properties": { "magmom": -0.004 },
        "label": "N",
        "xyz": [8.999540122101, 4.2958005, 1.0175101116279999]
      },
      {
        "species": [{ "element": "N", "occu": 1 }],
        "abc": [0.921553, 0.25, 0.25006],
        "properties": { "magmom": -0.04 },
        "label": "N",
        "xyz": [9.077653691011, 1.4319335, 1.17056986936]
      },
      {
        "species": [{ "element": "N", "occu": 1 }],
        "abc": [0.421552999999999, 0.25, 0.24994000000000002],
        "properties": { "magmom": -0.04 },
        "label": "N",
        "xyz": [4.15246019101099, 1.4319335, 1.17000813064]
      },
      {
        "species": [{ "element": "N", "occu": 1 }],
        "abc": [0.078447, 0.75, 0.74994],
        "properties": { "magmom": -0.04 },
        "label": "N",
        "xyz": [0.772733308989, 4.2958005, 3.51058613064]
      },
      {
        "species": [{ "element": "N", "occu": 1 }],
        "abc": [0.578446999999999, 0.75, 0.7500600000000001],
        "properties": { "magmom": -0.04 },
        "label": "N",
        "xyz": [5.69792680898899, 4.2958005, 3.5111478693600002]
      },
      {
        "species": [{ "element": "N", "occu": 1 }],
        "abc": [0.667801, 0.004021999999999, 0.260311],
        "properties": { "magmom": -0.051000000000000004 },
        "label": "N",
        "xyz": [6.578098288986999, 0.023036946147994272, 1.218556399516]
      },
      {
        "species": [{ "element": "N", "occu": 1 }],
        "abc": [0.167801, 0.495978, 0.23968899999999901],
        "properties": { "magmom": -0.051000000000000004 },
        "label": "N",
        "xyz": [1.6529047889869999, 2.8408300538519997, 1.1220216004839954]
      },
      {
        "species": [{ "element": "N", "occu": 1 }],
        "abc": [0.332198999999999, 0.504022, 0.739688999999999],
        "properties": { "magmom": -0.051000000000000004 },
        "label": "N",
        "xyz": [3.2722887110129903, 2.8869039461479997, 3.4625996004839954]
      },
      {
        "species": [{ "element": "N", "occu": 1 }],
        "abc": [0.832198999999999, 0.995977999999999, 0.760311],
        "properties": { "magmom": -0.051000000000000004 },
        "label": "N",
        "xyz": [8.19748221101299, 5.704697053851994, 3.5591343995159996]
      },
      {
        "species": [{ "element": "N", "occu": 1 }],
        "abc": [0.332198999999999, 0.995977999999999, 0.739688999999999],
        "properties": { "magmom": -0.051000000000000004 },
        "label": "N",
        "xyz": [3.2722887110129903, 5.704697053851994, 3.4625996004839954]
      },
      {
        "species": [{ "element": "N", "occu": 1 }],
        "abc": [0.832198999999999, 0.504022, 0.760311],
        "properties": { "magmom": -0.051000000000000004 },
        "label": "N",
        "xyz": [8.19748221101299, 2.8869039461479997, 3.5591343995159996]
      },
      {
        "species": [{ "element": "N", "occu": 1 }],
        "abc": [0.667801, 0.495978, 0.260311],
        "properties": { "magmom": -0.051000000000000004 },
        "label": "N",
        "xyz": [6.578098288986999, 2.8408300538519997, 1.218556399516]
      },
      {
        "species": [{ "element": "N", "occu": 1 }],
        "abc": [0.167801, 0.004021999999999, 0.23968899999999901],
        "properties": { "magmom": -0.051000000000000004 },
        "label": "N",
        "xyz": [1.6529047889869999, 0.023036946147994272, 1.1220216004839954]
      }
    ]
  },
  "task_ids": null,
  "uncorrected_energy_per_atom": null,
  "energy_per_atom": -11.712947728303572,
  "formation_energy_per_atom": -0.20366105522475403,
  "energy_above_hull": 0.07629258857142801,
  "is_stable": false,
  "equilibrium_reaction_energy_per_atom": null,
  "decomposes_to": null,
  "xas": null,
  "grain_boundaries": null,
  "band_gap": 0.0,
  "cbm": null,
  "vbm": null,
  "efermi": 5.53092434,
  "is_gap_direct": null,
  "is_metal": null,
  "es_source_calc_id": null,
  "bandstructure": null,
  "dos": null,
  "dos_energy_up": null,
  "dos_energy_down": null,
  "is_magnetic": null,
  "ordering": null,
  "total_magnetization": 12.3139382,
  "total_magnetization_normalized_vol": null,
  "total_magnetization_normalized_formula_units": null,
  "num_magnetic_sites": null,
  "num_unique_magnetic_sites": null,
  "types_of_magnetic_species": null,
  "bulk_modulus": null,
  "shear_modulus": null,
  "universal_anisotropy": null,
  "homogeneous_poisson": null,
  "e_total": null,
  "e_ionic": null,
  "e_electronic": null,
  "n": null,
  "e_ij_max": null,
  "weighted_surface_energy_EV_PER_ANG2": null,
  "weighted_surface_energy": null,
  "weighted_work_function": null,
  "surface_anisotropy": null,
  "shape_factor": null,
  "has_reconstructed": null,
  "possible_species": null,
  "has_props": null,
  "theoretical": null,
  "database_IDs": null,
  "fields_not_requested": [
    "builder_meta",
    "nsites",
    "elements",
    "nelements",
    "composition",
    "composition_reduced",
    "chemsys",
    "symmetry",
    "property_name",
    "deprecated",
    "deprecation_reasons",
    "last_updated",
    "origins",
    "warnings",
    "task_ids",
    "uncorrected_energy_per_atom",
    "equilibrium_reaction_energy_per_atom",
    "decomposes_to",
    "xas",
    "grain_boundaries",
    "cbm",
    "vbm",
    "is_gap_direct",
    "is_metal",
    "es_source_calc_id",
    "bandstructure",
    "dos",
    "dos_energy_up",
    "dos_energy_down",
    "is_magnetic",
    "ordering",
    "total_magnetization_normalized_vol",
    "total_magnetization_normalized_formula_units",
    "num_magnetic_sites",
    "num_unique_magnetic_sites",
    "types_of_magnetic_species",
    "bulk_modulus",
    "shear_modulus",
    "universal_anisotropy",
    "homogeneous_poisson",
    "e_total",
    "e_ionic",
    "e_electronic",
    "n",
    "e_ij_max",
    "weighted_surface_energy_EV_PER_ANG2",
    "weighted_surface_energy",
    "weighted_work_function",
    "surface_anisotropy",
    "shape_factor",
    "has_reconstructed",
    "possible_species",
    "has_props",
    "theoretical",
    "database_IDs"
  ]
}
