{
  "builder_meta": null,
  "nsites": null,
  "elements": null,
  "nelements": null,
  "composition": null,
  "composition_reduced": null,
  "formula_pretty": "Mn3O4",
  "formula_anonymous": "A3B4",
  "chemsys": null,
  "volume": 155.5144237875321,
  "density": 4.886374081713801,
  "density_atomic": 11.108173127680866,
  "symmetry": null,
  "property_name": null,
  "material_id": "mp-18759",
  "deprecated": null,
  "deprecation_reasons": null,
  "last_updated": null,
  "origins": null,
  "warnings": null,
  "structure": {
    "@module": "pymatgen.core.structure",
    "@class": "Structure",
    "charge": 0,
    "lattice": {
      "matrix": [
        [-1.3765472, 4.90512571, -2.65043738],
        [3.72414436, 4.90417974, 0.91431142],
        [5.10430596, 0.0042832, -2.65056938]
      ],
      "pbc": [true, true, true],
      "a": 5.742818012964725,
      "b": 6.2254474143702065,
      "c": 5.751475959898237,
      "alpha": 62.36716678963564,
      "beta": 89.96554982571378,
      "gamma": 62.50438052420297,
      "volume": 155.5144237875321
    },
    "properties": {},
    "sites": [
      {
        "species": [{ "element": "Mn", "occu": 1 }],
        "abc": [0.12589274, 0.24848891, 0.37461294],
        "properties": { "magmom": -4.368 },
        "label": "Mn",
        "xyz": [2.664250336286842, 1.837758535857637, -1.0994121639260461]
      },
      {
        "species": [{ "element": "Mn", "occu": 1 }],
        "abc": [0.87410726, 0.75151109, 0.62538706],
        "properties": { "magmom": -4.368 },
        "label": "Mn",
        "xyz": [4.787652783713158, 7.975830114142363, -3.287283176073954]
      },
      {
        "species": [{ "element": "Mn", "occu": 1 }],
        "abc": [0.5, 0.5, 0.5],
        "properties": { "magmom": -3.768 },
        "label": "Mn",
        "xyz": [3.7259515599999995, 4.906794325, -2.19334767]
      },
      {
        "species": [{ "element": "Mn", "occu": 1 }],
        "abc": [0.0, -0.0, -0.0],
        "properties": { "magmom": 3.618 },
        "label": "Mn",
        "xyz": [0.0, 0.0, 0.0]
      },
      {
        "species": [{ "element": "Mn", "occu": 1 }],
        "abc": [0.5, -0.0, -0.0],
        "properties": { "magmom": 3.618 },
        "label": "Mn",
        "xyz": [-0.6882736, 2.452562855, -1.32521869]
      },
      {
        "species": [{ "element": "Mn", "occu": 1 }],
        "abc": [0.5, 0.5, -0.0],
        "properties": { "magmom": 3.594 },
        "label": "Mn",
        "xyz": [1.17379858, 4.904652725, -0.86806298]
      },
      {
        "species": [{ "element": "O", "occu": 1 }],
        "abc": [0.26892734, 0.51426221, 0.24170808],
        "properties": { "magmom": 0.016 },
        "label": "O",
        "xyz": [2.7787475253763443, 3.842192004933793, -0.8832432987091214]
      },
      {
        "species": [{ "element": "O", "occu": 1 }],
        "abc": [0.25783477, 0.9840314, 0.22966539],
        "properties": { "magmom": -0.06 },
        "label": "O",
        "xyz": [4.482035676649484, 6.09156251746122, -0.3924078159928728]
      },
      {
        "species": [{ "element": "O", "occu": 1 }],
        "abc": [0.7424824, 0.01471032, 0.21706797],
        "properties": { "magmom": 0.029 },
        "label": "O",
        "xyz": [0.14070261948861618, 3.715041308304525, -2.529807008045016]
      },
      {
        "species": [{ "element": "O", "occu": 1 }],
        "abc": [0.74216523, 0.0159686, 0.77033461],
        "properties": { "magmom": -0.06 },
        "label": "O",
        "xyz": [2.9698674433505152, 3.722026132538779, -3.9942875240071274]
      },
      {
        "species": [{ "element": "O", "occu": 1 }],
        "abc": [0.28312545, 0.48586932, 0.75854343],
        "properties": { "magmom": 0.016 },
        "label": "O",
        "xyz": [5.291549692996638, 3.7748053926012726, -2.31674239696386]
      },
      {
        "species": [{ "element": "O", "occu": 1 }],
        "abc": [0.73107266, 0.48573779, 0.75829192],
        "properties": { "magmom": 0.016 },
        "label": "O",
        "xyz": [4.673155594623656, 5.971396645066208, -3.503452041290879]
      },
      {
        "species": [{ "element": "O", "occu": 1 }],
        "abc": [0.71687455, 0.5141306800000001, 0.24145657],
        "properties": { "magmom": 0.016 },
        "label": "O",
        "xyz": [2.160353427003362, 6.038783257398729, -2.06995294303614]
      },
      {
        "species": [{ "element": "O", "occu": 1 }],
        "abc": [0.2575176, 0.9852896800000001, 0.78293203],
        "properties": { "magmom": 0.029 },
        "label": "O",
        "xyz": [7.311200500511383, 6.098547341695476, -1.856888331954984]
      }
    ]
  },
  "task_ids": null,
  "uncorrected_energy_per_atom": null,
  "energy_per_atom": -8.804393511428572,
  "formation_energy_per_atom": -2.050409240541872,
  "energy_above_hull": 0.0,
  "is_stable": true,
  "equilibrium_reaction_energy_per_atom": null,
  "decomposes_to": null,
  "xas": null,
  "grain_boundaries": null,
  "band_gap": 0.8134999999999991,
  "cbm": null,
  "vbm": null,
  "efermi": 3.2345749,
  "is_gap_direct": null,
  "is_metal": null,
  "es_source_calc_id": null,
  "bandstructure": null,
  "dos": null,
  "dos_energy_up": null,
  "dos_energy_down": null,
  "is_magnetic": null,
  "ordering": null,
  "total_magnetization": 1.9983783,
  "total_magnetization_normalized_vol": null,
  "total_magnetization_normalized_formula_units": null,
  "num_magnetic_sites": null,
  "num_unique_magnetic_sites": null,
  "types_of_magnetic_species": null,
  "bulk_modulus": null,
  "shear_modulus": null,
  "universal_anisotropy": null,
  "homogeneous_poisson": null,
  "e_total": null,
  "e_ionic": null,
  "e_electronic": null,
  "n": null,
  "e_ij_max": null,
  "weighted_surface_energy_EV_PER_ANG2": null,
  "weighted_surface_energy": null,
  "weighted_work_function": null,
  "surface_anisotropy": null,
  "shape_factor": null,
  "has_reconstructed": null,
  "possible_species": null,
  "has_props": null,
  "theoretical": null,
  "database_IDs": null,
  "fields_not_requested": [
    "builder_meta",
    "nsites",
    "elements",
    "nelements",
    "composition",
    "composition_reduced",
    "chemsys",
    "symmetry",
    "property_name",
    "deprecated",
    "deprecation_reasons",
    "last_updated",
    "origins",
    "warnings",
    "task_ids",
    "uncorrected_energy_per_atom",
    "equilibrium_reaction_energy_per_atom",
    "decomposes_to",
    "xas",
    "grain_boundaries",
    "cbm",
    "vbm",
    "is_gap_direct",
    "is_metal",
    "es_source_calc_id",
    "bandstructure",
    "dos",
    "dos_energy_up",
    "dos_energy_down",
    "is_magnetic",
    "ordering",
    "total_magnetization_normalized_vol",
    "total_magnetization_normalized_formula_units",
    "num_magnetic_sites",
    "num_unique_magnetic_sites",
    "types_of_magnetic_species",
    "bulk_modulus",
    "shear_modulus",
    "universal_anisotropy",
    "homogeneous_poisson",
    "e_total",
    "e_ionic",
    "e_electronic",
    "n",
    "e_ij_max",
    "weighted_surface_energy_EV_PER_ANG2",
    "weighted_surface_energy",
    "weighted_work_function",
    "surface_anisotropy",
    "shape_factor",
    "has_reconstructed",
    "possible_species",
    "has_props",
    "theoretical",
    "database_IDs"
  ]
}
