{
  "builder_meta": null,
  "nsites": null,
  "elements": null,
  "nelements": null,
  "composition": null,
  "composition_reduced": null,
  "formula_pretty": "Mn3Pt",
  "formula_anonymous": "AB3",
  "chemsys": null,
  "volume": 95.9320463625482,
  "density": 12.459338371776735,
  "density_atomic": 11.991505795318526,
  "symmetry": null,
  "property_name": null,
  "material_id": "mp-1185931",
  "deprecated": null,
  "deprecation_reasons": null,
  "last_updated": null,
  "origins": null,
  "warnings": null,
  "structure": {
    "@module": "pymatgen.core.structure",
    "@class": "Structure",
    "charge": 0,
    "lattice": {
      "matrix": [
        [5.229389, 0.0, 0.0],
        [-2.614695, 4.528784, 0.0],
        [0.0, 0.0, 4.05071]
      ],
      "pbc": [true, true, true],
      "a": 5.229389,
      "b": 5.229389492252514,
      "c": 4.05071,
      "alpha": 90.0,
      "beta": 90.0,
      "gamma": 120.00000321187628,
      "volume": 95.9320463625482
    },
    "properties": {},
    "sites": [
      {
        "species": [{ "element": "Mn", "occu": 1 }],
        "abc": [0.151114, 0.302228999999999, 0.249999],
        "properties": { "magmom": 0.002 },
        "label": "Mn",
        "xyz": [-2.765808997495789e-6, 1.3687298595359956, 1.0126734492899998]
      },
      {
        "species": [{ "element": "Mn", "occu": 1 }],
        "abc": [0.6977700000000001, 0.848885999999999, 0.249999],
        "properties": { "magmom": -0.004 },
        "label": "Mn",
        "xyz": [1.429332782760003, 3.8444213346239957, 1.0126734492899998]
      },
      {
        "species": [{ "element": "Mn", "occu": 1 }],
        "abc": [0.151116, 0.848885999999999, 0.249999],
        "properties": { "magmom": 0.001 },
        "label": "Mn",
        "xyz": [-1.4293336316459977, 3.8444213346239957, 1.0126734492899998]
      },
      {
        "species": [{ "element": "Mn", "occu": 1 }],
        "abc": [0.848887, 0.6977700000000001, 0.75],
        "properties": { "magmom": 0.002 },
        "label": "Mn",
        "xyz": [2.614704609893, 3.1600496116800003, 3.0380325]
      },
      {
        "species": [{ "element": "Mn", "occu": 1 }],
        "abc": [0.30223, 0.151115, 0.75],
        "properties": { "magmom": -0.004 },
        "label": "Mn",
        "xyz": [1.185358602545, 0.68436719416, 3.0380325]
      },
      {
        "species": [{ "element": "Mn", "occu": 1 }],
        "abc": [0.848885999999999, 0.151115, 0.75],
        "properties": { "magmom": 0.001 },
        "label": "Mn",
        "xyz": [4.044035475728995, 0.68436719416, 3.0380325]
      },
      {
        "species": [{ "element": "Pt", "occu": 1 }],
        "abc": [0.333333999999999, 0.666667999999999, 0.75],
        "properties": { "magmom": 0.0 },
        "label": "Pt",
        "xyz": [-3.3333400262236523e-7, 3.0191953717119957, 3.0380325]
      },
      {
        "species": [{ "element": "Pt", "occu": 1 }],
        "abc": [0.666667999999999, 0.333333, 0.249999],
        "properties": { "magmom": 0.0 },
        "label": "Pt",
        "xyz": [2.614702177416995, 1.509593157072, 1.0126734492899998]
      }
    ]
  },
  "task_ids": null,
  "uncorrected_energy_per_atom": null,
  "energy_per_atom": -8.5516474775,
  "formation_energy_per_atom": -0.162352678448275,
  "energy_above_hull": 0.010748121034483001,
  "is_stable": false,
  "equilibrium_reaction_energy_per_atom": null,
  "decomposes_to": null,
  "xas": null,
  "grain_boundaries": null,
  "band_gap": 0.0,
  "cbm": null,
  "vbm": null,
  "efermi": 7.19615661,
  "is_gap_direct": null,
  "is_metal": null,
  "es_source_calc_id": null,
  "bandstructure": null,
  "dos": null,
  "dos_energy_up": null,
  "dos_energy_down": null,
  "is_magnetic": null,
  "ordering": null,
  "total_magnetization": 0.0018426,
  "total_magnetization_normalized_vol": null,
  "total_magnetization_normalized_formula_units": null,
  "num_magnetic_sites": null,
  "num_unique_magnetic_sites": null,
  "types_of_magnetic_species": null,
  "bulk_modulus": null,
  "shear_modulus": null,
  "universal_anisotropy": null,
  "homogeneous_poisson": null,
  "e_total": null,
  "e_ionic": null,
  "e_electronic": null,
  "n": null,
  "e_ij_max": null,
  "weighted_surface_energy_EV_PER_ANG2": null,
  "weighted_surface_energy": null,
  "weighted_work_function": null,
  "surface_anisotropy": null,
  "shape_factor": null,
  "has_reconstructed": null,
  "possible_species": null,
  "has_props": null,
  "theoretical": null,
  "database_IDs": null,
  "fields_not_requested": [
    "builder_meta",
    "nsites",
    "elements",
    "nelements",
    "composition",
    "composition_reduced",
    "chemsys",
    "symmetry",
    "property_name",
    "deprecated",
    "deprecation_reasons",
    "last_updated",
    "origins",
    "warnings",
    "task_ids",
    "uncorrected_energy_per_atom",
    "equilibrium_reaction_energy_per_atom",
    "decomposes_to",
    "xas",
    "grain_boundaries",
    "cbm",
    "vbm",
    "is_gap_direct",
    "is_metal",
    "es_source_calc_id",
    "bandstructure",
    "dos",
    "dos_energy_up",
    "dos_energy_down",
    "is_magnetic",
    "ordering",
    "total_magnetization_normalized_vol",
    "total_magnetization_normalized_formula_units",
    "num_magnetic_sites",
    "num_unique_magnetic_sites",
    "types_of_magnetic_species",
    "bulk_modulus",
    "shear_modulus",
    "universal_anisotropy",
    "homogeneous_poisson",
    "e_total",
    "e_ionic",
    "e_electronic",
    "n",
    "e_ij_max",
    "weighted_surface_energy_EV_PER_ANG2",
    "weighted_surface_energy",
    "weighted_work_function",
    "surface_anisotropy",
    "shape_factor",
    "has_reconstructed",
    "possible_species",
    "has_props",
    "theoretical",
    "database_IDs"
  ]
}
