{
  "builder_meta": null,
  "nsites": null,
  "elements": null,
  "nelements": null,
  "composition": null,
  "composition_reduced": null,
  "formula_pretty": "Mn3P",
  "formula_anonymous": "AB3",
  "chemsys": null,
  "volume": 207.27227974771634,
  "density": 6.274132790581977,
  "density_atomic": 12.954517484232271,
  "symmetry": null,
  "property_name": null,
  "material_id": "mp-19884",
  "deprecated": null,
  "deprecation_reasons": null,
  "last_updated": null,
  "origins": null,
  "warnings": null,
  "structure": {
    "@module": "pymatgen.core.structure",
    "@class": "Structure",
    "charge": 0,
    "lattice": {
      "matrix": [
        [4.39073576, -2.4050000000000005e-5, 1.558598889999999],
        [2.19576076, 6.66964006, 0.778276899999999],
        [-0.03652187, -0.00064849, 7.06487581]
      ],
      "pbc": [true, true, true],
      "a": 4.659162050694353,
      "b": 7.064784411302739,
      "c": 7.064970239020878,
      "alpha": 83.77298650108439,
      "beta": 70.75262706321041,
      "gamma": 70.74672321192382,
      "volume": 207.27227974771634
    },
    "properties": {},
    "sites": [
      {
        "species": [{ "element": "Mn", "occu": 1 }],
        "abc": [0.3420803, 0.66910586, 0.60701055],
        "properties": { "magmom": 3.098 },
        "label": "Mn",
        "xyz": [2.9490114372798533, 4.462293380933967, 5.342369761473296]
      },
      {
        "species": [{ "element": "Mn", "occu": 1 }],
        "abc": [0.05126203, 0.60695958, 0.33086164],
        "properties": { "magmom": 3.097 },
        "label": "Mn",
        "xyz": [1.545732371117207, 4.04798613625203, 2.8897759602977766]
      },
      {
        "species": [{ "element": "Mn", "occu": 1 }],
        "abc": [0.98893694, 0.39302244000000003, 0.66909501],
        "properties": { "magmom": 3.098 },
        "label": "Mn",
        "xyz": [5.18070743742156, 2.6208605249465045, 6.57430945393834]
      },
      {
        "species": [{ "element": "Mn", "occu": 1 }],
        "abc": [0.61835125, 0.33083735000000003, 0.39309084],
        "properties": { "magmom": 3.098 },
        "label": "Mn",
        "xyz": [3.4271002041314156, 2.2062962560778474, 3.998382605690907]
      },
      {
        "species": [{ "element": "Mn", "occu": 1 }],
        "abc": [0.92597463, 0.04201661, 0.60514561],
        "properties": { "magmom": 3.125 },
        "label": "Mn",
        "xyz": [4.135867295000502, 0.27982096467491624, 5.751202169082163]
      },
      {
        "species": [{ "element": "Mn", "occu": 1 }],
        "abc": [0.46863558, 0.60531804, 0.9578696800000001],
        "properties": { "magmom": 3.125 },
        "label": "Mn",
        "xyz": [3.35180540713655, 4.036621009030199, 7.968750273852223]
      },
      {
        "species": [{ "element": "Mn", "occu": 1 }],
        "abc": [0.03191224, 0.39471165, 0.042098870000000004],
        "properties": { "magmom": 3.125 },
        "label": "Mn",
        "xyz": [1.0052730364772697, 2.632556564803121, 0.6543566294886329]
      },
      {
        "species": [{ "element": "Mn", "occu": 1 }],
        "abc": [0.57337344, 0.95794705, 0.39467577],
        "properties": { "magmom": 3.125 },
        "label": "Mn",
        "xyz": [4.606539512225883, 6.388892287117503, 4.427542567843749]
      },
      {
        "species": [{ "element": "Mn", "occu": 1 }],
        "abc": [0.15706877, 0.96817948, 0.19168525],
        "properties": { "magmom": 3.444 },
        "label": "Mn",
        "xyz": [2.808537272258002, 6.457280561606278, 2.3525514207724787]
      },
      {
        "species": [{ "element": "Mn", "occu": 1 }],
        "abc": [0.65075162, 0.19182789, 0.03197192],
        "properties": { "magmom": 3.442 },
        "label": "Mn",
        "xyz": [3.277318888041637, 1.2793865957224115, 1.389433612367697]
      },
      {
        "species": [{ "element": "Mn", "occu": 1 }],
        "abc": [0.87462234, 0.80826961, 0.96817662],
        "properties": { "magmom": 3.443 },
        "label": "Mn",
        "xyz": [5.579642657218703, 5.390218482612996, 8.832290557173772]
      },
      {
        "species": [{ "element": "Mn", "occu": 1 }],
        "abc": [0.3167956, 0.03182182, 0.80835019],
        "properties": { "magmom": 3.444 },
        "label": "Mn",
        "xyz": [1.431316412644784, 0.2117082595052161, 6.229417161278746]
      },
      {
        "species": [{ "element": "P", "occu": 1 }],
        "abc": [0.18438304, 0.2470182, 0.33669579],
        "properties": { "magmom": -0.163 },
        "label": "P",
        "xyz": [1.3396733179594151, 1.6472997040041228, 2.8583417025182447]
      },
      {
        "species": [{ "element": "P", "occu": 1 }],
        "abc": [0.47909057, 0.33665444, 0.7530843700000001],
        "properties": { "magmom": -0.162 },
        "label": "P",
        "xyz": [2.8152686575493857, 2.2448640495895567, 6.3291679530479925]
      },
      {
        "species": [{ "element": "P", "occu": 1 }],
        "abc": [0.56885102, 0.66322344, 0.24695000000000003],
        "properties": { "magmom": -0.163 },
        "label": "P",
        "xyz": [3.94493544449419, 4.423287798682475, 3.147453132517403]
      },
      {
        "species": [{ "element": "P", "occu": 1 }],
        "abc": [0.76791162, 0.75308653, 0.6632399],
        "properties": { "magmom": -0.162 },
        "label": "P",
        "xyz": [5.001072100505481, 5.02236751641718, 6.468683574287077]
      }
    ]
  },
  "task_ids": null,
  "uncorrected_energy_per_atom": null,
  "energy_per_atom": -8.58374399,
  "formation_energy_per_atom": -0.35836413960899005,
  "energy_above_hull": 0.026496927183908003,
  "is_stable": false,
  "equilibrium_reaction_energy_per_atom": null,
  "decomposes_to": null,
  "xas": null,
  "grain_boundaries": null,
  "band_gap": 0.0,
  "cbm": null,
  "vbm": null,
  "efermi": 8.24628661,
  "is_gap_direct": null,
  "is_metal": null,
  "es_source_calc_id": null,
  "bandstructure": null,
  "dos": null,
  "dos_energy_up": null,
  "dos_energy_down": null,
  "is_magnetic": null,
  "ordering": null,
  "total_magnetization": 37.7908195,
  "total_magnetization_normalized_vol": null,
  "total_magnetization_normalized_formula_units": null,
  "num_magnetic_sites": null,
  "num_unique_magnetic_sites": null,
  "types_of_magnetic_species": null,
  "bulk_modulus": null,
  "shear_modulus": null,
  "universal_anisotropy": null,
  "homogeneous_poisson": null,
  "e_total": null,
  "e_ionic": null,
  "e_electronic": null,
  "n": null,
  "e_ij_max": null,
  "weighted_surface_energy_EV_PER_ANG2": null,
  "weighted_surface_energy": null,
  "weighted_work_function": null,
  "surface_anisotropy": null,
  "shape_factor": null,
  "has_reconstructed": null,
  "possible_species": null,
  "has_props": null,
  "theoretical": null,
  "database_IDs": null,
  "fields_not_requested": [
    "builder_meta",
    "nsites",
    "elements",
    "nelements",
    "composition",
    "composition_reduced",
    "chemsys",
    "symmetry",
    "property_name",
    "deprecated",
    "deprecation_reasons",
    "last_updated",
    "origins",
    "warnings",
    "task_ids",
    "uncorrected_energy_per_atom",
    "equilibrium_reaction_energy_per_atom",
    "decomposes_to",
    "xas",
    "grain_boundaries",
    "cbm",
    "vbm",
    "is_gap_direct",
    "is_metal",
    "es_source_calc_id",
    "bandstructure",
    "dos",
    "dos_energy_up",
    "dos_energy_down",
    "is_magnetic",
    "ordering",
    "total_magnetization_normalized_vol",
    "total_magnetization_normalized_formula_units",
    "num_magnetic_sites",
    "num_unique_magnetic_sites",
    "types_of_magnetic_species",
    "bulk_modulus",
    "shear_modulus",
    "universal_anisotropy",
    "homogeneous_poisson",
    "e_total",
    "e_ionic",
    "e_electronic",
    "n",
    "e_ij_max",
    "weighted_surface_energy_EV_PER_ANG2",
    "weighted_surface_energy",
    "weighted_work_function",
    "surface_anisotropy",
    "shape_factor",
    "has_reconstructed",
    "possible_species",
    "has_props",
    "theoretical",
    "database_IDs"
  ]
}
