{"builder_meta": null, "nsites": null, "elements": null, "nelements": null, "composition": null, "composition_reduced": null, "formula_pretty": "Mn3Si", "formula_anonymous": "AB3", "chemsys": null, "volume": 44.94311460163465, "density": 7.127173599106331, "density_atomic": 11.235778650408662, "symmetry": null, "property_name": null, "material_id": "mp-20211", "deprecated": null, "deprecation_reasons": null, "last_updated": null, "origins": null, "warnings": null, "structure": {"@module": "pymatgen.core.structure", "@class": "Structure", "charge": 0, "lattice": {"matrix": [[3.45612961, 1e-08, 1.99539807], [1.15204355, 3.25847076, 1.99539807], [2e-08, 1e-08, 3.99079408]], "pbc": [true, true, true], "a": 3.9907950760316515, "b": 3.99079559644832, "c": 3.99079408, "alpha": 59.999995263423834, "beta": 59.99999089361734, "gamma": 59.999993321796794, "volume": 44.94311460163464}, "properties": {}, "sites": [{"species": [{"element": "Mn", "occu": 1}], "abc": [0.25, 0.25, 0.25], "properties": {"magmom": -1.143}, "label": "Mn", "xyz": [1.152043295, 0.8146176949999999, 1.995397555]}, {"species": [{"element": "Mn", "occu": 1}], "abc": [0.75, 0.75, 0.75], "properties": {"magmom": -1.143}, "label": "Mn", "xyz": [3.4561298849999997, 2.443853085, 5.986192665]}, {"species": [{"element": "Mn", "occu": 1}], "abc": [0.5, 0.5, 0.5], "properties": {"magmom": 3.176}, "label": "Mn", "xyz": [2.30408659, 1.6292353899999998, 3.99079511]}, {"species": [{"element": "Si", "occu": 1}], "abc": [0.0, -0.0, -0.0], "properties": {"magmom": 0.08}, "label": "Si", "xyz": [0.0, 0.0, 0.0]}]}, "task_ids": null, "uncorrected_energy_per_atom": null, "energy_per_atom": -13.5027942225, "formation_energy_per_atom": -0.29685206711207, "energy_above_hull": 0.011287056422414002, "is_stable": false, "equilibrium_reaction_energy_per_atom": null, "decomposes_to": null, "xas": null, "grain_boundaries": null, "band_gap": 0.0, "cbm": null, "vbm": null, "efermi": 7.94000281, "is_gap_direct": null, "is_metal": null, "es_source_calc_id": null, "bandstructure": null, "dos": null, "dos_energy_up": null, "dos_energy_down": null, "is_magnetic": null, "ordering": null, "total_magnetization": 1.000047, "total_magnetization_normalized_vol": null, "total_magnetization_normalized_formula_units": null, "num_magnetic_sites": null, "num_unique_magnetic_sites": null, "types_of_magnetic_species": null, "bulk_modulus": null, "shear_modulus": null, "universal_anisotropy": null, "homogeneous_poisson": null, "e_total": null, "e_ionic": null, "e_electronic": null, "n": null, "e_ij_max": null, "weighted_surface_energy_EV_PER_ANG2": null, "weighted_surface_energy": null, "weighted_work_function": null, "surface_anisotropy": null, "shape_factor": null, "has_reconstructed": null, "possible_species": null, "has_props": null, "theoretical": null, "database_IDs": null, "fields_not_requested": ["builder_meta", "nsites", "elements", "nelements", "composition", "composition_reduced", "chemsys", "symmetry", "property_name", "deprecated", "deprecation_reasons", "last_updated", "origins", "warnings", "task_ids", "uncorrected_energy_per_atom", "equilibrium_reaction_energy_per_atom", "decomposes_to", "xas", "grain_boundaries", "cbm", "vbm", "is_gap_direct", "is_metal", "es_source_calc_id", "bandstructure", "dos", "dos_energy_up", "dos_energy_down", "is_magnetic", "ordering", "total_magnetization_normalized_vol", "total_magnetization_normalized_formula_units", "num_magnetic_sites", "num_unique_magnetic_sites", "types_of_magnetic_species", "bulk_modulus", "shear_modulus", "universal_anisotropy", "homogeneous_poisson", "e_total", "e_ionic", "e_electronic", "n", "e_ij_max", "weighted_surface_energy_EV_PER_ANG2", "weighted_surface_energy", "weighted_work_function", "surface_anisotropy", "shape_factor", "has_reconstructed", "possible_species", "has_props", "theoretical", "database_IDs"]}