{
  "builder_meta": null,
  "nsites": null,
  "elements": null,
  "nelements": null,
  "composition": null,
  "composition_reduced": null,
  "formula_pretty": "Mn3Sb2",
  "formula_anonymous": "A2B3",
  "chemsys": null,
  "volume": 86.73981261112024,
  "density": 7.817111462227095,
  "density_atomic": 17.347962522224048,
  "symmetry": null,
  "property_name": null,
  "material_id": "mp-1221705",
  "deprecated": null,
  "deprecation_reasons": null,
  "last_updated": null,
  "origins": null,
  "warnings": null,
  "structure": {
    "@module": "pymatgen.core.structure",
    "@class": "Structure",
    "charge": 0,
    "lattice": {
      "matrix": [
        [-2.160111, -3.742375, 0.0],
        [-4.320222, 0.0, 0.0],
        [0.0, 0.0, -5.364943]
      ],
      "pbc": [true, true, true],
      "a": 4.321047346760505,
      "b": 4.320222,
      "c": 5.364943,
      "alpha": 90.0,
      "beta": 90.0,
      "gamma": 60.00631823255763,
      "volume": 86.73981261112024
    },
    "properties": {},
    "sites": [
      {
        "species": [{ "element": "Mn", "occu": 1 }],
        "abc": [0.000254999999999, 0.999872, 0.497278999999999],
        "properties": { "magmom": 2.944 },
        "label": "Mn",
        "xyz": [-4.320219839888997, -0.0009543056249962577, -2.6678734900969947]
      },
      {
        "species": [{ "element": "Mn", "occu": 1 }],
        "abc": [0.000254999999999, 0.999872, 0.002721],
        "properties": { "magmom": 2.944 },
        "label": "Mn",
        "xyz": [-4.320219839888997, -0.0009543056249962577, -0.014598009903]
      },
      {
        "species": [{ "element": "Mn", "occu": 1 }],
        "abc": [0.333024, 0.333488, 0.25],
        "properties": { "magmom": 1.5510000000000002 },
        "label": "Mn",
        "xyz": [-2.160111, -1.246300692, -1.34123575]
      },
      {
        "species": [{ "element": "Sb", "occu": 1 }],
        "abc": [0.333314, 0.333343, 0.75],
        "properties": { "magmom": -0.14200000000000002 },
        "label": "Sb",
        "xyz": [-2.160111, -1.24738598075, -4.02370725]
      },
      {
        "species": [{ "element": "Sb", "occu": 1 }],
        "abc": [0.6665500000000001, 0.666725, 0.25],
        "properties": { "magmom": -0.101 },
        "label": "Sb",
        "xyz": [-4.320222, -2.4944800562500005, -1.34123575]
      }
    ]
  },
  "task_ids": null,
  "uncorrected_energy_per_atom": null,
  "energy_per_atom": -19.223725999586208,
  "formation_energy_per_atom": -0.13119890227586,
  "energy_above_hull": 0.11948204441379301,
  "is_stable": false,
  "equilibrium_reaction_energy_per_atom": null,
  "decomposes_to": null,
  "xas": null,
  "grain_boundaries": null,
  "band_gap": 0.0,
  "cbm": null,
  "vbm": null,
  "efermi": 7.87515794,
  "is_gap_direct": null,
  "is_metal": null,
  "es_source_calc_id": null,
  "bandstructure": null,
  "dos": null,
  "dos_energy_up": null,
  "dos_energy_down": null,
  "is_magnetic": null,
  "ordering": null,
  "total_magnetization": 7.3431042,
  "total_magnetization_normalized_vol": null,
  "total_magnetization_normalized_formula_units": null,
  "num_magnetic_sites": null,
  "num_unique_magnetic_sites": null,
  "types_of_magnetic_species": null,
  "bulk_modulus": null,
  "shear_modulus": null,
  "universal_anisotropy": null,
  "homogeneous_poisson": null,
  "e_total": null,
  "e_ionic": null,
  "e_electronic": null,
  "n": null,
  "e_ij_max": null,
  "weighted_surface_energy_EV_PER_ANG2": null,
  "weighted_surface_energy": null,
  "weighted_work_function": null,
  "surface_anisotropy": null,
  "shape_factor": null,
  "has_reconstructed": null,
  "possible_species": null,
  "has_props": null,
  "theoretical": null,
  "database_IDs": null,
  "fields_not_requested": [
    "builder_meta",
    "nsites",
    "elements",
    "nelements",
    "composition",
    "composition_reduced",
    "chemsys",
    "symmetry",
    "property_name",
    "deprecated",
    "deprecation_reasons",
    "last_updated",
    "origins",
    "warnings",
    "task_ids",
    "uncorrected_energy_per_atom",
    "equilibrium_reaction_energy_per_atom",
    "decomposes_to",
    "xas",
    "grain_boundaries",
    "cbm",
    "vbm",
    "is_gap_direct",
    "is_metal",
    "es_source_calc_id",
    "bandstructure",
    "dos",
    "dos_energy_up",
    "dos_energy_down",
    "is_magnetic",
    "ordering",
    "total_magnetization_normalized_vol",
    "total_magnetization_normalized_formula_units",
    "num_magnetic_sites",
    "num_unique_magnetic_sites",
    "types_of_magnetic_species",
    "bulk_modulus",
    "shear_modulus",
    "universal_anisotropy",
    "homogeneous_poisson",
    "e_total",
    "e_ionic",
    "e_electronic",
    "n",
    "e_ij_max",
    "weighted_surface_energy_EV_PER_ANG2",
    "weighted_surface_energy",
    "weighted_work_function",
    "surface_anisotropy",
    "shape_factor",
    "has_reconstructed",
    "possible_species",
    "has_props",
    "theoretical",
    "database_IDs"
  ]
}
