{"builder_meta": null, "nsites": null, "elements": null, "nelements": null, "composition": null, "composition_reduced": null, "formula_pretty": "Mn3Sn2", "formula_anonymous": "A2B3", "chemsys": null, "volume": 342.0171483668891, "density": 7.811602409725497, "density_atomic": 17.100857418344454, "symmetry": null, "property_name": null, "material_id": "mp-600428", "deprecated": null, "deprecation_reasons": null, "last_updated": null, "origins": null, "warnings": null, "structure": {"@module": "pymatgen.core.structure", "@class": "Structure", "charge": 0, "lattice": {"matrix": [[5.414552, 0.0, 0.0], [0.0, 7.479317, 0.0], [0.0, 0.0, 8.445462]], "pbc": [true, true, true], "a": 5.414552, "b": 7.479317, "c": 8.445462, "alpha": 90.0, "beta": 90.0, "gamma": 90.0, "volume": 342.0171483668891}, "properties": {}, "sites": [{"species": [{"element": "Mn", "occu": 1}], "abc": [0.507531, 0.268441, 0.128436], "properties": {"magmom": 2.769}, "label": "Mn", "xyz": [2.7480529911119995, 2.007755334797, 1.084701357432]}, {"species": [{"element": "Mn", "occu": 1}], "abc": [0.75, 0.593071999999999, 0.118756], "properties": {"magmom": 2.468}, "label": "Mn", "xyz": [4.0609139999999995, 4.435773491823993, 1.002949285272]}, {"species": [{"element": "Mn", "occu": 1}], "abc": [0.25, 0.906928, 0.618756], "properties": {"magmom": 2.468}, "label": "Mn", "xyz": [1.353638, 6.783202008176, 5.2256802852719995]}, {"species": [{"element": "Mn", "occu": 1}], "abc": [0.25, 0.406927999999999, 0.881243999999999], "properties": {"magmom": 2.468}, "label": "Mn", "xyz": [1.353638, 3.0435435081759925, 7.442512714727991]}, {"species": [{"element": "Mn", "occu": 1}], "abc": [0.992468999999999, 0.768440999999999, 0.371564], "properties": {"magmom": 2.769}, "label": "Mn", "xyz": [5.3737750088879945, 5.747413834796993, 3.1380296425679997]}, {"species": [{"element": "Mn", "occu": 1}], "abc": [0.492469, 0.231559, 0.628436], "properties": {"magmom": 2.769}, "label": "Mn", "xyz": [2.6664990088879996, 1.731903165203, 5.307432357431999]}, {"species": [{"element": "Mn", "occu": 1}], "abc": [0.507531, 0.768440999999999, 0.371564], "properties": {"magmom": 2.769}, "label": "Mn", "xyz": [2.7480529911119995, 5.747413834796993, 3.1380296425679997]}, {"species": [{"element": "Mn", "occu": 1}], "abc": [0.007530999999999, 0.731559, 0.871564], "properties": {"magmom": 2.769}, "label": "Mn", "xyz": [0.040776991111994586, 5.471561665203, 7.360760642568]}, {"species": [{"element": "Mn", "occu": 1}], "abc": [0.75, 0.093072, 0.38124399999999903], "properties": {"magmom": 2.468}, "label": "Mn", "xyz": [4.0609139999999995, 0.696114991824, 3.2197817147279917]}, {"species": [{"element": "Mn", "occu": 1}], "abc": [0.007530999999999, 0.231559, 0.628436], "properties": {"magmom": 2.769}, "label": "Mn", "xyz": [0.040776991111994586, 1.731903165203, 5.307432357431999]}, {"species": [{"element": "Mn", "occu": 1}], "abc": [0.992468999999999, 0.268441, 0.128436], "properties": {"magmom": 2.769}, "label": "Mn", "xyz": [5.3737750088879945, 2.007755334797, 1.084701357432]}, {"species": [{"element": "Mn", "occu": 1}], "abc": [0.492469, 0.731559, 0.871564], "properties": {"magmom": 2.769}, "label": "Mn", "xyz": [2.6664990088879996, 5.471561665203, 7.360760642568]}, {"species": [{"element": "Sn", "occu": 1}], "abc": [0.25, 0.100604, 0.356637], "properties": {"magmom": -0.177}, "label": "Sn", "xyz": [1.353638, 0.752449207468, 3.0119642312939994]}, {"species": [{"element": "Sn", "occu": 1}], "abc": [0.25, 0.600604, 0.143363], "properties": {"magmom": -0.177}, "label": "Sn", "xyz": [1.353638, 4.4921077074680005, 1.2107667687059998]}, {"species": [{"element": "Sn", "occu": 1}], "abc": [0.75, 0.399396, 0.856637], "properties": {"magmom": -0.177}, "label": "Sn", "xyz": [4.0609139999999995, 2.987209292532, 7.234695231293999]}, {"species": [{"element": "Sn", "occu": 1}], "abc": [0.75, 0.942332, 0.094055], "properties": {"magmom": -0.14100000000000001}, "label": "Sn", "xyz": [4.0609139999999995, 7.047999747244, 0.79433792841]}, {"species": [{"element": "Sn", "occu": 1}], "abc": [0.75, 0.442332, 0.405945], "properties": {"magmom": -0.14100000000000001}, "label": "Sn", "xyz": [4.0609139999999995, 3.308341247244, 3.4283930715899995]}, {"species": [{"element": "Sn", "occu": 1}], "abc": [0.75, 0.899396, 0.643363], "properties": {"magmom": -0.177}, "label": "Sn", "xyz": [4.0609139999999995, 6.7268677925319995, 5.433497768705999]}, {"species": [{"element": "Sn", "occu": 1}], "abc": [0.25, 0.557667999999999, 0.594055], "properties": {"magmom": -0.14100000000000001}, "label": "Sn", "xyz": [1.353638, 4.170975752755993, 5.01706892841]}, {"species": [{"element": "Sn", "occu": 1}], "abc": [0.25, 0.057668, 0.905945], "properties": {"magmom": -0.14100000000000001}, "label": "Sn", "xyz": [1.353638, 0.43131725275599997, 7.651124071589999]}]}, "task_ids": null, "uncorrected_energy_per_atom": null, "energy_per_atom": -18.63635236556897, "formation_energy_per_atom": 0.07212195174137401, "energy_above_hull": 0.072121951741376, "is_stable": false, "equilibrium_reaction_energy_per_atom": null, "decomposes_to": null, "xas": null, "grain_boundaries": null, "band_gap": 0.0, "cbm": null, "vbm": null, "efermi": 7.63174181, "is_gap_direct": null, "is_metal": null, "es_source_calc_id": null, "bandstructure": null, "dos": null, "dos_energy_up": null, "dos_energy_down": null, "is_magnetic": null, "ordering": null, "total_magnetization": 31.5831905, "total_magnetization_normalized_vol": null, "total_magnetization_normalized_formula_units": null, "num_magnetic_sites": null, "num_unique_magnetic_sites": null, "types_of_magnetic_species": null, "bulk_modulus": null, "shear_modulus": null, "universal_anisotropy": null, "homogeneous_poisson": null, "e_total": null, "e_ionic": null, "e_electronic": null, "n": null, "e_ij_max": null, "weighted_surface_energy_EV_PER_ANG2": null, "weighted_surface_energy": null, "weighted_work_function": null, "surface_anisotropy": null, "shape_factor": null, "has_reconstructed": null, "possible_species": null, "has_props": null, "theoretical": null, "database_IDs": null, "fields_not_requested": ["builder_meta", "nsites", "elements", "nelements", "composition", "composition_reduced", "chemsys", "symmetry", "property_name", "deprecated", "deprecation_reasons", "last_updated", "origins", "warnings", "task_ids", "uncorrected_energy_per_atom", "equilibrium_reaction_energy_per_atom", "decomposes_to", "xas", "grain_boundaries", "cbm", "vbm", "is_gap_direct", "is_metal", "es_source_calc_id", "bandstructure", "dos", "dos_energy_up", "dos_energy_down", "is_magnetic", "ordering", "total_magnetization_normalized_vol", "total_magnetization_normalized_formula_units", "num_magnetic_sites", "num_unique_magnetic_sites", "types_of_magnetic_species", "bulk_modulus", "shear_modulus", "universal_anisotropy", "homogeneous_poisson", "e_total", "e_ionic", "e_electronic", "n", "e_ij_max", "weighted_surface_energy_EV_PER_ANG2", "weighted_surface_energy", "weighted_work_function", "surface_anisotropy", "shape_factor", "has_reconstructed", "possible_species", "has_props", "theoretical", "database_IDs"]}