{
  "builder_meta": null,
  "nsites": null,
  "elements": null,
  "nelements": null,
  "composition": null,
  "composition_reduced": null,
  "formula_pretty": "Mn3Te",
  "formula_anonymous": "AB3",
  "chemsys": null,
  "volume": 111.77079246395944,
  "density": 8.688586420287162,
  "density_atomic": 13.97134905799493,
  "symmetry": null,
  "property_name": null,
  "material_id": "mp-1185988",
  "deprecated": null,
  "deprecation_reasons": null,
  "last_updated": null,
  "origins": null,
  "warnings": null,
  "structure": {
    "@module": "pymatgen.core.structure",
    "@class": "Structure",
    "charge": 0,
    "lattice": {
      "matrix": [
        [2.718556, -4.708677, 0.0],
        [2.718556, 4.708677, 0.0],
        [0.0, 0.0, 4.365773]
      ],
      "pbc": [true, true, true],
      "a": 5.437111900215499,
      "b": 5.437111900215499,
      "c": 4.365773,
      "alpha": 90.0,
      "beta": 90.0,
      "gamma": 119.99999878580955,
      "volume": 111.77079246395944
    },
    "properties": {},
    "sites": [
      {
        "species": [{ "element": "Mn", "occu": 1 }],
        "abc": [0.152151999999999, 0.304305, 0.25],
        "properties": { "magmom": 1.762 },
        "label": "Mn",
        "xyz": [1.2409039160919972, 0.7164393315810047, 1.09144325]
      },
      {
        "species": [{ "element": "Mn", "occu": 1 }],
        "abc": [0.695695, 0.847847999999999, 0.25],
        "properties": { "magmom": 1.83 },
        "label": "Mn",
        "xyz": [4.196208083907997, 0.7164393315809958, 1.09144325]
      },
      {
        "species": [{ "element": "Mn", "occu": 1 }],
        "abc": [0.152151999999999, 0.847847999999999, 0.25],
        "properties": { "magmom": 1.749 },
        "label": "Mn",
        "xyz": [2.7185559999999946, 3.275807754192, 1.09144325]
      },
      {
        "species": [{ "element": "Mn", "occu": 1 }],
        "abc": [0.847847999999999, 0.695695, 0.75],
        "properties": { "magmom": 1.762 },
        "label": "Mn",
        "xyz": [4.196208083907997, -0.7164393315809958, 3.2743297499999997]
      },
      {
        "species": [{ "element": "Mn", "occu": 1 }],
        "abc": [0.304305, 0.152151999999999, 0.75],
        "properties": { "magmom": 1.83 },
        "label": "Mn",
        "xyz": [1.2409039160919972, -0.7164393315810047, 3.2743297499999997]
      },
      {
        "species": [{ "element": "Mn", "occu": 1 }],
        "abc": [0.847847999999999, 0.152151999999999, 0.75],
        "properties": { "magmom": 1.749 },
        "label": "Mn",
        "xyz": [2.7185559999999946, -3.275807754192, 3.2743297499999997]
      },
      {
        "species": [{ "element": "Te", "occu": 1 }],
        "abc": [0.333333, 0.666667, 0.75],
        "properties": { "magmom": -0.068 },
        "label": "Te",
        "xyz": [2.718556, 1.5695621391180001, 3.2743297499999997]
      },
      {
        "species": [{ "element": "Te", "occu": 1 }],
        "abc": [0.666667, 0.333333, 0.25],
        "properties": { "magmom": -0.068 },
        "label": "Te",
        "xyz": [2.718556, -1.5695621391180001, 1.09144325]
      }
    ]
  },
  "task_ids": null,
  "uncorrected_energy_per_atom": null,
  "energy_per_atom": -17.373470819590516,
  "formation_energy_per_atom": -0.006663735452583,
  "energy_above_hull": 0.29907065316810405,
  "is_stable": false,
  "equilibrium_reaction_energy_per_atom": null,
  "decomposes_to": null,
  "xas": null,
  "grain_boundaries": null,
  "band_gap": 0.0,
  "cbm": null,
  "vbm": null,
  "efermi": 9.08881988,
  "is_gap_direct": null,
  "is_metal": null,
  "es_source_calc_id": null,
  "bandstructure": null,
  "dos": null,
  "dos_energy_up": null,
  "dos_energy_down": null,
  "is_magnetic": null,
  "ordering": null,
  "total_magnetization": 10.9210725,
  "total_magnetization_normalized_vol": null,
  "total_magnetization_normalized_formula_units": null,
  "num_magnetic_sites": null,
  "num_unique_magnetic_sites": null,
  "types_of_magnetic_species": null,
  "bulk_modulus": null,
  "shear_modulus": null,
  "universal_anisotropy": null,
  "homogeneous_poisson": null,
  "e_total": null,
  "e_ionic": null,
  "e_electronic": null,
  "n": null,
  "e_ij_max": null,
  "weighted_surface_energy_EV_PER_ANG2": null,
  "weighted_surface_energy": null,
  "weighted_work_function": null,
  "surface_anisotropy": null,
  "shape_factor": null,
  "has_reconstructed": null,
  "possible_species": null,
  "has_props": null,
  "theoretical": null,
  "database_IDs": null,
  "fields_not_requested": [
    "builder_meta",
    "nsites",
    "elements",
    "nelements",
    "composition",
    "composition_reduced",
    "chemsys",
    "symmetry",
    "property_name",
    "deprecated",
    "deprecation_reasons",
    "last_updated",
    "origins",
    "warnings",
    "task_ids",
    "uncorrected_energy_per_atom",
    "equilibrium_reaction_energy_per_atom",
    "decomposes_to",
    "xas",
    "grain_boundaries",
    "cbm",
    "vbm",
    "is_gap_direct",
    "is_metal",
    "es_source_calc_id",
    "bandstructure",
    "dos",
    "dos_energy_up",
    "dos_energy_down",
    "is_magnetic",
    "ordering",
    "total_magnetization_normalized_vol",
    "total_magnetization_normalized_formula_units",
    "num_magnetic_sites",
    "num_unique_magnetic_sites",
    "types_of_magnetic_species",
    "bulk_modulus",
    "shear_modulus",
    "universal_anisotropy",
    "homogeneous_poisson",
    "e_total",
    "e_ionic",
    "e_electronic",
    "n",
    "e_ij_max",
    "weighted_surface_energy_EV_PER_ANG2",
    "weighted_surface_energy",
    "weighted_work_function",
    "surface_anisotropy",
    "shape_factor",
    "has_reconstructed",
    "possible_species",
    "has_props",
    "theoretical",
    "database_IDs"
  ]
}
