{
  "builder_meta": null,
  "nsites": null,
  "elements": null,
  "nelements": null,
  "composition": null,
  "composition_reduced": null,
  "formula_pretty": "Mn4As3",
  "formula_anonymous": "A3B4",
  "chemsys": null,
  "volume": 209.85598569171947,
  "density": 7.034708194041056,
  "density_atomic": 14.989713263694247,
  "symmetry": null,
  "property_name": null,
  "material_id": "mp-9305",
  "deprecated": null,
  "deprecation_reasons": null,
  "last_updated": null,
  "origins": null,
  "warnings": null,
  "structure": {
    "@module": "pymatgen.core.structure",
    "@class": "Structure",
    "charge": 0,
    "lattice": {
      "matrix": [
        [1.767448, 6.504961, 0.0],
        [-1.767448, 6.504961, 0.0],
        [0.0, 2.249662, 9.126411]
      ],
      "pbc": [true, true, true],
      "a": 6.740800400859307,
      "b": 6.740800400859307,
      "c": 9.399593440950783,
      "alpha": 76.64625647281372,
      "beta": 76.64625647281372,
      "gamma": 30.40146352834737,
      "volume": 209.85598569171947
    },
    "properties": {},
    "sites": [
      {
        "species": [{ "element": "Mn", "occu": 1 }],
        "abc": [0.782764, 0.782764, 0.165952],
        "properties": { "magmom": 2.974 },
        "label": "Mn",
        "xyz": [0.0, 10.557034492631999, 1.5145461582719997]
      },
      {
        "species": [{ "element": "Mn", "occu": 1 }],
        "abc": [0.217235999999999, 0.217235999999999, 0.834048],
        "properties": { "magmom": 2.974 },
        "label": "Mn",
        "xyz": [0.0, 4.702549507367987, 7.611864841727999]
      },
      {
        "species": [{ "element": "Mn", "occu": 1 }],
        "abc": [0.656941999999999, 0.656941999999999, 0.549767],
        "properties": { "magmom": 2.844 },
        "label": "Mn",
        "xyz": [0.0, 9.783554107277986, 5.0173995962369995]
      },
      {
        "species": [{ "element": "Mn", "occu": 1 }],
        "abc": [0.343058, 0.343058, 0.450233],
        "properties": { "magmom": 2.844 },
        "label": "Mn",
        "xyz": [0.0, 5.476029892722, 4.109011403763]
      },
      {
        "species": [{ "element": "Mn", "occu": 1 }],
        "abc": [0.567839, 0.567839, 0.287636],
        "properties": { "magmom": 2.519 },
        "label": "Mn",
        "xyz": [0.0, 8.03462487759, 2.625084354396]
      },
      {
        "species": [{ "element": "Mn", "occu": 1 }],
        "abc": [0.432160999999999, 0.432160999999999, 0.712364],
        "properties": { "magmom": 2.519 },
        "label": "Mn",
        "xyz": [0.0, 7.224959122409987, 6.501326645603999]
      },
      {
        "species": [{ "element": "Mn", "occu": 1 }],
        "abc": [0.0, 0.0, 0.5],
        "properties": { "magmom": 2.237 },
        "label": "Mn",
        "xyz": [0.0, 1.124831, 4.5632055]
      },
      {
        "species": [{ "element": "Mn", "occu": 1 }],
        "abc": [0.0, 0.0, 0.0],
        "properties": { "magmom": 3.056 },
        "label": "Mn",
        "xyz": [0.0, 0.0, 0.0]
      },
      {
        "species": [{ "element": "As", "occu": 1 }],
        "abc": [0.937519, 0.937519, 0.273293],
        "properties": { "magmom": -0.134 },
        "label": "As",
        "xyz": [0.0, 12.811865940484, 2.494184241423]
      },
      {
        "species": [{ "element": "As", "occu": 1 }],
        "abc": [0.062480999999999, 0.062480999999999, 0.726707],
        "properties": { "magmom": -0.134 },
        "label": "As",
        "xyz": [0.0, 2.447718059515987, 6.632226758577]
      },
      {
        "species": [{ "element": "As", "occu": 1 }],
        "abc": [0.813479, 0.813479, 0.653416],
        "properties": { "magmom": -0.113 },
        "label": "As",
        "xyz": [0.0, 12.053263484029998, 5.963342969975999]
      },
      {
        "species": [{ "element": "As", "occu": 1 }],
        "abc": [0.186521, 0.186521, 0.346584],
        "properties": { "magmom": -0.113 },
        "label": "As",
        "xyz": [0.0, 3.20632051597, 3.1630680300239997]
      },
      {
        "species": [{ "element": "As", "occu": 1 }],
        "abc": [0.638353, 0.638353, 0.02077],
        "properties": { "magmom": -0.129 },
        "label": "As",
        "xyz": [0.0, 8.351648218205998, 0.18955555647]
      },
      {
        "species": [{ "element": "As", "occu": 1 }],
        "abc": [0.361647, 0.361647, 0.97923],
        "properties": { "magmom": -0.129 },
        "label": "As",
        "xyz": [0.0, 6.9079357817939995, 8.93685544353]
      }
    ]
  },
  "task_ids": null,
  "uncorrected_energy_per_atom": null,
  "energy_per_atom": -7.409398597857143,
  "formation_energy_per_atom": -0.17248020274630702,
  "energy_above_hull": 0.054723128152709,
  "is_stable": false,
  "equilibrium_reaction_energy_per_atom": null,
  "decomposes_to": null,
  "xas": null,
  "grain_boundaries": null,
  "band_gap": 0.0,
  "cbm": null,
  "vbm": null,
  "efermi": 6.0473666,
  "is_gap_direct": null,
  "is_metal": null,
  "es_source_calc_id": null,
  "bandstructure": null,
  "dos": null,
  "dos_energy_up": null,
  "dos_energy_down": null,
  "is_magnetic": null,
  "ordering": null,
  "total_magnetization": 21.5528463,
  "total_magnetization_normalized_vol": null,
  "total_magnetization_normalized_formula_units": null,
  "num_magnetic_sites": null,
  "num_unique_magnetic_sites": null,
  "types_of_magnetic_species": null,
  "bulk_modulus": null,
  "shear_modulus": null,
  "universal_anisotropy": null,
  "homogeneous_poisson": null,
  "e_total": null,
  "e_ionic": null,
  "e_electronic": null,
  "n": null,
  "e_ij_max": null,
  "weighted_surface_energy_EV_PER_ANG2": null,
  "weighted_surface_energy": null,
  "weighted_work_function": null,
  "surface_anisotropy": null,
  "shape_factor": null,
  "has_reconstructed": null,
  "possible_species": null,
  "has_props": null,
  "theoretical": null,
  "database_IDs": null,
  "fields_not_requested": [
    "builder_meta",
    "nsites",
    "elements",
    "nelements",
    "composition",
    "composition_reduced",
    "chemsys",
    "symmetry",
    "property_name",
    "deprecated",
    "deprecation_reasons",
    "last_updated",
    "origins",
    "warnings",
    "task_ids",
    "uncorrected_energy_per_atom",
    "equilibrium_reaction_energy_per_atom",
    "decomposes_to",
    "xas",
    "grain_boundaries",
    "cbm",
    "vbm",
    "is_gap_direct",
    "is_metal",
    "es_source_calc_id",
    "bandstructure",
    "dos",
    "dos_energy_up",
    "dos_energy_down",
    "is_magnetic",
    "ordering",
    "total_magnetization_normalized_vol",
    "total_magnetization_normalized_formula_units",
    "num_magnetic_sites",
    "num_unique_magnetic_sites",
    "types_of_magnetic_species",
    "bulk_modulus",
    "shear_modulus",
    "universal_anisotropy",
    "homogeneous_poisson",
    "e_total",
    "e_ionic",
    "e_electronic",
    "n",
    "e_ij_max",
    "weighted_surface_energy_EV_PER_ANG2",
    "weighted_surface_energy",
    "weighted_work_function",
    "surface_anisotropy",
    "shape_factor",
    "has_reconstructed",
    "possible_species",
    "has_props",
    "theoretical",
    "database_IDs"
  ]
}
