{"builder_meta": null, "nsites": null, "elements": null, "nelements": null, "composition": null, "composition_reduced": null, "formula_pretty": "Mn4Ga", "formula_anonymous": "AB4", "chemsys": null, "volume": 58.06423833226135, "density": 8.27850082955435, "density_atomic": 11.61284766645227, "symmetry": null, "property_name": null, "material_id": "mp-1221812", "deprecated": null, "deprecation_reasons": null, "last_updated": null, "origins": null, "warnings": null, "structure": {"@module": "pymatgen.core.structure", "@class": "Structure", "charge": 0, "lattice": {"matrix": [[-1.811414, -1.811414, 0.0], [0.0, 1.811414, -1.811414], [5.294838, -5.294838, -7.10625]], "pbc": [true, true, true], "a": 2.5617262458724976, "b": 2.5617262458724976, "c": 10.323245998957304, "alpha": 82.87263090216057, "beta": 90.0, "gamma": 120.00000000000001, "volume": 58.06423833226134}, "properties": {}, "sites": [{"species": [{"element": "Mn", "occu": 1}], "abc": [0.596171999999999, 0.192344, 0.211483999999999], "properties": {"magmom": -0.013000000000000001}, "label": "Mn", "xyz": [0.0398592123839967, -1.851273212383993, -1.8512727894159928]}, {"species": [{"element": "Mn", "occu": 1}], "abc": [0.20112000000000002, 0.40224000000000004, 0.396638999999999], "properties": {"magmom": 0.012}, "label": "Mn", "xyz": [1.7358276658019949, -1.7358276658019949, -3.547239061109993]}, {"species": [{"element": "Mn", "occu": 1}], "abc": [0.79888, 0.5977600000000001, 0.603360999999999], "properties": {"magmom": 0.008}, "label": "Mn", "xyz": [1.747596334197995, -3.5590103341979953, -5.370424938889993]}, {"species": [{"element": "Mn", "occu": 1}], "abc": [0.403827999999999, 0.807655999999999, 0.788516], "properties": {"magmom": -0.007}, "label": "Mn", "xyz": [3.443564787616002, -3.4435647876160003, -7.0663912105839986]}, {"species": [{"element": "Ga", "occu": 1}], "abc": [0.0, 0.0, 0.0], "properties": {"magmom": 0.0}, "label": "Ga", "xyz": [0.0, 0.0, 0.0]}]}, "task_ids": null, "uncorrected_energy_per_atom": null, "energy_per_atom": -13.98000743006897, "formation_energy_per_atom": 0.055215500344826, "energy_above_hull": 0.164271989241376, "is_stable": false, "equilibrium_reaction_energy_per_atom": null, "decomposes_to": null, "xas": null, "grain_boundaries": null, "band_gap": 0.0, "cbm": null, "vbm": null, "efermi": 6.18482967, "is_gap_direct": null, "is_metal": null, "es_source_calc_id": null, "bandstructure": null, "dos": null, "dos_energy_up": null, "dos_energy_down": null, "is_magnetic": null, "ordering": null, "total_magnetization": 0.0013166, "total_magnetization_normalized_vol": null, "total_magnetization_normalized_formula_units": null, "num_magnetic_sites": null, "num_unique_magnetic_sites": null, "types_of_magnetic_species": null, "bulk_modulus": null, "shear_modulus": null, "universal_anisotropy": null, "homogeneous_poisson": null, "e_total": null, "e_ionic": null, "e_electronic": null, "n": null, "e_ij_max": null, "weighted_surface_energy_EV_PER_ANG2": null, "weighted_surface_energy": null, "weighted_work_function": null, "surface_anisotropy": null, "shape_factor": null, "has_reconstructed": null, "possible_species": null, "has_props": null, "theoretical": null, "database_IDs": null, "fields_not_requested": ["builder_meta", "nsites", "elements", "nelements", "composition", "composition_reduced", "chemsys", "symmetry", "property_name", "deprecated", "deprecation_reasons", "last_updated", "origins", "warnings", "task_ids", "uncorrected_energy_per_atom", "equilibrium_reaction_energy_per_atom", "decomposes_to", "xas", "grain_boundaries", "cbm", "vbm", "is_gap_direct", "is_metal", "es_source_calc_id", "bandstructure", "dos", "dos_energy_up", "dos_energy_down", "is_magnetic", "ordering", "total_magnetization_normalized_vol", "total_magnetization_normalized_formula_units", "num_magnetic_sites", "num_unique_magnetic_sites", "types_of_magnetic_species", "bulk_modulus", "shear_modulus", "universal_anisotropy", "homogeneous_poisson", "e_total", "e_ionic", "e_electronic", "n", "e_ij_max", "weighted_surface_energy_EV_PER_ANG2", "weighted_surface_energy", "weighted_work_function", "surface_anisotropy", "shape_factor", "has_reconstructed", "possible_species", "has_props", "theoretical", "database_IDs"]}