{
  "builder_meta": null,
  "nsites": null,
  "elements": null,
  "nelements": null,
  "composition": null,
  "composition_reduced": null,
  "formula_pretty": "Mn4Si7",
  "formula_anonymous": "A4B7",
  "chemsys": null,
  "volume": 510.61957031234266,
  "density": 5.415903421974765,
  "density_atomic": 11.604990234371424,
  "symmetry": null,
  "property_name": null,
  "material_id": "mp-680339",
  "deprecated": null,
  "deprecation_reasons": null,
  "last_updated": null,
  "origins": null,
  "warnings": null,
  "structure": {
    "@module": "pymatgen.core.structure",
    "@class": "Structure",
    "charge": 0,
    "lattice": {
      "matrix": [
        [5.456526699999999, -4.7260000000000005e-5, 0.0],
        [-4.7240000000000015e-5, 5.45652445, 0.0],
        [0.0, 0.0, 17.15003717]
      ],
      "pbc": [true, true, true],
      "a": 5.4565267002046625,
      "b": 5.4565244502044905,
      "c": 17.15003717,
      "alpha": 90.0,
      "beta": 90.0,
      "gamma": 90.00099228915711,
      "volume": 510.61957031234255
    },
    "properties": {},
    "sites": [
      {
        "species": [{ "element": "Mn", "occu": 1 }],
        "abc": [0.0, -0.0, 0.2499991],
        "properties": { "magmom": 0.0 },
        "label": "Mn",
        "xyz": [0.0, 0.0, 4.287493857466547]
      },
      {
        "species": [{ "element": "Mn", "occu": 1 }],
        "abc": [0.0, 0.5, 0.80846666],
        "properties": { "magmom": -0.0 },
        "label": "Mn",
        "xyz": [-2.3620000000000008e-5, 2.728262225, 13.865233269705753]
      },
      {
        "species": [{ "element": "Mn", "occu": 1 }],
        "abc": [0.5, -0.0, 0.69153253],
        "properties": { "magmom": -0.0 },
        "label": "Mn",
        "xyz": [2.7282633499999993, -2.3630000000000002e-5, 11.859808593764141]
      },
      {
        "species": [{ "element": "Mn", "occu": 1 }],
        "abc": [0.5, 0.5, 0.36979441],
        "properties": { "magmom": 0.0 },
        "label": "Mn",
        "xyz": [2.7282397299999994, 2.728238595, 6.34198787675822]
      },
      {
        "species": [{ "element": "Mn", "occu": 1 }],
        "abc": [0.0, -0.0, 2.0200000000000003e-5],
        "properties": { "magmom": 0.0 },
        "label": "Mn",
        "xyz": [0.0, 0.0, 0.00034643075083400006]
      },
      {
        "species": [{ "element": "Mn", "occu": 1 }],
        "abc": [0.5, 0.5, 0.13020729],
        "properties": { "magmom": 0.0 },
        "label": "Mn",
        "xyz": [2.7282397299999994, 2.728238595, 2.2330598633049696]
      },
      {
        "species": [{ "element": "Mn", "occu": 1 }],
        "abc": [0.5, -0.0, 0.43497877],
        "properties": { "magmom": -0.0 },
        "label": "Mn",
        "xyz": [2.7282633499999993, -2.3630000000000002e-5, 7.459902073660881]
      },
      {
        "species": [{ "element": "Mn", "occu": 1 }],
        "abc": [0.0, -0.0, 0.74999983],
        "properties": { "magmom": 0.0 },
        "label": "Mn",
        "xyz": [0.0, 0.0, 12.862524961993682]
      },
      {
        "species": [{ "element": "Mn", "occu": 1 }],
        "abc": [0.5, -0.0, 0.9350151600000001],
        "properties": { "magmom": -0.0 },
        "label": "Mn",
        "xyz": [2.7282633499999993, -2.3630000000000002e-5, 16.035544748513498]
      },
      {
        "species": [{ "element": "Mn", "occu": 1 }],
        "abc": [0.5, 0.5, 0.63017428],
        "properties": { "magmom": 0.0 },
        "label": "Mn",
        "xyz": [2.7282397299999994, 2.728238595, 10.807512325577989]
      },
      {
        "species": [{ "element": "Mn", "occu": 1 }],
        "abc": [0.0, 0.5, 0.06502197],
        "properties": { "magmom": -0.0 },
        "label": "Mn",
        "xyz": [-2.3620000000000008e-5, 2.728262225, 1.1151292023666248]
      },
      {
        "species": [{ "element": "Mn", "occu": 1 }],
        "abc": [0.0, 0.5, 0.30846111],
        "properties": { "magmom": -0.0 },
        "label": "Mn",
        "xyz": [-2.3620000000000008e-5, 2.728262225, 5.290119501999459]
      },
      {
        "species": [{ "element": "Mn", "occu": 1 }],
        "abc": [0.0, -0.0, 0.49997853000000003],
        "properties": { "magmom": 0.0 },
        "label": "Mn",
        "xyz": [0.0, 0.0, 8.574650373701962]
      },
      {
        "species": [{ "element": "Mn", "occu": 1 }],
        "abc": [0.5, -0.0, 0.19153996],
        "properties": { "magmom": -0.0 },
        "label": "Mn",
        "xyz": [2.7282633499999993, -2.3630000000000002e-5, 3.2849174335403135]
      },
      {
        "species": [{ "element": "Mn", "occu": 1 }],
        "abc": [0.0, 0.5, 0.564981899999999],
        "properties": { "magmom": -0.0 },
        "label": "Mn",
        "xyz": [-2.3620000000000008e-5, 2.728262225, 9.689460585377207]
      },
      {
        "species": [{ "element": "Mn", "occu": 1 }],
        "abc": [0.5, 0.5, 0.86982057],
        "properties": { "magmom": 0.0 },
        "label": "Mn",
        "xyz": [2.7282397299999994, 2.728238595, 14.917455106730587]
      },
      {
        "species": [{ "element": "Si", "occu": 1 }],
        "abc": [0.8027143800000001, 0.84438007, 0.11343624000000001],
        "properties": { "magmom": 0.0 },
        "label": "Si",
        "xyz": [4.379992558429438, 4.607342560766113, 1.945435732425041]
      },
      {
        "species": [{ "element": "Si", "occu": 1 }],
        "abc": [0.7714407400000001, 0.34608267, 0.46048864],
        "properties": { "magmom": -0.0 },
        "label": "Si",
        "xyz": [4.2093706463324265, 1.888372092286909, 7.897397292362749]
      },
      {
        "species": [{ "element": "Si", "occu": 1 }],
        "abc": [0.80266894, 0.15560585, 0.61343445],
        "properties": { "magmom": 0.0 },
        "label": "Si",
        "xyz": [4.379777151550343, 0.849029190953928, 10.520423618858507]
      },
      {
        "species": [{ "element": "Si", "occu": 1 }],
        "abc": [0.34607787, 0.22860969, 0.53948832],
        "properties": { "magmom": -0.0 },
        "label": "Si",
        "xyz": [1.888372338412373, 1.2473980073517843, 9.252244740780855]
      },
      {
        "species": [{ "element": "Si", "occu": 1 }],
        "abc": [0.67766123, 0.15901951, 0.31714986],
        "properties": { "magmom": 0.0 },
        "label": "Si",
        "xyz": [3.6976690829681877, 0.8676618180722897, 5.439131887460297]
      },
      {
        "species": [{ "element": "Si", "occu": 1 }],
        "abc": [0.22861092, 0.34608074, 0.96051301],
        "properties": { "magmom": -0.0 },
        "label": "Si",
        "xyz": [1.247405240037406, 1.8883872153320138, 16.472833823768582]
      },
      {
        "species": [{ "element": "Si", "occu": 1 }],
        "abc": [0.6776538400000001, 0.8409704100000001, 0.81716617],
        "properties": { "magmom": -0.0 },
        "label": "Si",
        "xyz": [3.697596543875359, 4.588743577971046, 14.01443018956654]
      },
      {
        "species": [{ "element": "Si", "occu": 1 }],
        "abc": [0.15903253, 0.67764158, 0.18283891],
        "properties": { "magmom": 0.0 },
        "label": "Si",
        "xyz": [0.8677332343253116, 3.697560333729263, 3.135694102622285]
      },
      {
        "species": [{ "element": "Si", "occu": 1 }],
        "abc": [0.65391607, 0.22854306, 0.03951378],
        "properties": { "magmom": -0.0 },
        "label": "Si",
        "xyz": [3.5680996991399136, 1.2470198906943486, 0.6776627957272026]
      },
      {
        "species": [{ "element": "Si", "occu": 1 }],
        "abc": [0.15560504, 0.80267767, 0.88657224],
        "properties": { "magmom": 0.0 },
        "label": "Si",
        "xyz": [0.849025136921437, 4.379822977929841, 15.204746869890162]
      },
      {
        "species": [{ "element": "Si", "occu": 1 }],
        "abc": [0.66579732, 0.33421679, 0.7500066200000001],
        "properties": { "magmom": -0.0 },
        "label": "Si",
        "xyz": [3.6329250649672833, 1.8236306206541721, 12.862641410746066]
      },
      {
        "species": [{ "element": "Si", "occu": 1 }],
        "abc": [0.7713890800000001, 0.65391926, 0.96051301],
        "properties": { "magmom": -0.0 },
        "label": "Si",
        "xyz": [4.209074219962593, 3.568089974667986, 16.472833823768582]
      },
      {
        "species": [{ "element": "Si", "occu": 1 }],
        "abc": [0.1590204, 0.32233255, 0.6828456900000001],
        "properties": { "magmom": 0.0 },
        "label": "Si",
        "xyz": [0.8676838314550177, 1.7588079248017434, 11.710828964874299]
      },
      {
        "species": [{ "element": "Si", "occu": 1 }],
        "abc": [0.33422065, 0.33420203, 0.24999271],
        "properties": { "magmom": 0.0 },
        "label": "Si",
        "xyz": [1.8236681127124574, 1.8235657526667144, 4.287384268729031]
      },
      {
        "species": [{ "element": "Si", "occu": 1 }],
        "abc": [0.32233877, 0.84098049, 0.31714986],
        "properties": { "magmom": 0.0 },
        "label": "Si",
        "xyz": [1.758810377031811, 4.58881537192771, 5.439131887460297]
      },
      {
        "species": [{ "element": "Si", "occu": 1 }],
        "abc": [0.65392213, 0.77139031, 0.53948832],
        "properties": { "magmom": -0.0 },
        "label": "Si",
        "xyz": [3.5681071215876257, 4.209079182648216, 9.252244740780855]
      },
      {
        "species": [{ "element": "Si", "occu": 1 }],
        "abc": [0.84096747, 0.32235842000000003, 0.18283891],
        "properties": { "magmom": 0.0 },
        "label": "Si",
        "xyz": [4.588746225674687, 1.758916856270737, 3.135694102622285]
      },
      {
        "species": [{ "element": "Si", "occu": 1 }],
        "abc": [0.84438355, 0.80269288, 0.38655821],
        "properties": { "magmom": 0.0 },
        "label": "Si",
        "xyz": [4.6073634664041325, 4.379873419994343, 6.629487669868666]
      },
      {
        "species": [{ "element": "Si", "occu": 1 }],
        "abc": [0.84439496, 0.19732233000000002, 0.88657224],
        "properties": { "magmom": 0.0 },
        "label": "Si",
        "xyz": [4.607454323078562, 1.076654212070159, 15.204746869890162]
      },
      {
        "species": [{ "element": "Si", "occu": 1 }],
        "abc": [0.19728562, 0.15561993, 0.11343624000000001],
        "properties": { "magmom": 0.0 },
        "label": "Si",
        "xyz": [1.0764869015705605, 0.8491346292338872, 1.945435732425041]
      },
      {
        "species": [{ "element": "Si", "occu": 1 }],
        "abc": [0.840979599999999, 0.6776674500000001, 0.6828456900000001],
        "properties": { "magmom": 0.0 },
        "label": "Si",
        "xyz": [4.588795628544976, 3.6976692651982566, 11.710828964874299]
      },
      {
        "species": [{ "element": "Si", "occu": 1 }],
        "abc": [0.22855926000000001, 0.65391733, 0.46048864],
        "properties": { "magmom": -0.0 },
        "label": "Si",
        "xyz": [1.2471088136675725, 3.5681050977130906, 7.897397292362749]
      },
      {
        "species": [{ "element": "Si", "occu": 1 }],
        "abc": [0.19733106, 0.8443941500000001, 0.61343445],
        "properties": { "magmom": 0.0 },
        "label": "Si",
        "xyz": [1.0767023084496556, 4.607447999046072, 10.520423618858507]
      },
      {
        "species": [{ "element": "Si", "occu": 1 }],
        "abc": [0.15561645, 0.19730712, 0.38655821],
        "properties": { "magmom": 0.0 },
        "label": "Si",
        "xyz": [0.8491159935958659, 1.076603770005657, 6.629487669868666]
      },
      {
        "species": [{ "element": "Si", "occu": 1 }],
        "abc": [0.32234616, 0.15902959, 0.81716617],
        "properties": { "magmom": -0.0 },
        "label": "Si",
        "xyz": [1.75888291612464, 0.8677336120289538, 14.01443018956654]
      },
      {
        "species": [{ "element": "Si", "occu": 1 }],
        "abc": [0.66577935, 0.66579797, 0.24999271],
        "properties": { "magmom": 0.0 },
        "label": "Si",
        "xyz": [3.632811347287541, 3.632911437333285, 4.287384268729031]
      },
      {
        "species": [{ "element": "Si", "occu": 1 }],
        "abc": [0.33420268000000003, 0.66578321, 0.7500066200000001],
        "properties": { "magmom": -0.0 },
        "label": "Si",
        "xyz": [1.8235543950327153, 3.632846569345827, 12.862641410746066]
      },
      {
        "species": [{ "element": "Si", "occu": 1 }],
        "abc": [0.34608393, 0.77145694, 0.03951378],
        "properties": { "magmom": -0.0 },
        "label": "Si",
        "xyz": [1.888379760860085, 4.209457299305652, 0.6776627957272026]
      }
    ]
  },
  "task_ids": null,
  "uncorrected_energy_per_atom": null,
  "energy_per_atom": -11.205978175909092,
  "formation_energy_per_atom": -0.28327900617555,
  "energy_above_hull": 0.0,
  "is_stable": true,
  "equilibrium_reaction_energy_per_atom": null,
  "decomposes_to": null,
  "xas": null,
  "grain_boundaries": null,
  "band_gap": 0.755599999999999,
  "cbm": null,
  "vbm": null,
  "efermi": 9.77242132,
  "is_gap_direct": null,
  "is_metal": null,
  "es_source_calc_id": null,
  "bandstructure": null,
  "dos": null,
  "dos_energy_up": null,
  "dos_energy_down": null,
  "is_magnetic": null,
  "ordering": null,
  "total_magnetization": 0.0,
  "total_magnetization_normalized_vol": null,
  "total_magnetization_normalized_formula_units": null,
  "num_magnetic_sites": null,
  "num_unique_magnetic_sites": null,
  "types_of_magnetic_species": null,
  "bulk_modulus": null,
  "shear_modulus": null,
  "universal_anisotropy": null,
  "homogeneous_poisson": null,
  "e_total": null,
  "e_ionic": null,
  "e_electronic": null,
  "n": null,
  "e_ij_max": null,
  "weighted_surface_energy_EV_PER_ANG2": null,
  "weighted_surface_energy": null,
  "weighted_work_function": null,
  "surface_anisotropy": null,
  "shape_factor": null,
  "has_reconstructed": null,
  "possible_species": null,
  "has_props": null,
  "theoretical": null,
  "database_IDs": null,
  "fields_not_requested": [
    "builder_meta",
    "nsites",
    "elements",
    "nelements",
    "composition",
    "composition_reduced",
    "chemsys",
    "symmetry",
    "property_name",
    "deprecated",
    "deprecation_reasons",
    "last_updated",
    "origins",
    "warnings",
    "task_ids",
    "uncorrected_energy_per_atom",
    "equilibrium_reaction_energy_per_atom",
    "decomposes_to",
    "xas",
    "grain_boundaries",
    "cbm",
    "vbm",
    "is_gap_direct",
    "is_metal",
    "es_source_calc_id",
    "bandstructure",
    "dos",
    "dos_energy_up",
    "dos_energy_down",
    "is_magnetic",
    "ordering",
    "total_magnetization_normalized_vol",
    "total_magnetization_normalized_formula_units",
    "num_magnetic_sites",
    "num_unique_magnetic_sites",
    "types_of_magnetic_species",
    "bulk_modulus",
    "shear_modulus",
    "universal_anisotropy",
    "homogeneous_poisson",
    "e_total",
    "e_ionic",
    "e_electronic",
    "n",
    "e_ij_max",
    "weighted_surface_energy_EV_PER_ANG2",
    "weighted_surface_energy",
    "weighted_work_function",
    "surface_anisotropy",
    "shape_factor",
    "has_reconstructed",
    "possible_species",
    "has_props",
    "theoretical",
    "database_IDs"
  ]
}
