{
  "builder_meta": null,
  "nsites": null,
  "elements": null,
  "nelements": null,
  "composition": null,
  "composition_reduced": null,
  "formula_pretty": "Mn5Al8",
  "formula_anonymous": "A5B8",
  "chemsys": null,
  "volume": 352.4968789251464,
  "density": 4.621686544786831,
  "density_atomic": 13.557572266351785,
  "symmetry": null,
  "property_name": null,
  "material_id": "mp-1194040",
  "deprecated": null,
  "deprecation_reasons": null,
  "last_updated": null,
  "origins": null,
  "warnings": null,
  "structure": {
    "@module": "pymatgen.core.structure",
    "@class": "Structure",
    "charge": 0,
    "lattice": {
      "matrix": [
        [6.300771, 3.637752, 2.563169],
        [-6.300771, 3.637752, 2.563169],
        [0.0, -7.275504, 2.563169]
      ],
      "pbc": [true, true, true],
      "a": 7.713805165448892,
      "b": 7.713805165448892,
      "c": 7.713805401783026,
      "alpha": 109.53494299349862,
      "beta": 109.53494299349862,
      "gamma": 109.53493989105968,
      "volume": 352.4968789251464
    },
    "properties": {},
    "sites": [
      {
        "species": [{ "element": "Mn", "occu": 1 }],
        "abc": [0.15087899999999901, 0.15087899999999901, 0.15087899999999901],
        "properties": { "magmom": -0.8290000000000001 },
        "label": "Mn",
        "xyz": [0.0, 0.0, 1.1601851266529923]
      },
      {
        "species": [{ "element": "Mn", "occu": 1 }],
        "abc": [0.788945, 0.000882, 0.000882],
        "properties": { "magmom": -0.07 },
        "label": "Mn",
        "xyz": [4.965404496573, 2.866777754376, 2.026720796821]
      },
      {
        "species": [{ "element": "Mn", "occu": 1 }],
        "abc": [0.000882, 0.000882, 0.788945],
        "properties": { "magmom": -0.07 },
        "label": "Mn",
        "xyz": [0.0, -5.733555508752, 2.026720796821]
      },
      {
        "species": [{ "element": "Mn", "occu": 1 }],
        "abc": [0.000882, 0.788945, 0.000882],
        "properties": { "magmom": -0.07 },
        "label": "Mn",
        "xyz": [-4.965404496573, 2.866777754376, 2.026720796821]
      },
      {
        "species": [{ "element": "Mn", "occu": 1 }],
        "abc": [0.328939, 0.987634999999999, 0.987634999999999],
        "properties": { "magmom": 1.516 },
        "label": "Mn",
        "xyz": [-4.150292654615994, -2.396172691391996, 5.906077078320995]
      },
      {
        "species": [{ "element": "Mn", "occu": 1 }],
        "abc": [0.987634999999999, 0.987634999999999, 0.328939],
        "properties": { "magmom": 1.516 },
        "label": "Mn",
        "xyz": [0.0, 4.792345382783992, 5.906077078320995]
      },
      {
        "species": [{ "element": "Mn", "occu": 1 }],
        "abc": [0.987634999999999, 0.328939, 0.987634999999999],
        "properties": { "magmom": 1.516 },
        "label": "Mn",
        "xyz": [4.150292654615994, -2.396172691391996, 5.906077078320995]
      },
      {
        "species": [{ "element": "Mn", "occu": 1 }],
        "abc": [0.021124999999999002, 0.367794, 0.367794],
        "properties": { "magmom": 0.253 },
        "label": "Mn",
        "xyz": [-2.1842819817990065, -1.2610958480880035, 1.9395833034969974]
      },
      {
        "species": [{ "element": "Mn", "occu": 1 }],
        "abc": [0.367794, 0.367794, 0.021124999999999002],
        "properties": { "magmom": 0.253 },
        "label": "Mn",
        "xyz": [0.0, 2.522191696176007, 1.9395833034969974]
      },
      {
        "species": [{ "element": "Mn", "occu": 1 }],
        "abc": [0.367794, 0.021124999999999002, 0.367794],
        "properties": { "magmom": 0.253 },
        "label": "Mn",
        "xyz": [2.1842819817990065, -1.2610958480880035, 1.9395833034969974]
      },
      {
        "species": [{ "element": "Al", "occu": 1 }],
        "abc": [0.689315999999999, 0.689315999999999, 0.689315999999999],
        "properties": { "magmom": 0.006 },
        "label": "Al",
        "xyz": [0.0, 0.0, 5.300500207211992]
      },
      {
        "species": [{ "element": "Al", "occu": 1 }],
        "abc": [0.999502999999999, 0.641428999999999, 0.641428999999999],
        "properties": { "magmom": -0.004 },
        "label": "Al",
        "xyz": [2.2561422750540006, 1.3025844096480004, 5.850076962008992]
      },
      {
        "species": [{ "element": "Al", "occu": 1 }],
        "abc": [0.641428999999999, 0.641428999999999, 0.999502999999999],
        "properties": { "magmom": -0.004 },
        "label": "Al",
        "xyz": [0.0, -2.605168819296, 5.850076962008992]
      },
      {
        "species": [{ "element": "Al", "occu": 1 }],
        "abc": [0.641428999999999, 0.999502999999999, 0.641428999999999],
        "properties": { "magmom": -0.004 },
        "label": "Al",
        "xyz": [-2.2561422750540006, 1.3025844096480004, 5.850076962008992]
      },
      {
        "species": [{ "element": "Al", "occu": 1 }],
        "abc": [0.556103, 0.336347, 0.336347],
        "properties": { "magmom": -0.011 },
        "label": "Al",
        "xyz": [1.384632231876, 0.7994178285119999, 3.1496143776929997]
      },
      {
        "species": [{ "element": "Al", "occu": 1 }],
        "abc": [0.336347, 0.336347, 0.556103],
        "properties": { "magmom": -0.011 },
        "label": "Al",
        "xyz": [0.0, -1.5988356570240003, 3.149614377693]
      },
      {
        "species": [{ "element": "Al", "occu": 1 }],
        "abc": [0.336347, 0.556103, 0.336347],
        "properties": { "magmom": -0.011 },
        "label": "Al",
        "xyz": [-1.384632231876, 0.7994178285119999, 3.1496143776929997]
      },
      {
        "species": [{ "element": "Al", "occu": 1 }],
        "abc": [0.382486, 0.737464999999999, 0.737464999999999],
        "properties": { "magmom": -0.013000000000000001 },
        "label": "Al",
        "xyz": [-2.236641388808994, -1.2913255672079966, 4.760871111303994]
      },
      {
        "species": [{ "element": "Al", "occu": 1 }],
        "abc": [0.737464999999999, 0.737464999999999, 0.382486],
        "properties": { "magmom": -0.013000000000000001 },
        "label": "Al",
        "xyz": [0.0, 2.582651134415993, 4.760871111303994]
      },
      {
        "species": [{ "element": "Al", "occu": 1 }],
        "abc": [0.737464999999999, 0.382486, 0.737464999999999],
        "properties": { "magmom": -0.013000000000000001 },
        "label": "Al",
        "xyz": [2.236641388808994, -1.2913255672079966, 4.760871111303994]
      },
      {
        "species": [{ "element": "Al", "occu": 1 }],
        "abc": [0.046554, 0.673109, 0.279136],
        "properties": { "magmom": -0.016 },
        "label": "Al",
        "xyz": [-3.947779573905, 0.5871004330319995, 2.560090634031]
      },
      {
        "species": [{ "element": "Al", "occu": 1 }],
        "abc": [0.673109, 0.279136, 0.046554],
        "properties": { "magmom": -0.016 },
        "label": "Al",
        "xyz": [2.4823336531830003, 3.1253273400239996, 2.560090634031]
      },
      {
        "species": [{ "element": "Al", "occu": 1 }],
        "abc": [0.279136, 0.046554, 0.673109],
        "properties": { "magmom": -0.016 },
        "label": "Al",
        "xyz": [1.4654459207219999, -3.712427773055999, 2.560090634031]
      },
      {
        "species": [{ "element": "Al", "occu": 1 }],
        "abc": [0.046554, 0.279136, 0.673109],
        "properties": { "magmom": -0.016 },
        "label": "Al",
        "xyz": [-1.4654459207219999, -3.712427773055999, 2.560090634031]
      },
      {
        "species": [{ "element": "Al", "occu": 1 }],
        "abc": [0.279136, 0.673109, 0.046554],
        "properties": { "magmom": -0.016 },
        "label": "Al",
        "xyz": [-2.4823336531830003, 3.1253273400239996, 2.560090634031]
      },
      {
        "species": [{ "element": "Al", "occu": 1 }],
        "abc": [0.673109, 0.046554, 0.279136],
        "properties": { "magmom": -0.016 },
        "label": "Al",
        "xyz": [3.947779573905, 0.5871004330319995, 2.560090634031]
      }
    ]
  },
  "task_ids": null,
  "uncorrected_energy_per_atom": null,
  "energy_per_atom": -6.025843061153846,
  "formation_energy_per_atom": -0.197021284204243,
  "energy_above_hull": 0.07759116884615301,
  "is_stable": false,
  "equilibrium_reaction_energy_per_atom": null,
  "decomposes_to": null,
  "xas": null,
  "grain_boundaries": null,
  "band_gap": 0.0,
  "cbm": null,
  "vbm": null,
  "efermi": 7.70855104,
  "is_gap_direct": null,
  "is_metal": null,
  "es_source_calc_id": null,
  "bandstructure": null,
  "dos": null,
  "dos_energy_up": null,
  "dos_energy_down": null,
  "is_magnetic": null,
  "ordering": null,
  "total_magnetization": 4.0001476,
  "total_magnetization_normalized_vol": null,
  "total_magnetization_normalized_formula_units": null,
  "num_magnetic_sites": null,
  "num_unique_magnetic_sites": null,
  "types_of_magnetic_species": null,
  "bulk_modulus": null,
  "shear_modulus": null,
  "universal_anisotropy": null,
  "homogeneous_poisson": null,
  "e_total": null,
  "e_ionic": null,
  "e_electronic": null,
  "n": null,
  "e_ij_max": null,
  "weighted_surface_energy_EV_PER_ANG2": null,
  "weighted_surface_energy": null,
  "weighted_work_function": null,
  "surface_anisotropy": null,
  "shape_factor": null,
  "has_reconstructed": null,
  "possible_species": null,
  "has_props": null,
  "theoretical": null,
  "database_IDs": null,
  "fields_not_requested": [
    "builder_meta",
    "nsites",
    "elements",
    "nelements",
    "composition",
    "composition_reduced",
    "chemsys",
    "symmetry",
    "property_name",
    "deprecated",
    "deprecation_reasons",
    "last_updated",
    "origins",
    "warnings",
    "task_ids",
    "uncorrected_energy_per_atom",
    "equilibrium_reaction_energy_per_atom",
    "decomposes_to",
    "xas",
    "grain_boundaries",
    "cbm",
    "vbm",
    "is_gap_direct",
    "is_metal",
    "es_source_calc_id",
    "bandstructure",
    "dos",
    "dos_energy_up",
    "dos_energy_down",
    "is_magnetic",
    "ordering",
    "total_magnetization_normalized_vol",
    "total_magnetization_normalized_formula_units",
    "num_magnetic_sites",
    "num_unique_magnetic_sites",
    "types_of_magnetic_species",
    "bulk_modulus",
    "shear_modulus",
    "universal_anisotropy",
    "homogeneous_poisson",
    "e_total",
    "e_ionic",
    "e_electronic",
    "n",
    "e_ij_max",
    "weighted_surface_energy_EV_PER_ANG2",
    "weighted_surface_energy",
    "weighted_work_function",
    "surface_anisotropy",
    "shape_factor",
    "has_reconstructed",
    "possible_species",
    "has_props",
    "theoretical",
    "database_IDs"
  ]
}
