{
  "builder_meta": null,
  "nsites": null,
  "elements": null,
  "nelements": null,
  "composition": null,
  "composition_reduced": null,
  "formula_pretty": "Mn5As4",
  "formula_anonymous": "A4B5",
  "chemsys": null,
  "volume": 271.66481447466833,
  "density": 7.021703024727141,
  "density_atomic": 15.09248969303713,
  "symmetry": null,
  "property_name": null,
  "material_id": "mp-28832",
  "deprecated": null,
  "deprecation_reasons": null,
  "last_updated": null,
  "origins": null,
  "warnings": null,
  "structure": {
    "@module": "pymatgen.core.structure",
    "@class": "Structure",
    "charge": 0,
    "lattice": {
      "matrix": [
        [1.742506, -6.565573, 0.0],
        [1.742506, 6.565573, 0.0],
        [0.0, 0.0, 11.872891]
      ],
      "pbc": [true, true, true],
      "a": 6.792869495166604,
      "b": 6.792869495166604,
      "c": 11.872891,
      "alpha": 90.0,
      "beta": 90.0,
      "gamma": 150.27267346288141,
      "volume": 271.66481447466833
    },
    "properties": {},
    "sites": [
      {
        "species": [{ "element": "Mn", "occu": 1 }],
        "abc": [0.97684, 0.023160000000000004, 0.294556],
        "properties": { "magmom": 2.824 },
        "label": "Mn",
        "xyz": [1.742506, -6.26145565864, 3.4972312813959996]
      },
      {
        "species": [{ "element": "Mn", "occu": 1 }],
        "abc": [0.023160000000000004, 0.97684, 0.794555999999999],
        "properties": { "magmom": 2.819 },
        "label": "Mn",
        "xyz": [1.742506, 6.26145565864, 9.433676781395988]
      },
      {
        "species": [{ "element": "Mn", "occu": 1 }],
        "abc": [0.831336, 0.168663999999999, 0.86953],
        "properties": { "magmom": -0.051000000000000004 },
        "label": "Mn",
        "xyz": [1.7425059999999983, -4.350821391056006, 10.32383491123]
      },
      {
        "species": [{ "element": "Mn", "occu": 1 }],
        "abc": [0.168663999999999, 0.831336, 0.36953],
        "properties": { "magmom": -0.05 },
        "label": "Mn",
        "xyz": [1.7425059999999983, 4.350821391056006, 4.38738941123]
      },
      {
        "species": [{ "element": "Mn", "occu": 1 }],
        "abc": [0.628809, 0.371191, 0.016694],
        "properties": { "magmom": -0.217 },
        "label": "Mn",
        "xyz": [1.742506, -1.6914097851139998, 0.198206042354]
      },
      {
        "species": [{ "element": "Mn", "occu": 1 }],
        "abc": [0.371191, 0.628809, 0.516694],
        "properties": { "magmom": -0.212 },
        "label": "Mn",
        "xyz": [1.742506, 1.6914097851139998, 6.134651542354]
      },
      {
        "species": [{ "element": "Mn", "occu": 1 }],
        "abc": [0.55964, 0.44036000000000003, 0.626737],
        "properties": { "magmom": -0.113 },
        "label": "Mn",
        "xyz": [1.742506, -0.7831415474400001, 7.441180086666999]
      },
      {
        "species": [{ "element": "Mn", "occu": 1 }],
        "abc": [0.44036000000000003, 0.55964, 0.126737],
        "properties": { "magmom": -0.117 },
        "label": "Mn",
        "xyz": [1.742506, 0.7831415474400001, 1.5047345866669997]
      },
      {
        "species": [{ "element": "Mn", "occu": 1 }],
        "abc": [0.222157, 0.777843, 0.680736],
        "properties": { "magmom": 0.08 },
        "label": "Mn",
        "xyz": [1.7425059999999999, 3.6483969980779998, 8.082304327775999]
      },
      {
        "species": [{ "element": "Mn", "occu": 1 }],
        "abc": [0.777843, 0.222157, 0.180735999999999],
        "properties": { "magmom": 0.089 },
        "label": "Mn",
        "xyz": [1.7425059999999999, -3.6483969980779998, 2.1458588277759882]
      },
      {
        "species": [{ "element": "As", "occu": 1 }],
        "abc": [0.989771, 0.010229, 0.996405],
        "properties": { "magmom": -0.014 },
        "label": "As",
        "xyz": [1.742506, -6.431254507566, 11.830207956854998]
      },
      {
        "species": [{ "element": "As", "occu": 1 }],
        "abc": [0.010229, 0.989771, 0.496405],
        "properties": { "magmom": -0.014 },
        "label": "As",
        "xyz": [1.742506, 6.431254507566, 5.893762456855]
      },
      {
        "species": [{ "element": "As", "occu": 1 }],
        "abc": [0.729487, 0.270513, 0.525242],
        "properties": { "magmom": -0.023 },
        "label": "As",
        "xyz": [1.742506, -3.0134273021019995, 6.2361410146219995]
      },
      {
        "species": [{ "element": "As", "occu": 1 }],
        "abc": [0.270513, 0.729487, 0.025242],
        "properties": { "magmom": -0.024 },
        "label": "As",
        "xyz": [1.742506, 3.0134273021019995, 0.299695514622]
      },
      {
        "species": [{ "element": "As", "occu": 1 }],
        "abc": [0.655142, 0.344858, 0.807168],
        "properties": { "magmom": -0.041 },
        "label": "As",
        "xyz": [1.742506, -2.0371922527320003, 9.583417682688]
      },
      {
        "species": [{ "element": "As", "occu": 1 }],
        "abc": [0.344858, 0.655142, 0.307168],
        "properties": { "magmom": -0.042 },
        "label": "As",
        "xyz": [1.742506, 2.0371922527320003, 3.6469721826879997]
      },
      {
        "species": [{ "element": "As", "occu": 1 }],
        "abc": [0.399789, 0.600210999999999, 0.732031],
        "properties": { "magmom": -0.042 },
        "label": "As",
        "xyz": [1.7425059999999983, 1.3158852718059935, 8.691324271621]
      },
      {
        "species": [{ "element": "As", "occu": 1 }],
        "abc": [0.600210999999999, 0.399789, 0.232031],
        "properties": { "magmom": -0.042 },
        "label": "As",
        "xyz": [1.7425059999999983, -1.3158852718059935, 2.7548787716209997]
      }
    ]
  },
  "task_ids": null,
  "uncorrected_energy_per_atom": null,
  "energy_per_atom": -7.135153547777778,
  "formation_energy_per_atom": 0.030464962260536,
  "energy_above_hull": 0.26608323134099604,
  "is_stable": false,
  "equilibrium_reaction_energy_per_atom": null,
  "decomposes_to": null,
  "xas": null,
  "grain_boundaries": null,
  "band_gap": 0.0,
  "cbm": null,
  "vbm": null,
  "efermi": 6.06065431,
  "is_gap_direct": null,
  "is_metal": null,
  "es_source_calc_id": null,
  "bandstructure": null,
  "dos": null,
  "dos_energy_up": null,
  "dos_energy_down": null,
  "is_magnetic": null,
  "ordering": null,
  "total_magnetization": 4.8312086,
  "total_magnetization_normalized_vol": null,
  "total_magnetization_normalized_formula_units": null,
  "num_magnetic_sites": null,
  "num_unique_magnetic_sites": null,
  "types_of_magnetic_species": null,
  "bulk_modulus": null,
  "shear_modulus": null,
  "universal_anisotropy": null,
  "homogeneous_poisson": null,
  "e_total": null,
  "e_ionic": null,
  "e_electronic": null,
  "n": null,
  "e_ij_max": null,
  "weighted_surface_energy_EV_PER_ANG2": null,
  "weighted_surface_energy": null,
  "weighted_work_function": null,
  "surface_anisotropy": null,
  "shape_factor": null,
  "has_reconstructed": null,
  "possible_species": null,
  "has_props": null,
  "theoretical": null,
  "database_IDs": null,
  "fields_not_requested": [
    "builder_meta",
    "nsites",
    "elements",
    "nelements",
    "composition",
    "composition_reduced",
    "chemsys",
    "symmetry",
    "property_name",
    "deprecated",
    "deprecation_reasons",
    "last_updated",
    "origins",
    "warnings",
    "task_ids",
    "uncorrected_energy_per_atom",
    "equilibrium_reaction_energy_per_atom",
    "decomposes_to",
    "xas",
    "grain_boundaries",
    "cbm",
    "vbm",
    "is_gap_direct",
    "is_metal",
    "es_source_calc_id",
    "bandstructure",
    "dos",
    "dos_energy_up",
    "dos_energy_down",
    "is_magnetic",
    "ordering",
    "total_magnetization_normalized_vol",
    "total_magnetization_normalized_formula_units",
    "num_magnetic_sites",
    "num_unique_magnetic_sites",
    "types_of_magnetic_species",
    "bulk_modulus",
    "shear_modulus",
    "universal_anisotropy",
    "homogeneous_poisson",
    "e_total",
    "e_ionic",
    "e_electronic",
    "n",
    "e_ij_max",
    "weighted_surface_energy_EV_PER_ANG2",
    "weighted_surface_energy",
    "weighted_work_function",
    "surface_anisotropy",
    "shape_factor",
    "has_reconstructed",
    "possible_species",
    "has_props",
    "theoretical",
    "database_IDs"
  ]
}
