{
  "builder_meta": null,
  "nsites": null,
  "elements": null,
  "nelements": null,
  "composition": null,
  "composition_reduced": null,
  "formula_pretty": "Mn5C2",
  "formula_anonymous": "A2B5",
  "chemsys": null,
  "volume": 128.87673805832551,
  "density": 7.697623798261953,
  "density_atomic": 9.205481289880394,
  "symmetry": null,
  "property_name": null,
  "material_id": "mp-22749",
  "deprecated": null,
  "deprecation_reasons": null,
  "last_updated": null,
  "origins": null,
  "warnings": null,
  "structure": {
    "@module": "pymatgen.core.structure",
    "@class": "Structure",
    "charge": 0,
    "lattice": {
      "matrix": [
        [2.237235, 5.812146, 0.0],
        [-2.237235, 5.812146, 0.0],
        [0.0, 0.645247999999999, 4.955602]
      ],
      "pbc": [true, true, true],
      "a": 6.227861717358615,
      "b": 6.227861717358615,
      "c": 4.997432957420039,
      "alpha": 83.07919710370882,
      "beta": 83.07919710370882,
      "gamma": 42.10583508460406,
      "volume": 128.87673805832551
    },
    "properties": {},
    "sites": [
      {
        "species": [{ "element": "Mn", "occu": 1 }],
        "abc": [0.626097999999999, 0.806732999999999, 0.6934600000000001],
        "properties": { "magmom": -0.198 },
        "label": "Mn",
        "xyz": [-0.40412294422500006, 8.775276643405988, 3.4365117629200004]
      },
      {
        "species": [{ "element": "Mn", "occu": 1 }],
        "abc": [0.193267, 0.373901999999999, 0.80654],
        "properties": { "magmom": -0.198 },
        "label": "Mn",
        "xyz": [-0.40412294422499784, 3.816887356593994, 3.99689123708]
      },
      {
        "species": [{ "element": "Mn", "occu": 1 }],
        "abc": [0.373901999999999, 0.193267, 0.30654000000000003],
        "properties": { "magmom": -0.198 },
        "label": "Mn",
        "xyz": [0.40412294422499784, 3.494263356593994, 1.5190902370800001]
      },
      {
        "species": [{ "element": "Mn", "occu": 1 }],
        "abc": [0.806732999999999, 0.626097999999999, 0.19346000000000002],
        "properties": { "magmom": -0.198 },
        "label": "Mn",
        "xyz": [0.40412294422500006, 8.452652643405989, 0.9587107629200001]
      },
      {
        "species": [{ "element": "Mn", "occu": 1 }],
        "abc": [0.430608, 0.569392, 0.75],
        "properties": { "magmom": -0.7000000000000001 },
        "label": "Mn",
        "xyz": [-0.31049242223999995, 6.296081999999999, 3.7167015]
      },
      {
        "species": [{ "element": "Mn", "occu": 1 }],
        "abc": [0.569392, 0.430608, 0.25],
        "properties": { "magmom": -0.7000000000000001 },
        "label": "Mn",
        "xyz": [0.31049242223999995, 5.973458, 1.2389005]
      },
      {
        "species": [{ "element": "Mn", "occu": 1 }],
        "abc": [0.189139, 0.011772, 0.080774],
        "properties": { "magmom": 1.649 },
        "label": "Mn",
        "xyz": [0.39681166024500003, 1.2198433269579998, 0.40028379594799995]
      },
      {
        "species": [{ "element": "Mn", "occu": 1 }],
        "abc": [0.988228, 0.810860999999999, 0.419226],
        "properties": { "magmom": 1.649 },
        "label": "Mn",
        "xyz": [0.39681166024500203, 10.727072673041995, 2.077517204052]
      },
      {
        "species": [{ "element": "Mn", "occu": 1 }],
        "abc": [0.810860999999999, 0.988228, 0.919226],
        "properties": { "magmom": 1.649 },
        "label": "Mn",
        "xyz": [-0.39681166024500203, 11.049696673041995, 4.555318204052]
      },
      {
        "species": [{ "element": "Mn", "occu": 1 }],
        "abc": [0.011772, 0.189139, 0.580774],
        "properties": { "magmom": 1.649 },
        "label": "Mn",
        "xyz": [-0.39681166024500003, 1.5424673269579994, 2.878084795948]
      },
      {
        "species": [{ "element": "C", "occu": 1 }],
        "abc": [0.430164, 0.796315999999999, 0.421384],
        "properties": { "magmom": 0.002 },
        "label": "C",
        "xyz": [-0.8191680697199978, 7.400378009311995, 2.0882113931679998]
      },
      {
        "species": [{ "element": "C", "occu": 1 }],
        "abc": [0.203684, 0.569836, 0.078615999999999],
        "properties": { "magmom": 0.002 },
        "label": "C",
        "xyz": [-0.8191680697200001, 4.546537990687999, 0.38958960683199506]
      },
      {
        "species": [{ "element": "C", "occu": 1 }],
        "abc": [0.569836, 0.203684, 0.578616],
        "properties": { "magmom": 0.002 },
        "label": "C",
        "xyz": [0.8191680697200001, 4.869161990687999, 2.867390606832]
      },
      {
        "species": [{ "element": "C", "occu": 1 }],
        "abc": [0.796315999999999, 0.430164, 0.921384],
        "properties": { "magmom": 0.002 },
        "label": "C",
        "xyz": [0.8191680697199978, 7.723002009311994, 4.566012393168]
      }
    ]
  },
  "task_ids": null,
  "uncorrected_energy_per_atom": null,
  "energy_per_atom": -9.248062246428573,
  "formation_energy_per_atom": -0.067004039950741,
  "energy_above_hull": 0.01772275065217,
  "is_stable": false,
  "equilibrium_reaction_energy_per_atom": null,
  "decomposes_to": null,
  "xas": null,
  "grain_boundaries": null,
  "band_gap": 0.0,
  "cbm": null,
  "vbm": null,
  "efermi": 7.53468823,
  "is_gap_direct": null,
  "is_metal": null,
  "es_source_calc_id": null,
  "bandstructure": null,
  "dos": null,
  "dos_energy_up": null,
  "dos_energy_down": null,
  "is_magnetic": null,
  "ordering": null,
  "total_magnetization": 4.4661991,
  "total_magnetization_normalized_vol": null,
  "total_magnetization_normalized_formula_units": null,
  "num_magnetic_sites": null,
  "num_unique_magnetic_sites": null,
  "types_of_magnetic_species": null,
  "bulk_modulus": null,
  "shear_modulus": null,
  "universal_anisotropy": null,
  "homogeneous_poisson": null,
  "e_total": null,
  "e_ionic": null,
  "e_electronic": null,
  "n": null,
  "e_ij_max": null,
  "weighted_surface_energy_EV_PER_ANG2": null,
  "weighted_surface_energy": null,
  "weighted_work_function": null,
  "surface_anisotropy": null,
  "shape_factor": null,
  "has_reconstructed": null,
  "possible_species": null,
  "has_props": null,
  "theoretical": null,
  "database_IDs": null,
  "fields_not_requested": [
    "builder_meta",
    "nsites",
    "elements",
    "nelements",
    "composition",
    "composition_reduced",
    "chemsys",
    "symmetry",
    "property_name",
    "deprecated",
    "deprecation_reasons",
    "last_updated",
    "origins",
    "warnings",
    "task_ids",
    "uncorrected_energy_per_atom",
    "equilibrium_reaction_energy_per_atom",
    "decomposes_to",
    "xas",
    "grain_boundaries",
    "cbm",
    "vbm",
    "is_gap_direct",
    "is_metal",
    "es_source_calc_id",
    "bandstructure",
    "dos",
    "dos_energy_up",
    "dos_energy_down",
    "is_magnetic",
    "ordering",
    "total_magnetization_normalized_vol",
    "total_magnetization_normalized_formula_units",
    "num_magnetic_sites",
    "num_unique_magnetic_sites",
    "types_of_magnetic_species",
    "bulk_modulus",
    "shear_modulus",
    "universal_anisotropy",
    "homogeneous_poisson",
    "e_total",
    "e_ionic",
    "e_electronic",
    "n",
    "e_ij_max",
    "weighted_surface_energy_EV_PER_ANG2",
    "weighted_surface_energy",
    "weighted_work_function",
    "surface_anisotropy",
    "shape_factor",
    "has_reconstructed",
    "possible_species",
    "has_props",
    "theoretical",
    "database_IDs"
  ]
}
