{
  "builder_meta": null,
  "nsites": null,
  "elements": null,
  "nelements": null,
  "composition": null,
  "composition_reduced": null,
  "formula_pretty": "Mn5Ge2",
  "formula_anonymous": "A2B5",
  "chemsys": null,
  "volume": 527.6146897556413,
  "density": 7.930525578174567,
  "density_atomic": 12.562254517991459,
  "symmetry": null,
  "property_name": null,
  "material_id": "mp-704981",
  "deprecated": null,
  "deprecation_reasons": null,
  "last_updated": null,
  "origins": null,
  "warnings": null,
  "structure": {
    "@module": "pymatgen.core.structure",
    "@class": "Structure",
    "charge": 0,
    "lattice": {
      "matrix": [
        [3.478384, -6.024739, 0.0],
        [3.478384, 6.024739, 0.0],
        [0.0, 0.0, 12.588417]
      ],
      "pbc": [true, true, true],
      "a": 6.956769025170881,
      "b": 6.956769025170881,
      "c": 12.588417,
      "alpha": 90.0,
      "beta": 90.0,
      "gamma": 120.00000974946238,
      "volume": 527.6146897556413
    },
    "properties": {},
    "sites": [
      {
        "species": [{ "element": "Mn", "occu": 1 }],
        "abc": [0.302984, 0.302984, 0.889752999999999],
        "properties": { "magmom": 1.358 },
        "label": "Mn",
        "xyz": [2.107789395712, 0.0, 11.200581791000987]
      },
      {
        "species": [{ "element": "Mn", "occu": 1 }],
        "abc": [0.0, 0.366533999999999, 0.999988],
        "properties": { "magmom": 1.795 },
        "label": "Mn",
        "xyz": [1.2749460010559968, 2.2082716846259944, 12.588265938995999]
      },
      {
        "species": [{ "element": "Mn", "occu": 1 }],
        "abc": [0.0, 0.0, 0.769112999999999],
        "properties": { "magmom": 2.294 },
        "label": "Mn",
        "xyz": [0.0, 0.0, 9.681915164120987]
      },
      {
        "species": [{ "element": "Mn", "occu": 1 }],
        "abc": [0.366533999999999, 0.366533999999999, 0.499988],
        "properties": { "magmom": 1.802 },
        "label": "Mn",
        "xyz": [2.5498920021119935, 0.0, 6.294057438996]
      },
      {
        "species": [{ "element": "Mn", "occu": 1 }],
        "abc": [0.298106, 0.0, 0.59635],
        "properties": { "magmom": 1.005 },
        "label": "Mn",
        "xyz": [1.036927140704, -1.796010844334, 7.50710247795]
      },
      {
        "species": [{ "element": "Mn", "occu": 1 }],
        "abc": [0.701894, 0.0, 0.09635],
        "properties": { "magmom": 1.005 },
        "label": "Mn",
        "xyz": [2.441456859296, -4.228728155666, 1.21289397795]
      },
      {
        "species": [{ "element": "Mn", "occu": 1 }],
        "abc": [0.0, 0.298106, 0.59635],
        "properties": { "magmom": 1.005 },
        "label": "Mn",
        "xyz": [1.036927140704, 1.796010844334, 7.50710247795]
      },
      {
        "species": [{ "element": "Mn", "occu": 1 }],
        "abc": [0.0, 0.357961, 0.793677],
        "properties": { "magmom": 1.984999999999999 },
        "label": "Mn",
        "xyz": [1.2451258150239999, 2.156621597179, 9.991137039308999]
      },
      {
        "species": [{ "element": "Mn", "occu": 1 }],
        "abc": [0.0, 0.0, 0.269113],
        "properties": { "magmom": 2.294 },
        "label": "Mn",
        "xyz": [0.0, 0.0, 3.3877066641209996]
      },
      {
        "species": [{ "element": "Mn", "occu": 1 }],
        "abc": [0.357961, 0.0, 0.793677],
        "properties": { "magmom": 1.986 },
        "label": "Mn",
        "xyz": [1.2451258150239999, -2.156621597179, 9.991137039308999]
      },
      {
        "species": [{ "element": "Mn", "occu": 1 }],
        "abc": [0.0, 0.642039, 0.293676999999999],
        "properties": { "magmom": 1.99 },
        "label": "Mn",
        "xyz": [2.233258184976, 3.8681174028210004, 3.6969285393089875]
      },
      {
        "species": [{ "element": "Mn", "occu": 1 }],
        "abc": [0.357961, 0.357961, 0.293676999999999],
        "properties": { "magmom": 1.991 },
        "label": "Mn",
        "xyz": [2.4902516300479998, 0.0, 3.6969285393089875]
      },
      {
        "species": [{ "element": "Mn", "occu": 1 }],
        "abc": [0.633466, 0.0, 0.499988],
        "properties": { "magmom": 1.8010000000000002 },
        "label": "Mn",
        "xyz": [2.203437998944, -3.816467315374, 6.294057438996]
      },
      {
        "species": [{ "element": "Mn", "occu": 1 }],
        "abc": [0.302984, 0.0, 0.389752999999999],
        "properties": { "magmom": 1.355 },
        "label": "Mn",
        "xyz": [1.053894697856, -1.825399521176, 4.906373291000987]
      },
      {
        "species": [{ "element": "Mn", "occu": 1 }],
        "abc": [0.0, 0.701894, 0.09635],
        "properties": { "magmom": 1.005 },
        "label": "Mn",
        "xyz": [2.441456859296, 4.228728155666, 1.21289397795]
      },
      {
        "species": [{ "element": "Mn", "occu": 1 }],
        "abc": [0.333333, 0.666667, 0.118069],
        "properties": { "magmom": 2.121 },
        "label": "Mn",
        "xyz": [3.478384, 2.008250349826, 1.4863018067729998]
      },
      {
        "species": [{ "element": "Mn", "occu": 1 }],
        "abc": [0.366533999999999, 0.0, 0.999988],
        "properties": { "magmom": 1.795 },
        "label": "Mn",
        "xyz": [1.2749460010559968, -2.2082716846259944, 12.588265938995999]
      },
      {
        "species": [{ "element": "Mn", "occu": 1 }],
        "abc": [0.666667, 0.333333, 0.118069],
        "properties": { "magmom": 2.121 },
        "label": "Mn",
        "xyz": [3.478384, -2.008250349826, 1.4863018067729998]
      },
      {
        "species": [{ "element": "Mn", "occu": 1 }],
        "abc": [0.642039, 0.0, 0.293676999999999],
        "properties": { "magmom": 1.99 },
        "label": "Mn",
        "xyz": [2.233258184976, -3.8681174028210004, 3.6969285393089875]
      },
      {
        "species": [{ "element": "Mn", "occu": 1 }],
        "abc": [0.0, 0.633466, 0.499988],
        "properties": { "magmom": 1.8010000000000002 },
        "label": "Mn",
        "xyz": [2.203437998944, 3.816467315374, 6.294057438996]
      },
      {
        "species": [{ "element": "Mn", "occu": 1 }],
        "abc": [0.0, 0.302984, 0.389752999999999],
        "properties": { "magmom": 1.357 },
        "label": "Mn",
        "xyz": [1.053894697856, 1.825399521176, 4.906373291000987]
      },
      {
        "species": [{ "element": "Mn", "occu": 1 }],
        "abc": [0.642039, 0.642039, 0.793677],
        "properties": { "magmom": 1.986 },
        "label": "Mn",
        "xyz": [4.466516369952, 0.0, 9.991137039308999]
      },
      {
        "species": [{ "element": "Mn", "occu": 1 }],
        "abc": [0.701894, 0.701894, 0.59635],
        "properties": { "magmom": 1.005 },
        "label": "Mn",
        "xyz": [4.882913718592, 0.0, 7.50710247795]
      },
      {
        "species": [{ "element": "Mn", "occu": 1 }],
        "abc": [0.633466, 0.633466, 0.999988],
        "properties": { "magmom": 1.796 },
        "label": "Mn",
        "xyz": [4.406875997888, 0.0, 12.588265938995999]
      },
      {
        "species": [{ "element": "Mn", "occu": 1 }],
        "abc": [0.298106, 0.298106, 0.09635],
        "properties": { "magmom": 1.005 },
        "label": "Mn",
        "xyz": [2.073854281408, 0.0, 1.21289397795]
      },
      {
        "species": [{ "element": "Mn", "occu": 1 }],
        "abc": [0.666667, 0.333333, 0.618069],
        "properties": { "magmom": 2.119 },
        "label": "Mn",
        "xyz": [3.478384, -2.008250349826, 7.7805103067729995]
      },
      {
        "species": [{ "element": "Mn", "occu": 1 }],
        "abc": [0.0, 0.697016, 0.889752999999999],
        "properties": { "magmom": 1.359 },
        "label": "Mn",
        "xyz": [2.424489302144, 4.199339478824, 11.200581791000987]
      },
      {
        "species": [{ "element": "Mn", "occu": 1 }],
        "abc": [0.697016, 0.0, 0.889752999999999],
        "properties": { "magmom": 1.358 },
        "label": "Mn",
        "xyz": [2.424489302144, -4.199339478824, 11.200581791000987]
      },
      {
        "species": [{ "element": "Mn", "occu": 1 }],
        "abc": [0.333333, 0.666667, 0.618069],
        "properties": { "magmom": 2.119 },
        "label": "Mn",
        "xyz": [3.478384, 2.008250349826, 7.7805103067729995]
      },
      {
        "species": [{ "element": "Mn", "occu": 1 }],
        "abc": [0.697016, 0.697016, 0.389752999999999],
        "properties": { "magmom": 1.355999999999999 },
        "label": "Mn",
        "xyz": [4.848978604288, 0.0, 4.906373291000987]
      },
      {
        "species": [{ "element": "Ge", "occu": 1 }],
        "abc": [0.333333, 0.666667, 0.408562999999999],
        "properties": { "magmom": -0.078 },
        "label": "Ge",
        "xyz": [3.478384, 2.008250349826, 5.143161414770987]
      },
      {
        "species": [{ "element": "Ge", "occu": 1 }],
        "abc": [0.0, 0.0, 0.982125999999999],
        "properties": { "magmom": -0.064 },
        "label": "Ge",
        "xyz": [0.0, 0.0, 12.363411634541988]
      },
      {
        "species": [{ "element": "Ge", "occu": 1 }],
        "abc": [0.666667, 0.333333, 0.908563],
        "properties": { "magmom": -0.078 },
        "label": "Ge",
        "xyz": [3.478384, -2.008250349826, 11.437369914771]
      },
      {
        "species": [{ "element": "Ge", "occu": 1 }],
        "abc": [0.33199, 0.33199, 0.695469],
        "properties": { "magmom": -0.094 },
        "label": "Ge",
        "xyz": [2.30957740832, 0.0, 8.754853782572999]
      },
      {
        "species": [{ "element": "Ge", "occu": 1 }],
        "abc": [0.0, 0.6680100000000001, 0.695469],
        "properties": { "magmom": -0.094 },
        "label": "Ge",
        "xyz": [2.3235952958400006, 4.024585899390001, 8.754853782572999]
      },
      {
        "species": [{ "element": "Ge", "occu": 1 }],
        "abc": [0.6680100000000001, 0.0, 0.695469],
        "properties": { "magmom": -0.094 },
        "label": "Ge",
        "xyz": [2.3235952958400006, -4.024585899390001, 8.754853782572999]
      },
      {
        "species": [{ "element": "Ge", "occu": 1 }],
        "abc": [0.6680100000000001, 0.6680100000000001, 0.195469],
        "properties": { "magmom": -0.094 },
        "label": "Ge",
        "xyz": [4.647190591680001, 0.0, 2.460645282573]
      },
      {
        "species": [{ "element": "Ge", "occu": 1 }],
        "abc": [0.0, 0.33199, 0.195469],
        "properties": { "magmom": -0.094 },
        "label": "Ge",
        "xyz": [1.15478870416, 2.00015310061, 2.460645282573]
      },
      {
        "species": [{ "element": "Ge", "occu": 1 }],
        "abc": [0.33199, 0.0, 0.195469],
        "properties": { "magmom": -0.094 },
        "label": "Ge",
        "xyz": [1.15478870416, -2.00015310061, 2.460645282573]
      },
      {
        "species": [{ "element": "Ge", "occu": 1 }],
        "abc": [0.0, 0.0, 0.482126],
        "properties": { "magmom": -0.064 },
        "label": "Ge",
        "xyz": [0.0, 0.0, 6.069203134542]
      },
      {
        "species": [{ "element": "Ge", "occu": 1 }],
        "abc": [0.666667, 0.333333, 0.408562999999999],
        "properties": { "magmom": -0.078 },
        "label": "Ge",
        "xyz": [3.478384, -2.008250349826, 5.143161414770987]
      },
      {
        "species": [{ "element": "Ge", "occu": 1 }],
        "abc": [0.333333, 0.666667, 0.908563],
        "properties": { "magmom": -0.078 },
        "label": "Ge",
        "xyz": [3.478384, 2.008250349826, 11.437369914771]
      }
    ]
  },
  "task_ids": null,
  "uncorrected_energy_per_atom": null,
  "energy_per_atom": -7.891110062380952,
  "formation_energy_per_atom": -0.025948323760262,
  "energy_above_hull": 0.058194627083334005,
  "is_stable": false,
  "equilibrium_reaction_energy_per_atom": null,
  "decomposes_to": null,
  "xas": null,
  "grain_boundaries": null,
  "band_gap": 0.0,
  "cbm": null,
  "vbm": null,
  "efermi": 6.02921872,
  "is_gap_direct": null,
  "is_metal": null,
  "es_source_calc_id": null,
  "bandstructure": null,
  "dos": null,
  "dos_energy_up": null,
  "dos_energy_down": null,
  "is_magnetic": null,
  "ordering": null,
  "total_magnetization": 49.9939112,
  "total_magnetization_normalized_vol": null,
  "total_magnetization_normalized_formula_units": null,
  "num_magnetic_sites": null,
  "num_unique_magnetic_sites": null,
  "types_of_magnetic_species": null,
  "bulk_modulus": null,
  "shear_modulus": null,
  "universal_anisotropy": null,
  "homogeneous_poisson": null,
  "e_total": null,
  "e_ionic": null,
  "e_electronic": null,
  "n": null,
  "e_ij_max": null,
  "weighted_surface_energy_EV_PER_ANG2": null,
  "weighted_surface_energy": null,
  "weighted_work_function": null,
  "surface_anisotropy": null,
  "shape_factor": null,
  "has_reconstructed": null,
  "possible_species": null,
  "has_props": null,
  "theoretical": null,
  "database_IDs": null,
  "fields_not_requested": [
    "builder_meta",
    "nsites",
    "elements",
    "nelements",
    "composition",
    "composition_reduced",
    "chemsys",
    "symmetry",
    "property_name",
    "deprecated",
    "deprecation_reasons",
    "last_updated",
    "origins",
    "warnings",
    "task_ids",
    "uncorrected_energy_per_atom",
    "equilibrium_reaction_energy_per_atom",
    "decomposes_to",
    "xas",
    "grain_boundaries",
    "cbm",
    "vbm",
    "is_gap_direct",
    "is_metal",
    "es_source_calc_id",
    "bandstructure",
    "dos",
    "dos_energy_up",
    "dos_energy_down",
    "is_magnetic",
    "ordering",
    "total_magnetization_normalized_vol",
    "total_magnetization_normalized_formula_units",
    "num_magnetic_sites",
    "num_unique_magnetic_sites",
    "types_of_magnetic_species",
    "bulk_modulus",
    "shear_modulus",
    "universal_anisotropy",
    "homogeneous_poisson",
    "e_total",
    "e_ionic",
    "e_electronic",
    "n",
    "e_ij_max",
    "weighted_surface_energy_EV_PER_ANG2",
    "weighted_surface_energy",
    "weighted_work_function",
    "surface_anisotropy",
    "shape_factor",
    "has_reconstructed",
    "possible_species",
    "has_props",
    "theoretical",
    "database_IDs"
  ]
}
