{
  "builder_meta": null,
  "nsites": null,
  "elements": null,
  "nelements": null,
  "composition": null,
  "composition_reduced": null,
  "formula_pretty": "Mn5Ge3",
  "formula_anonymous": "A3B5",
  "chemsys": null,
  "volume": 224.44004777154433,
  "density": 7.289238541347574,
  "density_atomic": 14.02750298572152,
  "symmetry": null,
  "property_name": null,
  "material_id": "mp-617291",
  "deprecated": null,
  "deprecation_reasons": null,
  "last_updated": null,
  "origins": null,
  "warnings": null,
  "structure": {
    "@module": "pymatgen.core.structure",
    "@class": "Structure",
    "charge": 0,
    "lattice": {
      "matrix": [
        [7.19772559, 0.00103612, 3.9720000000000006e-5],
        [-3.59794994, 6.23846748, -0.00014712000000000001],
        [7.882000000000003e-5, -5.8e-7, 4.99794068]
      ],
      "pbc": [true, true, true],
      "a": 7.197725664684865,
      "b": 7.201647054070884,
      "c": 4.997940680621549,
      "alpha": 90.00162766664735,
      "beta": 89.9987802365527,
      "gamma": 119.965356909462,
      "volume": 224.44004777154436
    },
    "properties": {},
    "sites": [
      {
        "species": [{ "element": "Mn", "occu": 1 }],
        "abc": [0.24166355, 0.24148838, 0.75000469],
        "properties": { "magmom": 3.525 },
        "label": "Mn",
        "xyz": [0.8706239310432132, 1.506767362862588, 3.7484530214475296]
      },
      {
        "species": [{ "element": "Mn", "occu": 1 }],
        "abc": [0.00024165, 0.75875992, 0.7500392],
        "properties": { "magmom": 3.526 },
        "label": "Mn",
        "xyz": [-2.728181760159837, 4.733498901403063, 3.7485398101135634]
      },
      {
        "species": [{ "element": "Mn", "occu": 1 }],
        "abc": [0.75922492, 5.4870000000000015e-5, 0.749993],
        "properties": { "magmom": 3.529 },
        "label": "Mn",
        "xyz": [5.464554330184755, 0.001128517838798, 3.748450672756588]
      },
      {
        "species": [{ "element": "Mn", "occu": 1 }],
        "abc": [0.24077575, 0.999946999999999, 0.24999968],
        "properties": { "magmom": 3.529 },
        "label": "Mn",
        "xyz": [-1.8647017664519558, 6.238386168793829, 1.2493460220691324]
      },
      {
        "species": [{ "element": "Mn", "occu": 1 }],
        "abc": [0.33333001, 0.66673405, -1.11e-6],
        "properties": { "magmom": 2.834 },
        "label": "Mn",
        "xyz": [0.0003422076110093748, 4.159744058624299, -9.03977595936e-5]
      },
      {
        "species": [{ "element": "Mn", "occu": 1 }],
        "abc": [0.75833771, 0.75850679, 0.25000355],
        "properties": { "magmom": 3.525 },
        "label": "Mn",
        "xyz": [2.7292569868387178, 4.732705526640215, 1.2494214423443106]
      },
      {
        "species": [{ "element": "Mn", "occu": 1 }],
        "abc": [0.66667178, 0.33326901000000003, -1.91e-6],
        "properties": { "magmom": 2.835 },
        "label": "Mn",
        "xyz": [3.5994353163529453, 2.0797786329425967, -3.2096400348400006e-5]
      },
      {
        "species": [{ "element": "Mn", "occu": 1 }],
        "abc": [0.99975902, 0.24124072, 0.24996031000000002],
        "properties": { "magmom": 3.526 },
        "label": "Mn",
        "xyz": [6.3280387499094, 1.5060081119106081, 1.249291020827959]
      },
      {
        "species": [{ "element": "Mn", "occu": 1 }],
        "abc": [0.33334713, 0.66674313, 0.5000045200000001],
        "properties": { "magmom": 2.834 },
        "label": "Mn",
        "xyz": [0.00047217373141081824, 4.159800431644126, 2.498908079990592]
      },
      {
        "species": [{ "element": "Mn", "occu": 1 }],
        "abc": [0.66664922, 0.33325731000000003, 0.49999789],
        "properties": { "magmom": 2.835 },
        "label": "Mn",
        "xyz": [3.599354441662168, 2.079705329498329, 2.4989372448367364]
      },
      {
        "species": [{ "element": "Ge", "occu": 1 }],
        "abc": [0.60532565, 0.99993631, 0.24997807],
        "properties": { "magmom": -0.23 },
        "label": "Ge",
        "xyz": [0.7592668379915403, 6.238697197031397, 1.2492524980657784]
      },
      {
        "species": [{ "element": "Ge", "occu": 1 }],
        "abc": [0.60573547, 0.60569765, 0.75002469],
        "properties": { "magmom": -0.23 },
        "label": "Ge",
        "xyz": [2.1807069866601028, 3.7792522718582777, 3.7485138587299898]
      },
      {
        "species": [{ "element": "Ge", "occu": 1 }],
        "abc": [0.99993497, 0.60559036, 0.25001924000000003],
        "properties": { "magmom": -0.23 },
        "label": "Ge",
        "xyz": [5.018393428994801, 3.77899167467145, 1.2495319533419285]
      },
      {
        "species": [{ "element": "Ge", "occu": 1 }],
        "abc": [0.00011665, 0.39443296, 0.74997864],
        "properties": { "magmom": -0.23 },
        "label": "Ge",
        "xyz": [-1.418251316759544, 2.4606568798759274, 3.748290729643338]
      },
      {
        "species": [{ "element": "Ge", "occu": 1 }],
        "abc": [0.39423769000000003, 0.39432832, 0.24998303],
        "properties": { "magmom": -0.23 },
        "label": "Ge",
        "xyz": [1.4188608582336109, 2.4604127333282393, 1.2493580004852687]
      },
      {
        "species": [{ "element": "Ge", "occu": 1 }],
        "abc": [0.39465083, 1.323e-5, 0.75001454],
        "properties": { "magmom": -0.23 },
        "label": "Ge",
        "xyz": [2.8405998934740766, 0.0004910055343068, 3.7485438536420577]
      }
    ]
  },
  "task_ids": null,
  "uncorrected_energy_per_atom": null,
  "energy_per_atom": -7.566618763125,
  "formation_energy_per_atom": -0.10672375995689601,
  "energy_above_hull": 0.0,
  "is_stable": true,
  "equilibrium_reaction_energy_per_atom": null,
  "decomposes_to": null,
  "xas": null,
  "grain_boundaries": null,
  "band_gap": 0.0,
  "cbm": null,
  "vbm": null,
  "efermi": 6.97617531,
  "is_gap_direct": null,
  "is_metal": null,
  "es_source_calc_id": null,
  "bandstructure": null,
  "dos": null,
  "dos_energy_up": null,
  "dos_energy_down": null,
  "is_magnetic": null,
  "ordering": null,
  "total_magnetization": 30.9349641,
  "total_magnetization_normalized_vol": null,
  "total_magnetization_normalized_formula_units": null,
  "num_magnetic_sites": null,
  "num_unique_magnetic_sites": null,
  "types_of_magnetic_species": null,
  "bulk_modulus": null,
  "shear_modulus": null,
  "universal_anisotropy": null,
  "homogeneous_poisson": null,
  "e_total": null,
  "e_ionic": null,
  "e_electronic": null,
  "n": null,
  "e_ij_max": null,
  "weighted_surface_energy_EV_PER_ANG2": null,
  "weighted_surface_energy": null,
  "weighted_work_function": null,
  "surface_anisotropy": null,
  "shape_factor": null,
  "has_reconstructed": null,
  "possible_species": null,
  "has_props": null,
  "theoretical": null,
  "database_IDs": null,
  "fields_not_requested": [
    "builder_meta",
    "nsites",
    "elements",
    "nelements",
    "composition",
    "composition_reduced",
    "chemsys",
    "symmetry",
    "property_name",
    "deprecated",
    "deprecation_reasons",
    "last_updated",
    "origins",
    "warnings",
    "task_ids",
    "uncorrected_energy_per_atom",
    "equilibrium_reaction_energy_per_atom",
    "decomposes_to",
    "xas",
    "grain_boundaries",
    "cbm",
    "vbm",
    "is_gap_direct",
    "is_metal",
    "es_source_calc_id",
    "bandstructure",
    "dos",
    "dos_energy_up",
    "dos_energy_down",
    "is_magnetic",
    "ordering",
    "total_magnetization_normalized_vol",
    "total_magnetization_normalized_formula_units",
    "num_magnetic_sites",
    "num_unique_magnetic_sites",
    "types_of_magnetic_species",
    "bulk_modulus",
    "shear_modulus",
    "universal_anisotropy",
    "homogeneous_poisson",
    "e_total",
    "e_ionic",
    "e_electronic",
    "n",
    "e_ij_max",
    "weighted_surface_energy_EV_PER_ANG2",
    "weighted_surface_energy",
    "weighted_work_function",
    "surface_anisotropy",
    "shape_factor",
    "has_reconstructed",
    "possible_species",
    "has_props",
    "theoretical",
    "database_IDs"
  ]
}
