{"builder_meta": null, "nsites": null, "elements": null, "nelements": null, "composition": null, "composition_reduced": null, "formula_pretty": "Mn5O8", "formula_anonymous": "A5B8", "chemsys": null, "volume": 135.65833629201595, "density": 4.9291101309361895, "density_atomic": 10.435256637847381, "symmetry": null, "property_name": null, "material_id": "mp-18922", "deprecated": null, "deprecation_reasons": null, "last_updated": null, "origins": null, "warnings": null, "structure": {"@module": "pymatgen.core.structure", "@class": "Structure", "charge": 0, "lattice": {"matrix": [[4.65339423, -0.00732099, -1.42641711], [-0.8434602800000001, 4.94470867, -2.77347103], [-0.01980441, -0.00876767, 5.9087575900000004]], "pbc": [true, true, true], "a": 4.867113849951799, "b": 5.7318156485846705, "c": 5.908797284056654, "alpha": 118.9899788197758, "beta": 107.23387467443085, "gamma": 90.0103241250174, "volume": 135.65833629201597}, "properties": {}, "sites": [{"species": [{"element": "Mn", "occu": 1}], "abc": [0.33870638000000003, 0.27728145, 0.55457015], "properties": {"magmom": 4.43}, "label": "Mn", "xyz": [1.33127549027602, 1.3637340357572048, 2.0246519385703836]}, {"species": [{"element": "Mn", "occu": 1}], "abc": [0.66129224, 0.72271939, 0.44542939000000004], "properties": {"magmom": 4.43}, "label": "Mn", "xyz": [2.458846928643336, 3.564890141934172, -0.31578556785892786]}, {"species": [{"element": "Mn", "occu": 1}], "abc": [3.809e-05, 0.259790099999999, 0.9999534800000001], "properties": {"magmom": 3.005}, "label": "Mn", "xyz": [-0.2387488713998533, 1.2758188188656616, 5.1879080661383945]}, {"species": [{"element": "Mn", "occu": 1}], "abc": [-3.558e-05, 0.74020913, 4.64e-05], "properties": {"magmom": 3.005}, "label": "Mn", "xyz": [-0.6245034867396838, 3.6601183563850928, -2.0526236599235537]}, {"species": [{"element": "Mn", "occu": 1}], "abc": [0.49999992, -1.41e-06, -2.7e-07], "properties": {"magmom": 3.145}, "label": "Mn", "xyz": [2.326697937354647, -0.0036674640862746, -0.7132061256570281]}, {"species": [{"element": "O", "occu": 1}], "abc": [0.06989506, 0.39472142, 0.78917368], "properties": {"magmom": 0.05}, "label": "O", "xyz": [-0.02331168964562262, 1.9443515122744761, 3.468588038749293]}, {"species": [{"element": "O", "occu": 1}], "abc": [0.93010059, 0.6052794300000001, 0.21082348], "properties": {"magmom": 0.05}, "label": "O", "xyz": [3.8134203266840085, 2.9842727574743826, -1.7597315221567948]}, {"species": [{"element": "O", "occu": 1}], "abc": [0.08791325, 0.89587603, 0.79156288], "properties": {"magmom": 0.012}, "label": "O", "xyz": [-0.36221727263484177, 4.4222621986459725, 2.067065995490141]}, {"species": [{"element": "O", "occu": 1}], "abc": [0.91208928, 0.10412788, 0.20843804], "properties": {"magmom": 0.012}, "label": "O", "xyz": [4.1523552695724915, 0.5063771185765656, -0.35820556254017344]}, {"species": [{"element": "O", "occu": 1}], "abc": [0.39891155, 0.33872828, 0.22246616], "properties": {"magmom": 0.048}, "label": "O", "xyz": [1.5661830441138724, 1.670041725544706, -0.1939687205001943]}, {"species": [{"element": "O", "occu": 1}], "abc": [0.39884197, 0.88359303, 0.2224329], "properties": {"magmom": 0.048}, "label": "O", "xyz": [1.1062881450408957, 4.364239979854276, -1.705232595068317]}, {"species": [{"element": "O", "occu": 1}], "abc": [0.60108803, 0.66127016, 0.77753491], "properties": {"magmom": 0.048}, "label": "O", "xyz": [2.2239458360678688, 3.2585705644031777, 1.902849418580809]}, {"species": [{"element": "O", "occu": 1}], "abc": [0.60116023, 0.11640511, 0.7775688], "properties": {"magmom": 0.048}, "label": "O", "xyz": [2.683853167595034, 0.5643708019763799, 3.4141141104946935]}]}, "task_ids": null, "uncorrected_energy_per_atom": null, "energy_per_atom": -8.525311958461538, "formation_energy_per_atom": -1.956560843050398, "energy_above_hull": 0.013191634455127001, "is_stable": false, "equilibrium_reaction_energy_per_atom": null, "decomposes_to": null, "xas": null, "grain_boundaries": null, "band_gap": 0.5504, "cbm": null, "vbm": null, "efermi": 3.30504007, "is_gap_direct": null, "is_metal": null, "es_source_calc_id": null, "bandstructure": null, "dos": null, "dos_energy_up": null, "dos_energy_down": null, "is_magnetic": null, "ordering": null, "total_magnetization": 18.9998356, "total_magnetization_normalized_vol": null, "total_magnetization_normalized_formula_units": null, "num_magnetic_sites": null, "num_unique_magnetic_sites": null, "types_of_magnetic_species": null, "bulk_modulus": null, "shear_modulus": null, "universal_anisotropy": null, "homogeneous_poisson": null, "e_total": null, "e_ionic": null, "e_electronic": null, "n": null, "e_ij_max": null, "weighted_surface_energy_EV_PER_ANG2": null, "weighted_surface_energy": null, "weighted_work_function": null, "surface_anisotropy": null, "shape_factor": null, "has_reconstructed": null, "possible_species": null, "has_props": null, "theoretical": null, "database_IDs": null, "fields_not_requested": ["builder_meta", "nsites", "elements", "nelements", "composition", "composition_reduced", "chemsys", "symmetry", "property_name", "deprecated", "deprecation_reasons", "last_updated", "origins", "warnings", "task_ids", "uncorrected_energy_per_atom", "equilibrium_reaction_energy_per_atom", "decomposes_to", "xas", "grain_boundaries", "cbm", "vbm", "is_gap_direct", "is_metal", "es_source_calc_id", "bandstructure", "dos", "dos_energy_up", "dos_energy_down", "is_magnetic", "ordering", "total_magnetization_normalized_vol", "total_magnetization_normalized_formula_units", "num_magnetic_sites", "num_unique_magnetic_sites", "types_of_magnetic_species", "bulk_modulus", "shear_modulus", "universal_anisotropy", "homogeneous_poisson", "e_total", "e_ionic", "e_electronic", "n", "e_ij_max", "weighted_surface_energy_EV_PER_ANG2", "weighted_surface_energy", "weighted_work_function", "surface_anisotropy", "shape_factor", "has_reconstructed", "possible_species", "has_props", "theoretical", "database_IDs"]}