{"builder_meta": null, "nsites": null, "elements": null, "nelements": null, "composition": null, "composition_reduced": null, "formula_pretty": "Mn5O7", "formula_anonymous": "A5B7", "chemsys": null, "volume": 294.95777796339917, "density": 4.353892651716696, "density_atomic": 12.289907415141633, "symmetry": null, "property_name": null, "material_id": "mp-1046066", "deprecated": null, "deprecation_reasons": null, "last_updated": null, "origins": null, "warnings": null, "structure": {"@module": "pymatgen.core.structure", "@class": "Structure", "charge": 0, "lattice": {"matrix": [[1.519768, -5.154922, 0.0], [1.519768, 5.154922, 0.0], [0.0, 0.0, 18.824804]], "pbc": [true, true, true], "a": 5.374282798653975, "b": 5.374282798653975, "c": 18.824804, "alpha": 90.0, "beta": 90.0, "gamma": 147.14698248344172, "volume": 294.95777796339917}, "properties": {}, "sites": [{"species": [{"element": "Mn", "occu": 1}], "abc": [0.73214, 0.26786000000000004, 0.576148], "properties": {"magmom": 4.293}, "label": "Mn", "xyz": [1.519768, -2.39332718616, 10.845873174992]}, {"species": [{"element": "Mn", "occu": 1}], "abc": [0.0, 0.0, 0.5], "properties": {"magmom": 4.503}, "label": "Mn", "xyz": [0.0, 0.0, 9.412402]}, {"species": [{"element": "Mn", "occu": 1}], "abc": [0.0, 0.0, 0.0], "properties": {"magmom": 4.503}, "label": "Mn", "xyz": [0.0, 0.0, 0.0]}, {"species": [{"element": "Mn", "occu": 1}], "abc": [0.26786000000000004, 0.73214, 0.423852], "properties": {"magmom": 4.293}, "label": "Mn", "xyz": [1.519768, 2.39332718616, 7.978930825008001]}, {"species": [{"element": "Mn", "occu": 1}], "abc": [0.26786000000000004, 0.73214, 0.076148], "properties": {"magmom": 4.293}, "label": "Mn", "xyz": [1.519768, 2.39332718616, 1.433471174992]}, {"species": [{"element": "Mn", "occu": 1}], "abc": [0.73214, 0.26786000000000004, 0.923852], "properties": {"magmom": 4.293}, "label": "Mn", "xyz": [1.519768, -2.39332718616, 17.391332825008]}, {"species": [{"element": "Mn", "occu": 1}], "abc": [0.528288, 0.471711999999999, 0.158098], "properties": {"magmom": 3.983}, "label": "Mn", "xyz": [1.5197679999999987, -0.2916448670720051, 2.9761638627919997]}, {"species": [{"element": "Mn", "occu": 1}], "abc": [0.471711999999999, 0.528288, 0.841901999999999], "properties": {"magmom": 3.983}, "label": "Mn", "xyz": [1.5197679999999987, 0.2916448670720051, 15.848640137207981]}, {"species": [{"element": "Mn", "occu": 1}], "abc": [0.471711999999999, 0.528288, 0.658098], "properties": {"magmom": 3.983}, "label": "Mn", "xyz": [1.5197679999999987, 0.2916448670720051, 12.388565862792]}, {"species": [{"element": "Mn", "occu": 1}], "abc": [0.528288, 0.471711999999999, 0.341902], "properties": {"magmom": 3.983}, "label": "Mn", "xyz": [1.5197679999999987, -0.2916448670720051, 6.436238137208]}, {"species": [{"element": "O", "occu": 1}], "abc": [0.357346999999999, 0.642652999999999, 0.974246], "properties": {"magmom": -0.005}, "label": "O", "xyz": [1.5197679999999971, 1.4707301761320002, 18.339989997784]}, {"species": [{"element": "O", "occu": 1}], "abc": [0.642652999999999, 0.357346999999999, 0.025754], "properties": {"magmom": -0.005}, "label": "O", "xyz": [1.5197679999999971, -1.4707301761320002, 0.484814002216]}, {"species": [{"element": "O", "occu": 1}], "abc": [0.642652999999999, 0.357346999999999, 0.474246], "properties": {"magmom": -0.005}, "label": "O", "xyz": [1.5197679999999971, -1.4707301761320002, 8.927587997784]}, {"species": [{"element": "O", "occu": 1}], "abc": [0.357346999999999, 0.642652999999999, 0.525753999999999], "properties": {"magmom": -0.005}, "label": "O", "xyz": [1.5197679999999971, 1.4707301761320002, 9.897216002215982]}, {"species": [{"element": "O", "occu": 1}], "abc": [0.851738999999999, 0.148261, 0.843675], "properties": {"magmom": -0.186}, "label": "O", "xyz": [1.5197679999999985, -3.6263742187159953, 15.8820165147]}, {"species": [{"element": "O", "occu": 1}], "abc": [0.148261, 0.851738999999999, 0.156325], "properties": {"magmom": -0.186}, "label": "O", "xyz": [1.5197679999999985, 3.6263742187159953, 2.9427874853]}, {"species": [{"element": "O", "occu": 1}], "abc": [0.148261, 0.851738999999999, 0.343675], "properties": {"magmom": -0.186}, "label": "O", "xyz": [1.5197679999999985, 3.6263742187159953, 6.4696145147]}, {"species": [{"element": "O", "occu": 1}], "abc": [0.851738999999999, 0.148261, 0.656324999999999], "properties": {"magmom": -0.186}, "label": "O", "xyz": [1.5197679999999985, -3.6263742187159953, 12.355189485299983]}, {"species": [{"element": "O", "occu": 1}], "abc": [0.092842, 0.907157999999999, 0.894883], "properties": {"magmom": -0.03}, "label": "O", "xyz": [1.5197679999999985, 4.197735463351995, 16.845997077932]}, {"species": [{"element": "O", "occu": 1}], "abc": [0.907157999999999, 0.092842, 0.105117], "properties": {"magmom": -0.03}, "label": "O", "xyz": [1.5197679999999985, -4.197735463351995, 1.978806922068]}, {"species": [{"element": "O", "occu": 1}], "abc": [0.907157999999999, 0.092842, 0.394883], "properties": {"magmom": -0.03}, "label": "O", "xyz": [1.5197679999999985, -4.197735463351995, 7.433595077932]}, {"species": [{"element": "O", "occu": 1}], "abc": [0.092842, 0.907157999999999, 0.605117], "properties": {"magmom": -0.03}, "label": "O", "xyz": [1.5197679999999985, 4.197735463351995, 11.391208922068001]}, {"species": [{"element": "O", "occu": 1}], "abc": [0.538144, 0.461856, 0.75], "properties": {"magmom": -0.249}, "label": "O", "xyz": [1.519768, -0.39325868953599974, 14.118603]}, {"species": [{"element": "O", "occu": 1}], "abc": [0.461856, 0.538144, 0.25], "properties": {"magmom": -0.249}, "label": "O", "xyz": [1.519768, 0.39325868953599974, 4.706201]}]}, "task_ids": null, "uncorrected_energy_per_atom": null, "energy_per_atom": -8.504587840000001, "formation_energy_per_atom": -1.8007708820545991, "energy_above_hull": 0.23443444307291503, "is_stable": false, "equilibrium_reaction_energy_per_atom": null, "decomposes_to": null, "xas": null, "grain_boundaries": null, "band_gap": 0.0, "cbm": null, "vbm": null, "efermi": 2.5348777, "is_gap_direct": null, "is_metal": null, "es_source_calc_id": null, "bandstructure": null, "dos": null, "dos_energy_up": null, "dos_energy_down": null, "is_magnetic": null, "ordering": null, "total_magnetization": 41.9998656, "total_magnetization_normalized_vol": null, "total_magnetization_normalized_formula_units": null, "num_magnetic_sites": null, "num_unique_magnetic_sites": null, "types_of_magnetic_species": null, "bulk_modulus": null, "shear_modulus": null, "universal_anisotropy": null, "homogeneous_poisson": null, "e_total": null, "e_ionic": null, "e_electronic": null, "n": null, "e_ij_max": null, "weighted_surface_energy_EV_PER_ANG2": null, "weighted_surface_energy": null, "weighted_work_function": null, "surface_anisotropy": null, "shape_factor": null, "has_reconstructed": null, "possible_species": null, "has_props": null, "theoretical": null, "database_IDs": null, "fields_not_requested": ["builder_meta", "nsites", "elements", "nelements", "composition", "composition_reduced", "chemsys", "symmetry", "property_name", "deprecated", "deprecation_reasons", "last_updated", "origins", "warnings", "task_ids", "uncorrected_energy_per_atom", "equilibrium_reaction_energy_per_atom", "decomposes_to", "xas", "grain_boundaries", "cbm", "vbm", "is_gap_direct", "is_metal", "es_source_calc_id", "bandstructure", "dos", "dos_energy_up", "dos_energy_down", "is_magnetic", "ordering", "total_magnetization_normalized_vol", "total_magnetization_normalized_formula_units", "num_magnetic_sites", "num_unique_magnetic_sites", "types_of_magnetic_species", "bulk_modulus", "shear_modulus", "universal_anisotropy", "homogeneous_poisson", "e_total", "e_ionic", "e_electronic", "n", "e_ij_max", "weighted_surface_energy_EV_PER_ANG2", "weighted_surface_energy", "weighted_work_function", "surface_anisotropy", "shape_factor", "has_reconstructed", "possible_species", "has_props", "theoretical", "database_IDs"]}