{"builder_meta": null, "nsites": null, "elements": null, "nelements": null, "composition": null, "composition_reduced": null, "formula_pretty": "Mn5Sb4", "formula_anonymous": "A4B5", "chemsys": null, "volume": 173.5273748960466, "density": 7.289240660617664, "density_atomic": 19.280819432894067, "symmetry": null, "property_name": null, "material_id": "mp-1221363", "deprecated": null, "deprecation_reasons": null, "last_updated": null, "origins": null, "warnings": null, "structure": {"@module": "pymatgen.core.structure", "@class": "Structure", "charge": 0, "lattice": {"matrix": [[-2.138669, -3.702382, 0.0], [-4.277337, 0.0, 0.0], [0.0, 0.0, -10.957546]], "pbc": [true, true, true], "a": 4.275691472204818, "b": 4.277337, "c": 10.957546, "alpha": 90.0, "beta": 90.0, "gamma": 59.98726049387447, "volume": 173.5273748960466}, "properties": {}, "sites": [{"species": [{"element": "Mn", "occu": 1}], "abc": [7e-06, 0.999996, 0.250081], "properties": {"magmom": 3.314}, "label": "Mn", "xyz": [-4.277334861335, -2.5916674e-05, -2.740274061226]}, {"species": [{"element": "Mn", "occu": 1}], "abc": [2.2000000000000003e-05, 0.9999889999999991, 0.748603], "properties": {"magmom": 3.355}, "label": "Mn", "xyz": [-4.277337000010997, -8.145240400000002e-05, -8.202851808238]}, {"species": [{"element": "Mn", "occu": 1}], "abc": [7e-06, 0.999996, 0.999919], "properties": {"magmom": 3.314}, "label": "Mn", "xyz": [-4.277334861335, -2.5916674e-05, -10.956658438774001]}, {"species": [{"element": "Mn", "occu": 1}], "abc": [2.2000000000000003e-05, 0.9999889999999991, 0.501397], "properties": {"magmom": 3.355}, "label": "Mn", "xyz": [-4.277337000010997, -8.145240400000002e-05, -5.494080691762]}, {"species": [{"element": "Mn", "occu": 1}], "abc": [0.333464, 0.333268, 0.125], "properties": {"magmom": 1.641}, "label": "Mn", "xyz": [-2.1386686667320003, -1.234611111248, -1.36969325]}, {"species": [{"element": "Sb", "occu": 1}], "abc": [0.332914999999999, 0.333542, 0.377208999999999], "properties": {"magmom": -0.122}, "label": "Sb", "xyz": [-2.138666527788998, -1.2325785035299963, -4.13328496911399]}, {"species": [{"element": "Sb", "occu": 1}], "abc": [0.332914999999999, 0.333542, 0.872791], "properties": {"magmom": -0.122}, "label": "Sb", "xyz": [-2.138666527788998, -1.2325785035299963, -9.563647530886]}, {"species": [{"element": "Sb", "occu": 1}], "abc": [0.666692, 0.666654, 0.125], "properties": {"magmom": -0.091}, "label": "Sb", "xyz": [-4.277337333346, -2.468348460344, -1.36969325]}, {"species": [{"element": "Sb", "occu": 1}], "abc": [0.667357, 0.666322, 0.625], "properties": {"magmom": -0.126}, "label": "Sb", "xyz": [-4.277339472347, -2.470810544374, -6.84846625]}]}, "task_ids": null, "uncorrected_energy_per_atom": null, "energy_per_atom": -19.791207243103447, "formation_energy_per_atom": -0.208769876704978, "energy_above_hull": 0.06542520467433001, "is_stable": false, "equilibrium_reaction_energy_per_atom": null, "decomposes_to": null, "xas": null, "grain_boundaries": null, "band_gap": 0.0, "cbm": null, "vbm": null, "efermi": 7.36269193, "is_gap_direct": null, "is_metal": null, "es_source_calc_id": null, "bandstructure": null, "dos": null, "dos_energy_up": null, "dos_energy_down": null, "is_magnetic": null, "ordering": null, "total_magnetization": 14.9986734, "total_magnetization_normalized_vol": null, "total_magnetization_normalized_formula_units": null, "num_magnetic_sites": null, "num_unique_magnetic_sites": null, "types_of_magnetic_species": null, "bulk_modulus": null, "shear_modulus": null, "universal_anisotropy": null, "homogeneous_poisson": null, "e_total": null, "e_ionic": null, "e_electronic": null, "n": null, "e_ij_max": null, "weighted_surface_energy_EV_PER_ANG2": null, "weighted_surface_energy": null, "weighted_work_function": null, "surface_anisotropy": null, "shape_factor": null, "has_reconstructed": null, "possible_species": null, "has_props": null, "theoretical": null, "database_IDs": null, "fields_not_requested": ["builder_meta", "nsites", "elements", "nelements", "composition", "composition_reduced", "chemsys", "symmetry", "property_name", "deprecated", "deprecation_reasons", "last_updated", "origins", "warnings", "task_ids", "uncorrected_energy_per_atom", "equilibrium_reaction_energy_per_atom", "decomposes_to", "xas", "grain_boundaries", "cbm", "vbm", "is_gap_direct", "is_metal", "es_source_calc_id", "bandstructure", "dos", "dos_energy_up", "dos_energy_down", "is_magnetic", "ordering", "total_magnetization_normalized_vol", "total_magnetization_normalized_formula_units", "num_magnetic_sites", "num_unique_magnetic_sites", "types_of_magnetic_species", "bulk_modulus", "shear_modulus", "universal_anisotropy", "homogeneous_poisson", "e_total", "e_ionic", "e_electronic", "n", "e_ij_max", "weighted_surface_energy_EV_PER_ANG2", "weighted_surface_energy", "weighted_work_function", "surface_anisotropy", "shape_factor", "has_reconstructed", "possible_species", "has_props", "theoretical", "database_IDs"]}