{"builder_meta": null, "nsites": null, "elements": null, "nelements": null, "composition": null, "composition_reduced": null, "formula_pretty": "Mn5Si2", "formula_anonymous": "A2B5", "chemsys": null, "volume": 649.2174044374738, "density": 6.770095637983421, "density_atomic": 11.59316793638346, "symmetry": null, "property_name": null, "material_id": "mp-608655", "deprecated": null, "deprecation_reasons": null, "last_updated": null, "origins": null, "warnings": null, "structure": {"@module": "pymatgen.core.structure", "@class": "Structure", "charge": 0, "lattice": {"matrix": [[8.530707, 0.0, 0.0], [0.0, 8.723737, 0.0], [0.0, 0.0, 8.723737]], "pbc": [true, true, true], "a": 8.530707, "b": 8.723737, "c": 8.723737, "alpha": 90.0, "beta": 90.0, "gamma": 90.0, "volume": 649.2174044374738}, "properties": {}, "sites": [{"species": [{"element": "Mn", "occu": 1}], "abc": [0.0, 0.8637319999999991, 0.8637319999999991], "properties": {"magmom": 1.2770000000000001}, "label": "Mn", "xyz": [0.0, 7.534970806483992, 7.534970806483992]}, {"species": [{"element": "Mn", "occu": 1}], "abc": [0.0, 0.546387, 0.546387], "properties": {"magmom": -1.9460000000000002}, "label": "Mn", "xyz": [0.0, 4.766536488219, 4.766536488219]}, {"species": [{"element": "Mn", "occu": 1}], "abc": [0.902083, 0.723699, 0.32601], "properties": {"magmom": 2.332}, "label": "Mn", "xyz": [7.695405762680999, 6.313359743163, 2.8440254993700003]}, {"species": [{"element": "Mn", "occu": 1}], "abc": [0.785621999999999, 0.456706, 0.369063], "properties": {"magmom": 0.295}, "label": "Mn", "xyz": [6.701911094753991, 3.984183030322, 3.2196085484309998]}, {"species": [{"element": "Mn", "occu": 1}], "abc": [0.25, 0.953612999999999, 0.046387], "properties": {"magmom": -1.945}, "label": "Mn", "xyz": [2.13267675, 8.319069011780991, 0.40466798821899996]}, {"species": [{"element": "Mn", "occu": 1}], "abc": [0.169726, 0.814282, 0.579616], "properties": {"magmom": 2.085}, "label": "Mn", "xyz": [1.447882776282, 7.103582011834, 5.056417544992]}, {"species": [{"element": "Mn", "occu": 1}], "abc": [0.035622, 0.130937, 0.956706], "properties": {"magmom": 0.296}, "label": "Mn", "xyz": [0.303880844754, 1.142259951569, 8.346051530321999]}, {"species": [{"element": "Mn", "occu": 1}], "abc": [0.152083, 0.17399, 0.223698999999999], "properties": {"magmom": 2.335}, "label": "Mn", "xyz": [1.2973755126809998, 1.51784300063, 1.9514912431629914]}, {"species": [{"element": "Mn", "occu": 1}], "abc": [0.080274, 0.685717999999999, 0.07961599999999901], "properties": {"magmom": 2.09}, "label": "Mn", "xyz": [0.684793973718, 5.982023488165992, 0.6945490449919913]}, {"species": [{"element": "Mn", "occu": 1}], "abc": [0.714378, 0.630937, 0.543293999999999], "properties": {"magmom": 0.294}, "label": "Mn", "xyz": [6.094149405245999, 5.504128451569, 4.739553969677992]}, {"species": [{"element": "Mn", "occu": 1}], "abc": [0.5, 0.453613, 0.453613], "properties": {"magmom": -1.945}, "label": "Mn", "xyz": [4.2653535, 3.9572005117809996, 3.9572005117809996]}, {"species": [{"element": "Mn", "occu": 1}], "abc": [0.580274, 0.314282, 0.920384], "properties": {"magmom": 2.088}, "label": "Mn", "xyz": [4.950147473717999, 2.741713511834, 8.029187955008]}, {"species": [{"element": "Mn", "occu": 1}], "abc": [0.214377999999999, 0.369063, 0.456706], "properties": {"magmom": 0.295}, "label": "Mn", "xyz": [1.8287959052459914, 3.2196085484309998, 3.984183030322]}, {"species": [{"element": "Mn", "occu": 1}], "abc": [0.073928, 0.398111999999999, 0.009259], "properties": {"magmom": 0.179}, "label": "Mn", "xyz": [0.6306581070959999, 3.4730243845439914, 0.080773080883]}, {"species": [{"element": "Mn", "occu": 1}], "abc": [0.323928, 0.490741, 0.898111999999999], "properties": {"magmom": 0.23900000000000002}, "label": "Mn", "xyz": [2.763334857096, 4.281095419116999, 7.834892884543991]}, {"species": [{"element": "Mn", "occu": 1}], "abc": [0.830274, 0.579616, 0.814282], "properties": {"magmom": 2.085}, "label": "Mn", "xyz": [7.082824223717999, 5.056417544992, 7.103582011834]}, {"species": [{"element": "Mn", "occu": 1}], "abc": [0.919725999999999, 0.07961599999999901, 0.685717999999999], "properties": {"magmom": 2.09}, "label": "Mn", "xyz": [7.845913026281991, 0.6945490449919913, 5.982023488165992]}, {"species": [{"element": "Mn", "occu": 1}], "abc": [0.5, 0.136268, 0.136268], "properties": {"magmom": 1.2810000000000001}, "label": "Mn", "xyz": [4.2653535, 1.1887661935159999, 1.1887661935159999]}, {"species": [{"element": "Mn", "occu": 1}], "abc": [0.597916999999999, 0.6739900000000001, 0.276300999999999], "properties": {"magmom": 2.331}, "label": "Mn", "xyz": [5.100654737318991, 5.879711500630001, 2.4103772568369912]}, {"species": [{"element": "Mn", "occu": 1}], "abc": [0.176071999999999, 0.10188799999999901, 0.509259], "properties": {"magmom": 0.23800000000000002}, "label": "Mn", "xyz": [1.5020186429039915, 0.8888441154559913, 4.442641580883]}, {"species": [{"element": "Mn", "occu": 1}], "abc": [0.652083, 0.82601, 0.776301], "properties": {"magmom": 2.331}, "label": "Mn", "xyz": [5.562729012680999, 7.20589399937, 6.772245756837]}, {"species": [{"element": "Mn", "occu": 1}], "abc": [0.669725999999999, 0.185718, 0.420384], "properties": {"magmom": 2.086}, "label": "Mn", "xyz": [5.713236276281991, 1.620154988166, 3.6673194550079997]}, {"species": [{"element": "Mn", "occu": 1}], "abc": [0.847916999999999, 0.223698999999999, 0.17399], "properties": {"magmom": 2.335}, "label": "Mn", "xyz": [7.233331487318991, 1.9514912431629914, 1.51784300063]}, {"species": [{"element": "Mn", "occu": 1}], "abc": [0.535621999999999, 0.869062999999999, 0.043294], "properties": {"magmom": 0.293}, "label": "Mn", "xyz": [4.569234344753991, 7.581477048430991, 0.377685469678]}, {"species": [{"element": "Mn", "occu": 1}], "abc": [0.285622, 0.543293999999999, 0.630937], "properties": {"magmom": 0.295}, "label": "Mn", "xyz": [2.436557594754, 4.739553969677992, 5.504128451569]}, {"species": [{"element": "Mn", "occu": 1}], "abc": [0.330274, 0.420384, 0.185718], "properties": {"magmom": 2.086}, "label": "Mn", "xyz": [2.817470723718, 3.6673194550079997, 1.620154988166]}, {"species": [{"element": "Mn", "occu": 1}], "abc": [0.926072, 0.009259, 0.398111999999999], "properties": {"magmom": 0.177}, "label": "Mn", "xyz": [7.900048892904, 0.080773080883, 3.4730243845439914]}, {"species": [{"element": "Mn", "occu": 1}], "abc": [0.75, 0.046387, 0.953612999999999], "properties": {"magmom": -1.945}, "label": "Mn", "xyz": [6.39803025, 0.40466798821899996, 8.319069011780991]}, {"species": [{"element": "Mn", "occu": 1}], "abc": [0.25, 0.636268, 0.363732], "properties": {"magmom": 1.282}, "label": "Mn", "xyz": [2.13267675, 5.550634693516, 3.173102306484]}, {"species": [{"element": "Mn", "occu": 1}], "abc": [0.676072, 0.898111999999999, 0.490741], "properties": {"magmom": 0.234}, "label": "Mn", "xyz": [5.767372142904, 7.834892884543991, 4.281095419116999]}, {"species": [{"element": "Mn", "occu": 1}], "abc": [0.823928, 0.509259, 0.10188799999999901], "properties": {"magmom": 0.232}, "label": "Mn", "xyz": [7.028688357096, 4.442641580883, 0.8888441154559913]}, {"species": [{"element": "Mn", "occu": 1}], "abc": [0.573928, 0.601888, 0.990741], "properties": {"magmom": 0.22}, "label": "Mn", "xyz": [4.896011607096, 5.250712615456, 8.642963919117]}, {"species": [{"element": "Mn", "occu": 1}], "abc": [0.419726, 0.920384, 0.314282], "properties": {"magmom": 2.087}, "label": "Mn", "xyz": [3.580559526282, 8.029187955008, 2.741713511834]}, {"species": [{"element": "Mn", "occu": 1}], "abc": [0.402082999999999, 0.276300999999999, 0.6739900000000001], "properties": {"magmom": 2.33}, "label": "Mn", "xyz": [3.4300522626809915, 2.4103772568369912, 5.879711500630001]}, {"species": [{"element": "Mn", "occu": 1}], "abc": [0.097916999999999, 0.32601, 0.723699], "properties": {"magmom": 2.332}, "label": "Mn", "xyz": [0.8353012373189914, 2.8440254993700003, 6.313359743163]}, {"species": [{"element": "Mn", "occu": 1}], "abc": [0.426072, 0.990741, 0.601888], "properties": {"magmom": 0.222}, "label": "Mn", "xyz": [3.634695392904, 8.642963919117, 5.250712615456]}, {"species": [{"element": "Mn", "occu": 1}], "abc": [0.464377999999999, 0.043294, 0.869062999999999], "properties": {"magmom": 0.293}, "label": "Mn", "xyz": [3.9614726552459913, 0.377685469678, 7.581477048430991]}, {"species": [{"element": "Mn", "occu": 1}], "abc": [0.75, 0.363732, 0.636268], "properties": {"magmom": 1.282}, "label": "Mn", "xyz": [6.39803025, 3.173102306484, 5.550634693516]}, {"species": [{"element": "Mn", "occu": 1}], "abc": [0.347917, 0.776301, 0.82601], "properties": {"magmom": 2.331}, "label": "Mn", "xyz": [2.9679779873189998, 6.772245756837, 7.20589399937]}, {"species": [{"element": "Mn", "occu": 1}], "abc": [0.964378, 0.956706, 0.130937], "properties": {"magmom": 0.296}, "label": "Mn", "xyz": [8.226826155246, 8.346051530321999, 1.142259951569]}, {"species": [{"element": "Si", "occu": 1}], "abc": [0.351222, 0.692722, 0.116155], "properties": {"magmom": -0.062}, "label": "Si", "xyz": [2.9961719739539996, 6.043124542114, 1.013305671235]}, {"species": [{"element": "Si", "occu": 1}], "abc": [0.898778, 0.807277999999999, 0.616155], "properties": {"magmom": -0.062}, "label": "Si", "xyz": [7.667211776045999, 7.042480957885991, 5.375174171235]}, {"species": [{"element": "Si", "occu": 1}], "abc": [0.148778, 0.883845, 0.307278], "properties": {"magmom": -0.062}, "label": "Si", "xyz": [1.269181526046, 7.710431328765, 2.6806124578859998]}, {"species": [{"element": "Si", "occu": 1}], "abc": [0.851221999999999, 0.307278, 0.883845], "properties": {"magmom": -0.062}, "label": "Si", "xyz": [7.261525473953991, 2.6806124578859998, 7.710431328765]}, {"species": [{"element": "Si", "occu": 1}], "abc": [0.048114, 0.467408999999999, 0.265495], "properties": {"magmom": -0.037}, "label": "Si", "xyz": [0.41044643659799995, 4.077553187432992, 2.316108554815]}, {"species": [{"element": "Si", "occu": 1}], "abc": [0.201884999999999, 0.032591, 0.765494999999999], "properties": {"magmom": -0.037}, "label": "Si", "xyz": [1.7222217826949915, 0.284315312567, 6.677977054814992]}, {"species": [{"element": "Si", "occu": 1}], "abc": [0.648778, 0.116155, 0.692722], "properties": {"magmom": -0.062}, "label": "Si", "xyz": [5.534535026045999, 1.013305671235, 6.043124542114]}, {"species": [{"element": "Si", "occu": 1}], "abc": [0.10122199999999901, 0.616155, 0.807277999999999], "properties": {"magmom": -0.062}, "label": "Si", "xyz": [0.8634952239539915, 5.375174171235, 7.042480957885991]}, {"species": [{"element": "Si", "occu": 1}], "abc": [0.548114, 0.532590999999999, 0.734505], "properties": {"magmom": -0.037}, "label": "Si", "xyz": [4.675799936598, 4.646183812566991, 6.407628445185]}, {"species": [{"element": "Si", "occu": 1}], "abc": [0.798114, 0.765494999999999, 0.032591], "properties": {"magmom": -0.037}, "label": "Si", "xyz": [6.8084766865979995, 6.677977054814992, 0.284315312567]}, {"species": [{"element": "Si", "occu": 1}], "abc": [0.701886, 0.967409, 0.234505], "properties": {"magmom": -0.037}, "label": "Si", "xyz": [5.987583813402, 8.439421687432999, 2.045759945185]}, {"species": [{"element": "Si", "occu": 1}], "abc": [0.451885, 0.734505, 0.532590999999999], "properties": {"magmom": -0.037}, "label": "Si", "xyz": [3.8548985326949996, 6.407628445185, 4.646183812566991]}, {"species": [{"element": "Si", "occu": 1}], "abc": [0.398777999999999, 0.192722, 0.383845], "properties": {"magmom": -0.062}, "label": "Si", "xyz": [3.4018582760459917, 1.681256042114, 3.348562828765]}, {"species": [{"element": "Si", "occu": 1}], "abc": [0.298114999999999, 0.234505, 0.967409], "properties": {"magmom": -0.037}, "label": "Si", "xyz": [2.5431317173049917, 2.045759945185, 8.439421687432999]}, {"species": [{"element": "Si", "occu": 1}], "abc": [0.601221999999999, 0.383845, 0.192722], "properties": {"magmom": -0.062}, "label": "Si", "xyz": [5.1288487239539915, 3.348562828765, 1.681256042114]}, {"species": [{"element": "Si", "occu": 1}], "abc": [0.951886, 0.265495, 0.467408999999999], "properties": {"magmom": -0.037}, "label": "Si", "xyz": [8.120260563401999, 2.316108554815, 4.077553187432992]}]}, "task_ids": null, "uncorrected_energy_per_atom": null, "energy_per_atom": -13.274634947444582, "formation_energy_per_atom": -0.279748866360839, "energy_above_hull": 0.072410131964286, "is_stable": false, "equilibrium_reaction_energy_per_atom": null, "decomposes_to": null, "xas": null, "grain_boundaries": null, "band_gap": 0.0, "cbm": null, "vbm": null, "efermi": 7.91506843, "is_gap_direct": null, "is_metal": null, "es_source_calc_id": null, "bandstructure": null, "dos": null, "dos_energy_up": null, "dos_energy_down": null, "is_magnetic": null, "ordering": null, "total_magnetization": 35.9975609, "total_magnetization_normalized_vol": null, "total_magnetization_normalized_formula_units": null, "num_magnetic_sites": null, "num_unique_magnetic_sites": null, "types_of_magnetic_species": null, "bulk_modulus": null, "shear_modulus": null, "universal_anisotropy": null, "homogeneous_poisson": null, "e_total": null, "e_ionic": null, "e_electronic": null, "n": null, "e_ij_max": null, "weighted_surface_energy_EV_PER_ANG2": null, "weighted_surface_energy": null, "weighted_work_function": null, "surface_anisotropy": null, "shape_factor": null, "has_reconstructed": null, "possible_species": null, "has_props": null, "theoretical": null, "database_IDs": null, "fields_not_requested": ["builder_meta", "nsites", "elements", "nelements", "composition", "composition_reduced", "chemsys", "symmetry", "property_name", "deprecated", "deprecation_reasons", "last_updated", "origins", "warnings", "task_ids", "uncorrected_energy_per_atom", "equilibrium_reaction_energy_per_atom", "decomposes_to", "xas", "grain_boundaries", "cbm", "vbm", "is_gap_direct", "is_metal", "es_source_calc_id", "bandstructure", "dos", "dos_energy_up", "dos_energy_down", "is_magnetic", "ordering", "total_magnetization_normalized_vol", "total_magnetization_normalized_formula_units", "num_magnetic_sites", "num_unique_magnetic_sites", "types_of_magnetic_species", "bulk_modulus", "shear_modulus", "universal_anisotropy", "homogeneous_poisson", "e_total", "e_ionic", "e_electronic", "n", "e_ij_max", "weighted_surface_energy_EV_PER_ANG2", "weighted_surface_energy", "weighted_work_function", "surface_anisotropy", "shape_factor", "has_reconstructed", "possible_species", "has_props", "theoretical", "database_IDs"]}