{
  "builder_meta": null,
  "nsites": null,
  "elements": null,
  "nelements": null,
  "composition": null,
  "composition_reduced": null,
  "formula_pretty": "Mn5Si3",
  "formula_anonymous": "A3B5",
  "chemsys": null,
  "volume": 202.23712316563683,
  "density": 5.894516796527532,
  "density_atomic": 12.639820197852302,
  "symmetry": null,
  "property_name": null,
  "material_id": "mp-1111",
  "deprecated": null,
  "deprecation_reasons": null,
  "last_updated": null,
  "origins": null,
  "warnings": null,
  "structure": {
    "@module": "pymatgen.core.structure",
    "@class": "Structure",
    "charge": 0,
    "lattice": {
      "matrix": [
        [6.95738343, -9.31e-6, -2.24e-6],
        [-3.47869935, 6.02942859, 1.149999999999999e-6],
        [-5e-7, -6.8e-7, 4.82102207]
      ],
      "pbc": [true, true, true],
      "a": 6.95738343000659,
      "b": 6.960988312703961,
      "c": 4.821022070000073,
      "alpha": 89.99999456475255,
      "beta": 90.00002438923075,
      "gamma": 119.9830197200459,
      "volume": 202.23712316563683
    },
    "properties": {},
    "sites": [
      {
        "species": [{ "element": "Mn", "occu": 1 }],
        "abc": [0.00030676, 0.7570882800000001, 0.7500139100000001],
        "properties": { "magmom": 3.326 },
        "label": "Mn",
        "xyz": [-2.6315486355945863, 4.564809207720531, 3.6158344828813735]
      },
      {
        "species": [{ "element": "Mn", "occu": 1 }],
        "abc": [-0.00030676, 0.24291172, 0.24998609],
        "properties": { "magmom": 3.326 },
        "label": "Mn",
        "xyz": [-0.8471512144054139, 1.4646187022794694, 1.2051887371186267]
      },
      {
        "species": [{ "element": "Mn", "occu": 1 }],
        "abc": [0.75677726, 0.75708376, 0.24998506],
        "properties": { "magmom": 3.326 },
        "label": "Mn",
        "xyz": [2.6315226601247157, 4.564775251982567, 1.2051826668955357]
      },
      {
        "species": [{ "element": "Mn", "occu": 1 }],
        "abc": [0.75757464, -4.8e-7, 0.75001364],
        "properties": { "magmom": 3.329 },
        "label": "Mn",
        "xyz": [5.270738542093083, -1.04571548968e-5, 3.6158306142732894]
      },
      {
        "species": [{ "element": "Mn", "occu": 1 }],
        "abc": [0.24322274, 0.24291624, 0.75001494],
        "properties": { "magmom": 3.326 },
        "label": "Mn",
        "xyz": [0.8471609198752842, 1.464643348017433, 3.615838313104464]
      },
      {
        "species": [{ "element": "Mn", "occu": 1 }],
        "abc": [0.24242536, 4.8e-7, 0.24998636000000002],
        "properties": { "magmom": 3.329 },
        "label": "Mn",
        "xyz": [1.6866443879069168, 4.671548967999996e-7, 1.2051892157267108]
      },
      {
        "species": [{ "element": "Mn", "occu": 1 }],
        "abc": [0.33326739, 0.66652221, 0.49999921],
        "properties": { "magmom": 2.367 },
        "label": "Mn",
        "xyz": [3.8388258179384676e-5, 4.018744626125121, 2.4105072463741526]
      },
      {
        "species": [{ "element": "Mn", "occu": 1 }],
        "abc": [0.66673262, 0.33347825000000003, -8.599999999999999e-7],
        "properties": { "magmom": 2.367 },
        "label": "Mn",
        "xyz": [3.478643911114779, 2.0106770874130606, -5.2560600614999996e-6]
      },
      {
        "species": [{ "element": "Mn", "occu": 1 }],
        "abc": [0.6667326100000001, 0.33347779, 0.50000079],
        "properties": { "magmom": 2.367 },
        "label": "Mn",
        "xyz": [3.4786451917418213, 2.01067397387488, 2.410513733625847]
      },
      {
        "species": [{ "element": "Mn", "occu": 1 }],
        "abc": [0.33326738, 0.66652175, 8.599999999999999e-7],
        "properties": { "magmom": 2.367 },
        "label": "Mn",
        "xyz": [4.016888522105958e-5, 4.018742192586941, 4.166060061499999e-6]
      },
      {
        "species": [{ "element": "Si", "occu": 1 }],
        "abc": [0.40039129, -1.8900000000000001e-6, 0.75000758],
        "properties": { "magmom": -0.163 },
        "label": "Si",
        "xyz": [2.7856819263003065, -1.56332680994e-5, 3.6158021989686273]
      },
      {
        "species": [{ "element": "Si", "occu": 1 }],
        "abc": [0.39982937, 0.399930099999999, 0.2499874],
        "properties": { "magmom": -0.163 },
        "label": "Si",
        "xyz": [1.3905295297562077, 2.4113460865386864, 1.2051943369237441]
      },
      {
        "species": [{ "element": "Si", "occu": 1 }],
        "abc": [-9.829000000000001e-5, 0.6000679600000001, 0.24998669],
        "properties": { "magmom": -0.163 },
        "label": "Si",
        "xyz": [-2.088139988618506, 3.6180667448911077, 1.205192039994572]
      },
      {
        "species": [{ "element": "Si", "occu": 1 }],
        "abc": [9.829000000000001e-5, 0.39993204, 0.75001331],
        "properties": { "magmom": -0.163 },
        "label": "Si",
        "xyz": [-1.3905598613814942, 2.4113611651088926, 3.615831180005428]
      },
      {
        "species": [{ "element": "Si", "occu": 1 }],
        "abc": [0.60017063, 0.600069899999999, 0.750012599999999],
        "properties": { "magmom": -0.163 },
        "label": "Si",
        "xyz": [2.0881540502438, 3.6180725134613025, 3.615826643076251]
      },
      {
        "species": [{ "element": "Si", "occu": 1 }],
        "abc": [0.59960871, 1.8900000000000001e-6, 0.24999242],
        "properties": { "magmom": -0.163 },
        "label": "Si",
        "xyz": [4.171701003699694, 5.6432680994000005e-6, 1.2052176310313725]
      }
    ]
  },
  "task_ids": null,
  "uncorrected_energy_per_atom": null,
  "energy_per_atom": -12.929454580625,
  "formation_energy_per_atom": -0.46220868530172504,
  "energy_above_hull": 0.0,
  "is_stable": true,
  "equilibrium_reaction_energy_per_atom": null,
  "decomposes_to": null,
  "xas": null,
  "grain_boundaries": null,
  "band_gap": 0.0,
  "cbm": null,
  "vbm": null,
  "efermi": 7.92480785,
  "is_gap_direct": null,
  "is_metal": null,
  "es_source_calc_id": null,
  "bandstructure": null,
  "dos": null,
  "dos_energy_up": null,
  "dos_energy_down": null,
  "is_magnetic": null,
  "ordering": null,
  "total_magnetization": 27.9037658,
  "total_magnetization_normalized_vol": null,
  "total_magnetization_normalized_formula_units": null,
  "num_magnetic_sites": null,
  "num_unique_magnetic_sites": null,
  "types_of_magnetic_species": null,
  "bulk_modulus": null,
  "shear_modulus": null,
  "universal_anisotropy": null,
  "homogeneous_poisson": null,
  "e_total": null,
  "e_ionic": null,
  "e_electronic": null,
  "n": null,
  "e_ij_max": null,
  "weighted_surface_energy_EV_PER_ANG2": null,
  "weighted_surface_energy": null,
  "weighted_work_function": null,
  "surface_anisotropy": null,
  "shape_factor": null,
  "has_reconstructed": null,
  "possible_species": null,
  "has_props": null,
  "theoretical": null,
  "database_IDs": null,
  "fields_not_requested": [
    "builder_meta",
    "nsites",
    "elements",
    "nelements",
    "composition",
    "composition_reduced",
    "chemsys",
    "symmetry",
    "property_name",
    "deprecated",
    "deprecation_reasons",
    "last_updated",
    "origins",
    "warnings",
    "task_ids",
    "uncorrected_energy_per_atom",
    "equilibrium_reaction_energy_per_atom",
    "decomposes_to",
    "xas",
    "grain_boundaries",
    "cbm",
    "vbm",
    "is_gap_direct",
    "is_metal",
    "es_source_calc_id",
    "bandstructure",
    "dos",
    "dos_energy_up",
    "dos_energy_down",
    "is_magnetic",
    "ordering",
    "total_magnetization_normalized_vol",
    "total_magnetization_normalized_formula_units",
    "num_magnetic_sites",
    "num_unique_magnetic_sites",
    "types_of_magnetic_species",
    "bulk_modulus",
    "shear_modulus",
    "universal_anisotropy",
    "homogeneous_poisson",
    "e_total",
    "e_ionic",
    "e_electronic",
    "n",
    "e_ij_max",
    "weighted_surface_energy_EV_PER_ANG2",
    "weighted_surface_energy",
    "weighted_work_function",
    "surface_anisotropy",
    "shape_factor",
    "has_reconstructed",
    "possible_species",
    "has_props",
    "theoretical",
    "database_IDs"
  ]
}
