{
  "builder_meta": null,
  "nsites": null,
  "elements": null,
  "nelements": null,
  "composition": null,
  "composition_reduced": null,
  "formula_pretty": "Mn6C",
  "formula_anonymous": "AB6",
  "chemsys": null,
  "volume": 288.72841164368225,
  "density": 7.859356176670171,
  "density_atomic": 10.311728987274366,
  "symmetry": null,
  "property_name": null,
  "material_id": "mp-1193506",
  "deprecated": null,
  "deprecation_reasons": null,
  "last_updated": null,
  "origins": null,
  "warnings": null,
  "structure": {
    "@module": "pymatgen.core.structure",
    "@class": "Structure",
    "charge": 0,
    "lattice": {
      "matrix": [
        [0.0, 5.245898, 5.245898],
        [5.245898, 0.0, 5.245898],
        [5.245898, 5.245898, 0.0]
      ],
      "pbc": [true, true, true],
      "a": 7.418820098425895,
      "b": 7.418820098425895,
      "c": 7.418820098425895,
      "alpha": 59.99999999999999,
      "beta": 59.99999999999999,
      "gamma": 59.99999999999999,
      "volume": 288.72841164368225
    },
    "properties": {},
    "sites": [
      {
        "species": [{ "element": "Mn", "occu": 1 }],
        "abc": [0.625, 0.625, 0.125],
        "properties": { "magmom": -0.777 },
        "label": "Mn",
        "xyz": [3.9344235000000003, 3.9344235000000003, 6.5573725000000005]
      },
      {
        "species": [{ "element": "Mn", "occu": 1 }],
        "abc": [0.625, 0.125, 0.625],
        "properties": { "magmom": -0.789 },
        "label": "Mn",
        "xyz": [3.9344235000000003, 6.5573725000000005, 3.9344235000000003]
      },
      {
        "species": [{ "element": "Mn", "occu": 1 }],
        "abc": [0.125, 0.625, 0.625],
        "properties": { "magmom": -0.766 },
        "label": "Mn",
        "xyz": [6.5573725000000005, 3.9344235000000003, 3.9344235000000003]
      },
      {
        "species": [{ "element": "Mn", "occu": 1 }],
        "abc": [0.625, 0.625, 0.625],
        "properties": { "magmom": -0.777 },
        "label": "Mn",
        "xyz": [6.5573725000000005, 6.5573725000000005, 6.5573725000000005]
      },
      {
        "species": [{ "element": "Mn", "occu": 1 }],
        "abc": [0.41394000000000003, 0.41394000000000003, 0.758181],
        "properties": { "magmom": 1.742 },
        "label": "Mn",
        "xyz": [6.148827209658, 6.148827209658, 4.34297403624]
      },
      {
        "species": [{ "element": "Mn", "occu": 1 }],
        "abc": [0.41394000000000003, 0.758181, 0.41394000000000003],
        "properties": { "magmom": 1.714 },
        "label": "Mn",
        "xyz": [6.148827209658, 4.34297403624, 6.148827209658]
      },
      {
        "species": [{ "element": "Mn", "occu": 1 }],
        "abc": [0.758181, 0.41394000000000003, 0.41394000000000003],
        "properties": { "magmom": 1.655 },
        "label": "Mn",
        "xyz": [4.34297403624, 6.148827209658, 6.148827209658]
      },
      {
        "species": [{ "element": "Mn", "occu": 1 }],
        "abc": [0.41394000000000003, 0.41394000000000003, 0.41394000000000003],
        "properties": { "magmom": 1.742 },
        "label": "Mn",
        "xyz": [4.34297403624, 4.34297403624, 4.34297403624]
      },
      {
        "species": [{ "element": "Mn", "occu": 1 }],
        "abc": [0.83606, 0.83606, 0.49181899999999906],
        "properties": { "magmom": 1.742 },
        "label": "Mn",
        "xyz": [6.9659177903419955, 6.9659177903419955, 8.771770963760002]
      },
      {
        "species": [{ "element": "Mn", "occu": 1 }],
        "abc": [0.83606, 0.49181899999999906, 0.83606],
        "properties": { "magmom": 1.714 },
        "label": "Mn",
        "xyz": [6.9659177903419955, 8.771770963760002, 6.9659177903419955]
      },
      {
        "species": [{ "element": "Mn", "occu": 1 }],
        "abc": [0.49181899999999906, 0.83606, 0.83606],
        "properties": { "magmom": 1.655 },
        "label": "Mn",
        "xyz": [8.771770963760002, 6.9659177903419955, 6.9659177903419955]
      },
      {
        "species": [{ "element": "Mn", "occu": 1 }],
        "abc": [0.83606, 0.83606, 0.83606],
        "properties": { "magmom": 1.742 },
        "label": "Mn",
        "xyz": [8.771770963760002, 8.771770963760002, 8.771770963760002]
      },
      {
        "species": [{ "element": "Mn", "occu": 1 }],
        "abc": [0.055345, 0.055345, 0.444654999999999],
        "properties": { "magmom": 0.02 },
        "label": "Mn",
        "xyz": [2.6229489999999953, 2.6229489999999953, 0.58066844962]
      },
      {
        "species": [{ "element": "Mn", "occu": 1 }],
        "abc": [0.444654999999999, 0.055345, 0.444654999999999],
        "properties": { "magmom": -0.022 },
        "label": "Mn",
        "xyz": [2.6229489999999953, 4.6652295503799905, 2.6229489999999953]
      },
      {
        "species": [{ "element": "Mn", "occu": 1 }],
        "abc": [0.055345, 0.444654999999999, 0.444654999999999],
        "properties": { "magmom": -0.05 },
        "label": "Mn",
        "xyz": [4.6652295503799905, 2.6229489999999953, 2.6229489999999953]
      },
      {
        "species": [{ "element": "Mn", "occu": 1 }],
        "abc": [0.444654999999999, 0.444654999999999, 0.055345],
        "properties": { "magmom": 0.037 },
        "label": "Mn",
        "xyz": [2.6229489999999953, 2.6229489999999953, 4.6652295503799905]
      },
      {
        "species": [{ "element": "Mn", "occu": 1 }],
        "abc": [0.055345, 0.444654999999999, 0.055345],
        "properties": { "magmom": -0.063 },
        "label": "Mn",
        "xyz": [2.6229489999999953, 0.58066844962, 2.6229489999999953]
      },
      {
        "species": [{ "element": "Mn", "occu": 1 }],
        "abc": [0.444654999999999, 0.055345, 0.055345],
        "properties": { "magmom": -0.009000000000000001 },
        "label": "Mn",
        "xyz": [0.58066844962, 2.6229489999999953, 2.6229489999999953]
      },
      {
        "species": [{ "element": "Mn", "occu": 1 }],
        "abc": [0.194655, 0.194655, 0.805345],
        "properties": { "magmom": 0.02 },
        "label": "Mn",
        "xyz": [5.245898, 5.245898, 2.04228055038]
      },
      {
        "species": [{ "element": "Mn", "occu": 1 }],
        "abc": [0.805345, 0.194655, 0.805345],
        "properties": { "magmom": -0.022 },
        "label": "Mn",
        "xyz": [5.245898, 8.44951544962, 5.245898]
      },
      {
        "species": [{ "element": "Mn", "occu": 1 }],
        "abc": [0.194655, 0.805345, 0.805345],
        "properties": { "magmom": -0.05 },
        "label": "Mn",
        "xyz": [8.44951544962, 5.245898, 5.245898]
      },
      {
        "species": [{ "element": "Mn", "occu": 1 }],
        "abc": [0.805345, 0.805345, 0.194655],
        "properties": { "magmom": 0.037 },
        "label": "Mn",
        "xyz": [5.245898, 5.245898, 8.44951544962]
      },
      {
        "species": [{ "element": "Mn", "occu": 1 }],
        "abc": [0.194655, 0.805345, 0.194655],
        "properties": { "magmom": -0.063 },
        "label": "Mn",
        "xyz": [5.245898, 2.04228055038, 5.245898]
      },
      {
        "species": [{ "element": "Mn", "occu": 1 }],
        "abc": [0.805345, 0.194655, 0.194655],
        "properties": { "magmom": -0.009000000000000001 },
        "label": "Mn",
        "xyz": [2.04228055038, 5.245898, 5.245898]
      },
      {
        "species": [{ "element": "C", "occu": 1 }],
        "abc": [0.125, 0.125, 0.625],
        "properties": { "magmom": 0.021 },
        "label": "C",
        "xyz": [3.9344235000000003, 3.9344235000000003, 1.3114745]
      },
      {
        "species": [{ "element": "C", "occu": 1 }],
        "abc": [0.125, 0.625, 0.125],
        "properties": { "magmom": 0.02 },
        "label": "C",
        "xyz": [3.9344235000000003, 1.3114745, 3.9344235000000003]
      },
      {
        "species": [{ "element": "C", "occu": 1 }],
        "abc": [0.625, 0.125, 0.125],
        "properties": { "magmom": 0.015 },
        "label": "C",
        "xyz": [1.3114745, 3.9344235000000003, 3.9344235000000003]
      },
      {
        "species": [{ "element": "C", "occu": 1 }],
        "abc": [0.125, 0.125, 0.125],
        "properties": { "magmom": 0.021 },
        "label": "C",
        "xyz": [1.3114745, 1.3114745, 1.3114745]
      }
    ]
  },
  "task_ids": null,
  "uncorrected_energy_per_atom": null,
  "energy_per_atom": -9.093024409642856,
  "formation_energy_per_atom": 0.07851233963054101,
  "energy_above_hull": 0.14346954575944001,
  "is_stable": false,
  "equilibrium_reaction_energy_per_atom": null,
  "decomposes_to": null,
  "xas": null,
  "grain_boundaries": null,
  "band_gap": 0.0,
  "cbm": null,
  "vbm": null,
  "efermi": 6.77574763,
  "is_gap_direct": null,
  "is_metal": null,
  "es_source_calc_id": null,
  "bandstructure": null,
  "dos": null,
  "dos_energy_up": null,
  "dos_energy_down": null,
  "is_magnetic": null,
  "ordering": null,
  "total_magnetization": 11.484164,
  "total_magnetization_normalized_vol": null,
  "total_magnetization_normalized_formula_units": null,
  "num_magnetic_sites": null,
  "num_unique_magnetic_sites": null,
  "types_of_magnetic_species": null,
  "bulk_modulus": null,
  "shear_modulus": null,
  "universal_anisotropy": null,
  "homogeneous_poisson": null,
  "e_total": null,
  "e_ionic": null,
  "e_electronic": null,
  "n": null,
  "e_ij_max": null,
  "weighted_surface_energy_EV_PER_ANG2": null,
  "weighted_surface_energy": null,
  "weighted_work_function": null,
  "surface_anisotropy": null,
  "shape_factor": null,
  "has_reconstructed": null,
  "possible_species": null,
  "has_props": null,
  "theoretical": null,
  "database_IDs": null,
  "fields_not_requested": [
    "builder_meta",
    "nsites",
    "elements",
    "nelements",
    "composition",
    "composition_reduced",
    "chemsys",
    "symmetry",
    "property_name",
    "deprecated",
    "deprecation_reasons",
    "last_updated",
    "origins",
    "warnings",
    "task_ids",
    "uncorrected_energy_per_atom",
    "equilibrium_reaction_energy_per_atom",
    "decomposes_to",
    "xas",
    "grain_boundaries",
    "cbm",
    "vbm",
    "is_gap_direct",
    "is_metal",
    "es_source_calc_id",
    "bandstructure",
    "dos",
    "dos_energy_up",
    "dos_energy_down",
    "is_magnetic",
    "ordering",
    "total_magnetization_normalized_vol",
    "total_magnetization_normalized_formula_units",
    "num_magnetic_sites",
    "num_unique_magnetic_sites",
    "types_of_magnetic_species",
    "bulk_modulus",
    "shear_modulus",
    "universal_anisotropy",
    "homogeneous_poisson",
    "e_total",
    "e_ionic",
    "e_electronic",
    "n",
    "e_ij_max",
    "weighted_surface_energy_EV_PER_ANG2",
    "weighted_surface_energy",
    "weighted_work_function",
    "surface_anisotropy",
    "shape_factor",
    "has_reconstructed",
    "possible_species",
    "has_props",
    "theoretical",
    "database_IDs"
  ]
}
