{
  "builder_meta": null,
  "nsites": null,
  "elements": null,
  "nelements": null,
  "composition": null,
  "composition_reduced": null,
  "formula_pretty": "Mn6Si7",
  "formula_anonymous": "A6B7",
  "chemsys": null,
  "volume": 161.53030866606196,
  "density": 5.409635607656864,
  "density_atomic": 12.425408358927843,
  "symmetry": null,
  "property_name": null,
  "material_id": "mp-1103939",
  "deprecated": null,
  "deprecation_reasons": null,
  "last_updated": null,
  "origins": null,
  "warnings": null,
  "structure": {
    "@module": "pymatgen.core.structure",
    "@class": "Structure",
    "charge": 0,
    "lattice": {
      "matrix": [
        [-2.425099, -4.200394, 0.0],
        [-4.850197, 0.0, 0.0],
        [-2.425099, -1.400131, -7.928748]
      ],
      "pbc": [true, true, true],
      "a": 4.850197409903745,
      "b": 4.850197,
      "c": 8.408716716863875,
      "alpha": 73.23763081122874,
      "beta": 73.23763356538404,
      "gamma": 59.99999597537468,
      "volume": 161.53030866606196
    },
    "properties": {},
    "sites": [
      {
        "species": [{ "element": "Mn", "occu": 1 }],
        "abc": [0.834581999999999, 0.834581999999999, 0.496253],
        "properties": { "magmom": 1.893 },
        "label": "Mn",
        "xyz": [-7.2752937403189915, -4.200392434450996, -3.934664981244]
      },
      {
        "species": [{ "element": "Mn", "occu": 1 }],
        "abc": [0.165417999999999, 0.165417999999999, 0.503747],
        "properties": { "magmom": 1.893 },
        "label": "Mn",
        "xyz": [-2.4251012596809924, -1.4001325655489958, -3.9940830187559992]
      },
      {
        "species": [{ "element": "Mn", "occu": 1 }],
        "abc": [0.662218, 0.662218, 0.013347],
        "properties": { "magmom": 2.326 },
        "label": "Mn",
        "xyz": [-4.850199762880999, -2.800264062349, -0.10582499955599999]
      },
      {
        "species": [{ "element": "Mn", "occu": 1 }],
        "abc": [0.337781999999999, 0.337781999999999, 0.986653],
        "properties": { "magmom": 2.326 },
        "label": "Mn",
        "xyz": [-4.850195237118993, -2.800260937650996, -7.822923000444]
      },
      {
        "species": [{ "element": "Mn", "occu": 1 }],
        "abc": [0.549235, 0.549235, 0.352294],
        "properties": { "magmom": 1.8940000000000001 },
        "label": "Mn",
        "xyz": [-4.850195025666, -2.800261149104, -2.7932503479119997]
      },
      {
        "species": [{ "element": "Mn", "occu": 1 }],
        "abc": [0.450764999999999, 0.450764999999999, 0.647706],
        "properties": { "magmom": 1.8940000000000001 },
        "label": "Mn",
        "xyz": [-4.850199974333993, -2.800263850895996, -5.135497652088]
      },
      {
        "species": [{ "element": "Si", "occu": 1 }],
        "abc": [0.0, 0.0, 0.0],
        "properties": { "magmom": -0.018000000000000002 },
        "label": "Si",
        "xyz": [0.0, 0.0, 0.0]
      },
      {
        "species": [{ "element": "Si", "occu": 1 }],
        "abc": [0.914420999999999, 0.914420999999999, 0.749365],
        "properties": { "magmom": -0.067 },
        "label": "Si",
        "xyz": [-8.469967755750993, -4.890137648688996, -5.9415262450199995]
      },
      {
        "species": [{ "element": "Si", "occu": 1 }],
        "abc": [0.421793, 0.914420999999999, 0.749365],
        "properties": { "magmom": -0.067 },
        "label": "Si",
        "xyz": [-7.2752960855789945, -2.8209059532569998, -5.9415262450199995]
      },
      {
        "species": [{ "element": "Si", "occu": 1 }],
        "abc": [0.914420999999999, 0.421793, 0.749365],
        "properties": { "magmom": -0.067 },
        "label": "Si",
        "xyz": [-6.080624908034997, -4.890137648688996, -5.9415262450199995]
      },
      {
        "species": [{ "element": "Si", "occu": 1 }],
        "abc": [0.085579, 0.085579, 0.250635],
        "properties": { "magmom": -0.067 },
        "label": "Si",
        "xyz": [-1.2304272442489999, -0.710387351311, -1.98722175498]
      },
      {
        "species": [{ "element": "Si", "occu": 1 }],
        "abc": [0.578207, 0.085579, 0.250635],
        "properties": { "magmom": -0.067 },
        "label": "Si",
        "xyz": [-2.425098914421, -2.7796190467430004, -1.98722175498]
      },
      {
        "species": [{ "element": "Si", "occu": 1 }],
        "abc": [0.085579, 0.578207, 0.250635],
        "properties": { "magmom": -0.067 },
        "label": "Si",
        "xyz": [-3.619770091965, -0.710387351311, -1.98722175498]
      }
    ]
  },
  "task_ids": null,
  "uncorrected_energy_per_atom": null,
  "energy_per_atom": -11.30311520373467,
  "formation_energy_per_atom": 0.19814327458097802,
  "energy_above_hull": 0.548446107051283,
  "is_stable": false,
  "equilibrium_reaction_energy_per_atom": null,
  "decomposes_to": null,
  "xas": null,
  "grain_boundaries": null,
  "band_gap": 0.0,
  "cbm": null,
  "vbm": null,
  "efermi": 9.15733083,
  "is_gap_direct": null,
  "is_metal": null,
  "es_source_calc_id": null,
  "bandstructure": null,
  "dos": null,
  "dos_energy_up": null,
  "dos_energy_down": null,
  "is_magnetic": null,
  "ordering": null,
  "total_magnetization": 11.7459548,
  "total_magnetization_normalized_vol": null,
  "total_magnetization_normalized_formula_units": null,
  "num_magnetic_sites": null,
  "num_unique_magnetic_sites": null,
  "types_of_magnetic_species": null,
  "bulk_modulus": null,
  "shear_modulus": null,
  "universal_anisotropy": null,
  "homogeneous_poisson": null,
  "e_total": null,
  "e_ionic": null,
  "e_electronic": null,
  "n": null,
  "e_ij_max": null,
  "weighted_surface_energy_EV_PER_ANG2": null,
  "weighted_surface_energy": null,
  "weighted_work_function": null,
  "surface_anisotropy": null,
  "shape_factor": null,
  "has_reconstructed": null,
  "possible_species": null,
  "has_props": null,
  "theoretical": null,
  "database_IDs": null,
  "fields_not_requested": [
    "builder_meta",
    "nsites",
    "elements",
    "nelements",
    "composition",
    "composition_reduced",
    "chemsys",
    "symmetry",
    "property_name",
    "deprecated",
    "deprecation_reasons",
    "last_updated",
    "origins",
    "warnings",
    "task_ids",
    "uncorrected_energy_per_atom",
    "equilibrium_reaction_energy_per_atom",
    "decomposes_to",
    "xas",
    "grain_boundaries",
    "cbm",
    "vbm",
    "is_gap_direct",
    "is_metal",
    "es_source_calc_id",
    "bandstructure",
    "dos",
    "dos_energy_up",
    "dos_energy_down",
    "is_magnetic",
    "ordering",
    "total_magnetization_normalized_vol",
    "total_magnetization_normalized_formula_units",
    "num_magnetic_sites",
    "num_unique_magnetic_sites",
    "types_of_magnetic_species",
    "bulk_modulus",
    "shear_modulus",
    "universal_anisotropy",
    "homogeneous_poisson",
    "e_total",
    "e_ionic",
    "e_electronic",
    "n",
    "e_ij_max",
    "weighted_surface_energy_EV_PER_ANG2",
    "weighted_surface_energy",
    "weighted_work_function",
    "surface_anisotropy",
    "shape_factor",
    "has_reconstructed",
    "possible_species",
    "has_props",
    "theoretical",
    "database_IDs"
  ]
}
