{"builder_meta": null, "nsites": null, "elements": null, "nelements": null, "composition": null, "composition_reduced": null, "formula_pretty": "Mn7C3", "formula_anonymous": "A3B7", "chemsys": null, "volume": 355.48977225851394, "density": 7.858680096704947, "density_atomic": 8.887244306462849, "symmetry": null, "property_name": null, "material_id": "mp-21256", "deprecated": null, "deprecation_reasons": null, "last_updated": null, "origins": null, "warnings": null, "structure": {"@module": "pymatgen.core.structure", "@class": "Structure", "charge": 0, "lattice": {"matrix": [[4.46038, 0.0, 0.0], [0.0, 6.811325, 0.0], [0.0, 0.0, 11.701018]], "pbc": [true, true, true], "a": 4.46038, "b": 6.811325, "c": 11.701018, "alpha": 90.0, "beta": 90.0, "gamma": 90.0, "volume": 355.48977225851394}, "properties": {}, "sites": [{"species": [{"element": "Mn", "occu": 1}], "abc": [0.74773, 0.066886, 0.484091999999999], "properties": {"magmom": 0.09}, "label": "Mn", "xyz": [3.3351599374, 0.45558228395, 5.664369205655988]}, {"species": [{"element": "Mn", "occu": 1}], "abc": [0.24773000000000003, 0.433114, 0.015908], "properties": {"magmom": 0.09}, "label": "Mn", "xyz": [1.1049699374000002, 2.95008021605, 0.18613979434399996]}, {"species": [{"element": "Mn", "occu": 1}], "abc": [0.25227, 0.566886, 0.515907999999999], "properties": {"magmom": 0.09}, "label": "Mn", "xyz": [1.1252200626, 3.86124478395, 6.036648794343988]}, {"species": [{"element": "Mn", "occu": 1}], "abc": [0.7522700000000001, 0.933114, 0.984092], "properties": {"magmom": 0.09}, "label": "Mn", "xyz": [3.3554100626000003, 6.35574271605, 11.514878205655998]}, {"species": [{"element": "Mn", "occu": 1}], "abc": [0.25227, 0.933114, 0.515907999999999], "properties": {"magmom": 0.09}, "label": "Mn", "xyz": [1.1252200626, 6.35574271605, 6.036648794343988]}, {"species": [{"element": "Mn", "occu": 1}], "abc": [0.7522700000000001, 0.566886, 0.984092], "properties": {"magmom": 0.09}, "label": "Mn", "xyz": [3.3554100626000003, 3.86124478395, 11.514878205655998]}, {"species": [{"element": "Mn", "occu": 1}], "abc": [0.74773, 0.433114, 0.484091999999999], "properties": {"magmom": 0.09}, "label": "Mn", "xyz": [3.3351599374, 2.95008021605, 5.664369205655988]}, {"species": [{"element": "Mn", "occu": 1}], "abc": [0.24773000000000003, 0.066886, 0.015908], "properties": {"magmom": 0.09}, "label": "Mn", "xyz": [1.1049699374000002, 0.45558228395, 0.18613979434399996]}, {"species": [{"element": "Mn", "occu": 1}], "abc": [0.549478, 0.063974, 0.692886], "properties": {"magmom": 0.4}, "label": "Mn", "xyz": [2.45088068164, 0.43574770555000003, 8.107471557948]}, {"species": [{"element": "Mn", "occu": 1}], "abc": [0.049478, 0.436025999999999, 0.807114], "properties": {"magmom": 0.4}, "label": "Mn", "xyz": [0.22069068164, 2.9699147944499935, 9.444055442051999]}, {"species": [{"element": "Mn", "occu": 1}], "abc": [0.450522, 0.563974, 0.307114], "properties": {"magmom": 0.4}, "label": "Mn", "xyz": [2.0094993183599996, 3.84141020555, 3.593546442052]}, {"species": [{"element": "Mn", "occu": 1}], "abc": [0.950522, 0.936025999999999, 0.192886], "properties": {"magmom": 0.4}, "label": "Mn", "xyz": [4.23968931836, 6.375577294449993, 2.256962557948]}, {"species": [{"element": "Mn", "occu": 1}], "abc": [0.450522, 0.936025999999999, 0.307114], "properties": {"magmom": 0.4}, "label": "Mn", "xyz": [2.0094993183599996, 6.375577294449993, 3.593546442052]}, {"species": [{"element": "Mn", "occu": 1}], "abc": [0.950522, 0.563974, 0.192886], "properties": {"magmom": 0.4}, "label": "Mn", "xyz": [4.23968931836, 3.84141020555, 2.256962557948]}, {"species": [{"element": "Mn", "occu": 1}], "abc": [0.549478, 0.436025999999999, 0.692886], "properties": {"magmom": 0.4}, "label": "Mn", "xyz": [2.45088068164, 2.9699147944499935, 8.107471557948]}, {"species": [{"element": "Mn", "occu": 1}], "abc": [0.049478, 0.063974, 0.807114], "properties": {"magmom": 0.4}, "label": "Mn", "xyz": [0.22069068164, 0.43574770555000003, 9.444055442051999]}, {"species": [{"element": "Mn", "occu": 1}], "abc": [0.783975, 0.25, 0.301939], "properties": {"magmom": -0.304}, "label": "Mn", "xyz": [3.4968264104999998, 1.70283125, 3.532993673902]}, {"species": [{"element": "Mn", "occu": 1}], "abc": [0.283975, 0.25, 0.198061], "properties": {"magmom": -0.304}, "label": "Mn", "xyz": [1.2666364104999999, 1.70283125, 2.317515326098]}, {"species": [{"element": "Mn", "occu": 1}], "abc": [0.216025, 0.75, 0.698060999999999], "properties": {"magmom": -0.304}, "label": "Mn", "xyz": [0.9635535894999999, 5.10849375, 8.168024326097989]}, {"species": [{"element": "Mn", "occu": 1}], "abc": [0.716025, 0.75, 0.801939], "properties": {"magmom": -0.304}, "label": "Mn", "xyz": [3.1937435895, 5.10849375, 9.383502673901999]}, {"species": [{"element": "Mn", "occu": 1}], "abc": [0.78412, 0.25, 0.090988], "properties": {"magmom": 0.096}, "label": "Mn", "xyz": [3.4974731656, 1.70283125, 1.0646522257839999]}, {"species": [{"element": "Mn", "occu": 1}], "abc": [0.28412000000000004, 0.25, 0.409012], "properties": {"magmom": 0.096}, "label": "Mn", "xyz": [1.2672831656, 1.70283125, 4.785856774216]}, {"species": [{"element": "Mn", "occu": 1}], "abc": [0.21588000000000002, 0.75, 0.909011999999999], "properties": {"magmom": 0.096}, "label": "Mn", "xyz": [0.9629068344, 5.10849375, 10.636365774215989]}, {"species": [{"element": "Mn", "occu": 1}], "abc": [0.7158800000000001, 0.75, 0.590988], "properties": {"magmom": 0.096}, "label": "Mn", "xyz": [3.1930968344000004, 5.10849375, 6.915161225783999]}, {"species": [{"element": "Mn", "occu": 1}], "abc": [0.569738, 0.25, 0.872987], "properties": {"magmom": -0.465}, "label": "Mn", "xyz": [2.5412479804399997, 1.70283125, 10.214836600765999]}, {"species": [{"element": "Mn", "occu": 1}], "abc": [0.069738, 0.25, 0.627012999999999], "properties": {"magmom": -0.465}, "label": "Mn", "xyz": [0.31105798043999994, 1.70283125, 7.336690399233989]}, {"species": [{"element": "Mn", "occu": 1}], "abc": [0.430262, 0.75, 0.127013], "properties": {"magmom": -0.465}, "label": "Mn", "xyz": [1.91913201956, 5.10849375, 1.4861813992339998]}, {"species": [{"element": "Mn", "occu": 1}], "abc": [0.930261999999999, 0.75, 0.372986999999999], "properties": {"magmom": -0.465}, "label": "Mn", "xyz": [4.149322019559995, 5.10849375, 4.364327600765988]}, {"species": [{"element": "C", "occu": 1}], "abc": [0.545515, 0.027807, 0.146232], "properties": {"magmom": -0.001}, "label": "C", "xyz": [2.4332041956999997, 0.189402514275, 1.711063264176]}, {"species": [{"element": "C", "occu": 1}], "abc": [0.045515, 0.472193, 0.353767999999999], "properties": {"magmom": -0.001}, "label": "C", "xyz": [0.20301419569999998, 3.216259985725, 4.139445735823989]}, {"species": [{"element": "C", "occu": 1}], "abc": [0.454485, 0.527807, 0.853768], "properties": {"magmom": -0.001}, "label": "C", "xyz": [2.0271758042999997, 3.5950650142750002, 9.989954735824]}, {"species": [{"element": "C", "occu": 1}], "abc": [0.954484999999999, 0.972193, 0.646231999999999], "properties": {"magmom": -0.001}, "label": "C", "xyz": [4.257365804299996, 6.621922485725, 7.561572264175989]}, {"species": [{"element": "C", "occu": 1}], "abc": [0.454485, 0.972193, 0.853768], "properties": {"magmom": -0.001}, "label": "C", "xyz": [2.0271758042999997, 6.621922485725, 9.989954735824]}, {"species": [{"element": "C", "occu": 1}], "abc": [0.954484999999999, 0.527807, 0.646231999999999], "properties": {"magmom": -0.001}, "label": "C", "xyz": [4.257365804299996, 3.5950650142750002, 7.561572264175989]}, {"species": [{"element": "C", "occu": 1}], "abc": [0.545515, 0.472193, 0.146232], "properties": {"magmom": -0.001}, "label": "C", "xyz": [2.4332041956999997, 3.216259985725, 1.711063264176]}, {"species": [{"element": "C", "occu": 1}], "abc": [0.045515, 0.027807, 0.353767999999999], "properties": {"magmom": -0.001}, "label": "C", "xyz": [0.20301419569999998, 0.189402514275, 4.139445735823989]}, {"species": [{"element": "C", "occu": 1}], "abc": [0.965745, 0.25, 0.937326], "properties": {"magmom": -0.003}, "label": "C", "xyz": [4.3075896831, 1.70283125, 10.967668397868]}, {"species": [{"element": "C", "occu": 1}], "abc": [0.465744999999999, 0.25, 0.562674], "properties": {"magmom": -0.003}, "label": "C", "xyz": [2.0773996830999955, 1.70283125, 6.583858602132]}, {"species": [{"element": "C", "occu": 1}], "abc": [0.034255, 0.75, 0.062674], "properties": {"magmom": -0.003}, "label": "C", "xyz": [0.1527903169, 5.10849375, 0.7333496021319998]}, {"species": [{"element": "C", "occu": 1}], "abc": [0.534254999999999, 0.75, 0.437326], "properties": {"magmom": -0.003}, "label": "C", "xyz": [2.3829803168999955, 5.10849375, 5.117159397868]}]}, "task_ids": null, "uncorrected_energy_per_atom": null, "energy_per_atom": -9.250044621, "formation_energy_per_atom": -0.068034268801724, "energy_above_hull": 0.014997985989127001, "is_stable": false, "equilibrium_reaction_energy_per_atom": null, "decomposes_to": null, "xas": null, "grain_boundaries": null, "band_gap": 0.0, "cbm": null, "vbm": null, "efermi": 7.92921615, "is_gap_direct": null, "is_metal": null, "es_source_calc_id": null, "bandstructure": null, "dos": null, "dos_energy_up": null, "dos_energy_down": null, "is_magnetic": null, "ordering": null, "total_magnetization": 1.2535471, "total_magnetization_normalized_vol": null, "total_magnetization_normalized_formula_units": null, "num_magnetic_sites": null, "num_unique_magnetic_sites": null, "types_of_magnetic_species": null, "bulk_modulus": null, "shear_modulus": null, "universal_anisotropy": null, "homogeneous_poisson": null, "e_total": null, "e_ionic": null, "e_electronic": null, "n": null, "e_ij_max": null, "weighted_surface_energy_EV_PER_ANG2": null, "weighted_surface_energy": null, "weighted_work_function": null, "surface_anisotropy": null, "shape_factor": null, "has_reconstructed": null, "possible_species": null, "has_props": null, "theoretical": null, "database_IDs": null, "fields_not_requested": ["builder_meta", "nsites", "elements", "nelements", "composition", "composition_reduced", "chemsys", "symmetry", "property_name", "deprecated", "deprecation_reasons", "last_updated", "origins", "warnings", "task_ids", "uncorrected_energy_per_atom", "equilibrium_reaction_energy_per_atom", "decomposes_to", "xas", "grain_boundaries", "cbm", "vbm", "is_gap_direct", "is_metal", "es_source_calc_id", "bandstructure", "dos", "dos_energy_up", "dos_energy_down", "is_magnetic", "ordering", "total_magnetization_normalized_vol", "total_magnetization_normalized_formula_units", "num_magnetic_sites", "num_unique_magnetic_sites", "types_of_magnetic_species", "bulk_modulus", "shear_modulus", "universal_anisotropy", "homogeneous_poisson", "e_total", "e_ionic", "e_electronic", "n", "e_ij_max", "weighted_surface_energy_EV_PER_ANG2", "weighted_surface_energy", "weighted_work_function", "surface_anisotropy", "shape_factor", "has_reconstructed", "possible_species", "has_props", "theoretical", "database_IDs"]}