{"builder_meta": null, "nsites": null, "elements": null, "nelements": null, "composition": null, "composition_reduced": null, "formula_pretty": "Mn7Fe3", "formula_anonymous": "A3B7", "chemsys": null, "volume": 222.089087006514, "density": 8.256018471108781, "density_atomic": 11.1044543503257, "symmetry": null, "property_name": null, "material_id": "mp-1221991", "deprecated": null, "deprecation_reasons": null, "last_updated": null, "origins": null, "warnings": null, "structure": {"@module": "pymatgen.core.structure", "@class": "Structure", "charge": 0, "lattice": {"matrix": [[6.069068, 0.0, 0.0], [0.0, 6.048625, 0.0], [0.0, 0.019881, 6.049905]], "pbc": [true, true, true], "a": 6.069068, "b": 6.048625, "c": 6.0499376660578905, "alpha": 89.81171716048517, "beta": 90.0, "gamma": 90.0, "volume": 222.089087006514}, "properties": {}, "sites": [{"species": [{"element": "Mn", "occu": 1}], "abc": [0.374573999999999, 0.949649, 0.549466], "properties": {"magmom": 0.268}, "label": "Mn", "xyz": [2.273315077031994, 5.7549946161709995, 3.32421710073]}, {"species": [{"element": "Mn", "occu": 1}], "abc": [0.874574, 0.050351, 0.450534], "properties": {"magmom": 0.268}, "label": "Mn", "xyz": [5.3078490770319995, 0.313511383829, 2.72568789927]}, {"species": [{"element": "Mn", "occu": 1}], "abc": [0.125961, 0.449013, 0.947561], "properties": {"magmom": 1.022}, "label": "Mn", "xyz": [0.764465874348, 2.7347497173660003, 5.732654031705]}, {"species": [{"element": "Mn", "occu": 1}], "abc": [0.625961, 0.550987, 0.052439], "properties": {"magmom": 1.022}, "label": "Mn", "xyz": [3.7989998743479996, 3.3337562826340004, 0.317250968295]}, {"species": [{"element": "Mn", "occu": 1}], "abc": [0.801589, 0.373851, 0.698773], "properties": {"magmom": 0.219}, "label": "Mn", "xyz": [4.864898149051999, 2.275176810888, 4.227510266565]}, {"species": [{"element": "Mn", "occu": 1}], "abc": [0.699693, 0.874076, 0.796916], "properties": {"magmom": 0.546}, "label": "Mn", "xyz": [4.246484396124, 5.3028014324960004, 4.821266092979999]}, {"species": [{"element": "Mn", "occu": 1}], "abc": [0.199692999999999, 0.125924, 0.203084], "properties": {"magmom": 0.546}, "label": "Mn", "xyz": [1.211950396123994, 0.7657045675040001, 1.22863890702]}, {"species": [{"element": "Mn", "occu": 1}], "abc": [0.301589, 0.626149, 0.301226999999999], "properties": {"magmom": 0.219}, "label": "Mn", "xyz": [1.830364149052, 3.7933291891120002, 1.8223947334349941]}, {"species": [{"element": "Mn", "occu": 1}], "abc": [0.9482, 0.797809, 0.126696], "properties": {"magmom": 1.073}, "label": "Mn", "xyz": [5.7546902776, 4.828166305801001, 0.76649876388]}, {"species": [{"element": "Mn", "occu": 1}], "abc": [0.051115999999999, 0.699087999999999, 0.622016999999999], "properties": {"magmom": 0.244}, "label": "Mn", "xyz": [0.31022647988799396, 4.240887473976994, 3.7631437583849943]}, {"species": [{"element": "Mn", "occu": 1}], "abc": [0.44820000000000004, 0.202190999999999, 0.873304], "properties": {"magmom": 1.073}, "label": "Mn", "xyz": [2.7201562776, 1.2403396941989941, 5.283406236119999]}, {"species": [{"element": "Mn", "occu": 1}], "abc": [0.551115999999999, 0.300912, 0.377982999999999], "properties": {"magmom": 0.244}, "label": "Mn", "xyz": [3.344760479887994, 1.827618526023, 2.286761241614994]}, {"species": [{"element": "Mn", "occu": 1}], "abc": [0.309393, 0.8064600000000001, 0.942345999999999], "properties": {"magmom": -0.61}, "label": "Mn", "xyz": [1.8777271557239998, 4.8967088983260005, 5.701103777129994]}, {"species": [{"element": "Mn", "occu": 1}], "abc": [0.809392999999999, 0.19354000000000002, 0.057654], "properties": {"magmom": -0.61}, "label": "Mn", "xyz": [4.912261155723994, 1.171797101674, 0.34880122287]}, {"species": [{"element": "Fe", "occu": 1}], "abc": [0.190735, 0.306473, 0.559022999999999], "properties": {"magmom": -0.84}, "label": "Fe", "xyz": [1.1575836849799999, 1.8648541858880001, 3.382036042814994]}, {"species": [{"element": "Fe", "occu": 1}], "abc": [0.690735, 0.693527, 0.440976999999999], "properties": {"magmom": -0.84}, "label": "Fe", "xyz": [4.1921176849799995, 4.203651814112001, 2.667868957184994]}, {"species": [{"element": "Fe", "occu": 1}], "abc": [0.939578999999999, 0.44083000000000006, 0.304313], "properties": {"magmom": -0.526}, "label": "Fe", "xyz": [5.702368842371994, 2.6724654055030004, 1.841064740265]}, {"species": [{"element": "Fe", "occu": 1}], "abc": [0.55916, 0.942728999999999, 0.191117999999999], "properties": {"magmom": -0.247}, "label": "Fe", "xyz": [3.39358006288, 5.706013814582994, 1.156245743789994]}, {"species": [{"element": "Fe", "occu": 1}], "abc": [0.439579, 0.5591700000000001, 0.6956869999999991], "properties": {"magmom": -0.526}, "label": "Fe", "xyz": [2.6678348423719997, 3.3960405944970007, 4.208840259734994]}, {"species": [{"element": "Fe", "occu": 1}], "abc": [0.059160000000000004, 0.057270999999999, 0.808882], "properties": {"magmom": -0.247}, "label": "Fe", "xyz": [0.35904606288, 0.362492185416994, 4.893659256209999]}]}, "task_ids": null, "uncorrected_energy_per_atom": null, "energy_per_atom": -8.8669158615, "formation_energy_per_atom": 0.08750120594827501, "energy_above_hull": 0.08750120594827401, "is_stable": false, "equilibrium_reaction_energy_per_atom": null, "decomposes_to": null, "xas": null, "grain_boundaries": null, "band_gap": 0.0, "cbm": null, "vbm": null, "efermi": 6.08665737, "is_gap_direct": null, "is_metal": null, "es_source_calc_id": null, "bandstructure": null, "dos": null, "dos_energy_up": null, "dos_energy_down": null, "is_magnetic": null, "ordering": null, "total_magnetization": 2.399815, "total_magnetization_normalized_vol": null, "total_magnetization_normalized_formula_units": null, "num_magnetic_sites": null, "num_unique_magnetic_sites": null, "types_of_magnetic_species": null, "bulk_modulus": null, "shear_modulus": null, "universal_anisotropy": null, "homogeneous_poisson": null, "e_total": null, "e_ionic": null, "e_electronic": null, "n": null, "e_ij_max": null, "weighted_surface_energy_EV_PER_ANG2": null, "weighted_surface_energy": null, "weighted_work_function": null, "surface_anisotropy": null, "shape_factor": null, "has_reconstructed": null, "possible_species": null, "has_props": null, "theoretical": null, "database_IDs": null, "fields_not_requested": ["builder_meta", "nsites", "elements", "nelements", "composition", "composition_reduced", "chemsys", "symmetry", "property_name", "deprecated", "deprecation_reasons", "last_updated", "origins", "warnings", "task_ids", "uncorrected_energy_per_atom", "equilibrium_reaction_energy_per_atom", "decomposes_to", "xas", "grain_boundaries", "cbm", "vbm", "is_gap_direct", "is_metal", "es_source_calc_id", "bandstructure", "dos", "dos_energy_up", "dos_energy_down", "is_magnetic", "ordering", "total_magnetization_normalized_vol", "total_magnetization_normalized_formula_units", "num_magnetic_sites", "num_unique_magnetic_sites", "types_of_magnetic_species", "bulk_modulus", "shear_modulus", "universal_anisotropy", "homogeneous_poisson", "e_total", "e_ionic", "e_electronic", "n", "e_ij_max", "weighted_surface_energy_EV_PER_ANG2", "weighted_surface_energy", "weighted_work_function", "surface_anisotropy", "shape_factor", "has_reconstructed", "possible_species", "has_props", "theoretical", "database_IDs"]}