{"builder_meta": null, "nsites": null, "elements": null, "nelements": null, "composition": null, "composition_reduced": null, "formula_pretty": "Mn7Sb4", "formula_anonymous": "A4B7", "chemsys": null, "volume": 186.4003226264765, "density": 7.76466647889366, "density_atomic": 16.94548387513423, "symmetry": null, "property_name": null, "material_id": "mp-1221744", "deprecated": null, "deprecation_reasons": null, "last_updated": null, "origins": null, "warnings": null, "structure": {"@module": "pymatgen.core.structure", "@class": "Structure", "charge": 0, "lattice": {"matrix": [[2.221235, -3.847292, 0.0], [2.221235, 3.847292, 0.0], [0.0, 0.0, 10.906038]], "pbc": [true, true, true], "a": 4.442470107776641, "b": 4.442470107776641, "c": 10.906038, "alpha": 90.0, "beta": 90.0, "gamma": 120.00000160506318, "volume": 186.4003226264765}, "properties": {}, "sites": [{"species": [{"element": "Mn", "occu": 1}], "abc": [0.666667, 0.333333, 0.874232], "properties": {"magmom": 3.304}, "label": "Mn", "xyz": [2.221235, -1.282433231528, 9.534407412816]}, {"species": [{"element": "Mn", "occu": 1}], "abc": [0.666667, 0.333333, 0.374525], "properties": {"magmom": 3.087}, "label": "Mn", "xyz": [2.221235, -1.282433231528, 4.08458388195]}, {"species": [{"element": "Mn", "occu": 1}], "abc": [0.666667, 0.333333, 0.125768], "properties": {"magmom": 3.304}, "label": "Mn", "xyz": [2.221235, -1.282433231528, 1.371630587184]}, {"species": [{"element": "Mn", "occu": 1}], "abc": [0.666667, 0.333333, 0.625475], "properties": {"magmom": 3.087}, "label": "Mn", "xyz": [2.221235, -1.282433231528, 6.82145411805]}, {"species": [{"element": "Mn", "occu": 1}], "abc": [0.333333, 0.666667, 0.5], "properties": {"magmom": 2.649}, "label": "Mn", "xyz": [2.221235, 1.282433231528, 5.453019]}, {"species": [{"element": "Mn", "occu": 1}], "abc": [0.0, 0.0, 0.743526], "properties": {"magmom": 2.429}, "label": "Mn", "xyz": [0.0, 0.0, 8.108922809988]}, {"species": [{"element": "Mn", "occu": 1}], "abc": [0.0, 0.0, 0.256474], "properties": {"magmom": 2.429}, "label": "Mn", "xyz": [0.0, 0.0, 2.7971151900119997]}, {"species": [{"element": "Sb", "occu": 1}], "abc": [0.333333, 0.666667, 0.758971], "properties": {"magmom": -0.10200000000000001}, "label": "Sb", "xyz": [2.221235, 1.282433231528, 8.277366566898]}, {"species": [{"element": "Sb", "occu": 1}], "abc": [0.333333, 0.666667, 0.241029], "properties": {"magmom": -0.10200000000000001}, "label": "Sb", "xyz": [2.221235, 1.282433231528, 2.6286714331020002]}, {"species": [{"element": "Sb", "occu": 1}], "abc": [0.0, 0.0, 0.0], "properties": {"magmom": -0.129}, "label": "Sb", "xyz": [0.0, 0.0, 0.0]}, {"species": [{"element": "Sb", "occu": 1}], "abc": [0.0, 0.0, 0.5], "properties": {"magmom": -0.10300000000000001}, "label": "Sb", "xyz": [0.0, 0.0, 5.453019]}]}, "task_ids": null, "uncorrected_energy_per_atom": null, "energy_per_atom": -18.74836782398119, "formation_energy_per_atom": -0.056676401379307004, "energy_above_hull": 0.17476570783698903, "is_stable": false, "equilibrium_reaction_energy_per_atom": null, "decomposes_to": null, "xas": null, "grain_boundaries": null, "band_gap": 0.0, "cbm": null, "vbm": null, "efermi": 7.95371484, "is_gap_direct": null, "is_metal": null, "es_source_calc_id": null, "bandstructure": null, "dos": null, "dos_energy_up": null, "dos_energy_down": null, "is_magnetic": null, "ordering": null, "total_magnetization": 20.4113539, "total_magnetization_normalized_vol": null, "total_magnetization_normalized_formula_units": null, "num_magnetic_sites": null, "num_unique_magnetic_sites": null, "types_of_magnetic_species": null, "bulk_modulus": null, "shear_modulus": null, "universal_anisotropy": null, "homogeneous_poisson": null, "e_total": null, "e_ionic": null, "e_electronic": null, "n": null, "e_ij_max": null, "weighted_surface_energy_EV_PER_ANG2": null, "weighted_surface_energy": null, "weighted_work_function": null, "surface_anisotropy": null, "shape_factor": null, "has_reconstructed": null, "possible_species": null, "has_props": null, "theoretical": null, "database_IDs": null, "fields_not_requested": ["builder_meta", "nsites", "elements", "nelements", "composition", "composition_reduced", "chemsys", "symmetry", "property_name", "deprecated", "deprecation_reasons", "last_updated", "origins", "warnings", "task_ids", "uncorrected_energy_per_atom", "equilibrium_reaction_energy_per_atom", "decomposes_to", "xas", "grain_boundaries", "cbm", "vbm", "is_gap_direct", "is_metal", "es_source_calc_id", "bandstructure", "dos", "dos_energy_up", "dos_energy_down", "is_magnetic", "ordering", "total_magnetization_normalized_vol", "total_magnetization_normalized_formula_units", "num_magnetic_sites", "num_unique_magnetic_sites", "types_of_magnetic_species", "bulk_modulus", "shear_modulus", "universal_anisotropy", "homogeneous_poisson", "e_total", "e_ionic", "e_electronic", "n", "e_ij_max", "weighted_surface_energy_EV_PER_ANG2", "weighted_surface_energy", "weighted_work_function", "surface_anisotropy", "shape_factor", "has_reconstructed", "possible_species", "has_props", "theoretical", "database_IDs"]}