{
  "builder_meta": null,
  "nsites": null,
  "elements": null,
  "nelements": null,
  "composition": null,
  "composition_reduced": null,
  "formula_pretty": "MnAl6",
  "formula_anonymous": "AB6",
  "chemsys": null,
  "volume": 208.61263913913808,
  "density": 3.451853780140731,
  "density_atomic": 14.900902795652721,
  "symmetry": null,
  "property_name": null,
  "material_id": "mp-173",
  "deprecated": null,
  "deprecation_reasons": null,
  "last_updated": null,
  "origins": null,
  "warnings": null,
  "structure": {
    "@module": "pymatgen.core.structure",
    "@class": "Structure",
    "charge": 0,
    "lattice": {
      "matrix": [
        [4.91040736, -0.01545824, -0.0],
        [-0.74514851, 4.85356596, -0.0],
        [0.0, -0.0, 8.75733792]
      ],
      "pbc": [true, true, true],
      "a": 4.910431691646475,
      "b": 4.91043265202018,
      "c": 8.75733792,
      "alpha": 90.0,
      "beta": 90.0,
      "gamma": 98.9086111565752,
      "volume": 208.61263913913808
    },
    "properties": {},
    "sites": [
      {
        "species": [{ "element": "Mn", "occu": 1 }],
        "abc": [0.54148376, 0.54148376, 0.75],
        "properties": { "magmom": 0.0 },
        "label": "Mn",
        "xyz": [2.2554200234712756, 2.619756759510627, 6.56800344]
      },
      {
        "species": [{ "element": "Mn", "occu": 1 }],
        "abc": [0.45851624, 0.45851624, 0.25],
        "properties": { "magmom": 0.0 },
        "label": "Mn",
        "xyz": [1.9098388265287238, 2.218350960489373, 2.18933448]
      },
      {
        "species": [{ "element": "Al", "occu": 1 }],
        "abc": [0.029202299999999, 0.39629927, 0.75],
        "properties": { "magmom": -0.0 },
        "label": "Al",
        "xyz": [-0.15190662170566463, 1.923013230682897, 6.56800344]
      },
      {
        "species": [{ "element": "Al", "occu": 1 }],
        "abc": [0.9707977, 0.60370073, 0.25],
        "properties": { "magmom": -0.0 },
        "label": "Al",
        "xyz": [4.317165471705659, 2.9150944893171027, 2.18933448]
      },
      {
        "species": [{ "element": "Al", "occu": 1 }],
        "abc": [0.32678622, 0.67321378, -0.0],
        "properties": { "magmom": -0.0 },
        "label": "Al",
        "xyz": [1.1030092147561112, 3.262435946593476, 0.0]
      },
      {
        "species": [{ "element": "Al", "occu": 1 }],
        "abc": [0.67321378, 0.32678622, 0.5],
        "properties": { "magmom": -0.0 },
        "label": "Al",
        "xyz": [3.062249635243888, 1.5756717734065242, 4.37866896]
      },
      {
        "species": [{ "element": "Al", "occu": 1 }],
        "abc": [0.67321378, 0.32678622, -0.0],
        "properties": { "magmom": -0.0 },
        "label": "Al",
        "xyz": [3.062249635243888, 1.5756717734065242, 0.0]
      },
      {
        "species": [{ "element": "Al", "occu": 1 }],
        "abc": [0.32678622, 0.67321378, 0.5],
        "properties": { "magmom": -0.0 },
        "label": "Al",
        "xyz": [1.1030092147561112, 3.262435946593476, 4.37866896]
      },
      {
        "species": [{ "element": "Al", "occu": 1 }],
        "abc": [0.14182778000000001, 0.14182778000000001, 0.10044013],
        "properties": { "magmom": -0.0 },
        "label": "Al",
        "xyz": [0.590749415820853, 0.6861780773284617, 0.8795881591387296]
      },
      {
        "species": [{ "element": "Al", "occu": 1 }],
        "abc": [0.85817222, 0.85817222, 0.60043913],
        "properties": { "magmom": -0.0 },
        "label": "Al",
        "xyz": [3.5745094341791472, 4.151929642671538, 5.25824836180081]
      },
      {
        "species": [{ "element": "Al", "occu": 1 }],
        "abc": [0.14182778000000001, 0.14182778000000001, 0.39956087],
        "properties": { "magmom": -0.0 },
        "label": "Al",
        "xyz": [0.590749415820853, 0.6861780773284617, 3.49908955819919]
      },
      {
        "species": [{ "element": "Al", "occu": 1 }],
        "abc": [0.85817222, 0.85817222, 0.8995608700000001],
        "properties": { "magmom": -0.0 },
        "label": "Al",
        "xyz": [3.5745094341791472, 4.151929642671538, 7.87775851819919]
      },
      {
        "species": [{ "element": "Al", "occu": 1 }],
        "abc": [0.60370073, 0.9707977, 0.25],
        "properties": { "magmom": -0.0 },
        "label": "Al",
        "xyz": [2.2410280481629457, 4.702498519993777, 2.18933448]
      },
      {
        "species": [{ "element": "Al", "occu": 1 }],
        "abc": [0.39629927, 0.029202299999999, 0.75],
        "properties": { "magmom": -0.0 },
        "label": "Al",
        "xyz": [1.9242308018370549, 0.13560920000621834, 6.56800344]
      }
    ]
  },
  "task_ids": null,
  "uncorrected_energy_per_atom": null,
  "energy_per_atom": -4.693050521428573,
  "formation_energy_per_atom": -0.17369762541871903,
  "energy_above_hull": 0.0,
  "is_stable": true,
  "equilibrium_reaction_energy_per_atom": null,
  "decomposes_to": null,
  "xas": null,
  "grain_boundaries": null,
  "band_gap": 0.0,
  "cbm": null,
  "vbm": null,
  "efermi": 7.86842319,
  "is_gap_direct": null,
  "is_metal": null,
  "es_source_calc_id": null,
  "bandstructure": null,
  "dos": null,
  "dos_energy_up": null,
  "dos_energy_down": null,
  "is_magnetic": null,
  "ordering": null,
  "total_magnetization": 3.7e-6,
  "total_magnetization_normalized_vol": null,
  "total_magnetization_normalized_formula_units": null,
  "num_magnetic_sites": null,
  "num_unique_magnetic_sites": null,
  "types_of_magnetic_species": null,
  "bulk_modulus": null,
  "shear_modulus": null,
  "universal_anisotropy": null,
  "homogeneous_poisson": null,
  "e_total": null,
  "e_ionic": null,
  "e_electronic": null,
  "n": null,
  "e_ij_max": null,
  "weighted_surface_energy_EV_PER_ANG2": null,
  "weighted_surface_energy": null,
  "weighted_work_function": null,
  "surface_anisotropy": null,
  "shape_factor": null,
  "has_reconstructed": null,
  "possible_species": null,
  "has_props": null,
  "theoretical": null,
  "database_IDs": null,
  "fields_not_requested": [
    "builder_meta",
    "nsites",
    "elements",
    "nelements",
    "composition",
    "composition_reduced",
    "chemsys",
    "symmetry",
    "property_name",
    "deprecated",
    "deprecation_reasons",
    "last_updated",
    "origins",
    "warnings",
    "task_ids",
    "uncorrected_energy_per_atom",
    "equilibrium_reaction_energy_per_atom",
    "decomposes_to",
    "xas",
    "grain_boundaries",
    "cbm",
    "vbm",
    "is_gap_direct",
    "is_metal",
    "es_source_calc_id",
    "bandstructure",
    "dos",
    "dos_energy_up",
    "dos_energy_down",
    "is_magnetic",
    "ordering",
    "total_magnetization_normalized_vol",
    "total_magnetization_normalized_formula_units",
    "num_magnetic_sites",
    "num_unique_magnetic_sites",
    "types_of_magnetic_species",
    "bulk_modulus",
    "shear_modulus",
    "universal_anisotropy",
    "homogeneous_poisson",
    "e_total",
    "e_ionic",
    "e_electronic",
    "n",
    "e_ij_max",
    "weighted_surface_energy_EV_PER_ANG2",
    "weighted_surface_energy",
    "weighted_work_function",
    "surface_anisotropy",
    "shape_factor",
    "has_reconstructed",
    "possible_species",
    "has_props",
    "theoretical",
    "database_IDs"
  ]
}
