{"builder_meta": null, "nsites": null, "elements": null, "nelements": null, "composition": null, "composition_reduced": null, "formula_pretty": "MnAs", "formula_anonymous": "AB", "chemsys": null, "volume": 114.79178888528295, "density": 7.514022241183258, "density_atomic": 14.34897361066037, "symmetry": null, "property_name": null, "material_id": "mp-22240", "deprecated": null, "deprecation_reasons": null, "last_updated": null, "origins": null, "warnings": null, "structure": {"@module": "pymatgen.core.structure", "@class": "Structure", "charge": 0, "lattice": {"matrix": [[3.422675, 0.0, 0.0], [0.0, 5.557221, 0.0], [0.0, 0.0, 6.035142]], "pbc": [true, true, true], "a": 3.422675, "b": 5.557221, "c": 6.035142, "alpha": 90.0, "beta": 90.0, "gamma": 90.0, "volume": 114.79178888528295}, "properties": {}, "sites": [{"species": [{"element": "Mn", "occu": 1}], "abc": [0.75, 0.9967100000000001, 0.189798], "properties": {"magmom": 1.999}, "label": "Mn", "xyz": [2.56700625, 5.538937742910001, 1.145457881316]}, {"species": [{"element": "Mn", "occu": 1}], "abc": [0.25, 0.0032900000000000004, 0.810202], "properties": {"magmom": 1.998}, "label": "Mn", "xyz": [0.85566875, 0.01828325709, 4.889684118683999]}, {"species": [{"element": "Mn", "occu": 1}], "abc": [0.75, 0.49671000000000004, 0.310202], "properties": {"magmom": 1.996}, "label": "Mn", "xyz": [2.56700625, 2.7603272429100003, 1.8721131186839997]}, {"species": [{"element": "Mn", "occu": 1}], "abc": [0.25, 0.50329, 0.689798], "properties": {"magmom": 1.996}, "label": "Mn", "xyz": [0.85566875, 2.7968937570900003, 4.1630288813159995]}, {"species": [{"element": "As", "occu": 1}], "abc": [0.75, 0.803526, 0.581168999999999], "properties": {"magmom": -0.123}, "label": "As", "xyz": [2.56700625, 4.465371561246, 3.507437440997994]}, {"species": [{"element": "As", "occu": 1}], "abc": [0.25, 0.196473999999999, 0.418830999999999], "properties": {"magmom": -0.123}, "label": "As", "xyz": [0.85566875, 1.0918494387539945, 2.527704559001994]}, {"species": [{"element": "As", "occu": 1}], "abc": [0.75, 0.303525999999999, 0.918831], "properties": {"magmom": -0.123}, "label": "As", "xyz": [2.56700625, 1.6867610612459947, 5.5452755590019995]}, {"species": [{"element": "As", "occu": 1}], "abc": [0.25, 0.696473999999999, 0.081168999999999], "properties": {"magmom": -0.123}, "label": "As", "xyz": [0.85566875, 3.870459938753995, 0.489866440997994]}]}, "task_ids": null, "uncorrected_energy_per_atom": null, "energy_per_atom": -7.181139465, "formation_energy_per_atom": -0.265070552715518, "energy_above_hull": 0.0, "is_stable": true, "equilibrium_reaction_energy_per_atom": null, "decomposes_to": null, "xas": null, "grain_boundaries": null, "band_gap": 0.0, "cbm": null, "vbm": null, "efermi": 6.78375164, "is_gap_direct": null, "is_metal": null, "es_source_calc_id": null, "bandstructure": null, "dos": null, "dos_energy_up": null, "dos_energy_down": null, "is_magnetic": null, "ordering": null, "total_magnetization": 7.4442421, "total_magnetization_normalized_vol": null, "total_magnetization_normalized_formula_units": null, "num_magnetic_sites": null, "num_unique_magnetic_sites": null, "types_of_magnetic_species": null, "bulk_modulus": null, "shear_modulus": null, "universal_anisotropy": null, "homogeneous_poisson": null, "e_total": null, "e_ionic": null, "e_electronic": null, "n": null, "e_ij_max": null, "weighted_surface_energy_EV_PER_ANG2": null, "weighted_surface_energy": null, "weighted_work_function": null, "surface_anisotropy": null, "shape_factor": null, "has_reconstructed": null, "possible_species": null, "has_props": null, "theoretical": null, "database_IDs": null, "fields_not_requested": ["builder_meta", "nsites", "elements", "nelements", "composition", "composition_reduced", "chemsys", "symmetry", "property_name", "deprecated", "deprecation_reasons", "last_updated", "origins", "warnings", "task_ids", "uncorrected_energy_per_atom", "equilibrium_reaction_energy_per_atom", "decomposes_to", "xas", "grain_boundaries", "cbm", "vbm", "is_gap_direct", "is_metal", "es_source_calc_id", "bandstructure", "dos", "dos_energy_up", "dos_energy_down", "is_magnetic", "ordering", "total_magnetization_normalized_vol", "total_magnetization_normalized_formula_units", "num_magnetic_sites", "num_unique_magnetic_sites", "types_of_magnetic_species", "bulk_modulus", "shear_modulus", "universal_anisotropy", "homogeneous_poisson", "e_total", "e_ionic", "e_electronic", "n", "e_ij_max", "weighted_surface_energy_EV_PER_ANG2", "weighted_surface_energy", "weighted_work_function", "surface_anisotropy", "shape_factor", "has_reconstructed", "possible_species", "has_props", "theoretical", "database_IDs"]}