{"builder_meta": null, "nsites": null, "elements": null, "nelements": null, "composition": null, "composition_reduced": null, "formula_pretty": "MnAu4", "formula_anonymous": "AB4", "chemsys": null, "volume": 85.34137779623893, "density": 16.398956012419386, "density_atomic": 17.068275559247787, "symmetry": null, "property_name": null, "material_id": "mp-12565", "deprecated": null, "deprecation_reasons": null, "last_updated": null, "origins": null, "warnings": null, "structure": {"@module": "pymatgen.core.structure", "@class": "Structure", "charge": 0, "lattice": {"matrix": [[3.66075882, 1e-08, 1.61733986], [1.83130853, 4.6187431, 0.8065694800000001], [-0.03538835, -0.00199986, 5.03173152]], "pbc": [true, true, true], "a": 4.002117359717555, "b": 5.0335904761825665, "c": 5.031856359646731, "alpha": 80.9492027522735, "beta": 66.56689942764822, "gamma": 66.57544167293376, "volume": 85.34137779623893}, "properties": {}, "sites": [{"species": [{"element": "Mn", "occu": 1}], "abc": [0.0, -0.0, -0.0], "properties": {"magmom": 4.225}, "label": "Mn", "xyz": [0.0, 0.0, 0.0]}, {"species": [{"element": "Au", "occu": 1}], "abc": [0.20461174000000001, 0.1938433, 0.39693323], "properties": {"magmom": 0.009000000000000001}, "label": "Au", "xyz": [1.0899743085840254, 0.8945185955129995, 2.48453625733485]}, {"species": [{"element": "Au", "occu": 1}], "abc": [0.6014686, 0.6031508, 0.19391000000000003], "properties": {"magmom": 0.009000000000000001}, "label": "Au", "xyz": [3.299524532370876, 2.785410808921566, 2.4349652274791804]}, {"species": [{"element": "Au", "occu": 1}], "abc": [0.3985314, 0.396849199999999, 0.8060900000000001], "properties": {"magmom": 0.009000000000000001}, "label": "Au", "xyz": [2.157154467629122, 1.8313324410784293, 5.0206756325208195]}, {"species": [{"element": "Au", "occu": 1}], "abc": [0.7953882600000001, 0.8061567, 0.60306677], "properties": {"magmom": 0.009000000000000001}, "label": "Au", "xyz": [4.366704691415975, 3.7222246544869995, 4.97110460266515]}]}, "task_ids": null, "uncorrected_energy_per_atom": null, "energy_per_atom": -43.644052443999996, "formation_energy_per_atom": -0.239417388896549, "energy_above_hull": 0.0, "is_stable": true, "equilibrium_reaction_energy_per_atom": null, "decomposes_to": null, "xas": null, "grain_boundaries": null, "band_gap": 0.0, "cbm": null, "vbm": null, "efermi": 5.66774929, "is_gap_direct": null, "is_metal": null, "es_source_calc_id": null, "bandstructure": null, "dos": null, "dos_energy_up": null, "dos_energy_down": null, "is_magnetic": null, "ordering": null, "total_magnetization": 4.3598782, "total_magnetization_normalized_vol": null, "total_magnetization_normalized_formula_units": null, "num_magnetic_sites": null, "num_unique_magnetic_sites": null, "types_of_magnetic_species": null, "bulk_modulus": null, "shear_modulus": null, "universal_anisotropy": null, "homogeneous_poisson": null, "e_total": null, "e_ionic": null, "e_electronic": null, "n": null, "e_ij_max": null, "weighted_surface_energy_EV_PER_ANG2": null, "weighted_surface_energy": null, "weighted_work_function": null, "surface_anisotropy": null, "shape_factor": null, "has_reconstructed": null, "possible_species": null, "has_props": null, "theoretical": null, "database_IDs": null, "fields_not_requested": ["builder_meta", "nsites", "elements", "nelements", "composition", "composition_reduced", "chemsys", "symmetry", "property_name", "deprecated", "deprecation_reasons", "last_updated", "origins", "warnings", "task_ids", "uncorrected_energy_per_atom", "equilibrium_reaction_energy_per_atom", "decomposes_to", "xas", "grain_boundaries", "cbm", "vbm", "is_gap_direct", "is_metal", "es_source_calc_id", "bandstructure", "dos", "dos_energy_up", "dos_energy_down", "is_magnetic", "ordering", "total_magnetization_normalized_vol", "total_magnetization_normalized_formula_units", "num_magnetic_sites", "num_unique_magnetic_sites", "types_of_magnetic_species", "bulk_modulus", "shear_modulus", "universal_anisotropy", "homogeneous_poisson", "e_total", "e_ionic", "e_electronic", "n", "e_ij_max", "weighted_surface_energy_EV_PER_ANG2", "weighted_surface_energy", "weighted_work_function", "surface_anisotropy", "shape_factor", "has_reconstructed", "possible_species", "has_props", "theoretical", "database_IDs"]}