{"builder_meta": null, "nsites": null, "elements": null, "nelements": null, "composition": null, "composition_reduced": null, "formula_pretty": "MnAu3", "formula_anonymous": "AB3", "chemsys": null, "volume": 136.62110432961717, "density": 15.699460535668289, "density_atomic": 17.077638041202146, "symmetry": null, "property_name": null, "material_id": "mp-1186010", "deprecated": null, "deprecation_reasons": null, "last_updated": null, "origins": null, "warnings": null, "structure": {"@module": "pymatgen.core.structure", "@class": "Structure", "charge": 0, "lattice": {"matrix": [[2.88319573, -4.99384226, 0.0], [2.88319573, 4.99384226, 0.0], [0.0, 0.0, 4.74437326]], "pbc": [true, true, true], "a": 5.766392124652307, "b": 5.766392124652307, "c": 4.74437326, "alpha": 90.0, "beta": 90.0, "gamma": 120.00000762574601, "volume": 136.62110432961717}, "properties": {}, "sites": [{"species": [{"element": "Mn", "occu": 1}], "abc": [0.333333, 0.666667, 0.75], "properties": {"magmom": 4.323}, "label": "Mn", "xyz": [2.88319573, 1.6646174158948401, 3.5582799449999998]}, {"species": [{"element": "Mn", "occu": 1}], "abc": [0.666667, 0.333333, 0.25], "properties": {"magmom": 4.323}, "label": "Mn", "xyz": [2.88319573, -1.6646174158948401, 1.186093315]}, {"species": [{"element": "Au", "occu": 1}], "abc": [0.16870689, 0.33741378, 0.25], "properties": {"magmom": 0.044}, "label": "Au", "xyz": [1.4592449546087392, 0.8424955968351714, 1.186093315]}, {"species": [{"element": "Au", "occu": 1}], "abc": [0.66258622, 0.8312931100000001, 0.25], "properties": {"magmom": 0.044}, "label": "Au", "xyz": [4.307146505391262, 0.842495596835172, 1.186093315]}, {"species": [{"element": "Au", "occu": 1}], "abc": [0.16870689, 0.8312931100000001, 0.25], "properties": {"magmom": 0.044}, "label": "Au", "xyz": [2.88319573, 3.3088510663296575, 1.186093315]}, {"species": [{"element": "Au", "occu": 1}], "abc": [0.83129201, 0.66258301, 0.75], "properties": {"magmom": 0.044}, "label": "Au", "xyz": [4.307134078817665, -0.8425061338423405, 3.5582799449999998]}, {"species": [{"element": "Au", "occu": 1}], "abc": [0.33741699, 0.16870799, 0.75], "properties": {"magmom": 0.044}, "label": "Au", "xyz": [1.4592573811823355, -0.8425061338423401, 3.5582799449999998]}, {"species": [{"element": "Au", "occu": 1}], "abc": [0.83129201, 0.16870799, 0.75], "properties": {"magmom": 0.044}, "label": "Au", "xyz": [2.88319573, -3.3088400798766857, 3.5582799449999998]}]}, "task_ids": null, "uncorrected_energy_per_atom": null, "energy_per_atom": -41.86642618, "formation_energy_per_atom": -0.256872398620686, "energy_above_hull": 0.026794163750004003, "is_stable": false, "equilibrium_reaction_energy_per_atom": null, "decomposes_to": null, "xas": null, "grain_boundaries": null, "band_gap": 0.0, "cbm": null, "vbm": null, "efermi": 4.64709038, "is_gap_direct": null, "is_metal": null, "es_source_calc_id": null, "bandstructure": null, "dos": null, "dos_energy_up": null, "dos_energy_down": null, "is_magnetic": null, "ordering": null, "total_magnetization": 9.263015, "total_magnetization_normalized_vol": null, "total_magnetization_normalized_formula_units": null, "num_magnetic_sites": null, "num_unique_magnetic_sites": null, "types_of_magnetic_species": null, "bulk_modulus": null, "shear_modulus": null, "universal_anisotropy": null, "homogeneous_poisson": null, "e_total": null, "e_ionic": null, "e_electronic": null, "n": null, "e_ij_max": null, "weighted_surface_energy_EV_PER_ANG2": null, "weighted_surface_energy": null, "weighted_work_function": null, "surface_anisotropy": null, "shape_factor": null, "has_reconstructed": null, "possible_species": null, "has_props": null, "theoretical": null, "database_IDs": null, "fields_not_requested": ["builder_meta", "nsites", "elements", "nelements", "composition", "composition_reduced", "chemsys", "symmetry", "property_name", "deprecated", "deprecation_reasons", "last_updated", "origins", "warnings", "task_ids", "uncorrected_energy_per_atom", "equilibrium_reaction_energy_per_atom", "decomposes_to", "xas", "grain_boundaries", "cbm", "vbm", "is_gap_direct", "is_metal", "es_source_calc_id", "bandstructure", "dos", "dos_energy_up", "dos_energy_down", "is_magnetic", "ordering", "total_magnetization_normalized_vol", "total_magnetization_normalized_formula_units", "num_magnetic_sites", "num_unique_magnetic_sites", "types_of_magnetic_species", "bulk_modulus", "shear_modulus", "universal_anisotropy", "homogeneous_poisson", "e_total", "e_ionic", "e_electronic", "n", "e_ij_max", "weighted_surface_energy_EV_PER_ANG2", "weighted_surface_energy", "weighted_work_function", "surface_anisotropy", "shape_factor", "has_reconstructed", "possible_species", "has_props", "theoretical", "database_IDs"]}