{"builder_meta": null, "nsites": null, "elements": null, "nelements": null, "composition": null, "composition_reduced": null, "formula_pretty": "MnAu2", "formula_anonymous": "AB2", "chemsys": null, "volume": 50.256127790466635, "density": 14.831388091619958, "density_atomic": 16.75204259682221, "symmetry": null, "property_name": null, "material_id": "mp-11252", "deprecated": null, "deprecation_reasons": null, "last_updated": null, "origins": null, "warnings": null, "structure": {"@module": "pymatgen.core.structure", "@class": "Structure", "charge": 0, "lattice": {"matrix": [[3.18337376, 1e-08, -1.16029162], [-0.42290852, 3.15515622, -1.16029162], [0.01575972, 0.01801292, 4.99032792]], "pbc": [true, true, true], "a": 3.3882362874065852, "b": 3.388235386205554, "c": 4.990385314100799, "alpha": 109.8449634723402, "beta": 109.84495644994534, "gamma": 89.99999605948986, "volume": 50.256127790466635}, "properties": {}, "sites": [{"species": [{"element": "Mn", "occu": 1}], "abc": [0.0, 0.0, -0.0], "properties": {"magmom": 4.118}, "label": "Mn", "xyz": [0.0, 0.0, 0.0]}, {"species": [{"element": "Au", "occu": 1}], "abc": [0.66032778, 0.66032778, 0.32065556], "properties": {"magmom": 0.006}, "label": "Au", "xyz": [1.8278653255384103, 2.089213251858905, 0.06783081459682827]}, {"species": [{"element": "Au", "occu": 1}], "abc": [0.33967222, 0.33967222, 0.67934444], "properties": {"magmom": 0.006}, "label": "Au", "xyz": [0.9483596344615897, 1.0839558981410955, 2.6019138654031724]}]}, "task_ids": null, "uncorrected_energy_per_atom": null, "energy_per_atom": -38.975166843333334, "formation_energy_per_atom": -0.35741518482758206, "energy_above_hull": 0.0, "is_stable": true, "equilibrium_reaction_energy_per_atom": null, "decomposes_to": null, "xas": null, "grain_boundaries": null, "band_gap": 0.0, "cbm": null, "vbm": null, "efermi": 5.00846778, "is_gap_direct": null, "is_metal": null, "es_source_calc_id": null, "bandstructure": null, "dos": null, "dos_energy_up": null, "dos_energy_down": null, "is_magnetic": null, "ordering": null, "total_magnetization": 4.193654, "total_magnetization_normalized_vol": null, "total_magnetization_normalized_formula_units": null, "num_magnetic_sites": null, "num_unique_magnetic_sites": null, "types_of_magnetic_species": null, "bulk_modulus": null, "shear_modulus": null, "universal_anisotropy": null, "homogeneous_poisson": null, "e_total": null, "e_ionic": null, "e_electronic": null, "n": null, "e_ij_max": null, "weighted_surface_energy_EV_PER_ANG2": null, "weighted_surface_energy": null, "weighted_work_function": null, "surface_anisotropy": null, "shape_factor": null, "has_reconstructed": null, "possible_species": null, "has_props": null, "theoretical": null, "database_IDs": null, "fields_not_requested": ["builder_meta", "nsites", "elements", "nelements", "composition", "composition_reduced", "chemsys", "symmetry", "property_name", "deprecated", "deprecation_reasons", "last_updated", "origins", "warnings", "task_ids", "uncorrected_energy_per_atom", "equilibrium_reaction_energy_per_atom", "decomposes_to", "xas", "grain_boundaries", "cbm", "vbm", "is_gap_direct", "is_metal", "es_source_calc_id", "bandstructure", "dos", "dos_energy_up", "dos_energy_down", "is_magnetic", "ordering", "total_magnetization_normalized_vol", "total_magnetization_normalized_formula_units", "num_magnetic_sites", "num_unique_magnetic_sites", "types_of_magnetic_species", "bulk_modulus", "shear_modulus", "universal_anisotropy", "homogeneous_poisson", "e_total", "e_ionic", "e_electronic", "n", "e_ij_max", "weighted_surface_energy_EV_PER_ANG2", "weighted_surface_energy", "weighted_work_function", "surface_anisotropy", "shape_factor", "has_reconstructed", "possible_species", "has_props", "theoretical", "database_IDs"]}