{
  "builder_meta": null,
  "nsites": null,
  "elements": null,
  "nelements": null,
  "composition": null,
  "composition_reduced": null,
  "formula_pretty": "MnB",
  "formula_anonymous": "AB",
  "chemsys": null,
  "volume": 66.60079467537595,
  "density": 6.557210516559055,
  "density_atomic": 8.325099334421994,
  "symmetry": null,
  "property_name": null,
  "material_id": "mp-8365",
  "deprecated": null,
  "deprecation_reasons": null,
  "last_updated": null,
  "origins": null,
  "warnings": null,
  "structure": {
    "@module": "pymatgen.core.structure",
    "@class": "Structure",
    "charge": 0,
    "lattice": {
      "matrix": [
        [2.95824266, 5e-7, 1e-8],
        [-7.1e-7, 4.10795503, 4.219999999999998e-6],
        [-1.399999999999999e-7, 4.829999999999999e-6, 5.4804968800000005]
      ],
      "pbc": [true, true, true],
      "a": 2.9582426600000424,
      "b": 4.10795503000223,
      "c": 5.48049688000213,
      "alpha": 89.99989064630212,
      "beta": 90.00000126993774,
      "gamma": 90.00000021864753,
      "volume": 66.60079467537597
    },
    "properties": {},
    "sites": [
      {
        "species": [{ "element": "Mn", "occu": 1 }],
        "abc": [0.25000001, 0.37723076, 0.67490224],
        "properties": { "magmom": 2.274 },
        "label": "Mn",
        "xyz": [0.7395603322622735, 1.5496503827905472, 3.6988012150388188]
      },
      {
        "species": [{ "element": "Mn", "occu": 1 }],
        "abc": [0.7499999900000001, 0.62276924, 0.32509776],
        "properties": { "magmom": 2.274 },
        "label": "Mn",
        "xyz": [2.2186814777377264, 2.5583099772094533, 1.7816998949611818]
      },
      {
        "species": [{ "element": "Mn", "occu": 1 }],
        "abc": [0.75000001, 0.87725178, 0.82508801],
        "properties": { "magmom": 2.274 },
        "label": "Mn",
        "xyz": [2.2186812862213414, 3.603715222402547, 4.521895974032921]
      },
      {
        "species": [{ "element": "Mn", "occu": 1 }],
        "abc": [0.24999999, 0.12274822, 0.17491199000000002],
        "properties": { "magmom": 2.274 },
        "label": "Mn",
        "xyz": [0.7395605237786586, 0.5042451375974534, 0.9586051359670797]
      },
      {
        "species": [{ "element": "B", "occu": 1 }],
        "abc": [0.25, 0.88377214, 0.53383945],
        "properties": { "magmom": -0.147 },
        "label": "B",
        "xyz": [0.7395599627842576, 3.6304989113314083, 2.925709172164347]
      },
      {
        "species": [{ "element": "B", "occu": 1 }],
        "abc": [0.75, 0.11622786, 0.46616055],
        "properties": { "magmom": -0.147 },
        "label": "B",
        "xyz": [2.218681847215742, 0.47746144866859236, 2.5547919378356534]
      },
      {
        "species": [{ "element": "B", "occu": 1 }],
        "abc": [0.75, 0.38376014, 0.96616484],
        "properties": { "magmom": -0.147 },
        "label": "B",
        "xyz": [2.218681587267223, 1.5764744390026817, 5.29506501815349]
      },
      {
        "species": [{ "element": "B", "occu": 1 }],
        "abc": [0.25, 0.61623986, 0.03383516],
        "properties": { "magmom": -0.147 },
        "label": "B",
        "xyz": [0.739560222732777, 2.531485920997319, 0.18543609184651003]
      }
    ]
  },
  "task_ids": null,
  "uncorrected_energy_per_atom": null,
  "energy_per_atom": -11.54302733,
  "formation_energy_per_atom": -0.528182893491377,
  "energy_above_hull": 0.0,
  "is_stable": true,
  "equilibrium_reaction_energy_per_atom": null,
  "decomposes_to": null,
  "xas": null,
  "grain_boundaries": null,
  "band_gap": 0.0,
  "cbm": null,
  "vbm": null,
  "efermi": 7.6099241,
  "is_gap_direct": null,
  "is_metal": null,
  "es_source_calc_id": null,
  "bandstructure": null,
  "dos": null,
  "dos_energy_up": null,
  "dos_energy_down": null,
  "is_magnetic": null,
  "ordering": null,
  "total_magnetization": 8.3465466,
  "total_magnetization_normalized_vol": null,
  "total_magnetization_normalized_formula_units": null,
  "num_magnetic_sites": null,
  "num_unique_magnetic_sites": null,
  "types_of_magnetic_species": null,
  "bulk_modulus": null,
  "shear_modulus": null,
  "universal_anisotropy": null,
  "homogeneous_poisson": null,
  "e_total": null,
  "e_ionic": null,
  "e_electronic": null,
  "n": null,
  "e_ij_max": null,
  "weighted_surface_energy_EV_PER_ANG2": null,
  "weighted_surface_energy": null,
  "weighted_work_function": null,
  "surface_anisotropy": null,
  "shape_factor": null,
  "has_reconstructed": null,
  "possible_species": null,
  "has_props": null,
  "theoretical": null,
  "database_IDs": null,
  "fields_not_requested": [
    "builder_meta",
    "nsites",
    "elements",
    "nelements",
    "composition",
    "composition_reduced",
    "chemsys",
    "symmetry",
    "property_name",
    "deprecated",
    "deprecation_reasons",
    "last_updated",
    "origins",
    "warnings",
    "task_ids",
    "uncorrected_energy_per_atom",
    "equilibrium_reaction_energy_per_atom",
    "decomposes_to",
    "xas",
    "grain_boundaries",
    "cbm",
    "vbm",
    "is_gap_direct",
    "is_metal",
    "es_source_calc_id",
    "bandstructure",
    "dos",
    "dos_energy_up",
    "dos_energy_down",
    "is_magnetic",
    "ordering",
    "total_magnetization_normalized_vol",
    "total_magnetization_normalized_formula_units",
    "num_magnetic_sites",
    "num_unique_magnetic_sites",
    "types_of_magnetic_species",
    "bulk_modulus",
    "shear_modulus",
    "universal_anisotropy",
    "homogeneous_poisson",
    "e_total",
    "e_ionic",
    "e_electronic",
    "n",
    "e_ij_max",
    "weighted_surface_energy_EV_PER_ANG2",
    "weighted_surface_energy",
    "weighted_work_function",
    "surface_anisotropy",
    "shape_factor",
    "has_reconstructed",
    "possible_species",
    "has_props",
    "theoretical",
    "database_IDs"
  ]
}
