{
  "builder_meta": null,
  "nsites": null,
  "elements": null,
  "nelements": null,
  "composition": null,
  "composition_reduced": null,
  "formula_pretty": "MnB4",
  "formula_anonymous": "AB4",
  "chemsys": null,
  "volume": 71.93098569794613,
  "density": 4.533098490984099,
  "density_atomic": 7.193098569794612,
  "symmetry": null,
  "property_name": null,
  "material_id": "mp-1078253",
  "deprecated": null,
  "deprecation_reasons": null,
  "last_updated": null,
  "origins": null,
  "warnings": null,
  "structure": {
    "@module": "pymatgen.core.structure",
    "@class": "Structure",
    "charge": 0,
    "lattice": {
      "matrix": [
        [0.0, -0.0, 2.93741811],
        [4.59284299, -2.62e-6, 1e-8],
        [-5.19e-6, 5.33173609, -0.0]
      ],
      "pbc": [true, true, true],
      "a": 2.93741811,
      "b": 4.592842990000747,
      "c": 5.331736090002526,
      "alpha": 90.00008845719448,
      "beta": 90.0,
      "gamma": 89.99999987524987,
      "volume": 71.93098569794613
    },
    "properties": {},
    "sites": [
      {
        "species": [{ "element": "Mn", "occu": 1 }],
        "abc": [0.5, 0.5, 0.5],
        "properties": { "magmom": 0.734 },
        "label": "Mn",
        "xyz": [2.2964189, 2.665866735, 1.46870906]
      },
      {
        "species": [{ "element": "Mn", "occu": 1 }],
        "abc": [-0.0, 0.0, 0.0],
        "properties": { "magmom": 0.734 },
        "label": "Mn",
        "xyz": [0.0, 0.0, 0.0]
      },
      {
        "species": [{ "element": "B", "occu": 1 }],
        "abc": [0.5, 0.66484153, 0.86986816],
        "properties": { "magmom": -0.001 },
        "label": "B",
        "xyz": [3.053508245905624, 4.637905720329085, 1.4687090616484153]
      },
      {
        "species": [{ "element": "B", "occu": 1 }],
        "abc": [0.5, 0.33515847, 0.13013184],
        "properties": { "magmom": -0.001 },
        "label": "B",
        "xyz": [1.5393295540943757, 0.6938277496709141, 1.4687090583515847]
      },
      {
        "species": [{ "element": "B", "occu": 1 }],
        "abc": [-0.0, 0.16484293, 0.63013228],
        "properties": { "magmom": -0.001 },
        "label": "B",
        "xyz": [0.7570944251150274, 3.3596985868615086, 1.6484293e-9]
      },
      {
        "species": [{ "element": "B", "occu": 1 }],
        "abc": [0.0, 0.8351570700000001, 0.36986772],
        "properties": { "magmom": -0.001 },
        "label": "B",
        "xyz": [3.8357433748849727, 1.9720348831384915, 8.351570700000001e-9]
      },
      {
        "species": [{ "element": "B", "occu": 1 }],
        "abc": [0.5, 0.73633585, 0.18442202],
        "properties": { "magmom": -0.017 },
        "label": "B",
        "xyz": [3.3818739898079078, 0.9832876106247747, 1.4687090623633585]
      },
      {
        "species": [{ "element": "B", "occu": 1 }],
        "abc": [0.5, 0.26366415, 0.81557798],
        "properties": { "magmom": -0.017 },
        "label": "B",
        "xyz": [1.2109638101920923, 4.348445859375225, 1.4687090576366415]
      },
      {
        "species": [{ "element": "B", "occu": 1 }],
        "abc": [-0.0, 0.23633792, 0.31557731],
        "properties": { "magmom": -0.017 },
        "label": "B",
        "xyz": [1.085461321296942, 1.6825743137067675, 2.3633792000000003e-9]
      },
      {
        "species": [{ "element": "B", "occu": 1 }],
        "abc": [0.0, 0.76366208, 0.68442269],
        "properties": { "magmom": -0.017 },
        "label": "B",
        "xyz": [3.507376478703059, 3.649159156293232, 7.6366208e-9]
      }
    ]
  },
  "task_ids": null,
  "uncorrected_energy_per_atom": null,
  "energy_per_atom": -9.068628088,
  "formation_energy_per_atom": -0.25487779489655205,
  "energy_above_hull": 0.0,
  "is_stable": true,
  "equilibrium_reaction_energy_per_atom": null,
  "decomposes_to": null,
  "xas": null,
  "grain_boundaries": null,
  "band_gap": 0.0,
  "cbm": null,
  "vbm": null,
  "efermi": 7.93951429,
  "is_gap_direct": null,
  "is_metal": null,
  "es_source_calc_id": null,
  "bandstructure": null,
  "dos": null,
  "dos_energy_up": null,
  "dos_energy_down": null,
  "is_magnetic": null,
  "ordering": null,
  "total_magnetization": 1.3649548,
  "total_magnetization_normalized_vol": null,
  "total_magnetization_normalized_formula_units": null,
  "num_magnetic_sites": null,
  "num_unique_magnetic_sites": null,
  "types_of_magnetic_species": null,
  "bulk_modulus": null,
  "shear_modulus": null,
  "universal_anisotropy": null,
  "homogeneous_poisson": null,
  "e_total": null,
  "e_ionic": null,
  "e_electronic": null,
  "n": null,
  "e_ij_max": null,
  "weighted_surface_energy_EV_PER_ANG2": null,
  "weighted_surface_energy": null,
  "weighted_work_function": null,
  "surface_anisotropy": null,
  "shape_factor": null,
  "has_reconstructed": null,
  "possible_species": null,
  "has_props": null,
  "theoretical": null,
  "database_IDs": null,
  "fields_not_requested": [
    "builder_meta",
    "nsites",
    "elements",
    "nelements",
    "composition",
    "composition_reduced",
    "chemsys",
    "symmetry",
    "property_name",
    "deprecated",
    "deprecation_reasons",
    "last_updated",
    "origins",
    "warnings",
    "task_ids",
    "uncorrected_energy_per_atom",
    "equilibrium_reaction_energy_per_atom",
    "decomposes_to",
    "xas",
    "grain_boundaries",
    "cbm",
    "vbm",
    "is_gap_direct",
    "is_metal",
    "es_source_calc_id",
    "bandstructure",
    "dos",
    "dos_energy_up",
    "dos_energy_down",
    "is_magnetic",
    "ordering",
    "total_magnetization_normalized_vol",
    "total_magnetization_normalized_formula_units",
    "num_magnetic_sites",
    "num_unique_magnetic_sites",
    "types_of_magnetic_species",
    "bulk_modulus",
    "shear_modulus",
    "universal_anisotropy",
    "homogeneous_poisson",
    "e_total",
    "e_ionic",
    "e_electronic",
    "n",
    "e_ij_max",
    "weighted_surface_energy_EV_PER_ANG2",
    "weighted_surface_energy",
    "weighted_work_function",
    "surface_anisotropy",
    "shape_factor",
    "has_reconstructed",
    "possible_species",
    "has_props",
    "theoretical",
    "database_IDs"
  ]
}
