{
  "builder_meta": null,
  "nsites": null,
  "elements": null,
  "nelements": null,
  "composition": null,
  "composition_reduced": null,
  "formula_pretty": "MnBe2",
  "formula_anonymous": "AB2",
  "chemsys": null,
  "volume": 102.89541086489749,
  "density": 4.709906088885829,
  "density_atomic": 8.574617572074791,
  "symmetry": null,
  "property_name": null,
  "material_id": "mp-11270",
  "deprecated": null,
  "deprecation_reasons": null,
  "last_updated": null,
  "origins": null,
  "warnings": null,
  "structure": {
    "@module": "pymatgen.core.structure",
    "@class": "Structure",
    "charge": 0,
    "lattice": {
      "matrix": [
        [4.18102991, 2.3230000000000003e-5, 1.14e-6],
        [-2.0904965, 3.62088549, 9.4e-7],
        [8.1e-7, 1.06e-6, 6.79667569]
      ],
      "pbc": [true, true, true],
      "a": 4.181029910064689,
      "b": 4.181027068580838,
      "c": 6.79667569000013,
      "alpha": 89.99998279395449,
      "beta": 89.99997754940128,
      "gamma": 119.99941211618885,
      "volume": 102.89541086489749
    },
    "properties": {},
    "sites": [
      {
        "species": [{ "element": "Mn", "occu": 1 }],
        "abc": [0.33333464, 0.66666636, 0.06260971],
        "properties": { "magmom": 1.619 },
        "label": "Mn",
        "xyz": [1.845834520763187e-5, 2.413930359325096, 0.4255389005828179]
      },
      {
        "species": [{ "element": "Mn", "occu": 1 }],
        "abc": [0.66666665, 0.33333535000000003, 0.56290805],
        "properties": { "magmom": 1.536 },
        "label": "Mn",
        "xyz": [2.0905172771037472, 1.2069852154678842, 3.8259045324755143]
      },
      {
        "species": [{ "element": "Mn", "occu": 1 }],
        "abc": [0.66666512, 0.33333388, 0.93708947],
        "properties": { "magmom": 1.533 },
        "label": "Mn",
        "xyz": [2.0905142562447896, 1.206980289362977, 6.369094293436068]
      },
      {
        "species": [{ "element": "Mn", "occu": 1 }],
        "abc": [0.3333331, 0.6666649, 0.43739286],
        "properties": { "magmom": 1.613999999999999 },
        "label": "Mn",
        "xyz": [1.5375258387631323e-5, 2.4139254700666455, 2.9728184252063135]
      },
      {
        "species": [{ "element": "Be", "occu": 1 }],
        "abc": [-6.000000000000001e-8, 1.00000006, 1.056e-5],
        "properties": { "magmom": -0.069 },
        "label": "Be",
        "xyz": [-2.090496876283031, 3.6208857072629295, 7.27128952744e-5]
      },
      {
        "species": [{ "element": "Be", "occu": 1 }],
        "abc": [-6.000000000000001e-8, 1.00000006, 0.49998436],
        "properties": { "magmom": -0.069 },
        "label": "Be",
        "xyz": [-2.090496471304253, 3.6208862372351573, 3.3982324849921963]
      },
      {
        "species": [{ "element": "Be", "occu": 1 }],
        "abc": [0.82974528, 0.65949346, 0.24999616],
        "properties": { "magmom": -0.068 },
        "label": "Be",
        "xyz": [2.090521265955325, 2.3879698400426794, 1.6991443890988218]
      },
      {
        "species": [{ "element": "Be", "occu": 1 }],
        "abc": [0.1702348, 0.8297642, 0.7500059],
        "properties": { "magmom": -0.066 },
        "label": "Be",
        "xyz": [-1.0228617578976529, 3.004485901462116, 5.097547841932591]
      },
      {
        "species": [{ "element": "Be", "occu": 1 }],
        "abc": [0.6595519400000001, 0.82977605, 0.75000583],
        "properties": { "magmom": -0.066 },
        "label": "Be",
        "xyz": [1.0229630675344232, 3.0045401757922607, 5.097547923997971]
      },
      {
        "species": [{ "element": "Be", "occu": 1 }],
        "abc": [0.34050554, 0.17025372, 0.24999616],
        "properties": { "magmom": -0.068 },
        "label": "Be",
        "xyz": [1.067749243985611, 0.6164773993061466, 1.6991433714801627]
      },
      {
        "species": [{ "element": "Be", "occu": 1 }],
        "abc": [0.82973609, 0.17026391, 0.2499961],
        "properties": { "magmom": -0.068 },
        "label": "Be",
        "xyz": [3.1132155042619787, 0.6165256609549026, 1.699143521412027]
      },
      {
        "species": [{ "element": "Be", "occu": 1 }],
        "abc": [0.17022595000000001, 0.34044906, 0.75000583],
        "properties": { "magmom": -0.066 },
        "label": "Be",
        "xyz": [1.282755459685616e-5, 1.2327318107931378, 5.097546906198972]
      }
    ]
  },
  "task_ids": null,
  "uncorrected_energy_per_atom": null,
  "energy_per_atom": -5.797249266666668,
  "formation_energy_per_atom": -0.250302259310346,
  "energy_above_hull": 0.0,
  "is_stable": true,
  "equilibrium_reaction_energy_per_atom": null,
  "decomposes_to": null,
  "xas": null,
  "grain_boundaries": null,
  "band_gap": 0.0,
  "cbm": null,
  "vbm": null,
  "efermi": 5.42205514,
  "is_gap_direct": null,
  "is_metal": null,
  "es_source_calc_id": null,
  "bandstructure": null,
  "dos": null,
  "dos_energy_up": null,
  "dos_energy_down": null,
  "is_magnetic": null,
  "ordering": null,
  "total_magnetization": 5.503534099999999,
  "total_magnetization_normalized_vol": null,
  "total_magnetization_normalized_formula_units": null,
  "num_magnetic_sites": null,
  "num_unique_magnetic_sites": null,
  "types_of_magnetic_species": null,
  "bulk_modulus": null,
  "shear_modulus": null,
  "universal_anisotropy": null,
  "homogeneous_poisson": null,
  "e_total": null,
  "e_ionic": null,
  "e_electronic": null,
  "n": null,
  "e_ij_max": null,
  "weighted_surface_energy_EV_PER_ANG2": null,
  "weighted_surface_energy": null,
  "weighted_work_function": null,
  "surface_anisotropy": null,
  "shape_factor": null,
  "has_reconstructed": null,
  "possible_species": null,
  "has_props": null,
  "theoretical": null,
  "database_IDs": null,
  "fields_not_requested": [
    "builder_meta",
    "nsites",
    "elements",
    "nelements",
    "composition",
    "composition_reduced",
    "chemsys",
    "symmetry",
    "property_name",
    "deprecated",
    "deprecation_reasons",
    "last_updated",
    "origins",
    "warnings",
    "task_ids",
    "uncorrected_energy_per_atom",
    "equilibrium_reaction_energy_per_atom",
    "decomposes_to",
    "xas",
    "grain_boundaries",
    "cbm",
    "vbm",
    "is_gap_direct",
    "is_metal",
    "es_source_calc_id",
    "bandstructure",
    "dos",
    "dos_energy_up",
    "dos_energy_down",
    "is_magnetic",
    "ordering",
    "total_magnetization_normalized_vol",
    "total_magnetization_normalized_formula_units",
    "num_magnetic_sites",
    "num_unique_magnetic_sites",
    "types_of_magnetic_species",
    "bulk_modulus",
    "shear_modulus",
    "universal_anisotropy",
    "homogeneous_poisson",
    "e_total",
    "e_ionic",
    "e_electronic",
    "n",
    "e_ij_max",
    "weighted_surface_energy_EV_PER_ANG2",
    "weighted_surface_energy",
    "weighted_work_function",
    "surface_anisotropy",
    "shape_factor",
    "has_reconstructed",
    "possible_species",
    "has_props",
    "theoretical",
    "database_IDs"
  ]
}
