{
  "builder_meta": null,
  "nsites": null,
  "elements": null,
  "nelements": null,
  "composition": null,
  "composition_reduced": null,
  "formula_pretty": "MnCo3",
  "formula_anonymous": "AB3",
  "chemsys": null,
  "volume": 83.16987447075893,
  "density": 9.253576256186086,
  "density_atomic": 10.396234308844866,
  "symmetry": null,
  "property_name": null,
  "material_id": "mp-1186063",
  "deprecated": null,
  "deprecation_reasons": null,
  "last_updated": null,
  "origins": null,
  "warnings": null,
  "structure": {
    "@module": "pymatgen.core.structure",
    "@class": "Structure",
    "charge": 0,
    "lattice": {
      "matrix": [
        [2.465172, -4.269802, 0.0],
        [2.465172, 4.269802, 0.0],
        [0.0, 0.0, 3.950764]
      ],
      "pbc": [true, true, true],
      "a": 4.930343001129637,
      "b": 4.930343001129637,
      "c": 3.950764,
      "alpha": 90.0,
      "beta": 90.0,
      "gamma": 119.9999865963213,
      "volume": 83.16987447075893
    },
    "properties": {},
    "sites": [
      {
        "species": [{ "element": "Mn", "occu": 1 }],
        "abc": [0.333333, 0.666667, 0.75],
        "properties": { "magmom": 1.832 },
        "label": "Mn",
        "xyz": [2.465172, 1.423270179868, 2.963073]
      },
      {
        "species": [{ "element": "Mn", "occu": 1 }],
        "abc": [0.666667, 0.333333, 0.25],
        "properties": { "magmom": 1.8290000000000002 },
        "label": "Mn",
        "xyz": [2.465172, -1.423270179868, 0.987691]
      },
      {
        "species": [{ "element": "Co", "occu": 1 }],
        "abc": [0.16786399999999901, 0.335727999999999, 0.25],
        "properties": { "magmom": -0.054 },
        "label": "Co",
        "xyz": [1.241440897823995, 0.716746042928, 0.987691]
      },
      {
        "species": [{ "element": "Co", "occu": 1 }],
        "abc": [0.664272, 0.832136, 0.25],
        "properties": { "magmom": -0.056 },
        "label": "Co",
        "xyz": [3.688903102176, 0.7167460429280004, 0.987691]
      },
      {
        "species": [{ "element": "Co", "occu": 1 }],
        "abc": [0.16786399999999901, 0.832136, 0.25],
        "properties": { "magmom": -0.049 },
        "label": "Co",
        "xyz": [2.4651719999999973, 2.8363099141440045, 0.987691]
      },
      {
        "species": [{ "element": "Co", "occu": 1 }],
        "abc": [0.832136, 0.664272, 0.75],
        "properties": { "magmom": -0.055 },
        "label": "Co",
        "xyz": [3.688903102176, -0.7167460429280004, 2.963073]
      },
      {
        "species": [{ "element": "Co", "occu": 1 }],
        "abc": [0.335727999999999, 0.16786399999999901, 0.75],
        "properties": { "magmom": -0.056 },
        "label": "Co",
        "xyz": [1.241440897823995, -0.716746042928, 2.963073]
      },
      {
        "species": [{ "element": "Co", "occu": 1 }],
        "abc": [0.832136, 0.16786399999999901, 0.75],
        "properties": { "magmom": -0.051000000000000004 },
        "label": "Co",
        "xyz": [2.4651719999999973, -2.8363099141440045, 2.963073]
      }
    ]
  },
  "task_ids": null,
  "uncorrected_energy_per_atom": null,
  "energy_per_atom": -7.54506060625,
  "formation_energy_per_atom": 0.095505756767241,
  "energy_above_hull": 0.102159766249999,
  "is_stable": false,
  "equilibrium_reaction_energy_per_atom": null,
  "decomposes_to": null,
  "xas": null,
  "grain_boundaries": null,
  "band_gap": 0.0,
  "cbm": null,
  "vbm": null,
  "efermi": 6.23514149,
  "is_gap_direct": null,
  "is_metal": null,
  "es_source_calc_id": null,
  "bandstructure": null,
  "dos": null,
  "dos_energy_up": null,
  "dos_energy_down": null,
  "is_magnetic": null,
  "ordering": null,
  "total_magnetization": 3.688674,
  "total_magnetization_normalized_vol": null,
  "total_magnetization_normalized_formula_units": null,
  "num_magnetic_sites": null,
  "num_unique_magnetic_sites": null,
  "types_of_magnetic_species": null,
  "bulk_modulus": null,
  "shear_modulus": null,
  "universal_anisotropy": null,
  "homogeneous_poisson": null,
  "e_total": null,
  "e_ionic": null,
  "e_electronic": null,
  "n": null,
  "e_ij_max": null,
  "weighted_surface_energy_EV_PER_ANG2": null,
  "weighted_surface_energy": null,
  "weighted_work_function": null,
  "surface_anisotropy": null,
  "shape_factor": null,
  "has_reconstructed": null,
  "possible_species": null,
  "has_props": null,
  "theoretical": null,
  "database_IDs": null,
  "fields_not_requested": [
    "builder_meta",
    "nsites",
    "elements",
    "nelements",
    "composition",
    "composition_reduced",
    "chemsys",
    "symmetry",
    "property_name",
    "deprecated",
    "deprecation_reasons",
    "last_updated",
    "origins",
    "warnings",
    "task_ids",
    "uncorrected_energy_per_atom",
    "equilibrium_reaction_energy_per_atom",
    "decomposes_to",
    "xas",
    "grain_boundaries",
    "cbm",
    "vbm",
    "is_gap_direct",
    "is_metal",
    "es_source_calc_id",
    "bandstructure",
    "dos",
    "dos_energy_up",
    "dos_energy_down",
    "is_magnetic",
    "ordering",
    "total_magnetization_normalized_vol",
    "total_magnetization_normalized_formula_units",
    "num_magnetic_sites",
    "num_unique_magnetic_sites",
    "types_of_magnetic_species",
    "bulk_modulus",
    "shear_modulus",
    "universal_anisotropy",
    "homogeneous_poisson",
    "e_total",
    "e_ionic",
    "e_electronic",
    "n",
    "e_ij_max",
    "weighted_surface_energy_EV_PER_ANG2",
    "weighted_surface_energy",
    "weighted_work_function",
    "surface_anisotropy",
    "shape_factor",
    "has_reconstructed",
    "possible_species",
    "has_props",
    "theoretical",
    "database_IDs"
  ]
}
