{
  "builder_meta": null,
  "nsites": null,
  "elements": null,
  "nelements": null,
  "composition": null,
  "composition_reduced": null,
  "formula_pretty": "MnF2",
  "formula_anonymous": "AB2",
  "chemsys": null,
  "volume": 153.74209755521997,
  "density": 4.015086403850772,
  "density_atomic": 12.811841462934998,
  "symmetry": null,
  "property_name": null,
  "material_id": "mp-556585",
  "deprecated": null,
  "deprecation_reasons": null,
  "last_updated": null,
  "origins": null,
  "warnings": null,
  "structure": {
    "@module": "pymatgen.core.structure",
    "@class": "Structure",
    "charge": 0,
    "lattice": {
      "matrix": [
        [4.93776393, 0.0, 0.0],
        [0.0, 5.36183097, 0.0],
        [0.0, 0.0, 5.80696703]
      ],
      "pbc": [true, true, true],
      "a": 4.93776393,
      "b": 5.36183097,
      "c": 5.80696703,
      "alpha": 90.0,
      "beta": 90.0,
      "gamma": 90.0,
      "volume": 153.74209755521997
    },
    "properties": {},
    "sites": [
      {
        "species": [{ "element": "Mn", "occu": 1 }],
        "abc": [0.5, 0.75, 0.32875831],
        "properties": { "magmom": 4.635 },
        "label": "Mn",
        "xyz": [2.468881965, 4.0213732275, 1.9090886670085192]
      },
      {
        "species": [{ "element": "Mn", "occu": 1 }],
        "abc": [0.0, 0.25, 0.17124269],
        "properties": { "magmom": 4.635 },
        "label": "Mn",
        "xyz": [0.0, 1.3404577425, 0.9944006549585107]
      },
      {
        "species": [{ "element": "Mn", "occu": 1 }],
        "abc": [0.5, 0.25, 0.67124169],
        "properties": { "magmom": 4.635 },
        "label": "Mn",
        "xyz": [2.468881965, 1.3404577425, 3.897878362991481]
      },
      {
        "species": [{ "element": "Mn", "occu": 1 }],
        "abc": [-0.0, 0.75, 0.82875731],
        "properties": { "magmom": 4.635 },
        "label": "Mn",
        "xyz": [0.0, 4.0213732275, 4.812566375041489]
      },
      {
        "species": [{ "element": "F", "occu": 1 }],
        "abc": [0.72942728, 0.07793236, 0.39524904],
        "properties": { "magmom": 0.079 },
        "label": "F",
        "xyz": [3.6017397127420105, 0.4178601414131892, 2.2951981439191513]
      },
      {
        "species": [{ "element": "F", "occu": 1 }],
        "abc": [0.22942628, 0.92206764, 0.10475196],
        "properties": { "magmom": 0.079 },
        "label": "F",
        "xyz": [1.1328528099780804, 4.94397082858681, 0.6082911780478788]
      },
      {
        "species": [{ "element": "F", "occu": 1 }],
        "abc": [0.77057372, 0.57793236, 0.10475196],
        "properties": { "magmom": 0.079 },
        "label": "F",
        "xyz": [3.8049111200219197, 3.098775626413189, 0.6082911780478788]
      },
      {
        "species": [{ "element": "F", "occu": 1 }],
        "abc": [0.27057272, 0.42206664, 0.39524904],
        "properties": { "magmom": 0.079 },
        "label": "F",
        "xyz": [1.3360242172579895, 2.2630499817558407, 2.2951981439191513]
      },
      {
        "species": [{ "element": "F", "occu": 1 }],
        "abc": [0.72942728, 0.5779333600000001, 0.60475196],
        "properties": { "magmom": 0.079 },
        "label": "F",
        "xyz": [3.6017397127420105, 3.0987809882441595, 3.5117746930478786]
      },
      {
        "species": [{ "element": "F", "occu": 1 }],
        "abc": [0.22942628, 0.42206764, 0.89524804],
        "properties": { "magmom": 0.079 },
        "label": "F",
        "xyz": [1.1328528099780804, 2.2630553435868106, 5.198675851952121]
      },
      {
        "species": [{ "element": "F", "occu": 1 }],
        "abc": [0.77057372, 0.07793236, 0.89524804],
        "properties": { "magmom": 0.079 },
        "label": "F",
        "xyz": [3.8049111200219197, 0.4178601414131892, 5.198675851952121]
      },
      {
        "species": [{ "element": "F", "occu": 1 }],
        "abc": [0.27057272, 0.92206764, 0.60475196],
        "properties": { "magmom": 0.079 },
        "label": "F",
        "xyz": [1.3360242172579895, 4.94397082858681, 3.5117746930478786]
      }
    ]
  },
  "task_ids": null,
  "uncorrected_energy_per_atom": null,
  "energy_per_atom": -7.296873797500001,
  "formation_energy_per_atom": -2.966967116810346,
  "energy_above_hull": 0.0,
  "is_stable": true,
  "equilibrium_reaction_energy_per_atom": null,
  "decomposes_to": null,
  "xas": null,
  "grain_boundaries": null,
  "band_gap": 2.3648,
  "cbm": null,
  "vbm": null,
  "efermi": 0.9521513300000001,
  "is_gap_direct": null,
  "is_metal": null,
  "es_source_calc_id": null,
  "bandstructure": null,
  "dos": null,
  "dos_energy_up": null,
  "dos_energy_down": null,
  "is_magnetic": null,
  "ordering": null,
  "total_magnetization": 20.0000012,
  "total_magnetization_normalized_vol": null,
  "total_magnetization_normalized_formula_units": null,
  "num_magnetic_sites": null,
  "num_unique_magnetic_sites": null,
  "types_of_magnetic_species": null,
  "bulk_modulus": null,
  "shear_modulus": null,
  "universal_anisotropy": null,
  "homogeneous_poisson": null,
  "e_total": null,
  "e_ionic": null,
  "e_electronic": null,
  "n": null,
  "e_ij_max": null,
  "weighted_surface_energy_EV_PER_ANG2": null,
  "weighted_surface_energy": null,
  "weighted_work_function": null,
  "surface_anisotropy": null,
  "shape_factor": null,
  "has_reconstructed": null,
  "possible_species": null,
  "has_props": null,
  "theoretical": null,
  "database_IDs": null,
  "fields_not_requested": [
    "builder_meta",
    "nsites",
    "elements",
    "nelements",
    "composition",
    "composition_reduced",
    "chemsys",
    "symmetry",
    "property_name",
    "deprecated",
    "deprecation_reasons",
    "last_updated",
    "origins",
    "warnings",
    "task_ids",
    "uncorrected_energy_per_atom",
    "equilibrium_reaction_energy_per_atom",
    "decomposes_to",
    "xas",
    "grain_boundaries",
    "cbm",
    "vbm",
    "is_gap_direct",
    "is_metal",
    "es_source_calc_id",
    "bandstructure",
    "dos",
    "dos_energy_up",
    "dos_energy_down",
    "is_magnetic",
    "ordering",
    "total_magnetization_normalized_vol",
    "total_magnetization_normalized_formula_units",
    "num_magnetic_sites",
    "num_unique_magnetic_sites",
    "types_of_magnetic_species",
    "bulk_modulus",
    "shear_modulus",
    "universal_anisotropy",
    "homogeneous_poisson",
    "e_total",
    "e_ionic",
    "e_electronic",
    "n",
    "e_ij_max",
    "weighted_surface_energy_EV_PER_ANG2",
    "weighted_surface_energy",
    "weighted_work_function",
    "surface_anisotropy",
    "shape_factor",
    "has_reconstructed",
    "possible_species",
    "has_props",
    "theoretical",
    "database_IDs"
  ]
}
