{"builder_meta": null, "nsites": null, "elements": null, "nelements": null, "composition": null, "composition_reduced": null, "formula_pretty": "MnF3", "formula_anonymous": "AB3", "chemsys": null, "volume": 114.00641645002693, "density": 3.2606856333644583, "density_atomic": 14.250802056253367, "symmetry": null, "property_name": null, "material_id": "mp-556560", "deprecated": null, "deprecation_reasons": null, "last_updated": null, "origins": null, "warnings": null, "structure": {"@module": "pymatgen.core.structure", "@class": "Structure", "charge": 0, "lattice": {"matrix": [[2.744901999999999, 4.581939, 0.0], [-2.744901999999999, 4.581939, 0.0], [0.0, 3.058885, 4.532347]], "pbc": [true, true, true], "a": 5.341221956568084, "b": 5.341221956568084, "c": 5.4679929381477805, "alpha": 61.32162454302458, "beta": 61.32162454302458, "gamma": 61.84911688734315, "volume": 114.00641645002688}, "properties": {}, "sites": [{"species": [{"element": "Mn", "occu": 1}], "abc": [0.0, 0.5, 0.0], "properties": {"magmom": 3.884}, "label": "Mn", "xyz": [-1.3724509999999994, 2.2909695, 0.0]}, {"species": [{"element": "Mn", "occu": 1}], "abc": [0.5, 0.0, 0.5], "properties": {"magmom": 3.871}, "label": "Mn", "xyz": [1.3724509999999994, 3.820412, 2.2661735]}, {"species": [{"element": "F", "occu": 1}], "abc": [0.674333, 0.325667, 0.25], "properties": {"magmom": 0.004}, "label": "F", "xyz": [0.9570540007319994, 5.34666025, 1.13308675]}, {"species": [{"element": "F", "occu": 1}], "abc": [0.325667, 0.674333, 0.75], "properties": {"magmom": 0.004}, "label": "F", "xyz": [-0.9570540007319994, 6.87610275, 3.3992602499999998]}, {"species": [{"element": "F", "occu": 1}], "abc": [0.839361999999999, 0.737607, 0.234618], "properties": {"magmom": 0.01}, "label": "F", "xyz": [0.2793075030099974, 7.9432452438209955, 1.0633701884459998]}, {"species": [{"element": "F", "occu": 1}], "abc": [0.262393, 0.160638, 0.265382], "properties": {"magmom": 0.014}, "label": "F", "xyz": [0.27930750300999985, 2.750075256179, 1.202803311554]}, {"species": [{"element": "F", "occu": 1}], "abc": [0.160638, 0.262393, 0.765382], "properties": {"magmom": 0.01}, "label": "F", "xyz": [-0.27930750300999985, 4.279517756179, 3.4689768115539996]}, {"species": [{"element": "F", "occu": 1}], "abc": [0.737607, 0.839361999999999, 0.734618], "properties": {"magmom": 0.014}, "label": "F", "xyz": [-0.2793075030099974, 9.472687743820996, 3.329543688446]}]}, "task_ids": null, "uncorrected_energy_per_atom": null, "energy_per_atom": -6.490724162499999, "formation_energy_per_atom": -2.764831058232758, "energy_above_hull": 0.0, "is_stable": true, "equilibrium_reaction_energy_per_atom": null, "decomposes_to": null, "xas": null, "grain_boundaries": null, "band_gap": 0.49360000000000004, "cbm": null, "vbm": null, "efermi": -1.64994819, "is_gap_direct": null, "is_metal": null, "es_source_calc_id": null, "bandstructure": null, "dos": null, "dos_energy_up": null, "dos_energy_down": null, "is_magnetic": null, "ordering": null, "total_magnetization": 8.0000053, "total_magnetization_normalized_vol": null, "total_magnetization_normalized_formula_units": null, "num_magnetic_sites": null, "num_unique_magnetic_sites": null, "types_of_magnetic_species": null, "bulk_modulus": null, "shear_modulus": null, "universal_anisotropy": null, "homogeneous_poisson": null, "e_total": null, "e_ionic": null, "e_electronic": null, "n": null, "e_ij_max": null, "weighted_surface_energy_EV_PER_ANG2": null, "weighted_surface_energy": null, "weighted_work_function": null, "surface_anisotropy": null, "shape_factor": null, "has_reconstructed": null, "possible_species": null, "has_props": null, "theoretical": null, "database_IDs": null, "fields_not_requested": ["builder_meta", "nsites", "elements", "nelements", "composition", "composition_reduced", "chemsys", "symmetry", "property_name", "deprecated", "deprecation_reasons", "last_updated", "origins", "warnings", "task_ids", "uncorrected_energy_per_atom", "equilibrium_reaction_energy_per_atom", "decomposes_to", "xas", "grain_boundaries", "cbm", "vbm", "is_gap_direct", "is_metal", "es_source_calc_id", "bandstructure", "dos", "dos_energy_up", "dos_energy_down", "is_magnetic", "ordering", "total_magnetization_normalized_vol", "total_magnetization_normalized_formula_units", "num_magnetic_sites", "num_unique_magnetic_sites", "types_of_magnetic_species", "bulk_modulus", "shear_modulus", "universal_anisotropy", "homogeneous_poisson", "e_total", "e_ionic", "e_electronic", "n", "e_ij_max", "weighted_surface_energy_EV_PER_ANG2", "weighted_surface_energy", "weighted_work_function", "surface_anisotropy", "shape_factor", "has_reconstructed", "possible_species", "has_props", "theoretical", "database_IDs"]}