{
  "builder_meta": null,
  "nsites": null,
  "elements": null,
  "nelements": null,
  "composition": null,
  "composition_reduced": null,
  "formula_pretty": "MnF4",
  "formula_anonymous": "AB4",
  "chemsys": null,
  "volume": 470.44652027232013,
  "density": 3.697204650692276,
  "density_atomic": 11.761163006808003,
  "symmetry": null,
  "property_name": null,
  "material_id": "mp-541103",
  "deprecated": null,
  "deprecation_reasons": null,
  "last_updated": null,
  "origins": null,
  "warnings": null,
  "structure": {
    "@module": "pymatgen.core.structure",
    "@class": "Structure",
    "charge": 0,
    "lattice": {
      "matrix": [
        [-6.2967918, 6.29654641, 2.96648996],
        [6.2968022, -6.29648747, 2.96638339],
        [6.29645924, 6.29667848, -2.96636667]
      ],
      "pbc": [true, true, true],
      "a": 9.385954738257155,
      "b": 9.385888494024405,
      "c": 9.3857812707501,
      "alpha": 95.73223502583099,
      "beta": 95.73290169323933,
      "gamma": 143.1513662573623,
      "volume": 470.4465202723202
    },
    "properties": {},
    "sites": [
      {
        "species": [{ "element": "Mn", "occu": 1 }],
        "abc": [0.23859667, 0.48835417000000003, 0.008836730000000001],
        "properties": { "magmom": 2.721 },
        "label": "Mn",
        "xyz": [1.6283161671317532, -1.5169388587762247, 2.1302273430258807]
      },
      {
        "species": [{ "element": "Mn", "occu": 1 }],
        "abc": [0.47976221, 0.9886000500000001, 0.25025029],
        "properties": { "magmom": 2.721 },
        "label": "Mn",
        "xyz": [4.779746970665412, -1.6281171909804486, 3.6134424274117465]
      },
      {
        "species": [{ "element": "Mn", "occu": 1 }],
        "abc": [0.73833729, 0.22949172, 0.74975196],
        "properties": { "magmom": 2.721 },
        "label": "Mn",
        "xyz": [1.5166904303216722, 7.924930305139702, 0.6469913593179664]
      },
      {
        "species": [{ "element": "Mn", "occu": 1 }],
        "abc": [0.4794968, 0.22974886, 0.99115505],
        "properties": { "magmom": 2.721 },
        "label": "Mn",
        "xyz": [4.668158981574414, 7.813547710088028, -0.8361836598946204]
      },
      {
        "species": [{ "element": "Mn", "occu": 1 }],
        "abc": [0.01139732, 0.26164221, 0.49115659],
        "properties": { "magmom": 2.721 },
        "label": "Mn",
        "xyz": [4.668290141815278, 1.5169919880046958, -0.6470093971090565]
      },
      {
        "species": [{ "element": "Mn", "occu": 1 }],
        "abc": [0.77024472, 0.76140032, 0.24975085],
        "properties": { "magmom": 2.721 },
        "label": "Mn",
        "xyz": [1.5168626203477613, 1.6283348545601728, 3.802675893767526]
      },
      {
        "species": [{ "element": "Mn", "occu": 1 }],
        "abc": [0.5116549, 0.52051024, 0.75025187],
        "properties": { "magmom": 2.721 },
        "label": "Mn",
        "xyz": [4.779695964793486, 4.668367423995974, 0.8363299128225443]
      },
      {
        "species": [{ "element": "Mn", "occu": 1 }],
        "abc": [0.77048899, 0.52023951, 0.50884705],
        "properties": { "magmom": 2.721 },
        "label": "Mn",
        "xyz": [1.6281712465918816, 4.7797843971615706, 2.3194507651634555]
      },
      {
        "species": [{ "element": "F", "occu": 1 }],
        "abc": [0.42768535, 0.53362126, 0.15692845],
        "properties": { "magmom": 0.024 },
        "label": "F",
        "xyz": [1.65515550809602, 0.3211290718512375, 2.3861422153741962]
      },
      {
        "species": [{ "element": "F", "occu": 1 }],
        "abc": [0.52074211, 0.177674, 0.3940689],
        "properties": { "magmom": 0.024 },
        "label": "F",
        "xyz": [0.32101215252173754, 4.641479910778818, 0.9028725928555126]
      },
      {
        "species": [{ "element": "F", "occu": 1 }],
        "abc": [0.78361782, 0.12667816, 0.60594402],
        "properties": { "magmom": 0.024 },
        "label": "F",
        "xyz": [-0.32130912307817905, 7.951893194989061, 0.9029182403930363]
      },
      {
        "species": [{ "element": "F", "occu": 1 }],
        "abc": [0.37669093000000003, 0.27076203, 0.84307235],
        "properties": { "magmom": 0.024 },
        "label": "F",
        "xyz": [4.641361275168106, 5.975557717052326, -0.5802278691358305]
      },
      {
        "species": [{ "element": "F", "occu": 1 }],
        "abc": [0.82231628, 0.21638362, 0.3430764],
        "properties": { "magmom": 0.024 },
        "label": "F",
        "xyz": [-1.6552629856446046, 5.975537653551186, 2.0635793665770326]
      },
      {
        "species": [{ "element": "F", "occu": 1 }],
        "abc": [0.72923875, 0.57230734, 0.10593093],
        "properties": { "magmom": 0.024 },
        "label": "F",
        "xyz": [-0.32116868065380844, 1.655172645343744, 3.5467324375949296]
      },
      {
        "species": [{ "element": "F", "occu": 1 }],
        "abc": [0.46639582, 0.62333139, 0.89406081],
        "properties": { "magmom": 0.024 },
        "label": "F",
        "xyz": [6.617614541197167, 4.641498101405691, 0.5804862114403764]
      },
      {
        "species": [{ "element": "F", "occu": 1 }],
        "abc": [0.87330021, 0.47923628, 0.65693159],
        "properties": { "magmom": 0.024 },
        "label": "F",
        "xyz": [1.6550094408609288, 6.617757075523517, 2.063534872862175]
      },
      {
        "species": [{ "element": "F", "occu": 1 }],
        "abc": [0.63324513, 0.53077078, 0.36279216000000003],
        "properties": { "magmom": 0.009000000000000001 },
        "label": "F",
        "xyz": [1.6390519212573404, 2.929651370824074, 2.3768103744919316]
      },
      {
        "species": [{ "element": "F", "occu": 1 }],
        "abc": [0.52045727, 0.38324818, 0.6024732700000001],
        "properties": { "magmom": 0.009000000000000001 },
        "label": "F",
        "xyz": [2.9294753007281256, 4.657546465690826, 0.8936356737698283]
      },
      {
        "species": [{ "element": "F", "occu": 1 }],
        "abc": [0.78078147, 0.91797909, 0.3975254],
        "properties": { "magmom": 0.009000000000000001 },
        "label": "F",
        "xyz": [3.366916873542748, 1.6392725554494119, 3.860052219613938]
      },
      {
        "species": [{ "element": "F", "occu": 1 }],
        "abc": [0.1679997, 0.27046723, 0.63720772],
        "properties": { "magmom": 0.009000000000000001 },
        "label": "F",
        "xyz": [4.657371951922778, 3.3671165209893346, -0.5895128205303708]
      },
      {
        "species": [{ "element": "F", "occu": 1 }],
        "abc": [0.61674673, 0.21922843, 0.13720556],
        "properties": { "magmom": 0.009000000000000001 },
        "label": "F",
        "xyz": [-1.6391784757728936, 3.366944643086317, 2.0728865556529232]
      },
      {
        "species": [{ "element": "F", "occu": 1 }],
        "abc": [0.72952801, 0.36673645, 0.89752159],
        "properties": { "magmom": 0.009000000000000001 },
        "label": "F",
        "xyz": [3.3667890023968634, 7.935760391231046, 0.5896403008099393]
      },
      {
        "species": [{ "element": "F", "occu": 1 }],
        "abc": [0.46923285000000003, 0.83202966, 0.10247745],
        "properties": { "magmom": 0.009000000000000001 },
        "label": "F",
        "xyz": [2.9297097183267597, -1.6390503576365147, 3.556107809731942]
      },
      {
        "species": [{ "element": "F", "occu": 1 }],
        "abc": [0.08201649, 0.47954093000000003, 0.86278961],
        "properties": { "magmom": 0.009000000000000001 },
        "label": "F",
        "xyz": [7.935653233377761, 2.9297059486277464, -0.8935469986097055]
      },
      {
        "species": [{ "element": "F", "occu": 1 }],
        "abc": [0.05541332, 0.19559938000000002, 0.91551887],
        "properties": { "magmom": 0.08700000000000001 },
        "label": "F",
        "xyz": [6.647251715721719, 4.88205146256533, -1.9711588523674977]
      },
      {
        "species": [{ "element": "F", "occu": 1 }],
        "abc": [0.38987694, 0.80539074, 0.35981613],
        "properties": { "magmom": 0.08700000000000001 },
        "label": "F",
        "xyz": [4.881979861130078, -0.3506079734373597, 2.4783171663809433]
      },
      {
        "species": [{ "element": "F", "occu": 1 }],
        "abc": [0.44556746, 0.0300337, 0.64019223],
        "properties": { "magmom": 0.08700000000000001 },
        "label": "F",
        "xyz": [1.4144150217190172, 6.64751401265229, -0.4881820280520297]
      },
      {
        "species": [{ "element": "F", "occu": 1 }],
        "abc": [0.28005185, 0.13986647, 0.08448554],
        "properties": { "magmom": 0.08700000000000001 },
        "label": "F",
        "xyz": [-0.3507569376732065, 1.4146702764924068, 0.9950534847774075]
      },
      {
        "species": [{ "element": "F", "occu": 1 }],
        "abc": [0.19461141, 0.55442211, 0.58449537],
        "properties": { "magmom": 0.08700000000000001 },
        "label": "F",
        "xyz": [5.945910104475922, 1.414847324213214, 0.48811374768187843]
      },
      {
        "species": [{ "element": "F", "occu": 1 }],
        "abc": [0.86012701, 0.94461991, 0.14018404],
        "properties": { "magmom": 0.08700000000000001 },
        "label": "F",
        "xyz": [1.4147071178838135, 0.3507360376394666, 4.937825686455167]
      },
      {
        "species": [{ "element": "F", "occu": 1 }],
        "abc": [0.80444212, 0.71995268, 0.85980753],
        "properties": { "magmom": 0.08700000000000001 },
        "label": "F",
        "xyz": [4.881738141419357, 5.945965685218824, 1.9715207443120746]
      },
      {
        "species": [{ "element": "F", "occu": 1 }],
        "abc": [0.96993585, 0.61012355, 0.41551059],
        "properties": { "magmom": 0.08700000000000001 },
        "label": "F",
        "xyz": [0.3505886988291316, 4.881947396785984, 3.4546085602288654]
      },
      {
        "species": [{ "element": "F", "occu": 1 }],
        "abc": [0.04954805, 0.39179733, 0.11536471000000001],
        "properties": { "magmom": 0.084 },
        "label": "F",
        "xyz": [2.8814657288015564, -1.4285508959660138, 0.9669908541827108]
      },
      {
        "species": [{ "element": "F", "occu": 1 }],
        "abc": [0.18418587, 0.79954926, 0.15775832],
        "properties": { "magmom": 0.084 },
        "label": "F",
        "xyz": [4.868142295135383, -2.8812636001315917, 2.450186156116462]
      },
      {
        "species": [{ "element": "F", "occu": 1 }],
        "abc": [0.64179067, 0.02642036, 0.8422583],
        "properties": { "magmom": 0.084 },
        "label": "F",
        "xyz": [1.4283866083019774, 9.178138985678489, -0.5162084526123678]
      },
      {
        "species": [{ "element": "F", "occu": 1 }],
        "abc": [0.27640164, 0.93416533, 0.88462903],
        "properties": { "magmom": 0.084 },
        "label": "F",
        "xyz": [9.71184135476491, 1.4286400347909716, 0.9669011385069726]
      },
      {
        "species": [{ "element": "F", "occu": 1 }],
        "abc": [0.20045957, 0.35822284, 0.38464392000000003],
        "properties": { "magmom": 0.084 },
        "label": "F",
        "xyz": [3.415300954588543, 1.4286364558326707, 0.5162926801793983]
      },
      {
        "species": [{ "element": "F", "occu": 1 }],
        "abc": [0.06580944, 0.95045406, 0.34223803],
        "properties": { "magmom": 0.084 },
        "label": "F",
        "xyz": [7.725320680125238, -3.4151870478859223, 1.9994306941768252]
      },
      {
        "species": [{ "element": "F", "occu": 1 }],
        "abc": [0.60823038, 0.72358201, 0.65774137],
        "properties": { "magmom": 0.084 },
        "label": "F",
        "xyz": [4.8677944498202965, 3.415311686044239, 1.9996288939556603]
      },
      {
        "species": [{ "element": "F", "occu": 1 }],
        "abc": [0.97357161, 0.81581736, 0.61534846],
        "properties": { "magmom": 0.084 },
        "label": "F",
        "xyz": [2.8811793134721637, 4.868006446558082, 3.4827683102038587]
      }
    ]
  },
  "task_ids": null,
  "uncorrected_energy_per_atom": null,
  "energy_per_atom": -5.760018024500001,
  "formation_energy_per_atom": -2.396533066086208,
  "energy_above_hull": 0.0,
  "is_stable": true,
  "equilibrium_reaction_energy_per_atom": null,
  "decomposes_to": null,
  "xas": null,
  "grain_boundaries": null,
  "band_gap": 1.3254000000000001,
  "cbm": null,
  "vbm": null,
  "efermi": -2.93513043,
  "is_gap_direct": null,
  "is_metal": null,
  "es_source_calc_id": null,
  "bandstructure": null,
  "dos": null,
  "dos_energy_up": null,
  "dos_energy_down": null,
  "is_magnetic": null,
  "ordering": null,
  "total_magnetization": 24.0000004,
  "total_magnetization_normalized_vol": null,
  "total_magnetization_normalized_formula_units": null,
  "num_magnetic_sites": null,
  "num_unique_magnetic_sites": null,
  "types_of_magnetic_species": null,
  "bulk_modulus": null,
  "shear_modulus": null,
  "universal_anisotropy": null,
  "homogeneous_poisson": null,
  "e_total": null,
  "e_ionic": null,
  "e_electronic": null,
  "n": null,
  "e_ij_max": null,
  "weighted_surface_energy_EV_PER_ANG2": null,
  "weighted_surface_energy": null,
  "weighted_work_function": null,
  "surface_anisotropy": null,
  "shape_factor": null,
  "has_reconstructed": null,
  "possible_species": null,
  "has_props": null,
  "theoretical": null,
  "database_IDs": null,
  "fields_not_requested": [
    "builder_meta",
    "nsites",
    "elements",
    "nelements",
    "composition",
    "composition_reduced",
    "chemsys",
    "symmetry",
    "property_name",
    "deprecated",
    "deprecation_reasons",
    "last_updated",
    "origins",
    "warnings",
    "task_ids",
    "uncorrected_energy_per_atom",
    "equilibrium_reaction_energy_per_atom",
    "decomposes_to",
    "xas",
    "grain_boundaries",
    "cbm",
    "vbm",
    "is_gap_direct",
    "is_metal",
    "es_source_calc_id",
    "bandstructure",
    "dos",
    "dos_energy_up",
    "dos_energy_down",
    "is_magnetic",
    "ordering",
    "total_magnetization_normalized_vol",
    "total_magnetization_normalized_formula_units",
    "num_magnetic_sites",
    "num_unique_magnetic_sites",
    "types_of_magnetic_species",
    "bulk_modulus",
    "shear_modulus",
    "universal_anisotropy",
    "homogeneous_poisson",
    "e_total",
    "e_ionic",
    "e_electronic",
    "n",
    "e_ij_max",
    "weighted_surface_energy_EV_PER_ANG2",
    "weighted_surface_energy",
    "weighted_work_function",
    "surface_anisotropy",
    "shape_factor",
    "has_reconstructed",
    "possible_species",
    "has_props",
    "theoretical",
    "database_IDs"
  ]
}
