{
  "builder_meta": null,
  "nsites": null,
  "elements": null,
  "nelements": null,
  "composition": null,
  "composition_reduced": null,
  "formula_pretty": "MnFe4",
  "formula_anonymous": "AB4",
  "chemsys": null,
  "volume": 56.393298444827366,
  "density": 8.195264320536085,
  "density_atomic": 11.278659688965472,
  "symmetry": null,
  "property_name": null,
  "material_id": "mp-1221635",
  "deprecated": null,
  "deprecation_reasons": null,
  "last_updated": null,
  "origins": null,
  "warnings": null,
  "structure": {
    "@module": "pymatgen.core.structure",
    "@class": "Structure",
    "charge": 0,
    "lattice": {
      "matrix": [
        [0.0, 1.997135, 10.038394],
        [1.406455, 0.0, 10.038394],
        [1.406455, 1.997135, 0.0]
      ],
      "pbc": [true, true, true],
      "a": 10.235130790930862,
      "b": 10.136442658362006,
      "c": 2.442675556689836,
      "alpha": 85.4176734312577,
      "beta": 80.82009970368198,
      "gamma": 13.762226865060313,
      "volume": 56.393298444827366
    },
    "properties": {},
    "sites": [
      {
        "species": [{ "element": "Mn", "occu": 1 }],
        "abc": [0.0, 0.0, 0.0],
        "properties": { "magmom": 0.706 },
        "label": "Mn",
        "xyz": [0.0, 0.0, 0.0]
      },
      {
        "species": [{ "element": "Fe", "occu": 1 }],
        "abc": [0.400736999999999, 0.400736999999999, 0.599263],
        "properties": { "magmom": 2.157 },
        "label": "Fe",
        "xyz": [1.4064549999999987, 1.9971349999999983, 8.045511792755981]
      },
      {
        "species": [{ "element": "Fe", "occu": 1 }],
        "abc": [0.800271, 0.800271, 0.199729],
        "properties": { "magmom": 2.324 },
        "label": "Fe",
        "xyz": [1.4064549999999998, 1.997135, 16.066871209548]
      },
      {
        "species": [{ "element": "Fe", "occu": 1 }],
        "abc": [0.199729, 0.199729, 0.800271],
        "properties": { "magmom": 2.324 },
        "label": "Fe",
        "xyz": [1.4064549999999998, 1.997135, 4.009916790452]
      },
      {
        "species": [{ "element": "Fe", "occu": 1 }],
        "abc": [0.599263, 0.599263, 0.400736999999999],
        "properties": { "magmom": 2.157 },
        "label": "Fe",
        "xyz": [1.4064549999999987, 1.9971349999999983, 12.031276207244]
      }
    ]
  },
  "task_ids": null,
  "uncorrected_energy_per_atom": null,
  "energy_per_atom": -8.572868893999999,
  "formation_energy_per_atom": 0.035551132413793006,
  "energy_above_hull": 0.035551132413793006,
  "is_stable": false,
  "equilibrium_reaction_energy_per_atom": null,
  "decomposes_to": null,
  "xas": null,
  "grain_boundaries": null,
  "band_gap": 0.0,
  "cbm": null,
  "vbm": null,
  "efermi": 5.64388682,
  "is_gap_direct": null,
  "is_metal": null,
  "es_source_calc_id": null,
  "bandstructure": null,
  "dos": null,
  "dos_energy_up": null,
  "dos_energy_down": null,
  "is_magnetic": null,
  "ordering": null,
  "total_magnetization": 9.5746914,
  "total_magnetization_normalized_vol": null,
  "total_magnetization_normalized_formula_units": null,
  "num_magnetic_sites": null,
  "num_unique_magnetic_sites": null,
  "types_of_magnetic_species": null,
  "bulk_modulus": null,
  "shear_modulus": null,
  "universal_anisotropy": null,
  "homogeneous_poisson": null,
  "e_total": null,
  "e_ionic": null,
  "e_electronic": null,
  "n": null,
  "e_ij_max": null,
  "weighted_surface_energy_EV_PER_ANG2": null,
  "weighted_surface_energy": null,
  "weighted_work_function": null,
  "surface_anisotropy": null,
  "shape_factor": null,
  "has_reconstructed": null,
  "possible_species": null,
  "has_props": null,
  "theoretical": null,
  "database_IDs": null,
  "fields_not_requested": [
    "builder_meta",
    "nsites",
    "elements",
    "nelements",
    "composition",
    "composition_reduced",
    "chemsys",
    "symmetry",
    "property_name",
    "deprecated",
    "deprecation_reasons",
    "last_updated",
    "origins",
    "warnings",
    "task_ids",
    "uncorrected_energy_per_atom",
    "equilibrium_reaction_energy_per_atom",
    "decomposes_to",
    "xas",
    "grain_boundaries",
    "cbm",
    "vbm",
    "is_gap_direct",
    "is_metal",
    "es_source_calc_id",
    "bandstructure",
    "dos",
    "dos_energy_up",
    "dos_energy_down",
    "is_magnetic",
    "ordering",
    "total_magnetization_normalized_vol",
    "total_magnetization_normalized_formula_units",
    "num_magnetic_sites",
    "num_unique_magnetic_sites",
    "types_of_magnetic_species",
    "bulk_modulus",
    "shear_modulus",
    "universal_anisotropy",
    "homogeneous_poisson",
    "e_total",
    "e_ionic",
    "e_electronic",
    "n",
    "e_ij_max",
    "weighted_surface_energy_EV_PER_ANG2",
    "weighted_surface_energy",
    "weighted_work_function",
    "surface_anisotropy",
    "shape_factor",
    "has_reconstructed",
    "possible_species",
    "has_props",
    "theoretical",
    "database_IDs"
  ]
}
