{"builder_meta": null, "nsites": null, "elements": null, "nelements": null, "composition": null, "composition_reduced": null, "formula_pretty": "MnGa4", "formula_anonymous": "AB4", "chemsys": null, "volume": 85.18751090286777, "density": 6.507266446127311, "density_atomic": 17.037502180573554, "symmetry": null, "property_name": null, "material_id": "mp-1069288", "deprecated": null, "deprecation_reasons": null, "last_updated": null, "origins": null, "warnings": null, "structure": {"@module": "pymatgen.core.structure", "@class": "Structure", "charge": 0, "lattice": {"matrix": [[-2.77186354, -2.77186456, 2.77186354], [-2.77186456, 2.77186354, -2.77186456], [2.77186354, -2.77186456, -2.77186456]], "pbc": [true, true, true], "a": 4.8010090718250735, "b": 4.8010096607223485, "c": 4.8010096607223485, "alpha": 109.4712106954453, "beta": 109.47120572592387, "gamma": 109.47122063448948, "volume": 85.18751090286779}, "properties": {}, "sites": [{"species": [{"element": "Mn", "occu": 1}], "abc": [-0.0, -0.0, -0.0], "properties": {"magmom": 1.142}, "label": "Mn", "xyz": [0.0, 0.0, 0.0]}, {"species": [{"element": "Ga", "occu": 1}], "abc": [0.5, -0.0, -0.0], "properties": {"magmom": -0.057}, "label": "Ga", "xyz": [-1.38593177, -1.38593228, 1.38593177]}, {"species": [{"element": "Ga", "occu": 1}], "abc": [0.0, 0.5, 0.0], "properties": {"magmom": -0.057}, "label": "Ga", "xyz": [-1.38593228, 1.38593177, -1.38593228]}, {"species": [{"element": "Ga", "occu": 1}], "abc": [0.0, 0.0, 0.5], "properties": {"magmom": -0.057}, "label": "Ga", "xyz": [1.38593177, -1.38593228, -1.38593228]}, {"species": [{"element": "Ga", "occu": 1}], "abc": [0.5, 0.5, 0.5], "properties": {"magmom": -0.057}, "label": "Ga", "xyz": [-1.38593228, -1.38593279, -1.38593279]}]}, "task_ids": null, "uncorrected_energy_per_atom": null, "energy_per_atom": -12.231287424, "formation_energy_per_atom": -0.140399728896551, "energy_above_hull": 0.0, "is_stable": true, "equilibrium_reaction_energy_per_atom": null, "decomposes_to": null, "xas": null, "grain_boundaries": null, "band_gap": 0.0, "cbm": null, "vbm": null, "efermi": 3.39736818, "is_gap_direct": null, "is_metal": null, "es_source_calc_id": null, "bandstructure": null, "dos": null, "dos_energy_up": null, "dos_energy_down": null, "is_magnetic": null, "ordering": null, "total_magnetization": 0.8006196, "total_magnetization_normalized_vol": null, "total_magnetization_normalized_formula_units": null, "num_magnetic_sites": null, "num_unique_magnetic_sites": null, "types_of_magnetic_species": null, "bulk_modulus": null, "shear_modulus": null, "universal_anisotropy": null, "homogeneous_poisson": null, "e_total": null, "e_ionic": null, "e_electronic": null, "n": null, "e_ij_max": null, "weighted_surface_energy_EV_PER_ANG2": null, "weighted_surface_energy": null, "weighted_work_function": null, "surface_anisotropy": null, "shape_factor": null, "has_reconstructed": null, "possible_species": null, "has_props": null, "theoretical": null, "database_IDs": null, "fields_not_requested": ["builder_meta", "nsites", "elements", "nelements", "composition", "composition_reduced", "chemsys", "symmetry", "property_name", "deprecated", "deprecation_reasons", "last_updated", "origins", "warnings", "task_ids", "uncorrected_energy_per_atom", "equilibrium_reaction_energy_per_atom", "decomposes_to", "xas", "grain_boundaries", "cbm", "vbm", "is_gap_direct", "is_metal", "es_source_calc_id", "bandstructure", "dos", "dos_energy_up", "dos_energy_down", "is_magnetic", "ordering", "total_magnetization_normalized_vol", "total_magnetization_normalized_formula_units", "num_magnetic_sites", "num_unique_magnetic_sites", "types_of_magnetic_species", "bulk_modulus", "shear_modulus", "universal_anisotropy", "homogeneous_poisson", "e_total", "e_ionic", "e_electronic", "n", "e_ij_max", "weighted_surface_energy_EV_PER_ANG2", "weighted_surface_energy", "weighted_work_function", "surface_anisotropy", "shape_factor", "has_reconstructed", "possible_species", "has_props", "theoretical", "database_IDs"]}