{"builder_meta": null, "nsites": null, "elements": null, "nelements": null, "composition": null, "composition_reduced": null, "formula_pretty": "MnGa6", "formula_anonymous": "AB6", "chemsys": null, "volume": 222.2236156140875, "density": 7.072995908528626, "density_atomic": 15.873115401006249, "symmetry": null, "property_name": null, "material_id": "mp-1104563", "deprecated": null, "deprecation_reasons": null, "last_updated": null, "origins": null, "warnings": null, "structure": {"@module": "pymatgen.core.structure", "@class": "Structure", "charge": 0, "lattice": {"matrix": [[3.8014900000000003, 3.279966, 0.0], [-3.8014900000000003, 3.279966, 0.0], [0.0, 0.0, 8.911217]], "pbc": [true, true, true], "a": 5.020906609493549, "b": 5.020906609493549, "c": 8.911217, "alpha": 90.0, "beta": 90.0, "gamma": 98.4240518294633, "volume": 222.22361561408752}, "properties": {}, "sites": [{"species": [{"element": "Mn", "occu": 1}], "abc": [0.44728, 0.44728, 0.25], "properties": {"magmom": 0.005}, "label": "Mn", "xyz": [0.0, 2.93412638496, 2.22780425]}, {"species": [{"element": "Mn", "occu": 1}], "abc": [0.5527200000000001, 0.5527200000000001, 0.75], "properties": {"magmom": 0.005}, "label": "Mn", "xyz": [0.0, 3.6258056150400004, 6.6834127500000005]}, {"species": [{"element": "Ga", "occu": 1}], "abc": [0.673531, 0.326469, 0.5], "properties": {"magmom": -0.0}, "label": "Ga", "xyz": [1.31935272238, 3.279966, 4.4556085]}, {"species": [{"element": "Ga", "occu": 1}], "abc": [0.673531, 0.326469, 0.0], "properties": {"magmom": -0.0}, "label": "Ga", "xyz": [1.31935272238, 3.279966, 0.0]}, {"species": [{"element": "Ga", "occu": 1}], "abc": [0.326469, 0.673531, 0.5], "properties": {"magmom": -0.0}, "label": "Ga", "xyz": [-1.31935272238, 3.279966, 4.4556085]}, {"species": [{"element": "Ga", "occu": 1}], "abc": [0.326469, 0.673531, 0.0], "properties": {"magmom": -0.0}, "label": "Ga", "xyz": [-1.31935272238, 3.279966, 0.0]}, {"species": [{"element": "Ga", "occu": 1}], "abc": [0.131705, 0.131705, 0.400372], "properties": {"magmom": -0.0}, "label": "Ga", "xyz": [0.0, 0.8639758440599999, 3.567801772724]}, {"species": [{"element": "Ga", "occu": 1}], "abc": [0.868294999999999, 0.868294999999999, 0.599627999999999], "properties": {"magmom": -0.0}, "label": "Ga", "xyz": [0.0, 5.695956155939993, 5.343415227275992]}, {"species": [{"element": "Ga", "occu": 1}], "abc": [0.131705, 0.131705, 0.099628], "properties": {"magmom": -0.0}, "label": "Ga", "xyz": [0.0, 0.8639758440599999, 0.887806727276]}, {"species": [{"element": "Ga", "occu": 1}], "abc": [0.868294999999999, 0.868294999999999, 0.900372], "properties": {"magmom": -0.0}, "label": "Ga", "xyz": [0.0, 5.695956155939993, 8.023410272724]}, {"species": [{"element": "Ga", "occu": 1}], "abc": [0.958445999999999, 0.599424, 0.25], "properties": {"magmom": -0.0}, "label": "Ga", "xyz": [1.3648185427799966, 5.109760632419997, 2.22780425]}, {"species": [{"element": "Ga", "occu": 1}], "abc": [0.400576, 0.041554, 0.75], "properties": {"magmom": -0.0}, "label": "Ga", "xyz": [1.3648185427800001, 1.45017136758, 6.6834127500000005]}, {"species": [{"element": "Ga", "occu": 1}], "abc": [0.041554, 0.400576, 0.75], "properties": {"magmom": -0.0}, "label": "Ga", "xyz": [-1.3648185427800001, 1.45017136758, 6.6834127500000005]}, {"species": [{"element": "Ga", "occu": 1}], "abc": [0.599424, 0.958445999999999, 0.25], "properties": {"magmom": -0.0}, "label": "Ga", "xyz": [-1.3648185427799966, 5.109760632419997, 2.22780425]}]}, "task_ids": null, "uncorrected_energy_per_atom": null, "energy_per_atom": -11.908832404999998, "formation_energy_per_atom": -0.0031194942118200003, "energy_above_hull": 0.09716602642857201, "is_stable": false, "equilibrium_reaction_energy_per_atom": null, "decomposes_to": null, "xas": null, "grain_boundaries": null, "band_gap": 0.0, "cbm": null, "vbm": null, "efermi": 4.68693758, "is_gap_direct": null, "is_metal": null, "es_source_calc_id": null, "bandstructure": null, "dos": null, "dos_energy_up": null, "dos_energy_down": null, "is_magnetic": null, "ordering": null, "total_magnetization": 0.0094472, "total_magnetization_normalized_vol": null, "total_magnetization_normalized_formula_units": null, "num_magnetic_sites": null, "num_unique_magnetic_sites": null, "types_of_magnetic_species": null, "bulk_modulus": null, "shear_modulus": null, "universal_anisotropy": null, "homogeneous_poisson": null, "e_total": null, "e_ionic": null, "e_electronic": null, "n": null, "e_ij_max": null, "weighted_surface_energy_EV_PER_ANG2": null, "weighted_surface_energy": null, "weighted_work_function": null, "surface_anisotropy": null, "shape_factor": null, "has_reconstructed": null, "possible_species": null, "has_props": null, "theoretical": null, "database_IDs": null, "fields_not_requested": ["builder_meta", "nsites", "elements", "nelements", "composition", "composition_reduced", "chemsys", "symmetry", "property_name", "deprecated", "deprecation_reasons", "last_updated", "origins", "warnings", "task_ids", "uncorrected_energy_per_atom", "equilibrium_reaction_energy_per_atom", "decomposes_to", "xas", "grain_boundaries", "cbm", "vbm", "is_gap_direct", "is_metal", "es_source_calc_id", "bandstructure", "dos", "dos_energy_up", "dos_energy_down", "is_magnetic", "ordering", "total_magnetization_normalized_vol", "total_magnetization_normalized_formula_units", "num_magnetic_sites", "num_unique_magnetic_sites", "types_of_magnetic_species", "bulk_modulus", "shear_modulus", "universal_anisotropy", "homogeneous_poisson", "e_total", "e_ionic", "e_electronic", "n", "e_ij_max", "weighted_surface_energy_EV_PER_ANG2", "weighted_surface_energy", "weighted_work_function", "surface_anisotropy", "shape_factor", "has_reconstructed", "possible_species", "has_props", "theoretical", "database_IDs"]}