{
  "builder_meta": null,
  "nsites": null,
  "elements": null,
  "nelements": null,
  "composition": null,
  "composition_reduced": null,
  "formula_pretty": "MnGe2",
  "formula_anonymous": "AB2",
  "chemsys": null,
  "volume": 89.849264155128,
  "density": 7.400614544527722,
  "density_atomic": 14.974877359188,
  "symmetry": null,
  "property_name": null,
  "material_id": "mp-1094140",
  "deprecated": null,
  "deprecation_reasons": null,
  "last_updated": null,
  "origins": null,
  "warnings": null,
  "structure": {
    "@module": "pymatgen.core.structure",
    "@class": "Structure",
    "charge": 0,
    "lattice": {
      "matrix": [
        [-2.99733483, 2.99733483, 2.50025332],
        [2.99733483, -2.99733483, 2.50025332],
        [2.99733483, 2.99733483, -2.50025332]
      ],
      "pbc": [true, true, true],
      "a": 4.921310682169261,
      "b": 4.921310682169261,
      "c": 4.921310682169261,
      "alpha": 104.95800313918878,
      "beta": 104.95800313918878,
      "gamma": 118.93244547423927,
      "volume": 89.849264155128
    },
    "properties": {},
    "sites": [
      {
        "species": [{ "element": "Mn", "occu": 1 }],
        "abc": [0.75, 0.75, 0.0],
        "properties": { "magmom": -2.5060000000000002 },
        "label": "Mn",
        "xyz": [0.0, 0.0, 3.75037998]
      },
      {
        "species": [{ "element": "Mn", "occu": 1 }],
        "abc": [0.25, 0.25, 0.0],
        "properties": { "magmom": -2.5060000000000002 },
        "label": "Mn",
        "xyz": [0.0, 0.0, 1.25012666]
      },
      {
        "species": [{ "element": "Ge", "occu": 1 }],
        "abc": [0.65855032, 0.15855032, 0.81710163],
        "properties": { "magmom": 0.13 },
        "label": "Ge",
        "xyz": [0.9504597602487728, 3.9477945902487726, -2.4752507865599682e-6]
      },
      {
        "species": [{ "element": "Ge", "occu": 1 }],
        "abc": [0.15855032, 0.34144968000000003, 0.5],
        "properties": { "magmom": 0.13 },
        "label": "Ge",
        "xyz": [2.046878037112709, 0.950456792887291, 0.0]
      },
      {
        "species": [{ "element": "Ge", "occu": 1 }],
        "abc": [0.84144968, 0.65855032, 0.5],
        "properties": { "magmom": 0.13 },
        "label": "Ge",
        "xyz": [0.9504567928872911, 2.046878037112709, 2.5002533200000006]
      },
      {
        "species": [{ "element": "Ge", "occu": 1 }],
        "abc": [0.34144968000000003, 0.84144968, 0.18289837],
        "properties": { "magmom": 0.13 },
        "label": "Ge",
        "xyz": [2.046875069751227, -0.9504597602487728, 2.5002557952507867]
      }
    ]
  },
  "task_ids": null,
  "uncorrected_energy_per_atom": null,
  "energy_per_atom": -6.170371455000001,
  "formation_energy_per_atom": -0.034347787643678004,
  "energy_above_hull": 0.047492406666666,
  "is_stable": false,
  "equilibrium_reaction_energy_per_atom": null,
  "decomposes_to": null,
  "xas": null,
  "grain_boundaries": null,
  "band_gap": 0.0,
  "cbm": null,
  "vbm": null,
  "efermi": 7.91662885,
  "is_gap_direct": null,
  "is_metal": null,
  "es_source_calc_id": null,
  "bandstructure": null,
  "dos": null,
  "dos_energy_up": null,
  "dos_energy_down": null,
  "is_magnetic": null,
  "ordering": null,
  "total_magnetization": 4.3338909,
  "total_magnetization_normalized_vol": null,
  "total_magnetization_normalized_formula_units": null,
  "num_magnetic_sites": null,
  "num_unique_magnetic_sites": null,
  "types_of_magnetic_species": null,
  "bulk_modulus": null,
  "shear_modulus": null,
  "universal_anisotropy": null,
  "homogeneous_poisson": null,
  "e_total": null,
  "e_ionic": null,
  "e_electronic": null,
  "n": null,
  "e_ij_max": null,
  "weighted_surface_energy_EV_PER_ANG2": null,
  "weighted_surface_energy": null,
  "weighted_work_function": null,
  "surface_anisotropy": null,
  "shape_factor": null,
  "has_reconstructed": null,
  "possible_species": null,
  "has_props": null,
  "theoretical": null,
  "database_IDs": null,
  "fields_not_requested": [
    "builder_meta",
    "nsites",
    "elements",
    "nelements",
    "composition",
    "composition_reduced",
    "chemsys",
    "symmetry",
    "property_name",
    "deprecated",
    "deprecation_reasons",
    "last_updated",
    "origins",
    "warnings",
    "task_ids",
    "uncorrected_energy_per_atom",
    "equilibrium_reaction_energy_per_atom",
    "decomposes_to",
    "xas",
    "grain_boundaries",
    "cbm",
    "vbm",
    "is_gap_direct",
    "is_metal",
    "es_source_calc_id",
    "bandstructure",
    "dos",
    "dos_energy_up",
    "dos_energy_down",
    "is_magnetic",
    "ordering",
    "total_magnetization_normalized_vol",
    "total_magnetization_normalized_formula_units",
    "num_magnetic_sites",
    "num_unique_magnetic_sites",
    "types_of_magnetic_species",
    "bulk_modulus",
    "shear_modulus",
    "universal_anisotropy",
    "homogeneous_poisson",
    "e_total",
    "e_ionic",
    "e_electronic",
    "n",
    "e_ij_max",
    "weighted_surface_energy_EV_PER_ANG2",
    "weighted_surface_energy",
    "weighted_work_function",
    "surface_anisotropy",
    "shape_factor",
    "has_reconstructed",
    "possible_species",
    "has_props",
    "theoretical",
    "database_IDs"
  ]
}
