{"builder_meta": null, "nsites": null, "elements": null, "nelements": null, "composition": null, "composition_reduced": null, "formula_pretty": "MnIn3", "formula_anonymous": "AB3", "chemsys": null, "volume": 89.3365091070412, "density": 7.423684899273656, "density_atomic": 22.3341272767603, "symmetry": null, "property_name": null, "material_id": "mp-1186012", "deprecated": null, "deprecation_reasons": null, "last_updated": null, "origins": null, "warnings": null, "structure": {"@module": "pymatgen.core.structure", "@class": "Structure", "charge": 0, "lattice": {"matrix": [[-2.169733, 2.169733, 4.744128], [2.169733, -2.169733, 4.744128], [2.169733, 2.169733, -4.744128]], "pbc": [true, true, true], "a": 5.649976377203891, "b": 5.649976377203891, "c": 5.649976377203891, "alpha": 134.833533146559, "beta": 134.833533146559, "gamma": 65.78896168545178, "volume": 89.3365091070412}, "properties": {}, "sites": [{"species": [{"element": "Mn", "occu": 1}], "abc": [0.0, 0.0, 0.0], "properties": {"magmom": 3.6950000000000003}, "label": "Mn", "xyz": [0.0, 0.0, 0.0]}, {"species": [{"element": "In", "occu": 1}], "abc": [0.75, 0.25, 0.5], "properties": {"magmom": -0.063}, "label": "In", "xyz": [0.0, 2.169733, 2.372064]}, {"species": [{"element": "In", "occu": 1}], "abc": [0.25, 0.75, 0.5], "properties": {"magmom": -0.063}, "label": "In", "xyz": [2.169733, 0.0, 2.372064]}, {"species": [{"element": "In", "occu": 1}], "abc": [0.5, 0.5, 0.0], "properties": {"magmom": -0.06}, "label": "In", "xyz": [0.0, 0.0, 4.744128]}]}, "task_ids": null, "uncorrected_energy_per_atom": null, "energy_per_atom": -20.36637945086207, "formation_energy_per_atom": 0.23839700301724, "energy_above_hull": 0.23839700301724, "is_stable": false, "equilibrium_reaction_energy_per_atom": null, "decomposes_to": null, "xas": null, "grain_boundaries": null, "band_gap": 0.0, "cbm": null, "vbm": null, "efermi": 7.42802746, "is_gap_direct": null, "is_metal": null, "es_source_calc_id": null, "bandstructure": null, "dos": null, "dos_energy_up": null, "dos_energy_down": null, "is_magnetic": null, "ordering": null, "total_magnetization": 3.517464, "total_magnetization_normalized_vol": null, "total_magnetization_normalized_formula_units": null, "num_magnetic_sites": null, "num_unique_magnetic_sites": null, "types_of_magnetic_species": null, "bulk_modulus": null, "shear_modulus": null, "universal_anisotropy": null, "homogeneous_poisson": null, "e_total": null, "e_ionic": null, "e_electronic": null, "n": null, "e_ij_max": null, "weighted_surface_energy_EV_PER_ANG2": null, "weighted_surface_energy": null, "weighted_work_function": null, "surface_anisotropy": null, "shape_factor": null, "has_reconstructed": null, "possible_species": null, "has_props": null, "theoretical": null, "database_IDs": null, "fields_not_requested": ["builder_meta", "nsites", "elements", "nelements", "composition", "composition_reduced", "chemsys", "symmetry", "property_name", "deprecated", "deprecation_reasons", "last_updated", "origins", "warnings", "task_ids", "uncorrected_energy_per_atom", "equilibrium_reaction_energy_per_atom", "decomposes_to", "xas", "grain_boundaries", "cbm", "vbm", "is_gap_direct", "is_metal", "es_source_calc_id", "bandstructure", "dos", "dos_energy_up", "dos_energy_down", "is_magnetic", "ordering", "total_magnetization_normalized_vol", "total_magnetization_normalized_formula_units", "num_magnetic_sites", "num_unique_magnetic_sites", "types_of_magnetic_species", "bulk_modulus", "shear_modulus", "universal_anisotropy", "homogeneous_poisson", "e_total", "e_ionic", "e_electronic", "n", "e_ij_max", "weighted_surface_energy_EV_PER_ANG2", "weighted_surface_energy", "weighted_work_function", "surface_anisotropy", "shape_factor", "has_reconstructed", "possible_species", "has_props", "theoretical", "database_IDs"]}