{"builder_meta": null, "nsites": null, "elements": null, "nelements": null, "composition": null, "composition_reduced": null, "formula_pretty": "MnIr3", "formula_anonymous": "AB3", "chemsys": null, "volume": 112.2047440877908, "density": 18.694009630083098, "density_atomic": 14.02559301097385, "symmetry": null, "property_name": null, "material_id": "mp-865022", "deprecated": null, "deprecation_reasons": null, "last_updated": null, "origins": null, "warnings": null, "structure": {"@module": "pymatgen.core.structure", "@class": "Structure", "charge": 0, "lattice": {"matrix": [[5.47063972, -0.00024328000000000002, 0.0], [-2.73553311, 4.73792657, 0.0], [0.0, 0.0, 4.32908318]], "pbc": [true, true, true], "a": 5.470639725409345, "b": 5.470931326439607, "c": 4.32908318, "alpha": 90.0, "beta": 90.0, "gamma": 120.00336358117622, "volume": 112.2047440877908}, "properties": {}, "sites": [{"species": [{"element": "Mn", "occu": 1}], "abc": [0.33286442, 0.66652122, 0.75], "properties": {"magmom": 3.431}, "label": "Mn", "xyz": [-0.0023095484008319733, 3.157847618450718, 3.2468123849999997]}, {"species": [{"element": "Mn", "occu": 1}], "abc": [0.6671363, 0.33346562, 0.25], "properties": {"magmom": 3.431}, "label": "Mn", "xyz": [2.737456096877158, 1.5797733202604594, 1.082270795]}, {"species": [{"element": "Ir", "occu": 1}], "abc": [0.16865978, 0.33713954, 0.25], "properties": {"magmom": -0.324}, "label": "Ir", "xyz": [0.0004205172742922647, 1.5973013528122995, 1.082270795]}, {"species": [{"element": "Ir", "occu": 1}], "abc": [0.66265848, 0.8312876, 0.25], "properties": {"magmom": -0.325}, "label": "Ir", "xyz": [1.35115104775039, 3.9384183957965178, 1.082270795]}, {"species": [{"element": "Ir", "occu": 1}], "abc": [0.16863509000000002, 0.83156337, 0.25], "properties": {"magmom": -0.324}, "label": "Ir", "xyz": [-1.352227310158406, 3.939845159817046, 1.082270795]}, {"species": [{"element": "Ir", "occu": 1}], "abc": [0.83134063, 0.66286329, 0.75], "properties": {"magmom": -0.324}, "label": "Ir", "xyz": [2.7346805941292924, 3.1403953454201488, 3.2468123849999997]}, {"species": [{"element": "Ir", "occu": 1}], "abc": [0.33733761, 0.16871795, 0.75], "properties": {"magmom": -0.325}, "label": "Ir", "xyz": [1.383918989839545, 0.7992911906471707, 3.2468123849999997]}, {"species": [{"element": "Ir", "occu": 1}], "abc": [0.83136369, 0.16843741, 0.75], "properties": {"magmom": -0.324}, "label": "Ir", "xyz": [4.087325112262121, 0.7978418260624806, 3.2468123849999997]}]}, "task_ids": null, "uncorrected_energy_per_atom": null, "energy_per_atom": -9.083513646249997, "formation_energy_per_atom": -0.16418418823275602, "energy_above_hull": 0.0, "is_stable": true, "equilibrium_reaction_energy_per_atom": null, "decomposes_to": null, "xas": null, "grain_boundaries": null, "band_gap": 0.0, "cbm": null, "vbm": null, "efermi": 9.41053328, "is_gap_direct": null, "is_metal": null, "es_source_calc_id": null, "bandstructure": null, "dos": null, "dos_energy_up": null, "dos_energy_down": null, "is_magnetic": null, "ordering": null, "total_magnetization": 5.0577346, "total_magnetization_normalized_vol": null, "total_magnetization_normalized_formula_units": null, "num_magnetic_sites": null, "num_unique_magnetic_sites": null, "types_of_magnetic_species": null, "bulk_modulus": null, "shear_modulus": null, "universal_anisotropy": null, "homogeneous_poisson": null, "e_total": null, "e_ionic": null, "e_electronic": null, "n": null, "e_ij_max": null, "weighted_surface_energy_EV_PER_ANG2": null, "weighted_surface_energy": null, "weighted_work_function": null, "surface_anisotropy": null, "shape_factor": null, "has_reconstructed": null, "possible_species": null, "has_props": null, "theoretical": null, "database_IDs": null, "fields_not_requested": ["builder_meta", "nsites", "elements", "nelements", "composition", "composition_reduced", "chemsys", "symmetry", "property_name", "deprecated", "deprecation_reasons", "last_updated", "origins", "warnings", "task_ids", "uncorrected_energy_per_atom", "equilibrium_reaction_energy_per_atom", "decomposes_to", "xas", "grain_boundaries", "cbm", "vbm", "is_gap_direct", "is_metal", "es_source_calc_id", "bandstructure", "dos", "dos_energy_up", "dos_energy_down", "is_magnetic", "ordering", "total_magnetization_normalized_vol", "total_magnetization_normalized_formula_units", "num_magnetic_sites", "num_unique_magnetic_sites", "types_of_magnetic_species", "bulk_modulus", "shear_modulus", "universal_anisotropy", "homogeneous_poisson", "e_total", "e_ionic", "e_electronic", "n", "e_ij_max", "weighted_surface_energy_EV_PER_ANG2", "weighted_surface_energy", "weighted_work_function", "surface_anisotropy", "shape_factor", "has_reconstructed", "possible_species", "has_props", "theoretical", "database_IDs"]}