{
  "builder_meta": null,
  "nsites": null,
  "elements": null,
  "nelements": null,
  "composition": null,
  "composition_reduced": null,
  "formula_pretty": "MnO",
  "formula_anonymous": "AB",
  "chemsys": null,
  "volume": 85.90561003874181,
  "density": 5.4848291586156375,
  "density_atomic": 10.738201254842727,
  "symmetry": null,
  "property_name": null,
  "material_id": "mp-1232659",
  "deprecated": null,
  "deprecation_reasons": null,
  "last_updated": null,
  "origins": null,
  "warnings": null,
  "structure": {
    "@module": "pymatgen.core.structure",
    "@class": "Structure",
    "charge": 0,
    "lattice": {
      "matrix": [
        [2.23066244, -1.44e-6, -2.23062314],
        [1.39e-6, -4.39705891, -1.859999999999999e-6],
        [-4.3792837, 5.5e-7, -4.37920579]
      ],
      "pbc": [true, true, true],
      "a": 3.1546052865504883,
      "b": 4.397058910000613,
      "c": 6.193187311575157,
      "alpha": 90.00000075799608,
      "beta": 90.00101439252691,
      "gamma": 89.99994390061603,
      "volume": 85.9056100387418
    },
    "properties": {},
    "sites": [
      {
        "species": [{ "element": "Mn", "occu": 1 }],
        "abc": [0.50000342, 0.49999947, 0.7391394],
        "properties": { "magmom": -4.461 },
        "label": "Mn",
        "xyz": [-2.121561582582972, -2.1985274380370328, -4.352163668827279]
      },
      {
        "species": [{ "element": "Mn", "occu": 1 }],
        "abc": [1.51e-6, 3.799999999999998e-7, 0.01085157],
        "properties": { "magmom": -4.461 },
        "label": "Mn",
        "xyz": [-0.0475187353195964, -1.664916196699999e-6, -0.0475246264162385]
      },
      {
        "species": [{ "element": "Mn", "occu": 1 }],
        "abc": [0.49997282, 0.49999947, 0.23913476],
        "properties": { "magmom": 4.461 },
        "label": "Mn",
        "xyz": [0.06803232902273204, -2.1985277129955207, -2.1624721972443295]
      },
      {
        "species": [{ "element": "Mn", "occu": 1 }],
        "abc": [8.68e-6, 6.000000000000001e-8, 0.51078809],
        "properties": { "magmom": 4.461 },
        "label": "Mn",
        "xyz": [-2.2368665945410706, 1.70974157e-8, -2.236865523000008]
      },
      {
        "species": [{ "element": "O", "occu": 1 }],
        "abc": [2.379999999999999e-6, 0.49999986, 0.49314103000000004],
        "properties": { "magmom": 0.064 },
        "label": "O",
        "xyz": [-2.159598470503799, -2.198528568187613, -2.1595722927453767]
      },
      {
        "species": [{ "element": "O", "occu": 1 }],
        "abc": [0.50000386, 5.5e-7, 0.75692311],
        "properties": { "magmom": -0.064 },
        "label": "O",
        "xyz": [-2.1994412074185243, -2.7220802484e-6, -4.430042246103151]
      },
      {
        "species": [{ "element": "O", "occu": 1 }],
        "abc": [3.06e-6, 0.49999951000000004, 0.99310319],
        "properties": { "magmom": -0.064 },
        "label": "O",
        "xyz": [-4.349073091558617, -2.1985267542387863, -4.349010995421367]
      },
      {
        "species": [{ "element": "O", "occu": 1 }],
        "abc": [0.50000427, 7e-7, 0.25691984],
        "properties": { "magmom": 0.064 },
        "label": "O",
        "xyz": [
          -0.009784122589016064, -3.6566414737999996e-6, -2.240425945655984
        ]
      }
    ]
  },
  "task_ids": null,
  "uncorrected_energy_per_atom": null,
  "energy_per_atom": -9.087557915000001,
  "formation_energy_per_atom": -2.032569766465519,
  "energy_above_hull": 0.0,
  "is_stable": true,
  "equilibrium_reaction_energy_per_atom": null,
  "decomposes_to": null,
  "xas": null,
  "grain_boundaries": null,
  "band_gap": 1.310499999999998,
  "cbm": null,
  "vbm": null,
  "efermi": 4.23508976,
  "is_gap_direct": null,
  "is_metal": null,
  "es_source_calc_id": null,
  "bandstructure": null,
  "dos": null,
  "dos_energy_up": null,
  "dos_energy_down": null,
  "is_magnetic": null,
  "ordering": null,
  "total_magnetization": 0.0,
  "total_magnetization_normalized_vol": null,
  "total_magnetization_normalized_formula_units": null,
  "num_magnetic_sites": null,
  "num_unique_magnetic_sites": null,
  "types_of_magnetic_species": null,
  "bulk_modulus": null,
  "shear_modulus": null,
  "universal_anisotropy": null,
  "homogeneous_poisson": null,
  "e_total": null,
  "e_ionic": null,
  "e_electronic": null,
  "n": null,
  "e_ij_max": null,
  "weighted_surface_energy_EV_PER_ANG2": null,
  "weighted_surface_energy": null,
  "weighted_work_function": null,
  "surface_anisotropy": null,
  "shape_factor": null,
  "has_reconstructed": null,
  "possible_species": null,
  "has_props": null,
  "theoretical": null,
  "database_IDs": null,
  "fields_not_requested": [
    "builder_meta",
    "nsites",
    "elements",
    "nelements",
    "composition",
    "composition_reduced",
    "chemsys",
    "symmetry",
    "property_name",
    "deprecated",
    "deprecation_reasons",
    "last_updated",
    "origins",
    "warnings",
    "task_ids",
    "uncorrected_energy_per_atom",
    "equilibrium_reaction_energy_per_atom",
    "decomposes_to",
    "xas",
    "grain_boundaries",
    "cbm",
    "vbm",
    "is_gap_direct",
    "is_metal",
    "es_source_calc_id",
    "bandstructure",
    "dos",
    "dos_energy_up",
    "dos_energy_down",
    "is_magnetic",
    "ordering",
    "total_magnetization_normalized_vol",
    "total_magnetization_normalized_formula_units",
    "num_magnetic_sites",
    "num_unique_magnetic_sites",
    "types_of_magnetic_species",
    "bulk_modulus",
    "shear_modulus",
    "universal_anisotropy",
    "homogeneous_poisson",
    "e_total",
    "e_ionic",
    "e_electronic",
    "n",
    "e_ij_max",
    "weighted_surface_energy_EV_PER_ANG2",
    "weighted_surface_energy",
    "weighted_work_function",
    "surface_anisotropy",
    "shape_factor",
    "has_reconstructed",
    "possible_species",
    "has_props",
    "theoretical",
    "database_IDs"
  ]
}
