{
  "builder_meta": null,
  "nsites": null,
  "elements": null,
  "nelements": null,
  "composition": null,
  "composition_reduced": null,
  "formula_pretty": "MnO2",
  "formula_anonymous": "AB2",
  "chemsys": null,
  "volume": 173.18380507009397,
  "density": 5.001461680242682,
  "density_atomic": 9.62132250389411,
  "symmetry": null,
  "property_name": null,
  "material_id": "mp-644514",
  "deprecated": null,
  "deprecation_reasons": null,
  "last_updated": null,
  "origins": null,
  "warnings": null,
  "structure": {
    "@module": "pymatgen.core.structure",
    "@class": "Structure",
    "charge": 0,
    "lattice": {
      "matrix": [
        [-4.938e-5, 2.85692486, 0.00027846],
        [0.1593273, 0.00038935, 8.88722583],
        [6.82319939, -1.4291447, 0.12624916]
      ],
      "pbc": [true, true, true],
      "a": 2.8569248739972797,
      "b": 8.888653907850047,
      "c": 6.97240585018078,
      "alpha": 87.95775816570327,
      "beta": 101.82871926958234,
      "gamma": 89.99192438951768,
      "volume": 173.18380507009397
    },
    "properties": {},
    "sites": [
      {
        "species": [{ "element": "Mn", "occu": 1 }],
        "abc": [0.34298813, 0.26024942, 0.68026836],
        "properties": { "magmom": -2.795 },
        "label": "Mn",
        "xyz": [4.683054559649607, 0.007790722121896687, 2.3988741851657758]
      },
      {
        "species": [{ "element": "Mn", "occu": 1 }],
        "abc": [0.34346528, 0.75947429, 0.68173574],
        "properties": { "magmom": -2.752 },
        "label": "Mn",
        "xyz": [4.77260691303879, 0.007251178672094127, 6.835783733167758]
      },
      {
        "species": [{ "element": "Mn", "occu": 1 }],
        "abc": [0.65998789, 0.24174788, 0.31613516],
        "properties": { "magmom": -2.799 },
        "label": "Mn",
        "xyz": [2.1955376776686686, 1.4338270463793714, 2.188563582108055]
      },
      {
        "species": [{ "element": "Mn", "occu": 1 }],
        "abc": [0.66006027, 0.74226316, 0.31679547],
        "properties": { "magmom": 2.799 },
        "label": "Mn",
        "xyz": [2.2797888490548988, 1.4332850276881492, 6.636839290571512]
      },
      {
        "species": [{ "element": "Mn", "occu": 1 }],
        "abc": [0.00189299, 0.00176274, 0.99729192],
        "properties": { "magmom": 2.729 },
        "label": "Mn",
        "xyz": [6.805002379324885, -1.4198656453072735, 0.1415736627563568]
      },
      {
        "species": [{ "element": "Mn", "occu": 1 }],
        "abc": [0.00355582, 0.5006052, 0.99848541],
        "properties": { "magmom": 2.735 },
        "label": "Mn",
        "xyz": [6.892624939731469, -1.4166265105385216, 4.575050398510709]
      },
      {
        "species": [{ "element": "O", "occu": 1 }],
        "abc": [0.56286545, 0.098237899999999, 0.11984895],
        "properties": { "magmom": 0.018000000000000002 },
        "label": "O",
        "xyz": [0.8333774676008894, 1.436821054173387, 0.8883499671425372]
      },
      {
        "species": [{ "element": "O", "occu": 1 }],
        "abc": [0.56468156, 0.59664708, 0.12217777],
        "properties": { "magmom": 0.06 },
        "label": "O",
        "xyz": [0.9286775700694115, 1.4388753788348607, 5.318119422830447]
      },
      {
        "species": [{ "element": "O", "occu": 1 }],
        "abc": [0.44177187, 0.40360271000000003, 0.8760844600000001],
        "properties": { "magmom": 0.025 },
        "label": "O",
        "xyz": [6.041982068422522, 0.010214717805464568, 3.6976363723289736]
      },
      {
        "species": [{ "element": "O", "occu": 1 }],
        "abc": [0.44166265, 0.90374802, 0.87723607],
        "properties": { "magmom": 0.018000000000000002 },
        "label": "O",
        "xyz": [6.129526540315287, 0.008451598720736975, 8.142686049496078]
      },
      {
        "species": [{ "element": "O", "occu": 1 }],
        "abc": [0.10234862, 0.348766199999999, 0.19975649],
        "properties": { "magmom": -0.057 },
        "label": "O",
        "xyz": [1.4185412837189453, 0.007057180010560216, 3.124811570334711]
      },
      {
        "species": [{ "element": "O", "occu": 1 }],
        "abc": [0.10304945, 0.849948399999999, 0.20203161],
        "properties": { "magmom": 0.055 },
        "label": "O",
        "xyz": [1.513916853242197, 0.006003058259899996, 7.579218390852958]
      },
      {
        "species": [{ "element": "O", "occu": 1 }],
        "abc": [0.90123814, 0.15274533, 0.796256299999999],
        "properties": { "magmom": -0.053 },
        "label": "O",
        "xyz": [5.457307498320806, 1.4368636473537875, 1.4582598899800463]
      },
      {
        "species": [{ "element": "O", "occu": 1 }],
        "abc": [0.90244572, 0.65265019, 0.7989565200000001],
        "properties": { "magmom": -0.054 },
        "label": "O",
        "xyz": [5.555380069748057, 1.4366492455316315, 5.901368511084123]
      },
      {
        "species": [{ "element": "O", "occu": 1 }],
        "abc": [0.22837109, 0.14327891, 0.45176482],
        "properties": { "magmom": 0.021 },
        "label": "O",
        "xyz": [3.1052984091602784, 0.006857531820451901, 1.330450551102518]
      },
      {
        "species": [{ "element": "O", "occu": 1 }],
        "abc": [0.22891333, 0.64376333, 0.45358659],
        "properties": { "magmom": 0.008 },
        "label": "O",
        "xyz": [3.197469513667854, 0.005997961425346254, 5.77859876396345]
      },
      {
        "species": [{ "element": "O", "occu": 1 }],
        "abc": [0.77507484, 0.35861153, 0.54472537],
        "properties": { "magmom": 0.021 },
        "label": "O",
        "xyz": [3.773868145929694, 1.4359788286646893, 3.2560486000849553]
      },
      {
        "species": [{ "element": "O", "occu": 1 }],
        "abc": [0.77547491, 0.85749569, 0.546246],
        "properties": { "magmom": -0.005 },
        "label": "O",
        "xyz": [3.8637295540882213, 1.4351428388359642, 7.689936882678472]
      }
    ]
  },
  "task_ids": null,
  "uncorrected_energy_per_atom": null,
  "energy_per_atom": -8.17517369138889,
  "formation_energy_per_atom": -1.8225279240325691,
  "energy_above_hull": 0.0,
  "is_stable": true,
  "equilibrium_reaction_energy_per_atom": null,
  "decomposes_to": null,
  "xas": null,
  "grain_boundaries": null,
  "band_gap": 0.540999999999999,
  "cbm": null,
  "vbm": null,
  "efermi": 2.60980021,
  "is_gap_direct": null,
  "is_metal": null,
  "es_source_calc_id": null,
  "bandstructure": null,
  "dos": null,
  "dos_energy_up": null,
  "dos_energy_down": null,
  "is_magnetic": null,
  "ordering": null,
  "total_magnetization": 8e-7,
  "total_magnetization_normalized_vol": null,
  "total_magnetization_normalized_formula_units": null,
  "num_magnetic_sites": null,
  "num_unique_magnetic_sites": null,
  "types_of_magnetic_species": null,
  "bulk_modulus": null,
  "shear_modulus": null,
  "universal_anisotropy": null,
  "homogeneous_poisson": null,
  "e_total": null,
  "e_ionic": null,
  "e_electronic": null,
  "n": null,
  "e_ij_max": null,
  "weighted_surface_energy_EV_PER_ANG2": null,
  "weighted_surface_energy": null,
  "weighted_work_function": null,
  "surface_anisotropy": null,
  "shape_factor": null,
  "has_reconstructed": null,
  "possible_species": null,
  "has_props": null,
  "theoretical": null,
  "database_IDs": null,
  "fields_not_requested": [
    "builder_meta",
    "nsites",
    "elements",
    "nelements",
    "composition",
    "composition_reduced",
    "chemsys",
    "symmetry",
    "property_name",
    "deprecated",
    "deprecation_reasons",
    "last_updated",
    "origins",
    "warnings",
    "task_ids",
    "uncorrected_energy_per_atom",
    "equilibrium_reaction_energy_per_atom",
    "decomposes_to",
    "xas",
    "grain_boundaries",
    "cbm",
    "vbm",
    "is_gap_direct",
    "is_metal",
    "es_source_calc_id",
    "bandstructure",
    "dos",
    "dos_energy_up",
    "dos_energy_down",
    "is_magnetic",
    "ordering",
    "total_magnetization_normalized_vol",
    "total_magnetization_normalized_formula_units",
    "num_magnetic_sites",
    "num_unique_magnetic_sites",
    "types_of_magnetic_species",
    "bulk_modulus",
    "shear_modulus",
    "universal_anisotropy",
    "homogeneous_poisson",
    "e_total",
    "e_ionic",
    "e_electronic",
    "n",
    "e_ij_max",
    "weighted_surface_energy_EV_PER_ANG2",
    "weighted_surface_energy",
    "weighted_work_function",
    "surface_anisotropy",
    "shape_factor",
    "has_reconstructed",
    "possible_species",
    "has_props",
    "theoretical",
    "database_IDs"
  ]
}
