{"builder_meta": null, "nsites": null, "elements": null, "nelements": null, "composition": null, "composition_reduced": null, "formula_pretty": "MnO3", "formula_anonymous": "AB3", "chemsys": null, "volume": 93.06587031718803, "density": 3.673304845461494, "density_atomic": 11.633233789648504, "symmetry": null, "property_name": null, "material_id": "mp-1086672", "deprecated": null, "deprecation_reasons": null, "last_updated": null, "origins": null, "warnings": null, "structure": {"@module": "pymatgen.core.structure", "@class": "Structure", "charge": 0, "lattice": {"matrix": [[-2.6064, 2.844543, 3.138173], [2.6064, -2.844543, 3.138173], [2.6064, 2.844543, -3.138173]], "pbc": [true, true, true], "a": 4.973215822461157, "b": 4.973215822461157, "c": 4.973215822461157, "alpha": 116.78633770387157, "beta": 110.22421314729563, "gamma": 101.74992891941444, "volume": 93.06587031718803}, "properties": {}, "sites": [{"species": [{"element": "Mn", "occu": 1}], "abc": [0.5, 0.5, 0.0], "properties": {"magmom": 3.763}, "label": "Mn", "xyz": [0.0, 0.0, 3.138173]}, {"species": [{"element": "Mn", "occu": 1}], "abc": [0.0, 0.0, 0.0], "properties": {"magmom": 3.763}, "label": "Mn", "xyz": [0.0, 0.0, 0.0]}, {"species": [{"element": "O", "occu": 1}], "abc": [0.75, 0.566049, 0.816048999999999], "properties": {"magmom": -0.221}, "label": "O", "xyz": [1.6475002271999974, 2.844542999999997, 1.5690865000000036]}, {"species": [{"element": "O", "occu": 1}], "abc": [0.25, 0.433951, 0.183951], "properties": {"magmom": -0.221}, "label": "O", "xyz": [0.9588997727999998, 1.1102230246251565e-16, 1.5690865]}, {"species": [{"element": "O", "occu": 1}], "abc": [0.109327, 0.109327, 0.5], "properties": {"magmom": -0.257}, "label": "O", "xyz": [1.3032, 1.4222715, -0.882912420858]}, {"species": [{"element": "O", "occu": 1}], "abc": [0.390673, 0.890672999999999, 0.0], "properties": {"magmom": -0.257}, "label": "O", "xyz": [1.3031999999999975, -1.4222714999999972, 4.021085420857997]}, {"species": [{"element": "O", "occu": 1}], "abc": [0.609327, 0.109327, 0.0], "properties": {"magmom": -0.257}, "label": "O", "xyz": [-1.3032, 1.4222714999999997, 2.255260579142]}, {"species": [{"element": "O", "occu": 1}], "abc": [0.890672999999999, 0.890672999999999, 0.5], "properties": {"magmom": -0.257}, "label": "O", "xyz": [1.3032, 1.4222715, 4.021085420857994]}]}, "task_ids": null, "uncorrected_energy_per_atom": null, "energy_per_atom": -6.87571106125, "formation_energy_per_atom": -0.874236484482758, "energy_above_hull": 0.49265945854166704, "is_stable": false, "equilibrium_reaction_energy_per_atom": null, "decomposes_to": null, "xas": null, "grain_boundaries": null, "band_gap": 0.0, "cbm": null, "vbm": null, "efermi": 1.66279373, "is_gap_direct": null, "is_metal": null, "es_source_calc_id": null, "bandstructure": null, "dos": null, "dos_energy_up": null, "dos_energy_down": null, "is_magnetic": null, "ordering": null, "total_magnetization": 6.0032235, "total_magnetization_normalized_vol": null, "total_magnetization_normalized_formula_units": null, "num_magnetic_sites": null, "num_unique_magnetic_sites": null, "types_of_magnetic_species": null, "bulk_modulus": null, "shear_modulus": null, "universal_anisotropy": null, "homogeneous_poisson": null, "e_total": null, "e_ionic": null, "e_electronic": null, "n": null, "e_ij_max": null, "weighted_surface_energy_EV_PER_ANG2": null, "weighted_surface_energy": null, "weighted_work_function": null, "surface_anisotropy": null, "shape_factor": null, "has_reconstructed": null, "possible_species": null, "has_props": null, "theoretical": null, "database_IDs": null, "fields_not_requested": ["builder_meta", "nsites", "elements", "nelements", "composition", "composition_reduced", "chemsys", "symmetry", "property_name", "deprecated", "deprecation_reasons", "last_updated", "origins", "warnings", "task_ids", "uncorrected_energy_per_atom", "equilibrium_reaction_energy_per_atom", "decomposes_to", "xas", "grain_boundaries", "cbm", "vbm", "is_gap_direct", "is_metal", "es_source_calc_id", "bandstructure", "dos", "dos_energy_up", "dos_energy_down", "is_magnetic", "ordering", "total_magnetization_normalized_vol", "total_magnetization_normalized_formula_units", "num_magnetic_sites", "num_unique_magnetic_sites", "types_of_magnetic_species", "bulk_modulus", "shear_modulus", "universal_anisotropy", "homogeneous_poisson", "e_total", "e_ionic", "e_electronic", "n", "e_ij_max", "weighted_surface_energy_EV_PER_ANG2", "weighted_surface_energy", "weighted_work_function", "surface_anisotropy", "shape_factor", "has_reconstructed", "possible_species", "has_props", "theoretical", "database_IDs"]}