{
  "builder_meta": null,
  "nsites": null,
  "elements": null,
  "nelements": null,
  "composition": null,
  "composition_reduced": null,
  "formula_pretty": "MnO4",
  "formula_anonymous": "AB4",
  "chemsys": null,
  "volume": 163.7800968094913,
  "density": 2.411737308514323,
  "density_atomic": 16.37800968094913,
  "symmetry": null,
  "property_name": null,
  "material_id": "mp-1221594",
  "deprecated": null,
  "deprecation_reasons": null,
  "last_updated": null,
  "origins": null,
  "warnings": null,
  "structure": {
    "@module": "pymatgen.core.structure",
    "@class": "Structure",
    "charge": 0,
    "lattice": {
      "matrix": [
        [-2.874027, 2.874027, 4.957006],
        [2.874027, -2.874027, 4.957006],
        [2.874027, 2.874027, -4.957006]
      ],
      "pbc": [true, true, true],
      "a": 6.410301933411093,
      "b": 6.410301933411093,
      "c": 6.410301933411093,
      "alpha": 126.72489570365826,
      "beta": 126.72489570365826,
      "gamma": 78.69995330810887,
      "volume": 163.7800968094913
    },
    "properties": {},
    "sites": [
      {
        "species": [{ "element": "Mn", "occu": 1 }],
        "abc": [0.5, 0.5, 0.0],
        "properties": { "magmom": 0.45 },
        "label": "Mn",
        "xyz": [0.0, 0.0, 4.957006]
      },
      {
        "species": [{ "element": "Mn", "occu": 1 }],
        "abc": [0.25, 0.75, 0.5],
        "properties": { "magmom": 0.45 },
        "label": "Mn",
        "xyz": [2.874027, 0.0, 2.478503]
      },
      {
        "species": [{ "element": "O", "occu": 1 }],
        "abc": [0.155138, 0.425985, 0.270847],
        "properties": { "magmom": -0.303 },
        "label": "O",
        "xyz": [1.556843181738, 0.0, 1.5380399936559999]
      },
      {
        "species": [{ "element": "O", "occu": 1 }],
        "abc": [0.175985, 0.405138, 0.770847],
        "properties": { "magmom": -0.293 },
        "label": "O",
        "xyz": [2.874027, 1.5568431817379997, -0.9404630063439998]
      },
      {
        "species": [{ "element": "O", "occu": 1 }],
        "abc": [0.634290999999999, 0.405138, 0.229153],
        "properties": { "magmom": -0.305 },
        "label": "O",
        "xyz": [2.6645352591003757e-15, 1.3171838182619973, 4.016542993655995]
      },
      {
        "species": [{ "element": "O", "occu": 1 }],
        "abc": [0.155138, 0.884290999999999, 0.729152999999999],
        "properties": { "magmom": -0.309 },
        "label": "O",
        "xyz": [4.191210818261994, 0.0, 1.538039993656]
      },
      {
        "species": [{ "element": "O", "occu": 1 }],
        "abc": [0.594862, 0.824014999999999, 0.229153],
        "properties": { "magmom": -0.303 },
        "label": "O",
        "xyz": [1.317183818261997, 2.886579864025407e-15, 5.897469006343995]
      },
      {
        "species": [{ "element": "O", "occu": 1 }],
        "abc": [0.574014999999999, 0.844862, 0.729152999999999],
        "properties": { "magmom": -0.293 },
        "label": "O",
        "xyz": [2.874027, 1.3171838182619944, 3.4189660063440006]
      },
      {
        "species": [{ "element": "O", "occu": 1 }],
        "abc": [0.11570899999999901, 0.844862, 0.270847],
        "properties": { "magmom": -0.305 },
        "label": "O",
        "xyz": [2.8740270000000026, -1.3171838182620028, 3.4189660063439957]
      },
      {
        "species": [{ "element": "O", "occu": 1 }],
        "abc": [0.594862, 0.365709, 0.770847],
        "properties": { "magmom": -0.309 },
        "label": "O",
        "xyz": [1.5568431817379997, 2.874027, 0.9404630063440003]
      }
    ]
  },
  "task_ids": null,
  "uncorrected_energy_per_atom": null,
  "energy_per_atom": -6.364089424,
  "formation_energy_per_atom": -0.5733175615862071,
  "energy_above_hull": 0.520199192833332,
  "is_stable": false,
  "equilibrium_reaction_energy_per_atom": null,
  "decomposes_to": null,
  "xas": null,
  "grain_boundaries": null,
  "band_gap": 0.0,
  "cbm": null,
  "vbm": null,
  "efermi": -3.04161779,
  "is_gap_direct": null,
  "is_metal": null,
  "es_source_calc_id": null,
  "bandstructure": null,
  "dos": null,
  "dos_energy_up": null,
  "dos_energy_down": null,
  "is_magnetic": null,
  "ordering": null,
  "total_magnetization": 2.0017804,
  "total_magnetization_normalized_vol": null,
  "total_magnetization_normalized_formula_units": null,
  "num_magnetic_sites": null,
  "num_unique_magnetic_sites": null,
  "types_of_magnetic_species": null,
  "bulk_modulus": null,
  "shear_modulus": null,
  "universal_anisotropy": null,
  "homogeneous_poisson": null,
  "e_total": null,
  "e_ionic": null,
  "e_electronic": null,
  "n": null,
  "e_ij_max": null,
  "weighted_surface_energy_EV_PER_ANG2": null,
  "weighted_surface_energy": null,
  "weighted_work_function": null,
  "surface_anisotropy": null,
  "shape_factor": null,
  "has_reconstructed": null,
  "possible_species": null,
  "has_props": null,
  "theoretical": null,
  "database_IDs": null,
  "fields_not_requested": [
    "builder_meta",
    "nsites",
    "elements",
    "nelements",
    "composition",
    "composition_reduced",
    "chemsys",
    "symmetry",
    "property_name",
    "deprecated",
    "deprecation_reasons",
    "last_updated",
    "origins",
    "warnings",
    "task_ids",
    "uncorrected_energy_per_atom",
    "equilibrium_reaction_energy_per_atom",
    "decomposes_to",
    "xas",
    "grain_boundaries",
    "cbm",
    "vbm",
    "is_gap_direct",
    "is_metal",
    "es_source_calc_id",
    "bandstructure",
    "dos",
    "dos_energy_up",
    "dos_energy_down",
    "is_magnetic",
    "ordering",
    "total_magnetization_normalized_vol",
    "total_magnetization_normalized_formula_units",
    "num_magnetic_sites",
    "num_unique_magnetic_sites",
    "types_of_magnetic_species",
    "bulk_modulus",
    "shear_modulus",
    "universal_anisotropy",
    "homogeneous_poisson",
    "e_total",
    "e_ionic",
    "e_electronic",
    "n",
    "e_ij_max",
    "weighted_surface_energy_EV_PER_ANG2",
    "weighted_surface_energy",
    "weighted_work_function",
    "surface_anisotropy",
    "shape_factor",
    "has_reconstructed",
    "possible_species",
    "has_props",
    "theoretical",
    "database_IDs"
  ]
}
