{
  "builder_meta": null,
  "nsites": null,
  "elements": null,
  "nelements": null,
  "composition": null,
  "composition_reduced": null,
  "formula_pretty": "MnOs3",
  "formula_anonymous": "AB3",
  "chemsys": null,
  "volume": 108.33119629473113,
  "density": 19.179697915578362,
  "density_atomic": 13.541399536841391,
  "symmetry": null,
  "property_name": null,
  "material_id": "mp-1186060",
  "deprecated": null,
  "deprecation_reasons": null,
  "last_updated": null,
  "origins": null,
  "warnings": null,
  "structure": {
    "@module": "pymatgen.core.structure",
    "@class": "Structure",
    "charge": 0,
    "lattice": {
      "matrix": [
        [5.41366999, -8.67e-6, 4e-8],
        [-2.70684349, 4.68836825, 1.2e-7],
        [-1.8e-7, -2.4e-7, 4.26815759]
      ],
      "pbc": [true, true, true],
      "a": 5.413669990006943,
      "b": 5.413667751807775,
      "c": 4.268157590000011,
      "alpha": 90.00000031193426,
      "beta": 90.00000199297467,
      "gamma": 120.00020925149275,
      "volume": 108.33119629473113
    },
    "properties": {},
    "sites": [
      {
        "species": [{ "element": "Mn", "occu": 1 }],
        "abc": [0.66666592, 0.33333281, 0.24999726],
        "properties": { "magmom": -2.266 },
        "label": "Mn",
        "xyz": [2.706829492708327, 1.5627811230944135, 1.0670277694147776]
      },
      {
        "species": [{ "element": "Mn", "occu": 1 }],
        "abc": [0.33333164, 0.66667191, 0.75000161],
        "properties": { "magmom": 2.266 },
        "label": "Mn",
        "xyz": [-2.915836417224109e-5, 3.1256003460251525, 3.201125157567615]
      },
      {
        "species": [{ "element": "Os", "occu": 1 }],
        "abc": [0.83053529, 0.16945876, 0.74999892],
        "properties": { "magmom": -0.021 },
        "label": "Os",
        "xyz": [4.037545498779669, 0.794477689327665, 3.201113636446266]
      },
      {
        "species": [{ "element": "Os", "occu": 1 }],
        "abc": [0.33891896, 0.16945564, 0.74999932],
        "properties": { "magmom": -0.021 },
        "label": "Os",
        "xyz": [1.3761053718163492, 0.79446732393221, 3.2011153240442742]
      },
      {
        "species": [{ "element": "Os", "occu": 1 }],
        "abc": [0.66109416, 0.83054718, 0.24999949000000002],
        "properties": { "magmom": 0.021 },
        "label": "Os",
        "xyz": [1.330784342235492, 3.8939052371527905, 1.0670373468490573]
      },
      {
        "species": [{ "element": "Os", "occu": 1 }],
        "abc": [0.1694543, 0.8305467200000001, 0.24999957],
        "properties": { "magmom": 0.021 },
        "label": "Os",
        "xyz": [-1.3307903685863183, 3.8939073430209628, 1.0670376686360148]
      },
      {
        "species": [{ "element": "Os", "occu": 1 }],
        "abc": [0.83054256, 0.6610806100000001, 0.74999928],
        "properties": { "magmom": -0.021 },
        "label": "Os",
        "xyz": [2.706841451946175, 3.0993819618108103, 3.2011152319779113]
      },
      {
        "species": [{ "element": "Os", "occu": 1 }],
        "abc": [0.16945119, 0.33890436, 0.24999955000000001],
        "properties": { "magmom": 0.021 },
        "label": "Os",
        "xyz": [-8.283525747208054e-6, 1.5889069120688608, 1.0670375242756556]
      }
    ]
  },
  "task_ids": null,
  "uncorrected_energy_per_atom": null,
  "energy_per_atom": -43.3916608275,
  "formation_energy_per_atom": 0.018094478879312002,
  "energy_above_hull": 0.018094478879312002,
  "is_stable": false,
  "equilibrium_reaction_energy_per_atom": null,
  "decomposes_to": null,
  "xas": null,
  "grain_boundaries": null,
  "band_gap": 0.0,
  "cbm": null,
  "vbm": null,
  "efermi": 8.154282,
  "is_gap_direct": null,
  "is_metal": null,
  "es_source_calc_id": null,
  "bandstructure": null,
  "dos": null,
  "dos_energy_up": null,
  "dos_energy_down": null,
  "is_magnetic": null,
  "ordering": null,
  "total_magnetization": 7.82e-5,
  "total_magnetization_normalized_vol": null,
  "total_magnetization_normalized_formula_units": null,
  "num_magnetic_sites": null,
  "num_unique_magnetic_sites": null,
  "types_of_magnetic_species": null,
  "bulk_modulus": null,
  "shear_modulus": null,
  "universal_anisotropy": null,
  "homogeneous_poisson": null,
  "e_total": null,
  "e_ionic": null,
  "e_electronic": null,
  "n": null,
  "e_ij_max": null,
  "weighted_surface_energy_EV_PER_ANG2": null,
  "weighted_surface_energy": null,
  "weighted_work_function": null,
  "surface_anisotropy": null,
  "shape_factor": null,
  "has_reconstructed": null,
  "possible_species": null,
  "has_props": null,
  "theoretical": null,
  "database_IDs": null,
  "fields_not_requested": [
    "builder_meta",
    "nsites",
    "elements",
    "nelements",
    "composition",
    "composition_reduced",
    "chemsys",
    "symmetry",
    "property_name",
    "deprecated",
    "deprecation_reasons",
    "last_updated",
    "origins",
    "warnings",
    "task_ids",
    "uncorrected_energy_per_atom",
    "equilibrium_reaction_energy_per_atom",
    "decomposes_to",
    "xas",
    "grain_boundaries",
    "cbm",
    "vbm",
    "is_gap_direct",
    "is_metal",
    "es_source_calc_id",
    "bandstructure",
    "dos",
    "dos_energy_up",
    "dos_energy_down",
    "is_magnetic",
    "ordering",
    "total_magnetization_normalized_vol",
    "total_magnetization_normalized_formula_units",
    "num_magnetic_sites",
    "num_unique_magnetic_sites",
    "types_of_magnetic_species",
    "bulk_modulus",
    "shear_modulus",
    "universal_anisotropy",
    "homogeneous_poisson",
    "e_total",
    "e_ionic",
    "e_electronic",
    "n",
    "e_ij_max",
    "weighted_surface_energy_EV_PER_ANG2",
    "weighted_surface_energy",
    "weighted_work_function",
    "surface_anisotropy",
    "shape_factor",
    "has_reconstructed",
    "possible_species",
    "has_props",
    "theoretical",
    "database_IDs"
  ]
}
