{"builder_meta": null, "nsites": null, "elements": null, "nelements": null, "composition": null, "composition_reduced": null, "formula_pretty": "MnP", "formula_anonymous": "AB", "chemsys": null, "volume": 96.14176208646997, "density": 5.935398258142634, "density_atomic": 12.017720260808746, "symmetry": null, "property_name": null, "material_id": "mp-2662", "deprecated": null, "deprecation_reasons": null, "last_updated": null, "origins": null, "warnings": null, "structure": {"@module": "pymatgen.core.structure", "@class": "Structure", "charge": 0, "lattice": {"matrix": [[3.21772565, 0.0, 0.0], [0.0, 5.15499305, -5.8110000000000004e-05], [0.0, -6.543e-05, 5.79608814]], "pbc": [true, true, true], "a": 3.21772565, "b": 5.1549930503275245, "c": 5.796088140369308, "alpha": 90.00129266236162, "beta": 90.0, "gamma": 90.0, "volume": 96.14176208646997}, "properties": {}, "sites": [{"species": [{"element": "Mn", "occu": 1}], "abc": [0.25, 0.5032656, 0.30500809], "properties": {"magmom": 1.838}, "label": "Mn", "xyz": [0.8044314125, 2.594310713624751, 1.7678245282890368]}, {"species": [{"element": "Mn", "occu": 1}], "abc": [0.75, 0.496734399999999, 0.69499191], "properties": {"magmom": 1.838}, "label": "Mn", "xyz": [2.4132942375, 2.5606169063752438, 4.028205501710964]}, {"species": [{"element": "Mn", "occu": 1}], "abc": [0.25, 0.00327919, 0.19480286], "properties": {"magmom": 1.839}, "label": "Mn", "xyz": [0.8044314125, 0.0168914557084997, 1.1290943559303497]}, {"species": [{"element": "Mn", "occu": 1}], "abc": [0.75, 0.99672081, 0.80519714], "properties": {"magmom": 1.839}, "label": "Mn", "xyz": [2.4132942375, 5.1380361642915, 4.66693567406965]}, {"species": [{"element": "P", "occu": 1}], "abc": [0.25, 0.68708253, 0.9266425500000001], "properties": {"magmom": -0.138}, "label": "P", "xyz": [0.8044314125, 3.5418450367043697, 5.37086196770854]}, {"species": [{"element": "P", "occu": 1}], "abc": [0.75, 0.31291747000000003, 0.07335745], "properties": {"magmom": -0.138}, "label": "P", "xyz": [2.4132942375, 1.6130825832956301, 0.4251680622914613]}, {"species": [{"element": "P", "occu": 1}], "abc": [0.25, 0.18710413, 0.57335141], "properties": {"magmom": -0.138}, "label": "P", "xyz": [0.8044314125, 0.9644829753935402, 3.3231844349322834]}, {"species": [{"element": "P", "occu": 1}], "abc": [0.75, 0.81289587, 0.42664859], "properties": {"magmom": -0.138}, "label": "P", "xyz": [2.4132942375, 4.19044464460646, 2.472845595067717]}]}, "task_ids": null, "uncorrected_energy_per_atom": null, "energy_per_atom": -7.9039889174999995, "formation_energy_per_atom": -0.615244508786946, "energy_above_hull": 0.0, "is_stable": true, "equilibrium_reaction_energy_per_atom": null, "decomposes_to": null, "xas": null, "grain_boundaries": null, "band_gap": 0.0, "cbm": null, "vbm": null, "efermi": 8.86612562, "is_gap_direct": null, "is_metal": null, "es_source_calc_id": null, "bandstructure": null, "dos": null, "dos_energy_up": null, "dos_energy_down": null, "is_magnetic": null, "ordering": null, "total_magnetization": 6.5318725, "total_magnetization_normalized_vol": null, "total_magnetization_normalized_formula_units": null, "num_magnetic_sites": null, "num_unique_magnetic_sites": null, "types_of_magnetic_species": null, "bulk_modulus": null, "shear_modulus": null, "universal_anisotropy": null, "homogeneous_poisson": null, "e_total": null, "e_ionic": null, "e_electronic": null, "n": null, "e_ij_max": null, "weighted_surface_energy_EV_PER_ANG2": null, "weighted_surface_energy": null, "weighted_work_function": null, "surface_anisotropy": null, "shape_factor": null, "has_reconstructed": null, "possible_species": null, "has_props": null, "theoretical": null, "database_IDs": null, "fields_not_requested": ["builder_meta", "nsites", "elements", "nelements", "composition", "composition_reduced", "chemsys", "symmetry", "property_name", "deprecated", "deprecation_reasons", "last_updated", "origins", "warnings", "task_ids", "uncorrected_energy_per_atom", "equilibrium_reaction_energy_per_atom", "decomposes_to", "xas", "grain_boundaries", "cbm", "vbm", "is_gap_direct", "is_metal", "es_source_calc_id", "bandstructure", "dos", "dos_energy_up", "dos_energy_down", "is_magnetic", "ordering", "total_magnetization_normalized_vol", "total_magnetization_normalized_formula_units", "num_magnetic_sites", "num_unique_magnetic_sites", "types_of_magnetic_species", "bulk_modulus", "shear_modulus", "universal_anisotropy", "homogeneous_poisson", "e_total", "e_ionic", "e_electronic", "n", "e_ij_max", "weighted_surface_energy_EV_PER_ANG2", "weighted_surface_energy", "weighted_work_function", "surface_anisotropy", "shape_factor", "has_reconstructed", "possible_species", "has_props", "theoretical", "database_IDs"]}