{"builder_meta": null, "nsites": null, "elements": null, "nelements": null, "composition": null, "composition_reduced": null, "formula_pretty": "MnP2", "formula_anonymous": "AB2", "chemsys": null, "volume": 80.64918392512175, "density": 4.813267641405384, "density_atomic": 13.441530654186957, "symmetry": null, "property_name": null, "material_id": "mp-754064", "deprecated": null, "deprecation_reasons": null, "last_updated": null, "origins": null, "warnings": null, "structure": {"@module": "pymatgen.core.structure", "@class": "Structure", "charge": 0, "lattice": {"matrix": [[5.05276116, 0.016139070000000002, 0.0], [0.018369820000000002, 5.80905891, 0.0], [0.0, 0.0, 2.74770316]], "pbc": [true, true, true], "a": 5.052786934908794, "b": 5.809087955104245, "c": 2.74770316, "alpha": 90.0, "beta": 90.0, "gamma": 89.6358074636368, "volume": 80.64918392512175}, "properties": {}, "sites": [{"species": [{"element": "Mn", "occu": 1}], "abc": [-0.0, -0.0, 0.0], "properties": {"magmom": 1.903}, "label": "Mn", "xyz": [0.0, 0.0, 0.0]}, {"species": [{"element": "Mn", "occu": 1}], "abc": [0.5, 0.5, 0.5], "properties": {"magmom": -0.928}, "label": "Mn", "xyz": [2.53556549, 2.91259899, 1.37385158]}, {"species": [{"element": "P", "occu": 1}], "abc": [0.17330341, 0.38016363000000003, 0.0], "properties": {"magmom": 0.019}, "label": "P", "xyz": [0.8826442763972021, 2.211189877974672, 0.0]}, {"species": [{"element": "P", "occu": 1}], "abc": [0.33465029, 0.86987379, 0.5], "properties": {"magmom": -0.048}, "label": "P", "xyz": [1.7068874124397544, 5.0585490348308, 1.37385158]}, {"species": [{"element": "P", "occu": 1}], "abc": [0.66534971, 0.13012621, 0.5], "properties": {"magmom": -0.048}, "label": "P", "xyz": [3.364243567560246, 0.7666489451692008, 1.37385158]}, {"species": [{"element": "P", "occu": 1}], "abc": [0.8266965900000001, 0.61983637, -0.0], "properties": {"magmom": 0.019}, "label": "P", "xyz": [4.188486703602798, 3.614008102025328, 0.0]}]}, "task_ids": null, "uncorrected_energy_per_atom": null, "energy_per_atom": -7.095601056666666, "formation_energy_per_atom": -0.43128027573891603, "energy_above_hull": 0.041872077037037006, "is_stable": false, "equilibrium_reaction_energy_per_atom": null, "decomposes_to": null, "xas": null, "grain_boundaries": null, "band_gap": 0.0, "cbm": null, "vbm": null, "efermi": 7.94103836, "is_gap_direct": null, "is_metal": null, "es_source_calc_id": null, "bandstructure": null, "dos": null, "dos_energy_up": null, "dos_energy_down": null, "is_magnetic": null, "ordering": null, "total_magnetization": 0.9575072, "total_magnetization_normalized_vol": null, "total_magnetization_normalized_formula_units": null, "num_magnetic_sites": null, "num_unique_magnetic_sites": null, "types_of_magnetic_species": null, "bulk_modulus": null, "shear_modulus": null, "universal_anisotropy": null, "homogeneous_poisson": null, "e_total": null, "e_ionic": null, "e_electronic": null, "n": null, "e_ij_max": null, "weighted_surface_energy_EV_PER_ANG2": null, "weighted_surface_energy": null, "weighted_work_function": null, "surface_anisotropy": null, "shape_factor": null, "has_reconstructed": null, "possible_species": null, "has_props": null, "theoretical": null, "database_IDs": null, "fields_not_requested": ["builder_meta", "nsites", "elements", "nelements", "composition", "composition_reduced", "chemsys", "symmetry", "property_name", "deprecated", "deprecation_reasons", "last_updated", "origins", "warnings", "task_ids", "uncorrected_energy_per_atom", "equilibrium_reaction_energy_per_atom", "decomposes_to", "xas", "grain_boundaries", "cbm", "vbm", "is_gap_direct", "is_metal", "es_source_calc_id", "bandstructure", "dos", "dos_energy_up", "dos_energy_down", "is_magnetic", "ordering", "total_magnetization_normalized_vol", "total_magnetization_normalized_formula_units", "num_magnetic_sites", "num_unique_magnetic_sites", "types_of_magnetic_species", "bulk_modulus", "shear_modulus", "universal_anisotropy", "homogeneous_poisson", "e_total", "e_ionic", "e_electronic", "n", "e_ij_max", "weighted_surface_energy_EV_PER_ANG2", "weighted_surface_energy", "weighted_work_function", "surface_anisotropy", "shape_factor", "has_reconstructed", "possible_species", "has_props", "theoretical", "database_IDs"]}