{"builder_meta": null, "nsites": null, "elements": null, "nelements": null, "composition": null, "composition_reduced": null, "formula_pretty": "MnP4", "formula_anonymous": "AB4", "chemsys": null, "volume": 433.09111836081127, "density": 4.1140442471047685, "density_atomic": 14.436370612027043, "symmetry": null, "property_name": null, "material_id": "mp-569522", "deprecated": null, "deprecation_reasons": null, "last_updated": null, "origins": null, "warnings": null, "structure": {"@module": "pymatgen.core.structure", "@class": "Structure", "charge": 0, "lattice": {"matrix": [[5.06764874, -0.0028686700000000002, 0.45826818], [2.52196827, 5.24407401, 0.08298718000000001], [-0.00058111, 0.00828824, 16.29214383]], "pbc": [true, true, true], "a": 5.0883279872755525, "b": 5.819581002897771, "c": 16.292145948585723, "alpha": 89.15755262217839, "beta": 84.83485087970769, "gamma": 64.38167539407866, "volume": 433.09111836081127}, "properties": {}, "sites": [{"species": [{"element": "Mn", "occu": 1}], "abc": [0.49917507, 0.18190647000000001, 0.59365839], "properties": {"magmom": 0.0}, "label": "Mn", "xyz": [2.988061279145606, 0.9574194062441215, 9.91581983156556]}, {"species": [{"element": "Mn", "occu": 1}], "abc": [0.12961103000000002, 0.879520899999999, 0.07517213], "properties": {"magmom": 0.0}, "label": "Mn", "xyz": [2.8749032921949786, 4.612523926323125, 1.3571007240355453]}, {"species": [{"element": "Mn", "occu": 1}], "abc": [0.8703899700000001, 0.120479099999999, 0.92482787], "properties": {"magmom": 0.0}, "label": "Mn", "xyz": [4.714137675453757, 0.6369696508081948, 15.476298924232635]}, {"species": [{"element": "Mn", "occu": 1}], "abc": [0.5008249300000001, 0.8180935300000001, 0.40634161], "properties": {"magmom": 0.0}, "label": "Mn", "xyz": [4.600974620854395, 4.292074173755879, 6.91757935843444]}, {"species": [{"element": "Mn", "occu": 1}], "abc": [0.49083104, 0.5496947600000001, 0.25878348], "properties": {"magmom": -0.0}, "label": "Mn", "xyz": [3.8735216626460924, 2.8833768316599464, 4.486687542369412]}, {"species": [{"element": "Mn", "occu": 1}], "abc": [0.50916896, 0.45030524, 0.74121652], "properties": {"magmom": -0.0}, "label": "Mn", "xyz": [3.7155142373539083, 2.366116748340054, 12.346711647630588]}, {"species": [{"element": "P", "occu": 1}], "abc": [0.92694129, 0.24044024, 0.27341101], "properties": {"magmom": -0.0}, "label": "P", "xyz": [5.303636634561638, 1.2604934209413006, 4.899192655036844]}, {"species": [{"element": "P", "occu": 1}], "abc": [0.65682906, 0.75264747, 0.770052299999999], "properties": {"magmom": 0.0}, "label": "P", "xyz": [5.2262845110481075, 3.9514371885746566, 12.909266777189037]}, {"species": [{"element": "P", "occu": 1}], "abc": [0.94460829, 0.5275580400000001, 0.43447318], "properties": {"magmom": -0.0}, "label": "P", "xyz": [6.117175171365816, 2.7674446548566696, 7.55516401473462]}, {"species": [{"element": "P", "occu": 1}], "abc": [0.38201408000000003, 0.8639358500000001, 0.5491342], "properties": {"magmom": -0.0}, "label": "P", "xyz": [4.114412864814777, 4.5339990210031935, 9.193333865440364]}, {"species": [{"element": "P", "occu": 1}], "abc": [0.56809361, 0.56945904, 0.11602909], "properties": {"magmom": -0.0}, "label": "P", "xyz": [4.314989071198722, 2.985617355272254, 2.1979596473234517]}, {"species": [{"element": "P", "occu": 1}], "abc": [0.62915037, 0.49438895, 0.60995579], "properties": {"magmom": -0.0}, "label": "P", "xyz": [4.434791873330523, 2.5958628787111913, 10.266835000411163]}, {"species": [{"element": "P", "occu": 1}], "abc": [0.71531637, 0.8262297, 0.8998965800000001], "properties": {"magmom": -0.0}, "label": "P", "xyz": [5.708174249361889, 4.338216248279188, 15.057617717324456]}, {"species": [{"element": "P", "occu": 1}], "abc": [0.9473953900000001, 0.14666537, 0.780179], "properties": {"magmom": 0.0}, "label": "P", "xyz": [5.1704990940444295, 0.7728726010455623, 13.157120987721218]}, {"species": [{"element": "P", "occu": 1}], "abc": [0.36756301, 0.14122739, 0.7276416], "properties": {"magmom": -0.0}, "label": "P", "xyz": [2.218428381121847, 0.7455833366340213, 12.03500409835421]}, {"species": [{"element": "P", "occu": 1}], "abc": [0.30753451, 0.809634099999999, 0.94417594], "properties": {"magmom": -0.0}, "label": "P", "xyz": [3.5997997125375285, 4.25272448318988, 15.590772746281182]}, {"species": [{"element": "P", "occu": 1}], "abc": [0.9885537400000001, 0.57087778, 0.06487885], "properties": {"magmom": -0.0}, "label": "P", "xyz": [6.449341060392806, 2.991427226006896, 1.5574138160738493]}, {"species": [{"element": "P", "occu": 1}], "abc": [0.61798592, 0.13606415, 0.4508658], "properties": {"magmom": -0.0}, "label": "P", "xyz": [3.474623035185223, 0.7154945589968071, 7.640065324559637]}, {"species": [{"element": "P", "occu": 1}], "abc": [0.28468363, 0.1737703, 0.10010342], "properties": {"magmom": -0.0}, "label": "P", "xyz": [1.880861650638111, 0.9112773317208117, 1.775781472675546]}, {"species": [{"element": "P", "occu": 1}], "abc": [0.01144626, 0.42912222, 0.9351211500000001], "properties": {"magmom": -0.0}, "label": "P", "xyz": [1.1396948396071953, 2.258066353993104, 15.275985373926153]}, {"species": [{"element": "P", "occu": 1}], "abc": [0.43190639000000003, 0.43054096000000003, 0.88397091], "properties": {"magmom": -0.0}, "label": "P", "xyz": [3.274046828801278, 2.2638762247277473, 14.635439542676549]}, {"species": [{"element": "P", "occu": 1}], "abc": [0.9538481600000001, 0.8770418400000001, 0.60003317], "properties": {"magmom": 0.0}, "label": "P", "xyz": [7.045290432842317, 4.601509262146354, 10.285728197734002]}, {"species": [{"element": "P", "occu": 1}], "abc": [0.07305871, 0.75955976, 0.72658899], "properties": {"magmom": -0.0}, "label": "P", "xyz": [2.2853992654383615, 3.9890001590586994, 11.934206534963156]}, {"species": [{"element": "P", "occu": 1}], "abc": [0.69246549, 0.1903659, 0.05582406], "properties": {"magmom": -0.0}, "label": "P", "xyz": [3.989236187462469, 0.9967690968101153, 1.24262644371882]}, {"species": [{"element": "P", "occu": 1}], "abc": [0.63243699, 0.85877261, 0.2723584], "properties": {"magmom": -0.0}, "label": "P", "xyz": [5.3706075188781535, 4.503910243365979, 4.79839509164579]}, {"species": [{"element": "P", "occu": 1}], "abc": [0.34317094, 0.24735253000000001, 0.229947699999999], "properties": {"magmom": 0.0}, "label": "P", "xyz": [2.3627513889518914, 1.2980563914253436, 3.9241324128109296]}, {"species": [{"element": "P", "occu": 1}], "abc": [0.04615184, 0.12295816, 0.39996683], "properties": {"magmom": 0.0}, "label": "P", "xyz": [0.5437454671576835, 0.647984317853648, 6.547670992265999]}, {"species": [{"element": "P", "occu": 1}], "abc": [0.05260461, 0.85333463, 0.219821], "properties": {"magmom": 0.0}, "label": "P", "xyz": [2.418536805955571, 4.476620978954437, 3.6762782022787834]}, {"species": [{"element": "P", "occu": 1}], "abc": [0.37084963, 0.5056110500000001, 0.39004421], "properties": {"magmom": -0.0}, "label": "P", "xyz": [3.1542440266694767, 2.653630701288809, 6.566564189588837]}, {"species": [{"element": "P", "occu": 1}], "abc": [0.055391710000000004, 0.47244196, 0.56552682], "properties": {"magmom": -0.0}, "label": "P", "xyz": [1.4718607286341843, 2.482048925143331, 9.278235175265381]}]}, "task_ids": null, "uncorrected_energy_per_atom": null, "energy_per_atom": -6.524260506666667, "formation_energy_per_atom": -0.359478627967159, "energy_above_hull": 0.0, "is_stable": true, "equilibrium_reaction_energy_per_atom": null, "decomposes_to": null, "xas": null, "grain_boundaries": null, "band_gap": 0.4786, "cbm": null, "vbm": null, "efermi": 8.46668331, "is_gap_direct": null, "is_metal": null, "es_source_calc_id": null, "bandstructure": null, "dos": null, "dos_energy_up": null, "dos_energy_down": null, "is_magnetic": null, "ordering": null, "total_magnetization": 1e-07, "total_magnetization_normalized_vol": null, "total_magnetization_normalized_formula_units": null, "num_magnetic_sites": null, "num_unique_magnetic_sites": null, "types_of_magnetic_species": null, "bulk_modulus": null, "shear_modulus": null, "universal_anisotropy": null, "homogeneous_poisson": null, "e_total": null, "e_ionic": null, "e_electronic": null, "n": null, "e_ij_max": null, "weighted_surface_energy_EV_PER_ANG2": null, "weighted_surface_energy": null, "weighted_work_function": null, "surface_anisotropy": null, "shape_factor": null, "has_reconstructed": null, "possible_species": null, "has_props": null, "theoretical": null, "database_IDs": null, "fields_not_requested": ["builder_meta", "nsites", "elements", "nelements", "composition", "composition_reduced", "chemsys", "symmetry", "property_name", "deprecated", "deprecation_reasons", "last_updated", "origins", "warnings", "task_ids", "uncorrected_energy_per_atom", "equilibrium_reaction_energy_per_atom", "decomposes_to", "xas", "grain_boundaries", "cbm", "vbm", "is_gap_direct", "is_metal", "es_source_calc_id", "bandstructure", "dos", "dos_energy_up", "dos_energy_down", "is_magnetic", "ordering", "total_magnetization_normalized_vol", "total_magnetization_normalized_formula_units", "num_magnetic_sites", "num_unique_magnetic_sites", "types_of_magnetic_species", "bulk_modulus", "shear_modulus", "universal_anisotropy", "homogeneous_poisson", "e_total", "e_ionic", "e_electronic", "n", "e_ij_max", "weighted_surface_energy_EV_PER_ANG2", "weighted_surface_energy", "weighted_work_function", "surface_anisotropy", "shape_factor", "has_reconstructed", "possible_species", "has_props", "theoretical", "database_IDs"]}