{"builder_meta": null, "nsites": null, "elements": null, "nelements": null, "composition": null, "composition_reduced": null, "formula_pretty": "MnPd2", "formula_anonymous": "AB2", "chemsys": null, "volume": 184.18149357606796, "density": 9.65690735299912, "density_atomic": 15.348457798005663, "symmetry": null, "property_name": null, "material_id": "mp-1102640", "deprecated": null, "deprecation_reasons": null, "last_updated": null, "origins": null, "warnings": null, "structure": {"@module": "pymatgen.core.structure", "@class": "Structure", "charge": 0, "lattice": {"matrix": [[0.0, -4.03499, 0.0], [-5.538719, 0.0, 0.0], [0.0, 0.0, -8.241271]], "pbc": [true, true, true], "a": 4.03499, "b": 5.538719, "c": 8.241271, "alpha": 90.0, "beta": 90.0, "gamma": 90.0, "volume": 184.18149357606796}, "properties": {}, "sites": [{"species": [{"element": "Mn", "occu": 1}], "abc": [0.75, 0.348317, 0.596476], "properties": {"magmom": 3.9290000000000003}, "label": "Mn", "xyz": [-1.929229985923, -3.0262424999999995, -4.915720360996]}, {"species": [{"element": "Mn", "occu": 1}], "abc": [0.75, 0.848317, 0.903524], "properties": {"magmom": 3.9290000000000003}, "label": "Mn", "xyz": [-4.698589485923001, -3.0262424999999995, -7.446186139003999]}, {"species": [{"element": "Mn", "occu": 1}], "abc": [0.25, 0.651683, 0.403524], "properties": {"magmom": 3.9290000000000003}, "label": "Mn", "xyz": [-3.6094890140770004, -1.0087475, -3.3255506390039997]}, {"species": [{"element": "Mn", "occu": 1}], "abc": [0.25, 0.151682999999999, 0.09647599999999901], "properties": {"magmom": 3.9290000000000003}, "label": "Mn", "xyz": [-0.8401295140769945, -1.0087475, -0.7950848609959917]}, {"species": [{"element": "Pd", "occu": 1}], "abc": [0.75, 0.355618, 0.924987], "properties": {"magmom": 0.226}, "label": "Pd", "xyz": [-1.969668173342, -3.0262424999999995, -7.623068538477]}, {"species": [{"element": "Pd", "occu": 1}], "abc": [0.75, 0.855618, 0.575013], "properties": {"magmom": 0.226}, "label": "Pd", "xyz": [-4.739027673342, -3.0262424999999995, -4.738837961522999]}, {"species": [{"element": "Pd", "occu": 1}], "abc": [0.25, 0.644382, 0.075013], "properties": {"magmom": 0.226}, "label": "Pd", "xyz": [-3.569050826658, -1.0087475, -0.618202461523]}, {"species": [{"element": "Pd", "occu": 1}], "abc": [0.25, 0.144381999999999, 0.424987], "properties": {"magmom": 0.226}, "label": "Pd", "xyz": [-0.7996913266579946, -1.0087475, -3.5024330384769997]}, {"species": [{"element": "Pd", "occu": 1}], "abc": [0.75, 0.409371999999999, 0.264806], "properties": {"magmom": 0.232}, "label": "Pd", "xyz": [-2.267396474467995, -3.0262424999999995, -2.1823380084259996]}, {"species": [{"element": "Pd", "occu": 1}], "abc": [0.75, 0.909372, 0.235194], "properties": {"magmom": 0.232}, "label": "Pd", "xyz": [-5.036755974468, -3.0262424999999995, -1.9382974915739997]}, {"species": [{"element": "Pd", "occu": 1}], "abc": [0.25, 0.590627999999999, 0.735194], "properties": {"magmom": 0.232}, "label": "Pd", "xyz": [-3.271322525531995, -1.0087475, -6.058932991573999]}, {"species": [{"element": "Pd", "occu": 1}], "abc": [0.25, 0.090628, 0.764806], "properties": {"magmom": 0.232}, "label": "Pd", "xyz": [-0.501963025532, -1.0087475, -6.302973508426]}]}, "task_ids": null, "uncorrected_energy_per_atom": null, "energy_per_atom": -6.754821916666667, "formation_energy_per_atom": -0.24756227931034402, "energy_above_hull": 0.0, "is_stable": true, "equilibrium_reaction_energy_per_atom": null, "decomposes_to": null, "xas": null, "grain_boundaries": null, "band_gap": 0.0, "cbm": null, "vbm": null, "efermi": 4.5730591700000005, "is_gap_direct": null, "is_metal": null, "es_source_calc_id": null, "bandstructure": null, "dos": null, "dos_energy_up": null, "dos_energy_down": null, "is_magnetic": null, "ordering": null, "total_magnetization": 18.1959809, "total_magnetization_normalized_vol": null, "total_magnetization_normalized_formula_units": null, "num_magnetic_sites": null, "num_unique_magnetic_sites": null, "types_of_magnetic_species": null, "bulk_modulus": null, "shear_modulus": null, "universal_anisotropy": null, "homogeneous_poisson": null, "e_total": null, "e_ionic": null, "e_electronic": null, "n": null, "e_ij_max": null, "weighted_surface_energy_EV_PER_ANG2": null, "weighted_surface_energy": null, "weighted_work_function": null, "surface_anisotropy": null, "shape_factor": null, "has_reconstructed": null, "possible_species": null, "has_props": null, "theoretical": null, "database_IDs": null, "fields_not_requested": ["builder_meta", "nsites", "elements", "nelements", "composition", "composition_reduced", "chemsys", "symmetry", "property_name", "deprecated", "deprecation_reasons", "last_updated", "origins", "warnings", "task_ids", "uncorrected_energy_per_atom", "equilibrium_reaction_energy_per_atom", "decomposes_to", "xas", "grain_boundaries", "cbm", "vbm", "is_gap_direct", "is_metal", "es_source_calc_id", "bandstructure", "dos", "dos_energy_up", "dos_energy_down", "is_magnetic", "ordering", "total_magnetization_normalized_vol", "total_magnetization_normalized_formula_units", "num_magnetic_sites", "num_unique_magnetic_sites", "types_of_magnetic_species", "bulk_modulus", "shear_modulus", "universal_anisotropy", "homogeneous_poisson", "e_total", "e_ionic", "e_electronic", "n", "e_ij_max", "weighted_surface_energy_EV_PER_ANG2", "weighted_surface_energy", "weighted_work_function", "surface_anisotropy", "shape_factor", "has_reconstructed", "possible_species", "has_props", "theoretical", "database_IDs"]}