{"builder_meta": null, "nsites": null, "elements": null, "nelements": null, "composition": null, "composition_reduced": null, "formula_pretty": "MnPd3", "formula_anonymous": "AB3", "chemsys": null, "volume": 119.67592598642084, "density": 10.384218333741561, "density_atomic": 14.959490748302605, "symmetry": null, "property_name": null, "material_id": "mp-31138", "deprecated": null, "deprecation_reasons": null, "last_updated": null, "origins": null, "warnings": null, "structure": {"@module": "pymatgen.core.structure", "@class": "Structure", "charge": 0, "lattice": {"matrix": [[3.8092610000000002, 0.00041982, -0.93131051], [-0.22791372000000001, 3.80242345, -0.93129936], [0.00613055, 0.00653353, 8.25913884]], "pbc": [true, true, true], "a": 3.9214549351492356, "b": 3.9214394365858247, "c": 8.259143699503849, "alpha": 103.69569250721781, "beta": 103.6959696103964, "gamma": 89.99723401051199, "volume": 119.67592598642085}, "properties": {}, "sites": [{"species": [{"element": "Mn", "occu": 1}], "abc": [0.12374683, 0.12374429, 0.24775886], "properties": {"magmom": 4.184}, "label": "Mn", "xyz": [0.44469985000914425, 0.4721988814383469, 1.8157851221412846]}, {"species": [{"element": "Mn", "occu": 1}], "abc": [0.87625565, 0.87625307, 0.75224405], "properties": {"magmom": 4.184}, "label": "Mn", "xyz": [3.1427880464902573, 3.337167900217471, 4.580768030932986]}, {"species": [{"element": "Pd", "occu": 1}], "abc": [0.37462915, 0.37463075, 0.74941863], "properties": {"magmom": 0.243}, "label": "Pd", "xyz": [1.3462710710814068, 1.4295583748025045, 5.491763071993902]}, {"species": [{"element": "Pd", "occu": 1}], "abc": [0.62537504, 0.62537038, 0.25058114], "properties": {"magmom": 0.243}, "label": "Pd", "xyz": [2.2412224607696536, 2.3798227221923285, 0.9047590438448503]}, {"species": [{"element": "Pd", "occu": 1}], "abc": [0.49996396, 0.99997728, -5.87e-06], "properties": {"magmom": 0.243}, "label": "Pd", "xyz": [1.6765846364469499, 3.8025469154570817, -1.3969483725927512]}, {"species": [{"element": "Pd", "occu": 1}], "abc": [0.99996949, 0.49996377000000003, -4.87e-06], "properties": {"magmom": 0.243}, "label": "Pd", "xyz": [3.6951961469051877, 1.9014937385714072, -1.396938256746678]}, {"species": [{"element": "Pd", "occu": 1}], "abc": [0.75009792, 0.24995915000000002, 0.50000355], "properties": {"magmom": 0.253}, "label": "Pd", "xyz": [2.8034149298760345, 0.9540322278048734, 3.1982378670965987]}, {"species": [{"element": "Pd", "occu": 1}], "abc": [0.24996094, 0.750099299999999, 0.5000045200000001], "properties": {"magmom": 0.253}, "label": "Pd", "xyz": [0.7842738411430302, 2.8555669012819678, 3.198248502769631]}]}, "task_ids": null, "uncorrected_energy_per_atom": null, "energy_per_atom": -6.404353338749999, "formation_energy_per_atom": -0.228938158232756, "energy_above_hull": 0.0, "is_stable": true, "equilibrium_reaction_energy_per_atom": null, "decomposes_to": null, "xas": null, "grain_boundaries": null, "band_gap": 0.0, "cbm": null, "vbm": null, "efermi": 4.44322027, "is_gap_direct": null, "is_metal": null, "es_source_calc_id": null, "bandstructure": null, "dos": null, "dos_energy_up": null, "dos_energy_down": null, "is_magnetic": null, "ordering": null, "total_magnetization": 10.1661144, "total_magnetization_normalized_vol": null, "total_magnetization_normalized_formula_units": null, "num_magnetic_sites": null, "num_unique_magnetic_sites": null, "types_of_magnetic_species": null, "bulk_modulus": null, "shear_modulus": null, "universal_anisotropy": null, "homogeneous_poisson": null, "e_total": null, "e_ionic": null, "e_electronic": null, "n": null, "e_ij_max": null, "weighted_surface_energy_EV_PER_ANG2": null, "weighted_surface_energy": null, "weighted_work_function": null, "surface_anisotropy": null, "shape_factor": null, "has_reconstructed": null, "possible_species": null, "has_props": null, "theoretical": null, "database_IDs": null, "fields_not_requested": ["builder_meta", "nsites", "elements", "nelements", "composition", "composition_reduced", "chemsys", "symmetry", "property_name", "deprecated", "deprecation_reasons", "last_updated", "origins", "warnings", "task_ids", "uncorrected_energy_per_atom", "equilibrium_reaction_energy_per_atom", "decomposes_to", "xas", "grain_boundaries", "cbm", "vbm", "is_gap_direct", "is_metal", "es_source_calc_id", "bandstructure", "dos", "dos_energy_up", "dos_energy_down", "is_magnetic", "ordering", "total_magnetization_normalized_vol", "total_magnetization_normalized_formula_units", "num_magnetic_sites", "num_unique_magnetic_sites", "types_of_magnetic_species", "bulk_modulus", "shear_modulus", "universal_anisotropy", "homogeneous_poisson", "e_total", "e_ionic", "e_electronic", "n", "e_ij_max", "weighted_surface_energy_EV_PER_ANG2", "weighted_surface_energy", "weighted_work_function", "surface_anisotropy", "shape_factor", "has_reconstructed", "possible_species", "has_props", "theoretical", "database_IDs"]}