{
  "builder_meta": null,
  "nsites": null,
  "elements": null,
  "nelements": null,
  "composition": null,
  "composition_reduced": null,
  "formula_pretty": "MnRu3",
  "formula_anonymous": "AB3",
  "chemsys": null,
  "volume": 108.28082016169976,
  "density": 10.984749089650393,
  "density_atomic": 13.53510252021247,
  "symmetry": null,
  "property_name": null,
  "material_id": "mp-865045",
  "deprecated": null,
  "deprecation_reasons": null,
  "last_updated": null,
  "origins": null,
  "warnings": null,
  "structure": {
    "@module": "pymatgen.core.structure",
    "@class": "Structure",
    "charge": 0,
    "lattice": {
      "matrix": [
        [5.38907772, 4.201e-5, 0.0],
        [-2.69450146, 4.66704749, 0.0],
        [0.0, 0.0, 4.30519587]
      ],
      "pbc": [true, true, true],
      "a": 5.389077720163743,
      "b": 5.38903241703531,
      "c": 4.30519587,
      "alpha": 90.0,
      "beta": 90.0,
      "gamma": 119.99937229387673,
      "volume": 108.28082016169976
    },
    "properties": {},
    "sites": [
      {
        "species": [{ "element": "Mn", "occu": 1 }],
        "abc": [0.66667863, 0.33330784, 0.25],
        "properties": { "magmom": -3.328 },
        "label": "Mn",
        "xyz": [2.6946844898236773, 1.555591525238568, 1.0762989675]
      },
      {
        "species": [{ "element": "Mn", "occu": 1 }],
        "abc": [0.33331637000000003, 0.66668516, 0.75],
        "properties": { "magmom": -3.328 },
        "label": "Mn",
        "xyz": [-0.00011631370205700264, 3.1114653052189523, 3.2288969025000003]
      },
      {
        "species": [{ "element": "Ru", "occu": 1 }],
        "abc": [0.83247764, 0.16751232, 0.75],
        "properties": { "magmom": 0.725 },
        "label": "Ru",
        "xyz": [4.034924511314195, 0.7818229249857331, 3.2288969025000003]
      },
      {
        "species": [{ "element": "Ru", "occu": 1 }],
        "abc": [0.33503468000000003, 0.16750206, 0.75],
        "properties": { "magmom": 0.725 },
        "label": "Ru",
        "xyz": [1.3541933841923224, 0.7817541434997363, 3.2288969025000003]
      },
      {
        "species": [{ "element": "Ru", "occu": 1 }],
        "abc": [0.83249913, 0.6649752, 0.75],
        "properties": { "magmom": 0.725 },
        "label": "Ru",
        "xyz": [2.6946258661385913, 3.1035058113606993, 3.2288969025000003]
      },
      {
        "species": [{ "element": "Ru", "occu": 1 }],
        "abc": [0.16752236, 0.8324876800000001, 0.25],
        "properties": { "magmom": 0.725 },
        "label": "Ru",
        "xyz": [-1.3403482513141936, 3.885266575014267, 1.0762989675]
      },
      {
        "species": [{ "element": "Ru", "occu": 1 }],
        "abc": [0.66496532, 0.83249994, 0.25],
        "properties": { "magmom": 0.725 },
        "label": "Ru",
        "xyz": [1.340377486804758, 3.885344690595244, 1.0762989675]
      },
      {
        "species": [{ "element": "Ru", "occu": 1 }],
        "abc": [0.16750387, 0.3350208, 0.25],
        "properties": { "magmom": 0.725 },
        "label": "Ru",
        "xyz": [-2.266089959157558e-5, 1.5635650205753706, 1.0762989675]
      }
    ]
  },
  "task_ids": null,
  "uncorrected_energy_per_atom": null,
  "energy_per_atom": -22.80186955625,
  "formation_energy_per_atom": -0.06263441612069,
  "energy_above_hull": 0.0,
  "is_stable": true,
  "equilibrium_reaction_energy_per_atom": null,
  "decomposes_to": null,
  "xas": null,
  "grain_boundaries": null,
  "band_gap": 0.0,
  "cbm": null,
  "vbm": null,
  "efermi": 7.8727458,
  "is_gap_direct": null,
  "is_metal": null,
  "es_source_calc_id": null,
  "bandstructure": null,
  "dos": null,
  "dos_energy_up": null,
  "dos_energy_down": null,
  "is_magnetic": null,
  "ordering": null,
  "total_magnetization": 2.430333,
  "total_magnetization_normalized_vol": null,
  "total_magnetization_normalized_formula_units": null,
  "num_magnetic_sites": null,
  "num_unique_magnetic_sites": null,
  "types_of_magnetic_species": null,
  "bulk_modulus": null,
  "shear_modulus": null,
  "universal_anisotropy": null,
  "homogeneous_poisson": null,
  "e_total": null,
  "e_ionic": null,
  "e_electronic": null,
  "n": null,
  "e_ij_max": null,
  "weighted_surface_energy_EV_PER_ANG2": null,
  "weighted_surface_energy": null,
  "weighted_work_function": null,
  "surface_anisotropy": null,
  "shape_factor": null,
  "has_reconstructed": null,
  "possible_species": null,
  "has_props": null,
  "theoretical": null,
  "database_IDs": null,
  "fields_not_requested": [
    "builder_meta",
    "nsites",
    "elements",
    "nelements",
    "composition",
    "composition_reduced",
    "chemsys",
    "symmetry",
    "property_name",
    "deprecated",
    "deprecation_reasons",
    "last_updated",
    "origins",
    "warnings",
    "task_ids",
    "uncorrected_energy_per_atom",
    "equilibrium_reaction_energy_per_atom",
    "decomposes_to",
    "xas",
    "grain_boundaries",
    "cbm",
    "vbm",
    "is_gap_direct",
    "is_metal",
    "es_source_calc_id",
    "bandstructure",
    "dos",
    "dos_energy_up",
    "dos_energy_down",
    "is_magnetic",
    "ordering",
    "total_magnetization_normalized_vol",
    "total_magnetization_normalized_formula_units",
    "num_magnetic_sites",
    "num_unique_magnetic_sites",
    "types_of_magnetic_species",
    "bulk_modulus",
    "shear_modulus",
    "universal_anisotropy",
    "homogeneous_poisson",
    "e_total",
    "e_ionic",
    "e_electronic",
    "n",
    "e_ij_max",
    "weighted_surface_energy_EV_PER_ANG2",
    "weighted_surface_energy",
    "weighted_work_function",
    "surface_anisotropy",
    "shape_factor",
    "has_reconstructed",
    "possible_species",
    "has_props",
    "theoretical",
    "database_IDs"
  ]
}
