{"builder_meta": null, "nsites": null, "elements": null, "nelements": null, "composition": null, "composition_reduced": null, "formula_pretty": "MnSb", "formula_anonymous": "AB", "chemsys": null, "volume": 86.47909364925499, "density": 6.785778951485866, "density_atomic": 21.619773412313748, "symmetry": null, "property_name": null, "material_id": "mp-786", "deprecated": null, "deprecation_reasons": null, "last_updated": null, "origins": null, "warnings": null, "structure": {"@module": "pymatgen.core.structure", "@class": "Structure", "charge": 0, "lattice": {"matrix": [[2.07687334, -3.59714424, -1e-07], [2.07687356, 3.59714437, 2.5e-07], [2e-07, 2.799999999999998e-07, 5.78779631]], "pbc": [true, true, true], "a": 4.153654963254404, "b": 4.153655185839315, "c": 5.787796310000011, "alpha": 89.99999316105915, "beta": 90.00000278990542, "gamma": 119.9985373977007, "volume": 86.47909364925499}, "properties": {}, "sites": [{"species": [{"element": "Mn", "occu": 1}], "abc": [-2e-08, -7e-08, 0.50000019], "properties": {"magmom": 3.859}, "label": "Mn", "xyz": [-8.691857800000006e-08, -3.985716790000012e-08, 2.893899254681283]}, {"species": [{"element": "Mn", "occu": 1}], "abc": [-2e-08, -2e-08, -1.899999999999999e-07], "properties": {"magmom": 3.855}, "label": "Mn", "xyz": [-8.307497600000001e-08, -5.580000000413746e-14, -1.0996813018999993e-06]}, {"species": [{"element": "Sb", "occu": 1}], "abc": [0.33333072, 0.6666693, 0.24964527], "properties": {"magmom": -0.18}, "label": "Sb", "xyz": [2.0768735781337666, 1.199067109584464, 1.4448961058492067]}, {"species": [{"element": "Sb", "occu": 1}], "abc": [0.6666693300000001, 0.33333078, 0.75035473], "properties": {"magmom": -0.18}, "label": "Sb", "xyz": [2.0768737918597853, -1.1990665916701264, 4.342900354150808]}]}, "task_ids": null, "uncorrected_energy_per_atom": null, "energy_per_atom": -20.4984129525, "formation_energy_per_atom": -0.30358774974137803, "energy_above_hull": 0.0, "is_stable": true, "equilibrium_reaction_energy_per_atom": null, "decomposes_to": null, "xas": null, "grain_boundaries": null, "band_gap": 0.0, "cbm": null, "vbm": null, "efermi": 7.49434015, "is_gap_direct": null, "is_metal": null, "es_source_calc_id": null, "bandstructure": null, "dos": null, "dos_energy_up": null, "dos_energy_down": null, "is_magnetic": null, "ordering": null, "total_magnetization": 7.4772868, "total_magnetization_normalized_vol": null, "total_magnetization_normalized_formula_units": null, "num_magnetic_sites": null, "num_unique_magnetic_sites": null, "types_of_magnetic_species": null, "bulk_modulus": null, "shear_modulus": null, "universal_anisotropy": null, "homogeneous_poisson": null, "e_total": null, "e_ionic": null, "e_electronic": null, "n": null, "e_ij_max": null, "weighted_surface_energy_EV_PER_ANG2": null, "weighted_surface_energy": null, "weighted_work_function": null, "surface_anisotropy": null, "shape_factor": null, "has_reconstructed": null, "possible_species": null, "has_props": null, "theoretical": null, "database_IDs": null, "fields_not_requested": ["builder_meta", "nsites", "elements", "nelements", "composition", "composition_reduced", "chemsys", "symmetry", "property_name", "deprecated", "deprecation_reasons", "last_updated", "origins", "warnings", "task_ids", "uncorrected_energy_per_atom", "equilibrium_reaction_energy_per_atom", "decomposes_to", "xas", "grain_boundaries", "cbm", "vbm", "is_gap_direct", "is_metal", "es_source_calc_id", "bandstructure", "dos", "dos_energy_up", "dos_energy_down", "is_magnetic", "ordering", "total_magnetization_normalized_vol", "total_magnetization_normalized_formula_units", "num_magnetic_sites", "num_unique_magnetic_sites", "types_of_magnetic_species", "bulk_modulus", "shear_modulus", "universal_anisotropy", "homogeneous_poisson", "e_total", "e_ionic", "e_electronic", "n", "e_ij_max", "weighted_surface_energy_EV_PER_ANG2", "weighted_surface_energy", "weighted_work_function", "surface_anisotropy", "shape_factor", "has_reconstructed", "possible_species", "has_props", "theoretical", "database_IDs"]}