{"builder_meta": null, "nsites": null, "elements": null, "nelements": null, "composition": null, "composition_reduced": null, "formula_pretty": "MnSe2", "formula_anonymous": "AB2", "chemsys": null, "volume": 241.3089289563455, "density": 5.859030594372147, "density_atomic": 20.109077413028793, "symmetry": null, "property_name": null, "material_id": "mp-21321", "deprecated": null, "deprecation_reasons": null, "last_updated": null, "origins": null, "warnings": null, "structure": {"@module": "pymatgen.core.structure", "@class": "Structure", "charge": 0, "lattice": {"matrix": [[6.22571049, 2.7290000000000005e-05, -5.704e-05], [2.5150000000000005e-05, 6.22584572, 0.00015163], [-5.9190000000000035e-05, 0.0001527, 6.22567029]], "pbc": [true, true, true], "a": 6.225710490321112, "b": 6.225845721897267, "c": 6.225670292154045, "alpha": 89.99719924678598, "beta": 90.00106967261141, "gamma": 89.99951740772616, "volume": 241.3089289563455}, "properties": {}, "sites": [{"species": [{"element": "Mn", "occu": 1}], "abc": [0.0, 0.0, 0.0], "properties": {"magmom": 3.887}, "label": "Mn", "xyz": [0.0, 0.0, 0.0]}, {"species": [{"element": "Mn", "occu": 1}], "abc": [0.5, 0.0, 0.5], "properties": {"magmom": 3.887}, "label": "Mn", "xyz": [3.11282565, 8.9995e-05, 3.112806625]}, {"species": [{"element": "Mn", "occu": 1}], "abc": [0.5, 0.5, 0.0], "properties": {"magmom": 3.887}, "label": "Mn", "xyz": [3.11286782, 3.112936505, 4.7295e-05]}, {"species": [{"element": "Mn", "occu": 1}], "abc": [0.0, 0.5, 0.5], "properties": {"magmom": 3.887}, "label": "Mn", "xyz": [-1.7020000000000017e-05, 3.11299921, 3.1129109600000002]}, {"species": [{"element": "Se", "occu": 1}], "abc": [0.37086178000000003, 0.37088387, 0.37086676], "properties": {"magmom": -0.258}, "label": "Se", "xyz": [2.308865450211879, 2.3091325068287643, 2.3089292524458376]}, {"species": [{"element": "Se", "occu": 1}], "abc": [0.12913658, 0.62913526, 0.87088177], "properties": {"magmom": -0.258}, "label": "Se", "xyz": [0.8039312360085469, 3.917035573555634, 5.421910791420564]}, {"species": [{"element": "Se", "occu": 1}], "abc": [0.87086391, 0.12913295, 0.62910646], "properties": {"magmom": -0.258}, "label": "Se", "xyz": [5.42171259073174, 0.8040816545010198, 3.9165793036208556]}, {"species": [{"element": "Se", "occu": 1}], "abc": [0.62913848, 0.87085795, 0.12914738], "properties": {"magmom": -0.258}, "label": "Se", "xyz": [3.9168482924426757, 5.421864130729519, 0.8041251688293996]}, {"species": [{"element": "Se", "occu": 1}], "abc": [0.62913822, 0.62911613, 0.62913324], "properties": {"magmom": -0.258}, "label": "Se", "xyz": [3.9168109997881215, 3.916893203171235, 3.9168356275541627]}, {"species": [{"element": "Se", "occu": 1}], "abc": [0.87086342, 0.37086474, 0.12911823], "properties": {"magmom": -0.258}, "label": "Se", "xyz": [5.4217452139914535, 2.308990136444366, 0.8038540885794361]}, {"species": [{"element": "Se", "occu": 1}], "abc": [0.12913609, 0.87086705, 0.37089354], "properties": {"magmom": -0.258}, "label": "Se", "xyz": [0.803963859268259, 5.4219440554989795, 2.3091855763791447]}, {"species": [{"element": "Se", "occu": 1}], "abc": [0.37086152, 0.12914205, 0.87085262], "properties": {"magmom": -0.258}, "label": "Se", "xyz": [2.3088281575573246, 0.8041615792704808, 5.4216397111706005]}]}, "task_ids": null, "uncorrected_energy_per_atom": null, "energy_per_atom": -14.999544585, "formation_energy_per_atom": -0.564059539202586, "energy_above_hull": 0.069208418645832, "is_stable": false, "equilibrium_reaction_energy_per_atom": null, "decomposes_to": null, "xas": null, "grain_boundaries": null, "band_gap": 0.0, "cbm": null, "vbm": null, "efermi": 4.6473288, "is_gap_direct": null, "is_metal": null, "es_source_calc_id": null, "bandstructure": null, "dos": null, "dos_energy_up": null, "dos_energy_down": null, "is_magnetic": null, "ordering": null, "total_magnetization": 13.4303025, "total_magnetization_normalized_vol": null, "total_magnetization_normalized_formula_units": null, "num_magnetic_sites": null, "num_unique_magnetic_sites": null, "types_of_magnetic_species": null, "bulk_modulus": null, "shear_modulus": null, "universal_anisotropy": null, "homogeneous_poisson": null, "e_total": null, "e_ionic": null, "e_electronic": null, "n": null, "e_ij_max": null, "weighted_surface_energy_EV_PER_ANG2": null, "weighted_surface_energy": null, "weighted_work_function": null, "surface_anisotropy": null, "shape_factor": null, "has_reconstructed": null, "possible_species": null, "has_props": null, "theoretical": null, "database_IDs": null, "fields_not_requested": ["builder_meta", "nsites", "elements", "nelements", "composition", "composition_reduced", "chemsys", "symmetry", "property_name", "deprecated", "deprecation_reasons", "last_updated", "origins", "warnings", "task_ids", "uncorrected_energy_per_atom", "equilibrium_reaction_energy_per_atom", "decomposes_to", "xas", "grain_boundaries", "cbm", "vbm", "is_gap_direct", "is_metal", "es_source_calc_id", "bandstructure", "dos", "dos_energy_up", "dos_energy_down", "is_magnetic", "ordering", "total_magnetization_normalized_vol", "total_magnetization_normalized_formula_units", "num_magnetic_sites", "num_unique_magnetic_sites", "types_of_magnetic_species", "bulk_modulus", "shear_modulus", "universal_anisotropy", "homogeneous_poisson", "e_total", "e_ionic", "e_electronic", "n", "e_ij_max", "weighted_surface_energy_EV_PER_ANG2", "weighted_surface_energy", "weighted_work_function", "surface_anisotropy", "shape_factor", "has_reconstructed", "possible_species", "has_props", "theoretical", "database_IDs"]}