{
  "builder_meta": null,
  "nsites": null,
  "elements": null,
  "nelements": null,
  "composition": null,
  "composition_reduced": null,
  "formula_pretty": "MnSe",
  "formula_anonymous": "AB",
  "chemsys": null,
  "volume": 103.85231180894776,
  "density": 4.28190631081759,
  "density_atomic": 25.96307795223694,
  "symmetry": null,
  "property_name": null,
  "material_id": "mp-999540",
  "deprecated": null,
  "deprecation_reasons": null,
  "last_updated": null,
  "origins": null,
  "warnings": null,
  "structure": {
    "@module": "pymatgen.core.structure",
    "@class": "Structure",
    "charge": 0,
    "lattice": {
      "matrix": [
        [4.19787289, 2e-8, 0.0],
        [-2.09893541, 3.63566898, 0.0],
        [0.0, 0.0, 6.80459918]
      ],
      "pbc": [true, true, true],
      "a": 4.19787289,
      "b": 4.198049402697175,
      "c": 6.80459918,
      "alpha": 90.0,
      "beta": 90.0,
      "gamma": 119.99859254344453,
      "volume": 103.85231180894776
    },
    "properties": {},
    "sites": [
      {
        "species": [{ "element": "Mn", "occu": 1 }],
        "abc": [0.6666512800000001, 0.33330256, 0.49934394],
        "properties": { "magmom": 4.492 },
        "label": "Mn",
        "xyz": [2.0989367899681497, 1.2117777916796144, 3.3978353646619692]
      },
      {
        "species": [{ "element": "Mn", "occu": 1 }],
        "abc": [0.33334872, 0.66669744, 0.99934394],
        "properties": { "magmom": 4.492 },
        "label": "Mn",
        "xyz": [6.900318505476122e-7, 2.4238912083203856, 6.80013495466197]
      },
      {
        "species": [{ "element": "Se", "occu": 1 }],
        "abc": [0.66667697, 0.33335295, 0.8766560600000001],
        "properties": { "magmom": 0.065 },
        "label": "Se",
        "xyz": [2.098938867967384, 1.2119609930400304, 5.965293107018032]
      },
      {
        "species": [{ "element": "Se", "occu": 1 }],
        "abc": [0.33332303, 0.66664705, 0.37665606],
        "properties": { "magmom": 0.065 },
        "label": "Se",
        "xyz": [-1.3879673836925122e-6, 2.42370800695997, 2.562993517018031]
      }
    ]
  },
  "task_ids": null,
  "uncorrected_energy_per_atom": null,
  "energy_per_atom": -15.44734939,
  "formation_energy_per_atom": -0.949901936772628,
  "energy_above_hull": 0.0,
  "is_stable": true,
  "equilibrium_reaction_energy_per_atom": null,
  "decomposes_to": null,
  "xas": null,
  "grain_boundaries": null,
  "band_gap": 0.0,
  "cbm": null,
  "vbm": null,
  "efermi": 4.34585193,
  "is_gap_direct": null,
  "is_metal": null,
  "es_source_calc_id": null,
  "bandstructure": null,
  "dos": null,
  "dos_energy_up": null,
  "dos_energy_down": null,
  "is_magnetic": null,
  "ordering": null,
  "total_magnetization": 9.9998935,
  "total_magnetization_normalized_vol": null,
  "total_magnetization_normalized_formula_units": null,
  "num_magnetic_sites": null,
  "num_unique_magnetic_sites": null,
  "types_of_magnetic_species": null,
  "bulk_modulus": null,
  "shear_modulus": null,
  "universal_anisotropy": null,
  "homogeneous_poisson": null,
  "e_total": null,
  "e_ionic": null,
  "e_electronic": null,
  "n": null,
  "e_ij_max": null,
  "weighted_surface_energy_EV_PER_ANG2": null,
  "weighted_surface_energy": null,
  "weighted_work_function": null,
  "surface_anisotropy": null,
  "shape_factor": null,
  "has_reconstructed": null,
  "possible_species": null,
  "has_props": null,
  "theoretical": null,
  "database_IDs": null,
  "fields_not_requested": [
    "builder_meta",
    "nsites",
    "elements",
    "nelements",
    "composition",
    "composition_reduced",
    "chemsys",
    "symmetry",
    "property_name",
    "deprecated",
    "deprecation_reasons",
    "last_updated",
    "origins",
    "warnings",
    "task_ids",
    "uncorrected_energy_per_atom",
    "equilibrium_reaction_energy_per_atom",
    "decomposes_to",
    "xas",
    "grain_boundaries",
    "cbm",
    "vbm",
    "is_gap_direct",
    "is_metal",
    "es_source_calc_id",
    "bandstructure",
    "dos",
    "dos_energy_up",
    "dos_energy_down",
    "is_magnetic",
    "ordering",
    "total_magnetization_normalized_vol",
    "total_magnetization_normalized_formula_units",
    "num_magnetic_sites",
    "num_unique_magnetic_sites",
    "types_of_magnetic_species",
    "bulk_modulus",
    "shear_modulus",
    "universal_anisotropy",
    "homogeneous_poisson",
    "e_total",
    "e_ionic",
    "e_electronic",
    "n",
    "e_ij_max",
    "weighted_surface_energy_EV_PER_ANG2",
    "weighted_surface_energy",
    "weighted_work_function",
    "surface_anisotropy",
    "shape_factor",
    "has_reconstructed",
    "possible_species",
    "has_props",
    "theoretical",
    "database_IDs"
  ]
}
