{"builder_meta": null, "nsites": null, "elements": null, "nelements": null, "composition": null, "composition_reduced": null, "formula_pretty": "MnSi", "formula_anonymous": "AB", "chemsys": null, "volume": 90.17124166774443, "density": 6.1156456258243574, "density_atomic": 11.271405208468053, "symmetry": null, "property_name": null, "material_id": "mp-1431", "deprecated": null, "deprecation_reasons": null, "last_updated": null, "origins": null, "warnings": null, "structure": {"@module": "pymatgen.core.structure", "@class": "Structure", "charge": 0, "lattice": {"matrix": [[4.48424634, 2.27e-06, -4.769999999999997e-06], [3.28e-06, 4.48424377, -7.87e-06], [-3.759999999999998e-06, -9.359999999999997e-06, 4.48424543]], "pbc": [true, true, true], "a": 4.484246340003112, "b": 4.4842437700081055, "c": 4.484245430011344, "alpha": 90.00022014999422, "beta": 90.00010898895319, "gamma": 89.99992908682093, "volume": 90.17124166774443}, "properties": {}, "sites": [{"species": [{"element": "Mn", "occu": 1}], "abc": [0.86355757, 0.6364287200000001, 0.36353905000000003], "properties": {"magmom": 1.125}, "label": "Mn", "xyz": [3.8724055932311674, 2.8539000802592507, 1.6301891957254062]}, {"species": [{"element": "Mn", "occu": 1}], "abc": [0.63645472, 0.36355016, 0.8635731400000001], "properties": {"magmom": 1.125}, "label": "Mn", "xyz": [2.8540176941452438, 1.6302409017701271, 3.8724680094869766]}, {"species": [{"element": "Mn", "occu": 1}], "abc": [0.36355307000000003, 0.86356049, 0.63645036], "properties": {"magmom": 1.125}, "label": "Mn", "xyz": [1.6302619629683175, 3.8724106153907467, 2.853991087882654]}, {"species": [{"element": "Mn", "occu": 1}], "abc": [0.13643254, 0.13645949000000002, 0.13643957], "properties": {"magmom": 1.125}, "label": "Mn", "xyz": [0.6117970527262476, 0.611916650517368, 0.6118267935242631]}, {"species": [{"element": "Si", "occu": 1}], "abc": [0.15422775, 0.34576684, 0.6542315200000001], "properties": {"magmom": -0.074}, "label": "Si", "xyz": [0.691593897668655, 1.5504970246325522, 2.9337312468705554]}, {"species": [{"element": "Si", "occu": 1}], "abc": [0.34577064, 0.65422611, 0.15423001], "properties": {"magmom": -0.074}, "label": "Si", "xyz": [1.550522292856261, 2.9337086992452934, 0.6915984194259158]}, {"species": [{"element": "Si", "occu": 1}], "abc": [0.6542346800000001, 0.15423672, 0.34576399], "properties": {"magmom": -0.074}, "label": "Si", "xyz": [2.933748675114911, 0.6916332995270116, 1.5504862574736558]}, {"species": [{"element": "Si", "occu": 1}], "abc": [0.84576903, 0.8457724600000001, 0.84577435], "properties": {"magmom": -0.074}, "label": "Si", "xyz": [3.7926362712849637, 3.7926438880403563, 3.792649073251187]}]}, "task_ids": null, "uncorrected_energy_per_atom": null, "energy_per_atom": -12.08928133625, "formation_energy_per_atom": -0.360731700991379, "energy_above_hull": 0.015901920380436002, "is_stable": false, "equilibrium_reaction_energy_per_atom": null, "decomposes_to": null, "xas": null, "grain_boundaries": null, "band_gap": 0.0, "cbm": null, "vbm": null, "efermi": 9.23793987, "is_gap_direct": null, "is_metal": null, "es_source_calc_id": null, "bandstructure": null, "dos": null, "dos_energy_up": null, "dos_energy_down": null, "is_magnetic": null, "ordering": null, "total_magnetization": 3.9898655, "total_magnetization_normalized_vol": null, "total_magnetization_normalized_formula_units": null, "num_magnetic_sites": null, "num_unique_magnetic_sites": null, "types_of_magnetic_species": null, "bulk_modulus": null, "shear_modulus": null, "universal_anisotropy": null, "homogeneous_poisson": null, "e_total": null, "e_ionic": null, "e_electronic": null, "n": null, "e_ij_max": null, "weighted_surface_energy_EV_PER_ANG2": null, "weighted_surface_energy": null, "weighted_work_function": null, "surface_anisotropy": null, "shape_factor": null, "has_reconstructed": null, "possible_species": null, "has_props": null, "theoretical": null, "database_IDs": null, "fields_not_requested": ["builder_meta", "nsites", "elements", "nelements", "composition", "composition_reduced", "chemsys", "symmetry", "property_name", "deprecated", "deprecation_reasons", "last_updated", "origins", "warnings", "task_ids", "uncorrected_energy_per_atom", "equilibrium_reaction_energy_per_atom", "decomposes_to", "xas", "grain_boundaries", "cbm", "vbm", "is_gap_direct", "is_metal", "es_source_calc_id", "bandstructure", "dos", "dos_energy_up", "dos_energy_down", "is_magnetic", "ordering", "total_magnetization_normalized_vol", "total_magnetization_normalized_formula_units", "num_magnetic_sites", "num_unique_magnetic_sites", "types_of_magnetic_species", "bulk_modulus", "shear_modulus", "universal_anisotropy", "homogeneous_poisson", "e_total", "e_ionic", "e_electronic", "n", "e_ij_max", "weighted_surface_energy_EV_PER_ANG2", "weighted_surface_energy", "weighted_work_function", "surface_anisotropy", "shape_factor", "has_reconstructed", "possible_species", "has_props", "theoretical", "database_IDs"]}