{
  "builder_meta": null,
  "nsites": null,
  "elements": null,
  "nelements": null,
  "composition": null,
  "composition_reduced": null,
  "formula_pretty": "MnSn2",
  "formula_anonymous": "AB2",
  "chemsys": null,
  "volume": 118.9056149630566,
  "density": 8.165669136955971,
  "density_atomic": 19.817602493842767,
  "symmetry": null,
  "property_name": null,
  "material_id": "mp-20086",
  "deprecated": null,
  "deprecation_reasons": null,
  "last_updated": null,
  "origins": null,
  "warnings": null,
  "structure": {
    "@module": "pymatgen.core.structure",
    "@class": "Structure",
    "charge": 0,
    "lattice": {
      "matrix": [
        [3.3111990000000002, 3.3111990000000002, 2.711264],
        [-3.3111990000000002, -3.3111990000000002, 2.711264],
        [3.3111990000000002, -3.3111990000000002, -2.711264]
      ],
      "pbc": [true, true, true],
      "a": 5.411010082498276,
      "b": 5.411010082498276,
      "c": 5.411010082498276,
      "alpha": 104.54056818198049,
      "beta": 104.54056818198049,
      "gamma": 119.85912241881714,
      "volume": 118.90561496305664
    },
    "properties": {},
    "sites": [
      {
        "species": [{ "element": "Mn", "occu": 1 }],
        "abc": [0.75, 0.75, 0.0],
        "properties": { "magmom": 2.434 },
        "label": "Mn",
        "xyz": [0.0, 0.0, 4.066896]
      },
      {
        "species": [{ "element": "Mn", "occu": 1 }],
        "abc": [0.25, 0.25, 0.0],
        "properties": { "magmom": 2.434 },
        "label": "Mn",
        "xyz": [0.0, 0.0, 1.355632]
      },
      {
        "species": [{ "element": "Sn", "occu": 1 }],
        "abc": [0.163738, 0.336262, 0.5],
        "properties": { "magmom": -0.107 },
        "label": "Sn",
        "xyz": [1.0843382037240001, -2.226860796276, 0.0]
      },
      {
        "species": [{ "element": "Sn", "occu": 1 }],
        "abc": [0.836262, 0.663737999999999, 0.5],
        "properties": { "magmom": -0.107 },
        "label": "Sn",
        "xyz": [2.226860796276003, -1.084338203723997, 2.7112639999999972]
      },
      {
        "species": [{ "element": "Sn", "occu": 1 }],
        "abc": [0.663737999999999, 0.163738, 0.827476],
        "properties": { "magmom": -0.111 },
        "label": "Sn",
        "xyz": [4.395537203723997, -1.0843382037240032, -2.220446049250313e-15]
      },
      {
        "species": [{ "element": "Sn", "occu": 1 }],
        "abc": [0.336262, 0.836262, 0.172523999999999],
        "properties": { "magmom": -0.111 },
        "label": "Sn",
        "xyz": [-1.0843382037240032, -2.226860796275997, 2.7112640000000026]
      }
    ]
  },
  "task_ids": null,
  "uncorrected_energy_per_atom": null,
  "energy_per_atom": -21.38223119614943,
  "formation_energy_per_atom": 0.009669549022982001,
  "energy_above_hull": 0.009669549022984001,
  "is_stable": false,
  "equilibrium_reaction_energy_per_atom": null,
  "decomposes_to": null,
  "xas": null,
  "grain_boundaries": null,
  "band_gap": 0.0,
  "cbm": null,
  "vbm": null,
  "efermi": 8.81495624,
  "is_gap_direct": null,
  "is_metal": null,
  "es_source_calc_id": null,
  "bandstructure": null,
  "dos": null,
  "dos_energy_up": null,
  "dos_energy_down": null,
  "is_magnetic": null,
  "ordering": null,
  "total_magnetization": 4.4037058,
  "total_magnetization_normalized_vol": null,
  "total_magnetization_normalized_formula_units": null,
  "num_magnetic_sites": null,
  "num_unique_magnetic_sites": null,
  "types_of_magnetic_species": null,
  "bulk_modulus": null,
  "shear_modulus": null,
  "universal_anisotropy": null,
  "homogeneous_poisson": null,
  "e_total": null,
  "e_ionic": null,
  "e_electronic": null,
  "n": null,
  "e_ij_max": null,
  "weighted_surface_energy_EV_PER_ANG2": null,
  "weighted_surface_energy": null,
  "weighted_work_function": null,
  "surface_anisotropy": null,
  "shape_factor": null,
  "has_reconstructed": null,
  "possible_species": null,
  "has_props": null,
  "theoretical": null,
  "database_IDs": null,
  "fields_not_requested": [
    "builder_meta",
    "nsites",
    "elements",
    "nelements",
    "composition",
    "composition_reduced",
    "chemsys",
    "symmetry",
    "property_name",
    "deprecated",
    "deprecation_reasons",
    "last_updated",
    "origins",
    "warnings",
    "task_ids",
    "uncorrected_energy_per_atom",
    "equilibrium_reaction_energy_per_atom",
    "decomposes_to",
    "xas",
    "grain_boundaries",
    "cbm",
    "vbm",
    "is_gap_direct",
    "is_metal",
    "es_source_calc_id",
    "bandstructure",
    "dos",
    "dos_energy_up",
    "dos_energy_down",
    "is_magnetic",
    "ordering",
    "total_magnetization_normalized_vol",
    "total_magnetization_normalized_formula_units",
    "num_magnetic_sites",
    "num_unique_magnetic_sites",
    "types_of_magnetic_species",
    "bulk_modulus",
    "shear_modulus",
    "universal_anisotropy",
    "homogeneous_poisson",
    "e_total",
    "e_ionic",
    "e_electronic",
    "n",
    "e_ij_max",
    "weighted_surface_energy_EV_PER_ANG2",
    "weighted_surface_energy",
    "weighted_work_function",
    "surface_anisotropy",
    "shape_factor",
    "has_reconstructed",
    "possible_species",
    "has_props",
    "theoretical",
    "database_IDs"
  ]
}
