{"builder_meta": null, "nsites": null, "elements": null, "nelements": null, "composition": null, "composition_reduced": null, "formula_pretty": "MnTe2", "formula_anonymous": "AB2", "chemsys": null, "volume": 342.91127365874667, "density": 6.007342182327375, "density_atomic": 28.575939471562222, "symmetry": null, "property_name": null, "material_id": "mp-21893", "deprecated": null, "deprecation_reasons": null, "last_updated": null, "origins": null, "warnings": null, "structure": {"@module": "pymatgen.core.structure", "@class": "Structure", "charge": 0, "lattice": {"matrix": [[6.99939637, 0.00013621, -0.00013464], [0.0001396, 6.99939637, -0.00013249], [-0.00013125, -0.00013588, 6.99939637]], "pbc": [true, true, true], "a": 6.999396372620304, "b": 6.9993963726460695, "c": 6.999396372549501, "alpha": 90.00219684920128, "beta": 90.00217654859172, "gamma": 89.99774224888453, "volume": 342.91127365874667}, "properties": {}, "sites": [{"species": [{"element": "Mn", "occu": 1}], "abc": [-0.0, 0.0, -0.0], "properties": {"magmom": 4.424}, "label": "Mn", "xyz": [0.0, 0.0, 0.0]}, {"species": [{"element": "Mn", "occu": 1}], "abc": [0.5, 0.0, 0.5], "properties": {"magmom": 4.426}, "label": "Mn", "xyz": [3.4996325600000002, 1.6499999999999588e-07, 3.4996308650000003]}, {"species": [{"element": "Mn", "occu": 1}], "abc": [0.5, 0.5, -0.0], "properties": {"magmom": 4.424}, "label": "Mn", "xyz": [3.499767985, 3.49976629, -0.00013356499999999999]}, {"species": [{"element": "Mn", "occu": 1}], "abc": [-0.0, 0.5, 0.5], "properties": {"magmom": 4.424}, "label": "Mn", "xyz": [4.175000000000007e-06, 3.499630245, 3.49963194]}, {"species": [{"element": "Te", "occu": 1}], "abc": [0.38533224, 0.38571669000000003, 0.38534331], "properties": {"magmom": 0.064}, "label": "Te", "xyz": [2.6970963516404556, 2.699784125489863, 2.6970675804807334]}, {"species": [{"element": "Te", "occu": 1}], "abc": [0.11445439, 0.61445139, 0.88554661], "properties": {"magmom": 0.064}, "label": "Te", "xyz": [0.8010811913180459, 4.30068409046655, 6.198194908696076]}, {"species": [{"element": "Te", "occu": 1}], "abc": [0.88571569, 0.11465669, 0.61466776], "properties": {"magmom": 0.064}, "label": "Te", "xyz": [6.19941051636847, 0.8025647420611215, 4.3021688444746715]}, {"species": [{"element": "Te", "occu": 1}], "abc": [0.61465569, 0.88533024, 0.11428431], "properties": {"magmom": 0.064}, "label": "Te", "xyz": [4.302327397671662, 6.196845461406722, 0.7997211299163555]}, {"species": [{"element": "Te", "occu": 1}], "abc": [0.61466776, 0.61428331, 0.61465669], "properties": {"magmom": 0.064}, "label": "Te", "xyz": [4.302308368359545, 4.299612574510138, 4.302061659519268]}, {"species": [{"element": "Te", "occu": 1}], "abc": [0.88554561, 0.38554861, 0.11445339], "properties": {"magmom": 0.064}, "label": "Te", "xyz": [6.198323528681955, 2.698712609533451, 0.800934331303925]}, {"species": [{"element": "Te", "occu": 1}], "abc": [0.11428431, 0.88534331, 0.38533224], "properties": {"magmom": 0.064}, "label": "Te", "xyz": [0.7999942036315307, 6.196831957938879, 2.6969603955253283]}, {"species": [{"element": "Te", "occu": 1}], "abc": [0.38534431, 0.11466976, 0.88571669], "properties": {"magmom": 0.064}, "label": "Te", "xyz": [2.6970773221970887, 0.8025512384573991, 6.1994151094800145]}]}, "task_ids": null, "uncorrected_energy_per_atom": null, "energy_per_atom": -22.26190080666667, "formation_energy_per_atom": -0.42263970816092405, "energy_above_hull": 0.0, "is_stable": true, "equilibrium_reaction_energy_per_atom": null, "decomposes_to": null, "xas": null, "grain_boundaries": null, "band_gap": 0.0, "cbm": null, "vbm": null, "efermi": 6.70197049, "is_gap_direct": null, "is_metal": null, "es_source_calc_id": null, "bandstructure": null, "dos": null, "dos_energy_up": null, "dos_energy_down": null, "is_magnetic": null, "ordering": null, "total_magnetization": 19.9118944, "total_magnetization_normalized_vol": null, "total_magnetization_normalized_formula_units": null, "num_magnetic_sites": null, "num_unique_magnetic_sites": null, "types_of_magnetic_species": null, "bulk_modulus": null, "shear_modulus": null, "universal_anisotropy": null, "homogeneous_poisson": null, "e_total": null, "e_ionic": null, "e_electronic": null, "n": null, "e_ij_max": null, "weighted_surface_energy_EV_PER_ANG2": null, "weighted_surface_energy": null, "weighted_work_function": null, "surface_anisotropy": null, "shape_factor": null, "has_reconstructed": null, "possible_species": null, "has_props": null, "theoretical": null, "database_IDs": null, "fields_not_requested": ["builder_meta", "nsites", "elements", "nelements", "composition", "composition_reduced", "chemsys", "symmetry", "property_name", "deprecated", "deprecation_reasons", "last_updated", "origins", "warnings", "task_ids", "uncorrected_energy_per_atom", "equilibrium_reaction_energy_per_atom", "decomposes_to", "xas", "grain_boundaries", "cbm", "vbm", "is_gap_direct", "is_metal", "es_source_calc_id", "bandstructure", "dos", "dos_energy_up", "dos_energy_down", "is_magnetic", "ordering", "total_magnetization_normalized_vol", "total_magnetization_normalized_formula_units", "num_magnetic_sites", "num_unique_magnetic_sites", "types_of_magnetic_species", "bulk_modulus", "shear_modulus", "universal_anisotropy", "homogeneous_poisson", "e_total", "e_ionic", "e_electronic", "n", "e_ij_max", "weighted_surface_energy_EV_PER_ANG2", "weighted_surface_energy", "weighted_work_function", "surface_anisotropy", "shape_factor", "has_reconstructed", "possible_species", "has_props", "theoretical", "database_IDs"]}