{"builder_meta": null, "nsites": null, "elements": null, "nelements": null, "composition": null, "composition_reduced": null, "formula_pretty": "MnV3", "formula_anonymous": "AB3", "chemsys": null, "volume": 49.394025292485416, "density": 6.984606346736168, "density_atomic": 12.348506323121354, "symmetry": null, "property_name": null, "material_id": "mp-864984", "deprecated": null, "deprecation_reasons": null, "last_updated": null, "origins": null, "warnings": null, "structure": {"@module": "pymatgen.core.structure", "@class": "Structure", "charge": 0, "lattice": {"matrix": [[3.39e-06, 2.91215894, 2.9121586500000003], [2.91215896, 3.39e-06, 2.9121586500000003], [2.91215896, 2.91215894, 3.39e-06]], "pbc": [true, true, true], "a": 4.11841446367449, "b": 4.118414477816627, "c": 4.118414682877588, "alpha": 59.99992111049567, "beta": 59.99992145127076, "gamma": 59.99992639250979, "volume": 49.394025292485416}, "properties": {}, "sites": [{"species": [{"element": "Mn", "occu": 1}], "abc": [0.75000069, 0.75000077, 0.75000077], "properties": {"magmom": -0.0}, "label": "Mn", "xyz": [4.368245467227137, 4.368245204254663, 4.36824476925424]}, {"species": [{"element": "V", "occu": 1}], "abc": [-1e-08, -4e-08, -4e-08], "properties": {"magmom": 0.0}, "label": "V", "xyz": [-2.3297275070000002e-07, -1.456080826e-07, -1.4560806810000002e-07]}, {"species": [{"element": "V", "occu": 1}], "abc": [0.49999933, 0.49999931000000003, 0.49999931000000003], "properties": {"magmom": 0.0}, "label": "V", "xyz": [2.9121566362183637, 2.9121566744615026, 2.9121563844618974]}, {"species": [{"element": "V", "occu": 1}], "abc": [0.25, 0.24999996, 0.24999996], "properties": {"magmom": -0.0}, "label": "V", "xyz": [1.4560800945272832, 1.4560802010135068, 1.4560800560135188]}]}, "task_ids": null, "uncorrected_energy_per_atom": null, "energy_per_atom": -14.31811119, "formation_energy_per_atom": -0.08009572362068801, "energy_above_hull": 0.018973895, "is_stable": false, "equilibrium_reaction_energy_per_atom": null, "decomposes_to": null, "xas": null, "grain_boundaries": null, "band_gap": 0.0, "cbm": null, "vbm": null, "efermi": 6.1730921, "is_gap_direct": null, "is_metal": null, "es_source_calc_id": null, "bandstructure": null, "dos": null, "dos_energy_up": null, "dos_energy_down": null, "is_magnetic": null, "ordering": null, "total_magnetization": 0.0006315, "total_magnetization_normalized_vol": null, "total_magnetization_normalized_formula_units": null, "num_magnetic_sites": null, "num_unique_magnetic_sites": null, "types_of_magnetic_species": null, "bulk_modulus": null, "shear_modulus": null, "universal_anisotropy": null, "homogeneous_poisson": null, "e_total": null, "e_ionic": null, "e_electronic": null, "n": null, "e_ij_max": null, "weighted_surface_energy_EV_PER_ANG2": null, "weighted_surface_energy": null, "weighted_work_function": null, "surface_anisotropy": null, "shape_factor": null, "has_reconstructed": null, "possible_species": null, "has_props": null, "theoretical": null, "database_IDs": null, "fields_not_requested": ["builder_meta", "nsites", "elements", "nelements", "composition", "composition_reduced", "chemsys", "symmetry", "property_name", "deprecated", "deprecation_reasons", "last_updated", "origins", "warnings", "task_ids", "uncorrected_energy_per_atom", "equilibrium_reaction_energy_per_atom", "decomposes_to", "xas", "grain_boundaries", "cbm", "vbm", "is_gap_direct", "is_metal", "es_source_calc_id", "bandstructure", "dos", "dos_energy_up", "dos_energy_down", "is_magnetic", "ordering", "total_magnetization_normalized_vol", "total_magnetization_normalized_formula_units", "num_magnetic_sites", "num_unique_magnetic_sites", "types_of_magnetic_species", "bulk_modulus", "shear_modulus", "universal_anisotropy", "homogeneous_poisson", "e_total", "e_ionic", "e_electronic", "n", "e_ij_max", "weighted_surface_energy_EV_PER_ANG2", "weighted_surface_energy", "weighted_work_function", "surface_anisotropy", "shape_factor", "has_reconstructed", "possible_species", "has_props", "theoretical", "database_IDs"]}