{"builder_meta": null, "nsites": null, "elements": null, "nelements": null, "composition": null, "composition_reduced": null, "formula_pretty": "MnZn", "formula_anonymous": "AB", "chemsys": null, "volume": 26.97756921447515, "density": 7.407671468975086, "density_atomic": 13.488784607237575, "symmetry": null, "property_name": null, "material_id": "mp-11503", "deprecated": null, "deprecation_reasons": null, "last_updated": null, "origins": null, "warnings": null, "structure": {"@module": "pymatgen.core.structure", "@class": "Structure", "charge": 0, "lattice": {"matrix": [[2.999169, 0.0, 0.0], [0.0, 2.999169, 0.0], [0.0, 0.0, 2.999169]], "pbc": [true, true, true], "a": 2.999169, "b": 2.999169, "c": 2.999169, "alpha": 90.0, "beta": 90.0, "gamma": 90.0, "volume": 26.97756921447515}, "properties": {}, "sites": [{"species": [{"element": "Mn", "occu": 1}], "abc": [0.0, 0.0, 0.0], "properties": {"magmom": 2.876}, "label": "Mn", "xyz": [0.0, 0.0, 0.0]}, {"species": [{"element": "Zn", "occu": 1}], "abc": [0.5, 0.5, 0.5], "properties": {"magmom": -0.068}, "label": "Zn", "xyz": [1.4995845, 1.4995845, 1.4995845]}]}, "task_ids": null, "uncorrected_energy_per_atom": null, "energy_per_atom": -11.791911957816094, "formation_energy_per_atom": 0.005056682442527, "energy_above_hull": 0.08320094235632, "is_stable": false, "equilibrium_reaction_energy_per_atom": null, "decomposes_to": null, "xas": null, "grain_boundaries": null, "band_gap": 0.0, "cbm": null, "vbm": null, "efermi": 4.2400777, "is_gap_direct": null, "is_metal": null, "es_source_calc_id": null, "bandstructure": null, "dos": null, "dos_energy_up": null, "dos_energy_down": null, "is_magnetic": null, "ordering": null, "total_magnetization": 2.8528941, "total_magnetization_normalized_vol": null, "total_magnetization_normalized_formula_units": null, "num_magnetic_sites": null, "num_unique_magnetic_sites": null, "types_of_magnetic_species": null, "bulk_modulus": null, "shear_modulus": null, "universal_anisotropy": null, "homogeneous_poisson": null, "e_total": null, "e_ionic": null, "e_electronic": null, "n": null, "e_ij_max": null, "weighted_surface_energy_EV_PER_ANG2": null, "weighted_surface_energy": null, "weighted_work_function": null, "surface_anisotropy": null, "shape_factor": null, "has_reconstructed": null, "possible_species": null, "has_props": null, "theoretical": null, "database_IDs": null, "fields_not_requested": ["builder_meta", "nsites", "elements", "nelements", "composition", "composition_reduced", "chemsys", "symmetry", "property_name", "deprecated", "deprecation_reasons", "last_updated", "origins", "warnings", "task_ids", "uncorrected_energy_per_atom", "equilibrium_reaction_energy_per_atom", "decomposes_to", "xas", "grain_boundaries", "cbm", "vbm", "is_gap_direct", "is_metal", "es_source_calc_id", "bandstructure", "dos", "dos_energy_up", "dos_energy_down", "is_magnetic", "ordering", "total_magnetization_normalized_vol", "total_magnetization_normalized_formula_units", "num_magnetic_sites", "num_unique_magnetic_sites", "types_of_magnetic_species", "bulk_modulus", "shear_modulus", "universal_anisotropy", "homogeneous_poisson", "e_total", "e_ionic", "e_electronic", "n", "e_ij_max", "weighted_surface_energy_EV_PER_ANG2", "weighted_surface_energy", "weighted_work_function", "surface_anisotropy", "shape_factor", "has_reconstructed", "possible_species", "has_props", "theoretical", "database_IDs"]}