{"builder_meta": null, "nsites": null, "elements": null, "nelements": null, "composition": null, "composition_reduced": null, "formula_pretty": "Mo2As3", "formula_anonymous": "A2B3", "chemsys": null, "volume": 174.3742798278458, "density": 7.935286878073877, "density_atomic": 17.43742798278458, "symmetry": null, "property_name": null, "material_id": "mp-542454", "deprecated": null, "deprecation_reasons": null, "last_updated": null, "origins": null, "warnings": null, "structure": {"@module": "pymatgen.core.structure", "@class": "Structure", "charge": 0, "lattice": {"matrix": [[3.2124186, 1e-08, 0.64702226], [1.40788749, 6.6232382, 1.30816547], [0.02002669, -0.00553646, 8.19876144]], "pbc": [true, true, true], "a": 3.2769301284222503, "b": 6.896428665283073, "c": 8.198787768367502, "alpha": 79.07424058544782, "beta": 78.4723035115267, "gamma": 76.25614563336444, "volume": 174.37427982784578}, "properties": {}, "sites": [{"species": [{"element": "Mo", "occu": 1}], "abc": [0.24815536, 0.87530107, 0.6283862], "properties": {"magmom": 0.0}, "label": "Mo", "xyz": [2.042088816217988, 5.7938484507455765, 6.4575892234744945]}, {"species": [{"element": "Mo", "occu": 1}], "abc": [0.7518446400000001, 0.12469893, 0.3716138], "properties": {"magmom": 0.0}, "label": "Mo", "xyz": [2.598243963782012, 0.8238532992544245, 3.6963599465255053]}, {"species": [{"element": "Mo", "occu": 1}], "abc": [0.35062533, 0.43296154000000003, 0.865788799999999], "properties": {"magmom": -0.0}, "label": "Mo", "xyz": [1.7532553514433447, 2.862814009305434, 7.891643558519734]}, {"species": [{"element": "Mo", "occu": 1}], "abc": [0.64937467, 0.56703846, 0.1342112], "properties": {"magmom": -0.0}, "label": "Mo", "xyz": [2.887077428556656, 3.754887740694567, 2.2623056114802584]}, {"species": [{"element": "As", "occu": 1}], "abc": [0.12844461000000001, 0.78944535, 0.95366642], "properties": {"magmom": 0.0}, "label": "As", "xyz": [1.5431668682941675, 5.223404664229144, 8.934715140087928]}, {"species": [{"element": "As", "occu": 1}], "abc": [0.87155539, 0.21055465, 0.04633358], "properties": {"magmom": 0.0}, "label": "As", "xyz": [3.0971659117058326, 1.394297085770857, 1.219234029912072]}, {"species": [{"element": "As", "occu": 1}], "abc": [0.41313376, 0.85824102, 0.31549045000000003], "properties": {"magmom": -0.0}, "label": "As", "xyz": [2.5417835998148863, 5.682588012345495, 3.976658942527325]}, {"species": [{"element": "As", "occu": 1}], "abc": [0.58686624, 0.14175898, 0.68450955], "properties": {"magmom": -0.0}, "label": "As", "xyz": [2.0985491801851137, 0.9351137376545056, 6.177290227472675]}, {"species": [{"element": "As", "occu": 1}], "abc": [0.10469642, 0.41982919, 0.37077597], "properties": {"magmom": 0.0}, "label": "As", "xyz": [0.9348264069098845, 2.7785759434031565, 3.6568506896529756]}, {"species": [{"element": "As", "occu": 1}], "abc": [0.89530358, 0.58017081, 0.62922403], "properties": {"magmom": 0.0}, "label": "As", "xyz": [3.7055063730901154, 3.839125806596844, 6.4970984803470255]}]}, "task_ids": null, "uncorrected_energy_per_atom": null, "energy_per_atom": -19.556926765, "formation_energy_per_atom": -0.303616396499998, "energy_above_hull": 0.0, "is_stable": true, "equilibrium_reaction_energy_per_atom": null, "decomposes_to": null, "xas": null, "grain_boundaries": null, "band_gap": 0.0, "cbm": null, "vbm": null, "efermi": 6.9598137399999995, "is_gap_direct": null, "is_metal": null, "es_source_calc_id": null, "bandstructure": null, "dos": null, "dos_energy_up": null, "dos_energy_down": null, "is_magnetic": null, "ordering": null, "total_magnetization": 0.0, "total_magnetization_normalized_vol": null, "total_magnetization_normalized_formula_units": null, "num_magnetic_sites": null, "num_unique_magnetic_sites": null, "types_of_magnetic_species": null, "bulk_modulus": null, "shear_modulus": null, "universal_anisotropy": null, "homogeneous_poisson": null, "e_total": null, "e_ionic": null, "e_electronic": null, "n": null, "e_ij_max": null, "weighted_surface_energy_EV_PER_ANG2": null, "weighted_surface_energy": null, "weighted_work_function": null, "surface_anisotropy": null, "shape_factor": null, "has_reconstructed": null, "possible_species": null, "has_props": null, "theoretical": null, "database_IDs": null, "fields_not_requested": ["builder_meta", "nsites", "elements", "nelements", "composition", "composition_reduced", "chemsys", "symmetry", "property_name", "deprecated", "deprecation_reasons", "last_updated", "origins", "warnings", "task_ids", "uncorrected_energy_per_atom", "equilibrium_reaction_energy_per_atom", "decomposes_to", "xas", "grain_boundaries", "cbm", "vbm", "is_gap_direct", "is_metal", "es_source_calc_id", "bandstructure", "dos", "dos_energy_up", "dos_energy_down", "is_magnetic", "ordering", "total_magnetization_normalized_vol", "total_magnetization_normalized_formula_units", "num_magnetic_sites", "num_unique_magnetic_sites", "types_of_magnetic_species", "bulk_modulus", "shear_modulus", "universal_anisotropy", "homogeneous_poisson", "e_total", "e_ionic", "e_electronic", "n", "e_ij_max", "weighted_surface_energy_EV_PER_ANG2", "weighted_surface_energy", "weighted_work_function", "surface_anisotropy", "shape_factor", "has_reconstructed", "possible_species", "has_props", "theoretical", "database_IDs"]}