{
  "builder_meta": null,
  "nsites": null,
  "elements": null,
  "nelements": null,
  "composition": null,
  "composition_reduced": null,
  "formula_pretty": "Mo2C",
  "formula_anonymous": "AB2",
  "chemsys": null,
  "volume": 149.10320288570614,
  "density": 9.082795436016154,
  "density_atomic": 12.425266907142179,
  "symmetry": null,
  "property_name": null,
  "material_id": "mp-1552",
  "deprecated": null,
  "deprecation_reasons": null,
  "last_updated": null,
  "origins": null,
  "warnings": null,
  "structure": {
    "@module": "pymatgen.core.structure",
    "@class": "Structure",
    "charge": 0,
    "lattice": {
      "matrix": [
        [4.7285430999999996, -0.0, 0.0],
        [0.0, 5.20975702, 0.0],
        [0.0, 0.0, 6.05260249]
      ],
      "pbc": [true, true, true],
      "a": 4.7285430999999996,
      "b": 5.20975702,
      "c": 6.05260249,
      "alpha": 90.0,
      "beta": 90.0,
      "gamma": 90.0,
      "volume": 149.10320288570608
    },
    "properties": {},
    "sites": [
      {
        "species": [{ "element": "Mo", "occu": 1 }],
        "abc": [0.24554849, 0.07950887, 0.12202364],
        "properties": { "magmom": -0.0 },
        "label": "Mo",
        "xyz": [1.1610866181049189, 0.41422189363476736, 0.7385605873028636]
      },
      {
        "species": [{ "element": "Mo", "occu": 1 }],
        "abc": [0.74554849, 0.92049113, 0.37797636],
        "properties": { "magmom": -0.0 },
        "label": "Mo",
        "xyz": [3.5253581681049186, 4.795535126365232, 2.2877406576971366]
      },
      {
        "species": [{ "element": "Mo", "occu": 1 }],
        "abc": [0.25445151, 0.5795088700000001, 0.37797636],
        "properties": { "magmom": -0.0 },
        "label": "Mo",
        "xyz": [1.203184931895081, 3.0191004036347677, 2.2877406576971366]
      },
      {
        "species": [{ "element": "Mo", "occu": 1 }],
        "abc": [0.75445151, 0.42049113, 0.12202364],
        "properties": { "magmom": -0.0 },
        "label": "Mo",
        "xyz": [3.5674564818950807, 2.1906566163652323, 0.7385605873028636]
      },
      {
        "species": [{ "element": "Mo", "occu": 1 }],
        "abc": [0.24554849, 0.5795088700000001, 0.87797636],
        "properties": { "magmom": -0.0 },
        "label": "Mo",
        "xyz": [1.1610866181049189, 3.0191004036347677, 5.314041902697136]
      },
      {
        "species": [{ "element": "Mo", "occu": 1 }],
        "abc": [0.74554849, 0.42049113, 0.62202364],
        "properties": { "magmom": -0.0 },
        "label": "Mo",
        "xyz": [3.5253581681049186, 2.1906566163652323, 3.7648618323028633]
      },
      {
        "species": [{ "element": "Mo", "occu": 1 }],
        "abc": [0.25445151, 0.07950887, 0.62202364],
        "properties": { "magmom": -0.0 },
        "label": "Mo",
        "xyz": [1.203184931895081, 0.41422189363476736, 3.7648618323028633]
      },
      {
        "species": [{ "element": "Mo", "occu": 1 }],
        "abc": [0.75445151, 0.92049113, 0.87797636],
        "properties": { "magmom": -0.0 },
        "label": "Mo",
        "xyz": [3.5674564818950807, 4.795535126365232, 5.314041902697136]
      },
      {
        "species": [{ "element": "C", "occu": 1 }],
        "abc": [0.5, 0.75, 0.1225193],
        "properties": { "magmom": 0.0 },
        "label": "C",
        "xyz": [2.3642715499999998, 3.9073177649999997, 0.741560620253057]
      },
      {
        "species": [{ "element": "C", "occu": 1 }],
        "abc": [0.0, 0.25, 0.3774807],
        "properties": { "magmom": 0.0 },
        "label": "C",
        "xyz": [0.0, 1.302439255, 2.284740624746943]
      },
      {
        "species": [{ "element": "C", "occu": 1 }],
        "abc": [0.5, 0.25, 0.8774807],
        "properties": { "magmom": 0.0 },
        "label": "C",
        "xyz": [2.3642715499999998, 1.302439255, 5.311041869746943]
      },
      {
        "species": [{ "element": "C", "occu": 1 }],
        "abc": [0.0, 0.75, 0.6225193],
        "properties": { "magmom": 0.0 },
        "label": "C",
        "xyz": [0.0, 3.9073177649999997, 3.767861865253057]
      }
    ]
  },
  "task_ids": null,
  "uncorrected_energy_per_atom": null,
  "energy_per_atom": -10.419204233333334,
  "formation_energy_per_atom": -0.11254899583333401,
  "energy_above_hull": 0.0,
  "is_stable": true,
  "equilibrium_reaction_energy_per_atom": null,
  "decomposes_to": null,
  "xas": null,
  "grain_boundaries": null,
  "band_gap": 0.0,
  "cbm": null,
  "vbm": null,
  "efermi": 8.61518803,
  "is_gap_direct": null,
  "is_metal": null,
  "es_source_calc_id": null,
  "bandstructure": null,
  "dos": null,
  "dos_energy_up": null,
  "dos_energy_down": null,
  "is_magnetic": null,
  "ordering": null,
  "total_magnetization": 0.0,
  "total_magnetization_normalized_vol": null,
  "total_magnetization_normalized_formula_units": null,
  "num_magnetic_sites": null,
  "num_unique_magnetic_sites": null,
  "types_of_magnetic_species": null,
  "bulk_modulus": null,
  "shear_modulus": null,
  "universal_anisotropy": null,
  "homogeneous_poisson": null,
  "e_total": null,
  "e_ionic": null,
  "e_electronic": null,
  "n": null,
  "e_ij_max": null,
  "weighted_surface_energy_EV_PER_ANG2": null,
  "weighted_surface_energy": null,
  "weighted_work_function": null,
  "surface_anisotropy": null,
  "shape_factor": null,
  "has_reconstructed": null,
  "possible_species": null,
  "has_props": null,
  "theoretical": null,
  "database_IDs": null,
  "fields_not_requested": [
    "builder_meta",
    "nsites",
    "elements",
    "nelements",
    "composition",
    "composition_reduced",
    "chemsys",
    "symmetry",
    "property_name",
    "deprecated",
    "deprecation_reasons",
    "last_updated",
    "origins",
    "warnings",
    "task_ids",
    "uncorrected_energy_per_atom",
    "equilibrium_reaction_energy_per_atom",
    "decomposes_to",
    "xas",
    "grain_boundaries",
    "cbm",
    "vbm",
    "is_gap_direct",
    "is_metal",
    "es_source_calc_id",
    "bandstructure",
    "dos",
    "dos_energy_up",
    "dos_energy_down",
    "is_magnetic",
    "ordering",
    "total_magnetization_normalized_vol",
    "total_magnetization_normalized_formula_units",
    "num_magnetic_sites",
    "num_unique_magnetic_sites",
    "types_of_magnetic_species",
    "bulk_modulus",
    "shear_modulus",
    "universal_anisotropy",
    "homogeneous_poisson",
    "e_total",
    "e_ionic",
    "e_electronic",
    "n",
    "e_ij_max",
    "weighted_surface_energy_EV_PER_ANG2",
    "weighted_surface_energy",
    "weighted_work_function",
    "surface_anisotropy",
    "shape_factor",
    "has_reconstructed",
    "possible_species",
    "has_props",
    "theoretical",
    "database_IDs"
  ]
}
