{"builder_meta": null, "nsites": null, "elements": null, "nelements": null, "composition": null, "composition_reduced": null, "formula_pretty": "Mo2N", "formula_anonymous": "AB2", "chemsys": null, "volume": 71.98834034581864, "density": 9.498285611281272, "density_atomic": 11.998056724303106, "symmetry": null, "property_name": null, "material_id": "mp-27953", "deprecated": null, "deprecation_reasons": null, "last_updated": null, "origins": null, "warnings": null, "structure": {"@module": "pymatgen.core.structure", "@class": "Structure", "charge": 0, "lattice": {"matrix": [[3.8590297700000002, 0.0, -1.793808509999999], [-0.83382314, 3.76787144, -1.79380852], [-0.0290471, -0.0361783, 4.98539074]], "pbc": [true, true, true], "a": 4.2555680862012615, "b": 4.2555687309209, "c": 4.985606626468543, "alpha": 115.26372543853999, "beta": 115.2637251590815, "gamma": 89.99999788560318, "volume": 71.98834034581864}, "properties": {}, "sites": [{"species": [{"element": "Mo", "occu": 1}], "abc": [0.36196524, 0.11196524000000001, 0.72392848], "properties": {"magmom": -0.0}, "label": "Mo", "xyz": [1.2824474059261335, 0.39568012834076166, 2.758925811322238]}, {"species": [{"element": "Mo", "occu": 1}], "abc": [0.11196524000000001, 0.36196524, 0.22392848], "properties": {"magmom": -0.0}, "label": "Mo", "xyz": [0.12375772842613324, 1.3557371383407617, 0.26623043882223807]}, {"species": [{"element": "Mo", "occu": 1}], "abc": [0.88803476, 0.63803476, 0.77607152], "properties": {"magmom": -0.0}, "label": "Mo", "xyz": [2.872401801573867, 2.3759560016592385, 1.1315432711777627]}, {"species": [{"element": "Mo", "occu": 1}], "abc": [0.63803476, 0.88803476, 0.27607152], "properties": {"magmom": -0.0}, "label": "Mo", "xyz": [1.7137121240738669, 3.336013011659239, -1.3611521013222374]}, {"species": [{"element": "N", "occu": 1}], "abc": [0.625, 0.375, 0.25], "properties": {"magmom": 0.0}, "label": "N", "xyz": [2.09194815375, 1.4039072149999998, -0.5474608287499994]}, {"species": [{"element": "N", "occu": 1}], "abc": [0.375, 0.625, 0.75], "properties": {"magmom": 0.0}, "label": "N", "xyz": [0.9042113762500003, 2.3277859249999997, 1.9452345387500003]}]}, "task_ids": null, "uncorrected_energy_per_atom": null, "energy_per_atom": -10.369942731666667, "formation_energy_per_atom": -0.36008341000000005, "energy_above_hull": 0.004063535833333, "is_stable": false, "equilibrium_reaction_energy_per_atom": null, "decomposes_to": null, "xas": null, "grain_boundaries": null, "band_gap": 0.0, "cbm": null, "vbm": null, "efermi": 9.34266628, "is_gap_direct": null, "is_metal": null, "es_source_calc_id": null, "bandstructure": null, "dos": null, "dos_energy_up": null, "dos_energy_down": null, "is_magnetic": null, "ordering": null, "total_magnetization": 0.0, "total_magnetization_normalized_vol": null, "total_magnetization_normalized_formula_units": null, "num_magnetic_sites": null, "num_unique_magnetic_sites": null, "types_of_magnetic_species": null, "bulk_modulus": null, "shear_modulus": null, "universal_anisotropy": null, "homogeneous_poisson": null, "e_total": null, "e_ionic": null, "e_electronic": null, "n": null, "e_ij_max": null, "weighted_surface_energy_EV_PER_ANG2": null, "weighted_surface_energy": null, "weighted_work_function": null, "surface_anisotropy": null, "shape_factor": null, "has_reconstructed": null, "possible_species": null, "has_props": null, "theoretical": null, "database_IDs": null, "fields_not_requested": ["builder_meta", "nsites", "elements", "nelements", "composition", "composition_reduced", "chemsys", "symmetry", "property_name", "deprecated", "deprecation_reasons", "last_updated", "origins", "warnings", "task_ids", "uncorrected_energy_per_atom", "equilibrium_reaction_energy_per_atom", "decomposes_to", "xas", "grain_boundaries", "cbm", "vbm", "is_gap_direct", "is_metal", "es_source_calc_id", "bandstructure", "dos", "dos_energy_up", "dos_energy_down", "is_magnetic", "ordering", "total_magnetization_normalized_vol", "total_magnetization_normalized_formula_units", "num_magnetic_sites", "num_unique_magnetic_sites", "types_of_magnetic_species", "bulk_modulus", "shear_modulus", "universal_anisotropy", "homogeneous_poisson", "e_total", "e_ionic", "e_electronic", "n", "e_ij_max", "weighted_surface_energy_EV_PER_ANG2", "weighted_surface_energy", "weighted_work_function", "surface_anisotropy", "shape_factor", "has_reconstructed", "possible_species", "has_props", "theoretical", "database_IDs"]}