{
  "builder_meta": null,
  "nsites": null,
  "elements": null,
  "nelements": null,
  "composition": null,
  "composition_reduced": null,
  "formula_pretty": "Mo2N3",
  "formula_anonymous": "A2B3",
  "chemsys": null,
  "volume": 349.24739722281527,
  "density": 4.448425463670412,
  "density_atomic": 17.462369861140765,
  "symmetry": null,
  "property_name": null,
  "material_id": "mp-1080195",
  "deprecated": null,
  "deprecation_reasons": null,
  "last_updated": null,
  "origins": null,
  "warnings": null,
  "structure": {
    "@module": "pymatgen.core.structure",
    "@class": "Structure",
    "charge": 0,
    "lattice": {
      "matrix": [
        [5.816423, 0.0, 0.0],
        [0.41398, 6.111273, 0.0],
        [2.485609, 2.121211, 9.825293]
      ],
      "pbc": [true, true, true],
      "a": 5.816423,
      "b": 6.1252785341508345,
      "c": 10.354427591289197,
      "alpha": 77.25478637047082,
      "beta": 76.11034523233704,
      "gamma": 86.12468210293854,
      "volume": 349.24739722281527
    },
    "properties": {},
    "sites": [
      {
        "species": [{ "element": "Mo", "occu": 1 }],
        "abc": [0.088476, 0.215129, 0.174703],
        "properties": { "magmom": 0.0 },
        "label": "Mo",
        "xyz": [1.037916293895, 1.68529397455, 1.716508162979]
      },
      {
        "species": [{ "element": "Mo", "occu": 1 }],
        "abc": [0.911524, 0.784871, 0.825297],
        "properties": { "magmom": 0.0 },
        "label": "Mo",
        "xyz": [7.678095706105001, 6.54719002545, 8.108784837021]
      },
      {
        "species": [{ "element": "Mo", "occu": 1 }],
        "abc": [0.618548, 0.598924999999999, 0.693651999999999],
        "properties": { "magmom": 0.0 },
        "label": "Mo",
        "xyz": [5.5698274393719975, 5.131576434096992, 6.815334140035991]
      },
      {
        "species": [{ "element": "Mo", "occu": 1 }],
        "abc": [0.381451999999999, 0.401074999999999, 0.306348],
        "properties": { "magmom": 0.0 },
        "label": "Mo",
        "xyz": [3.146184560627994, 3.100907565902994, 3.009958859964]
      },
      {
        "species": [{ "element": "Mo", "occu": 1 }],
        "abc": [0.568626, 0.966015, 0.348134],
        "properties": { "magmom": -0.0 },
        "label": "Mo",
        "xyz": [4.572605238104, 6.642047057369, 3.420518553262]
      },
      {
        "species": [{ "element": "Mo", "occu": 1 }],
        "abc": [0.431374, 0.033985, 0.651866],
        "properties": { "magmom": -0.0 },
        "label": "Mo",
        "xyz": [4.143406761895999, 1.5904369426309999, 6.404774446737999]
      },
      {
        "species": [{ "element": "Mo", "occu": 1 }],
        "abc": [0.170856999999999, 0.345279, 0.801912],
        "properties": { "magmom": -0.0 },
        "label": "Mo",
        "xyz": [3.1299548693389942, 3.8111187855989996, 7.879020360216]
      },
      {
        "species": [{ "element": "Mo", "occu": 1 }],
        "abc": [0.829143, 0.654721, 0.198088],
        "properties": { "magmom": -0.0 },
        "label": "Mo",
        "xyz": [5.586057130661, 4.421365214401, 1.946272639784]
      },
      {
        "species": [{ "element": "N", "occu": 1 }],
        "abc": [0.936072999999999, 0.526998, 0.723901],
        "properties": { "magmom": 0.0 },
        "label": "N",
        "xyz": [7.462097999627995, 4.756175412565, 7.112539427993]
      },
      {
        "species": [{ "element": "N", "occu": 1 }],
        "abc": [0.063927, 0.473002, 0.276099],
        "properties": { "magmom": 0.0 },
        "label": "N",
        "xyz": [1.253914000372, 3.4763085874349997, 2.7127535720069997]
      },
      {
        "species": [{ "element": "N", "occu": 1 }],
        "abc": [0.873335, 0.720093, 0.011557],
        "properties": { "magmom": 0.0 },
        "label": "N",
        "xyz": [5.406516064058, 4.425199743916, 0.113550911201]
      },
      {
        "species": [{ "element": "N", "occu": 1 }],
        "abc": [0.126665, 0.279906999999999, 0.988443],
        "properties": { "magmom": 0.0 },
        "label": "N",
        "xyz": [3.3094959359419995, 3.807284256083994, 9.711742088799]
      },
      {
        "species": [{ "element": "N", "occu": 1 }],
        "abc": [0.5065500000000001, 0.310654999999999, 0.696763999999999],
        "properties": { "magmom": 0.0 },
        "label": "N",
        "xyz": [4.806796896825998, 3.376480975018992, 6.84591045185199]
      },
      {
        "species": [{ "element": "N", "occu": 1 }],
        "abc": [0.49345000000000006, 0.689345, 0.303236],
        "properties": { "magmom": 0.0 },
        "label": "N",
        "xyz": [3.9092151031740006, 4.856003024981, 2.979382548148]
      },
      {
        "species": [{ "element": "N", "occu": 1 }],
        "abc": [0.112638999999999, 0.043794, 0.754818],
        "properties": { "magmom": 0.0 },
        "label": "N",
        "xyz": [2.5494683245789944, 1.8687653343600001, 7.416308011674]
      },
      {
        "species": [{ "element": "N", "occu": 1 }],
        "abc": [0.887361, 0.956206, 0.245181999999999],
        "properties": { "magmom": 0.0 },
        "label": "N",
        "xyz": [6.166543675420998, 6.363718665639998, 2.40898498832599]
      },
      {
        "species": [{ "element": "N", "occu": 1 }],
        "abc": [0.599405, 0.848457, 0.797925],
        "properties": { "magmom": -0.0 },
        "label": "N",
        "xyz": [5.8209668185000005, 6.877719642936, 7.8398469170250005]
      },
      {
        "species": [{ "element": "N", "occu": 1 }],
        "abc": [0.400595, 0.151542999999999, 0.202075],
        "properties": { "magmom": -0.0 },
        "label": "N",
        "xyz": [2.8950451814999996, 1.3547643570639938, 1.985446082975]
      },
      {
        "species": [{ "element": "N", "occu": 1 }],
        "abc": [0.404644, 0.206505, 0.46820199999999906],
        "properties": { "magmom": -0.0 },
        "label": "N",
        "xyz": [3.6028367133299977, 2.2551636634869983, 4.600221833185991]
      },
      {
        "species": [{ "element": "N", "occu": 1 }],
        "abc": [0.595356, 0.793495, 0.531798],
        "properties": { "magmom": -0.0 },
        "label": "N",
        "xyz": [5.113175286670001, 5.977320336512999, 5.225071166814]
      }
    ]
  },
  "task_ids": null,
  "uncorrected_energy_per_atom": null,
  "energy_per_atom": -9.6304424545,
  "formation_energy_per_atom": -0.2892157635,
  "energy_above_hull": 0.15551657610000003,
  "is_stable": false,
  "equilibrium_reaction_energy_per_atom": null,
  "decomposes_to": null,
  "xas": null,
  "grain_boundaries": null,
  "band_gap": 0.0,
  "cbm": null,
  "vbm": null,
  "efermi": 2.99230041,
  "is_gap_direct": null,
  "is_metal": null,
  "es_source_calc_id": null,
  "bandstructure": null,
  "dos": null,
  "dos_energy_up": null,
  "dos_energy_down": null,
  "is_magnetic": null,
  "ordering": null,
  "total_magnetization": 0.0005078999999990001,
  "total_magnetization_normalized_vol": null,
  "total_magnetization_normalized_formula_units": null,
  "num_magnetic_sites": null,
  "num_unique_magnetic_sites": null,
  "types_of_magnetic_species": null,
  "bulk_modulus": null,
  "shear_modulus": null,
  "universal_anisotropy": null,
  "homogeneous_poisson": null,
  "e_total": null,
  "e_ionic": null,
  "e_electronic": null,
  "n": null,
  "e_ij_max": null,
  "weighted_surface_energy_EV_PER_ANG2": null,
  "weighted_surface_energy": null,
  "weighted_work_function": null,
  "surface_anisotropy": null,
  "shape_factor": null,
  "has_reconstructed": null,
  "possible_species": null,
  "has_props": null,
  "theoretical": null,
  "database_IDs": null,
  "fields_not_requested": [
    "builder_meta",
    "nsites",
    "elements",
    "nelements",
    "composition",
    "composition_reduced",
    "chemsys",
    "symmetry",
    "property_name",
    "deprecated",
    "deprecation_reasons",
    "last_updated",
    "origins",
    "warnings",
    "task_ids",
    "uncorrected_energy_per_atom",
    "equilibrium_reaction_energy_per_atom",
    "decomposes_to",
    "xas",
    "grain_boundaries",
    "cbm",
    "vbm",
    "is_gap_direct",
    "is_metal",
    "es_source_calc_id",
    "bandstructure",
    "dos",
    "dos_energy_up",
    "dos_energy_down",
    "is_magnetic",
    "ordering",
    "total_magnetization_normalized_vol",
    "total_magnetization_normalized_formula_units",
    "num_magnetic_sites",
    "num_unique_magnetic_sites",
    "types_of_magnetic_species",
    "bulk_modulus",
    "shear_modulus",
    "universal_anisotropy",
    "homogeneous_poisson",
    "e_total",
    "e_ionic",
    "e_electronic",
    "n",
    "e_ij_max",
    "weighted_surface_energy_EV_PER_ANG2",
    "weighted_surface_energy",
    "weighted_work_function",
    "surface_anisotropy",
    "shape_factor",
    "has_reconstructed",
    "possible_species",
    "has_props",
    "theoretical",
    "database_IDs"
  ]
}
