{
  "builder_meta": null,
  "nsites": null,
  "elements": null,
  "nelements": null,
  "composition": null,
  "composition_reduced": null,
  "formula_pretty": "Mo2O5",
  "formula_anonymous": "A2B5",
  "chemsys": null,
  "volume": 211.1842395035294,
  "density": 4.275530985374154,
  "density_atomic": 15.084588535966386,
  "symmetry": null,
  "property_name": null,
  "material_id": "mp-1412716",
  "deprecated": null,
  "deprecation_reasons": null,
  "last_updated": null,
  "origins": null,
  "warnings": null,
  "structure": {
    "@module": "pymatgen.core.structure",
    "@class": "Structure",
    "charge": 0,
    "lattice": {
      "matrix": [
        [3.935245, 7e-6, 4.999999999999999e-6],
        [6e-6, 4.373397, -0.000168],
        [1.5000000000000002e-5, 0.000493, 12.270742]
      ],
      "pbc": [true, true, true],
      "a": 3.9352450000094024,
      "b": 4.373397003230898,
      "c": 12.270742009912768,
      "alpha": 89.99989899921432,
      "beta": 89.99985715816379,
      "gamma": 89.99981947939479,
      "volume": 211.18423950352943
    },
    "properties": {},
    "sites": [
      {
        "species": [{ "element": "Mo", "occu": 1 }],
        "abc": [0.018557999999999002, 0.891664999999999, 0.151570999999999],
        "properties": { "magmom": 1.014 },
        "label": "Mo",
        "xyz": [0.07303790026499608, 3.8996798904139958, 1.8597389287519879]
      },
      {
        "species": [{ "element": "Mo", "occu": 1 }],
        "abc": [0.518556999999999, 0.108264, 0.348422],
        "properties": { "magmom": 1.015 },
        "label": "Mo",
        "xyz": [2.040654717378996, 0.47365685475299996, 4.275380873557]
      },
      {
        "species": [{ "element": "Mo", "occu": 1 }],
        "abc": [0.518571, 0.108262, 0.651612],
        "properties": { "magmom": 1.015 },
        "label": "Mo",
        "xyz": [2.0407143586470005, 0.47379758072699996, 7.995747140943]
      },
      {
        "species": [{ "element": "Mo", "occu": 1 }],
        "abc": [0.018564999999999002, 0.891838999999999, 0.848395],
        "properties": { "magmom": 1.015 },
        "label": "Mo",
        "xyz": [0.07307590038399607, 3.9007843957729955, 10.410286422963]
      },
      {
        "species": [{ "element": "O", "occu": 1 }],
        "abc": [0.518552, 0.994794, 0.182371999999999],
        "properties": { "magmom": -0.006 },
        "label": "O",
        "xyz": [2.0406378695839997, 4.350722634477999, 2.2376752273919878]
      },
      {
        "species": [{ "element": "O", "occu": 1 }],
        "abc": [0.018552, 0.005118999999999, 0.317623],
        "properties": { "magmom": -0.006 },
        "label": "O",
        "xyz": [0.073011460299, 0.02254413724599563, 3.8974691190339996]
      },
      {
        "species": [{ "element": "O", "occu": 1 }],
        "abc": [0.018562, 0.005142, 0.682372],
        "properties": { "magmom": -0.006 },
        "label": "O",
        "xyz": [0.07305628412199999, 0.022824546704, 8.373209988978]
      },
      {
        "species": [{ "element": "O", "occu": 1 }],
        "abc": [0.51856, 0.994885999999999, 0.817632999999999],
        "properties": { "magmom": -0.006 },
        "label": "O",
        "xyz": [2.0406788810110004, 4.3514381707309955, 10.032799045637988]
      },
      {
        "species": [{ "element": "O", "occu": 1 }],
        "abc": [0.018585, 0.497712999999999, 0.851398],
        "properties": { "magmom": -0.07200000000000001 },
        "label": "O",
        "xyz": [0.073152285573, 2.177116410369996, 10.447201674457]
      },
      {
        "species": [{ "element": "O", "occu": 1 }],
        "abc": [0.518589, 0.502288, 0.648629],
        "properties": { "magmom": -0.07200000000000001 },
        "label": "O",
        "xyz": [2.040787512468, 2.1970282365559997, 7.959077321279]
      },
      {
        "species": [{ "element": "O", "occu": 1 }],
        "abc": [0.518577, 0.502195, 0.351474],
        "properties": { "magmom": -0.07200000000000001 },
        "label": "O",
        "xyz": [2.040735831645, 2.196475013136, 4.312764997833001]
      },
      {
        "species": [{ "element": "O", "occu": 1 }],
        "abc": [0.518593, 0.998678, 0.500011],
        "properties": { "magmom": 0.106 },
        "label": "O",
        "xyz": [2.040804002518, 4.36786550474, 6.1353407932229995]
      },
      {
        "species": [{ "element": "O", "occu": 1 }],
        "abc": [0.018595, 0.0013809999999990002, 0.999999],
        "properties": { "magmom": 0.106 },
        "label": "O",
        "xyz": [0.073190889046, 0.006532790928995627, 12.270729590224999]
      },
      {
        "species": [{ "element": "O", "occu": 1 }],
        "abc": [0.018577, 0.497772, 0.148485],
        "properties": { "magmom": -0.07200000000000001 },
        "label": "O",
        "xyz": [0.073110260272, 2.177027904628, 1.821937593059]
      }
    ]
  },
  "task_ids": null,
  "uncorrected_energy_per_atom": null,
  "energy_per_atom": -8.521695819285714,
  "formation_energy_per_atom": -1.888680784285714,
  "energy_above_hull": 0.078253929081633,
  "is_stable": false,
  "equilibrium_reaction_energy_per_atom": null,
  "decomposes_to": null,
  "xas": null,
  "grain_boundaries": null,
  "band_gap": 0.7552000000000001,
  "cbm": null,
  "vbm": null,
  "efermi": 2.30543408,
  "is_gap_direct": null,
  "is_metal": null,
  "es_source_calc_id": null,
  "bandstructure": null,
  "dos": null,
  "dos_energy_up": null,
  "dos_energy_down": null,
  "is_magnetic": null,
  "ordering": null,
  "total_magnetization": 4.0000474,
  "total_magnetization_normalized_vol": null,
  "total_magnetization_normalized_formula_units": null,
  "num_magnetic_sites": null,
  "num_unique_magnetic_sites": null,
  "types_of_magnetic_species": null,
  "bulk_modulus": null,
  "shear_modulus": null,
  "universal_anisotropy": null,
  "homogeneous_poisson": null,
  "e_total": null,
  "e_ionic": null,
  "e_electronic": null,
  "n": null,
  "e_ij_max": null,
  "weighted_surface_energy_EV_PER_ANG2": null,
  "weighted_surface_energy": null,
  "weighted_work_function": null,
  "surface_anisotropy": null,
  "shape_factor": null,
  "has_reconstructed": null,
  "possible_species": null,
  "has_props": null,
  "theoretical": null,
  "database_IDs": null,
  "fields_not_requested": [
    "builder_meta",
    "nsites",
    "elements",
    "nelements",
    "composition",
    "composition_reduced",
    "chemsys",
    "symmetry",
    "property_name",
    "deprecated",
    "deprecation_reasons",
    "last_updated",
    "origins",
    "warnings",
    "task_ids",
    "uncorrected_energy_per_atom",
    "equilibrium_reaction_energy_per_atom",
    "decomposes_to",
    "xas",
    "grain_boundaries",
    "cbm",
    "vbm",
    "is_gap_direct",
    "is_metal",
    "es_source_calc_id",
    "bandstructure",
    "dos",
    "dos_energy_up",
    "dos_energy_down",
    "is_magnetic",
    "ordering",
    "total_magnetization_normalized_vol",
    "total_magnetization_normalized_formula_units",
    "num_magnetic_sites",
    "num_unique_magnetic_sites",
    "types_of_magnetic_species",
    "bulk_modulus",
    "shear_modulus",
    "universal_anisotropy",
    "homogeneous_poisson",
    "e_total",
    "e_ionic",
    "e_electronic",
    "n",
    "e_ij_max",
    "weighted_surface_energy_EV_PER_ANG2",
    "weighted_surface_energy",
    "weighted_work_function",
    "surface_anisotropy",
    "shape_factor",
    "has_reconstructed",
    "possible_species",
    "has_props",
    "theoretical",
    "database_IDs"
  ]
}
