{"builder_meta": null, "nsites": null, "elements": null, "nelements": null, "composition": null, "composition_reduced": null, "formula_pretty": "Mo2O7", "formula_anonymous": "A2B7", "chemsys": null, "volume": 269.83855993003976, "density": 3.739996518104409, "density_atomic": 14.991031107224432, "symmetry": null, "property_name": null, "material_id": "mp-1180296", "deprecated": null, "deprecation_reasons": null, "last_updated": null, "origins": null, "warnings": null, "structure": {"@module": "pymatgen.core.structure", "@class": "Structure", "charge": 0, "lattice": {"matrix": [[3.745962999999999, 0.0, 0.0], [0.0, 7.451122, 0.0], [0.0, 2.171075, 9.667604]], "pbc": [true, true, true], "a": 3.745962999999999, "b": 7.451122, "c": 9.908387041110224, "alpha": 77.34294925378491, "beta": 90.0, "gamma": 90.0, "volume": 269.83855993003965}, "properties": {}, "sites": [{"species": [{"element": "Mo", "occu": 1}], "abc": [0.25, 0.807411, 0.9853600000000001], "properties": {"magmom": 0.046}, "label": "Mo", "xyz": [0.9364907499999997, 8.155408327142, 9.526070277440002]}, {"species": [{"element": "Mo", "occu": 1}], "abc": [0.75, 0.192588999999999, 0.014640000000000002], "properties": {"magmom": 0.046}, "label": "Mo", "xyz": [2.809472249999999, 1.4667886728579924, 0.14153372256000002]}, {"species": [{"element": "Mo", "occu": 1}], "abc": [0.75, 0.847634999999999, 0.419883], "properties": {"magmom": 0.05}, "label": "Mo", "xyz": [2.809472249999999, 7.2274292806949925, 4.059262570332001]}, {"species": [{"element": "Mo", "occu": 1}], "abc": [0.25, 0.152365, 0.580117], "properties": {"magmom": 0.05}, "label": "Mo", "xyz": [0.9364907499999997, 2.394767719305, 5.608341429668]}, {"species": [{"element": "O", "occu": 1}], "abc": [0.75, 0.716864, 0.644999], "properties": {"magmom": 0.202}, "label": "O", "xyz": [2.809472249999999, 6.741782325333, 6.235594912396]}, {"species": [{"element": "O", "occu": 1}], "abc": [0.25, 0.283136, 0.355001], "properties": {"magmom": 0.202}, "label": "O", "xyz": [0.9364907499999997, 2.880414674667, 3.4320090876040004]}, {"species": [{"element": "O", "occu": 1}], "abc": [0.25, 0.63504, 0.894501], "properties": {"magmom": -0.074}, "label": "O", "xyz": [0.9364907499999997, 6.673789273455, 8.647681445604]}, {"species": [{"element": "O", "occu": 1}], "abc": [0.75, 0.36496, 0.105499], "properties": {"magmom": -0.074}, "label": "O", "xyz": [2.809472249999999, 2.9484077265449997, 1.019922554396]}, {"species": [{"element": "O", "occu": 1}], "abc": [0.75, 0.899308999999999, 0.967298], "properties": {"magmom": -0.01}, "label": "O", "xyz": [2.809472249999999, 8.800937580047993, 9.351454013992]}, {"species": [{"element": "O", "occu": 1}], "abc": [0.25, 0.100690999999999, 0.032702], "properties": {"magmom": -0.01}, "label": "O", "xyz": [0.9364907499999997, 0.8212594199519925, 0.31614998600800004]}, {"species": [{"element": "O", "occu": 1}], "abc": [0.25, 0.689257999999999, 0.15493], "properties": {"magmom": -0.07100000000000001}, "label": "O", "xyz": [0.9364907499999997, 5.472110097225992, 1.4978018877200003]}, {"species": [{"element": "O", "occu": 1}], "abc": [0.75, 0.310741999999999, 0.8450700000000001], "properties": {"magmom": -0.07100000000000001}, "label": "O", "xyz": [2.809472249999999, 4.150086902773992, 8.169802112280001]}, {"species": [{"element": "O", "occu": 1}], "abc": [0.25, 0.889008999999999, 0.474184], "properties": {"magmom": 0.08}, "label": "O", "xyz": [0.9364907499999997, 7.653603545897992, 4.584223135136]}, {"species": [{"element": "O", "occu": 1}], "abc": [0.75, 0.11099099999999901, 0.525816], "properties": {"magmom": 0.08}, "label": "O", "xyz": [2.809472249999999, 1.9685934541019925, 5.083380864864]}, {"species": [{"element": "O", "occu": 1}], "abc": [0.25, 0.013625, 0.747228999999999], "properties": {"magmom": -0.048}, "label": "O", "xyz": [0.9364907499999997, 1.723811738424998, 7.223914069315991]}, {"species": [{"element": "O", "occu": 1}], "abc": [0.75, 0.986375, 0.252770999999999], "properties": {"magmom": -0.048}, "label": "O", "xyz": [2.809472249999999, 7.898385261574997, 2.4436899306839908]}, {"species": [{"element": "O", "occu": 1}], "abc": [0.75, 0.625645999999999, 0.397503], "properties": {"magmom": -0.167}, "label": "O", "xyz": [2.809472249999999, 5.524773500536993, 3.8429015928120003]}, {"species": [{"element": "O", "occu": 1}], "abc": [0.25, 0.374353999999999, 0.602497], "properties": {"magmom": -0.167}, "label": "O", "xyz": [0.9364907499999997, 4.097423499462993, 5.824702407188]}]}, "task_ids": null, "uncorrected_energy_per_atom": null, "energy_per_atom": -7.630161762777778, "formation_energy_per_atom": -1.371603178888888, "energy_above_hull": 0.339189596388888, "is_stable": false, "equilibrium_reaction_energy_per_atom": null, "decomposes_to": null, "xas": null, "grain_boundaries": null, "band_gap": 0.035999999999999005, "cbm": null, "vbm": null, "efermi": -0.56044498, "is_gap_direct": null, "is_metal": null, "es_source_calc_id": null, "bandstructure": null, "dos": null, "dos_energy_up": null, "dos_energy_down": null, "is_magnetic": null, "ordering": null, "total_magnetization": 0.0029881, "total_magnetization_normalized_vol": null, "total_magnetization_normalized_formula_units": null, "num_magnetic_sites": null, "num_unique_magnetic_sites": null, "types_of_magnetic_species": null, "bulk_modulus": null, "shear_modulus": null, "universal_anisotropy": null, "homogeneous_poisson": null, "e_total": null, "e_ionic": null, "e_electronic": null, "n": null, "e_ij_max": null, "weighted_surface_energy_EV_PER_ANG2": null, "weighted_surface_energy": null, "weighted_work_function": null, "surface_anisotropy": null, "shape_factor": null, "has_reconstructed": null, "possible_species": null, "has_props": null, "theoretical": null, "database_IDs": null, "fields_not_requested": ["builder_meta", "nsites", "elements", "nelements", "composition", "composition_reduced", "chemsys", "symmetry", "property_name", "deprecated", "deprecation_reasons", "last_updated", "origins", "warnings", "task_ids", "uncorrected_energy_per_atom", "equilibrium_reaction_energy_per_atom", "decomposes_to", "xas", "grain_boundaries", "cbm", "vbm", "is_gap_direct", "is_metal", "es_source_calc_id", "bandstructure", "dos", "dos_energy_up", "dos_energy_down", "is_magnetic", "ordering", "total_magnetization_normalized_vol", "total_magnetization_normalized_formula_units", "num_magnetic_sites", "num_unique_magnetic_sites", "types_of_magnetic_species", "bulk_modulus", "shear_modulus", "universal_anisotropy", "homogeneous_poisson", "e_total", "e_ionic", "e_electronic", "n", "e_ij_max", "weighted_surface_energy_EV_PER_ANG2", "weighted_surface_energy", "weighted_work_function", "surface_anisotropy", "shape_factor", "has_reconstructed", "possible_species", "has_props", "theoretical", "database_IDs"]}