{
  "builder_meta": null,
  "nsites": null,
  "elements": null,
  "nelements": null,
  "composition": null,
  "composition_reduced": null,
  "formula_pretty": "Mo2O3",
  "formula_anonymous": "A2B3",
  "chemsys": null,
  "volume": 289.2619212503938,
  "density": 5.508186084139075,
  "density_atomic": 14.463096062519691,
  "symmetry": null,
  "property_name": null,
  "material_id": "mp-1371699",
  "deprecated": null,
  "deprecation_reasons": null,
  "last_updated": null,
  "origins": null,
  "warnings": null,
  "structure": {
    "@module": "pymatgen.core.structure",
    "@class": "Structure",
    "charge": 0,
    "lattice": {
      "matrix": [
        [1.6436600000000001, -5.423361, 0.0],
        [1.6436600000000001, 5.423361, 0.0],
        [0.0, 0.0, 16.224853]
      ],
      "pbc": [true, true, true],
      "a": 5.66696239019821,
      "b": 5.66696239019821,
      "c": 16.224853,
      "alpha": 90.0,
      "beta": 90.0,
      "gamma": 146.27899780798165,
      "volume": 289.26192125039387
    },
    "properties": {},
    "sites": [
      {
        "species": [{ "element": "Mo", "occu": 1 }],
        "abc": [0.632844, 0.367156, 0.045337999999999004],
        "properties": { "magmom": -2.676 },
        "label": "Mo",
        "xyz": [1.6436600000000001, -1.4409219373679998, 0.7356023853139838]
      },
      {
        "species": [{ "element": "Mo", "occu": 1 }],
        "abc": [0.367156, 0.632844, 0.954662],
        "properties": { "magmom": -2.676 },
        "label": "Mo",
        "xyz": [1.6436600000000001, 1.4409219373679998, 15.489250614686]
      },
      {
        "species": [{ "element": "Mo", "occu": 1 }],
        "abc": [0.632844, 0.367156, 0.454661999999999],
        "properties": { "magmom": -2.676 },
        "label": "Mo",
        "xyz": [1.6436600000000001, -1.4409219373679998, 7.376824114685983]
      },
      {
        "species": [{ "element": "Mo", "occu": 1 }],
        "abc": [0.367156, 0.632844, 0.545338],
        "properties": { "magmom": -2.676 },
        "label": "Mo",
        "xyz": [1.6436600000000001, 1.4409219373679998, 8.848028885314]
      },
      {
        "species": [{ "element": "Mo", "occu": 1 }],
        "abc": [0.09993199999999901, 0.900068, 0.643562],
        "properties": { "magmom": 2.68 },
        "label": "Mo",
        "xyz": [1.6436599999999983, 4.3394263770960055, 10.441698846385998]
      },
      {
        "species": [{ "element": "Mo", "occu": 1 }],
        "abc": [0.900068, 0.09993199999999901, 0.356438],
        "properties": { "magmom": 2.68 },
        "label": "Mo",
        "xyz": [1.6436599999999983, -4.3394263770960055, 5.783154153613999]
      },
      {
        "species": [{ "element": "Mo", "occu": 1 }],
        "abc": [0.900068, 0.09993199999999901, 0.143562],
        "properties": { "magmom": 2.68 },
        "label": "Mo",
        "xyz": [1.6436599999999983, -4.3394263770960055, 2.329272346386]
      },
      {
        "species": [{ "element": "Mo", "occu": 1 }],
        "abc": [0.09993199999999901, 0.900068, 0.856437999999999],
        "properties": { "magmom": 2.68 },
        "label": "Mo",
        "xyz": [1.6436599999999983, 4.3394263770960055, 13.895580653613983]
      },
      {
        "species": [{ "element": "O", "occu": 1 }],
        "abc": [0.0, 0.0, 0.5],
        "properties": { "magmom": -0.043000000000000003 },
        "label": "O",
        "xyz": [0.0, 0.0, 8.1124265]
      },
      {
        "species": [{ "element": "O", "occu": 1 }],
        "abc": [0.0, 0.0, 0.0],
        "properties": { "magmom": -0.043000000000000003 },
        "label": "O",
        "xyz": [0.0, 0.0, 0.0]
      },
      {
        "species": [{ "element": "O", "occu": 1 }],
        "abc": [0.482533999999999, 0.517466, 0.852421],
        "properties": { "magmom": -0.009000000000000001 },
        "label": "O",
        "xyz": [1.6436599999999983, 0.189448846452005, 13.830405419113]
      },
      {
        "species": [{ "element": "O", "occu": 1 }],
        "abc": [0.517466, 0.482533999999999, 0.147579],
        "properties": { "magmom": -0.009000000000000001 },
        "label": "O",
        "xyz": [1.6436599999999983, -0.189448846452005, 2.394447580887]
      },
      {
        "species": [{ "element": "O", "occu": 1 }],
        "abc": [0.517466, 0.482533999999999, 0.352421],
        "properties": { "magmom": -0.009000000000000001 },
        "label": "O",
        "xyz": [1.6436599999999983, -0.189448846452005, 5.7179789191129995]
      },
      {
        "species": [{ "element": "O", "occu": 1 }],
        "abc": [0.482533999999999, 0.517466, 0.647579],
        "properties": { "magmom": -0.009000000000000001 },
        "label": "O",
        "xyz": [1.6436599999999983, 0.189448846452005, 10.506874080887]
      },
      {
        "species": [{ "element": "O", "occu": 1 }],
        "abc": [0.74107, 0.25893, 0.92671],
        "properties": { "magmom": -0.004 },
        "label": "O",
        "xyz": [1.6436600000000001, -2.61481927254, 15.03573352363]
      },
      {
        "species": [{ "element": "O", "occu": 1 }],
        "abc": [0.25893, 0.74107, 0.07329000000000001],
        "properties": { "magmom": -0.004 },
        "label": "O",
        "xyz": [1.6436600000000001, 2.61481927254, 1.1891194763700002]
      },
      {
        "species": [{ "element": "O", "occu": 1 }],
        "abc": [0.25893, 0.74107, 0.42671000000000003],
        "properties": { "magmom": -0.004 },
        "label": "O",
        "xyz": [1.6436600000000001, 2.61481927254, 6.9233070236300005]
      },
      {
        "species": [{ "element": "O", "occu": 1 }],
        "abc": [0.74107, 0.25893, 0.5732900000000001],
        "properties": { "magmom": -0.004 },
        "label": "O",
        "xyz": [1.6436600000000001, -2.61481927254, 9.30154597637]
      },
      {
        "species": [{ "element": "O", "occu": 1 }],
        "abc": [0.186295, 0.813705, 0.75],
        "properties": { "magmom": 0.028 },
        "label": "O",
        "xyz": [1.6436600000000001, 3.40267092501, 12.16863975]
      },
      {
        "species": [{ "element": "O", "occu": 1 }],
        "abc": [0.813705, 0.186295, 0.25],
        "properties": { "magmom": 0.028 },
        "label": "O",
        "xyz": [1.6436600000000001, -3.40267092501, 4.05621325]
      }
    ]
  },
  "task_ids": null,
  "uncorrected_energy_per_atom": null,
  "energy_per_atom": -8.7973643075,
  "formation_energy_per_atom": -1.490327660500001,
  "energy_above_hull": 0.329072008999999,
  "is_stable": false,
  "equilibrium_reaction_energy_per_atom": null,
  "decomposes_to": null,
  "xas": null,
  "grain_boundaries": null,
  "band_gap": 0.5236000000000001,
  "cbm": null,
  "vbm": null,
  "efermi": 4.80819199,
  "is_gap_direct": null,
  "is_metal": null,
  "es_source_calc_id": null,
  "bandstructure": null,
  "dos": null,
  "dos_energy_up": null,
  "dos_energy_down": null,
  "is_magnetic": null,
  "ordering": null,
  "total_magnetization": 0.0,
  "total_magnetization_normalized_vol": null,
  "total_magnetization_normalized_formula_units": null,
  "num_magnetic_sites": null,
  "num_unique_magnetic_sites": null,
  "types_of_magnetic_species": null,
  "bulk_modulus": null,
  "shear_modulus": null,
  "universal_anisotropy": null,
  "homogeneous_poisson": null,
  "e_total": null,
  "e_ionic": null,
  "e_electronic": null,
  "n": null,
  "e_ij_max": null,
  "weighted_surface_energy_EV_PER_ANG2": null,
  "weighted_surface_energy": null,
  "weighted_work_function": null,
  "surface_anisotropy": null,
  "shape_factor": null,
  "has_reconstructed": null,
  "possible_species": null,
  "has_props": null,
  "theoretical": null,
  "database_IDs": null,
  "fields_not_requested": [
    "builder_meta",
    "nsites",
    "elements",
    "nelements",
    "composition",
    "composition_reduced",
    "chemsys",
    "symmetry",
    "property_name",
    "deprecated",
    "deprecation_reasons",
    "last_updated",
    "origins",
    "warnings",
    "task_ids",
    "uncorrected_energy_per_atom",
    "equilibrium_reaction_energy_per_atom",
    "decomposes_to",
    "xas",
    "grain_boundaries",
    "cbm",
    "vbm",
    "is_gap_direct",
    "is_metal",
    "es_source_calc_id",
    "bandstructure",
    "dos",
    "dos_energy_up",
    "dos_energy_down",
    "is_magnetic",
    "ordering",
    "total_magnetization_normalized_vol",
    "total_magnetization_normalized_formula_units",
    "num_magnetic_sites",
    "num_unique_magnetic_sites",
    "types_of_magnetic_species",
    "bulk_modulus",
    "shear_modulus",
    "universal_anisotropy",
    "homogeneous_poisson",
    "e_total",
    "e_ionic",
    "e_electronic",
    "n",
    "e_ij_max",
    "weighted_surface_energy_EV_PER_ANG2",
    "weighted_surface_energy",
    "weighted_work_function",
    "surface_anisotropy",
    "shape_factor",
    "has_reconstructed",
    "possible_species",
    "has_props",
    "theoretical",
    "database_IDs"
  ]
}
