{"builder_meta": null, "nsites": null, "elements": null, "nelements": null, "composition": null, "composition_reduced": null, "formula_pretty": "Mo2Ru", "formula_anonymous": "AB2", "chemsys": null, "volume": 462.3355821408869, "density": 10.52168464533697, "density_atomic": 15.411186071362897, "symmetry": null, "property_name": null, "material_id": "mp-1193202", "deprecated": null, "deprecation_reasons": null, "last_updated": null, "origins": null, "warnings": null, "structure": {"@module": "pymatgen.core.structure", "@class": "Structure", "charge": 0, "lattice": {"matrix": [[9.637801, 0.0, 0.0], [0.0, 9.637801, 0.0], [0.0, 0.0, 4.977387]], "pbc": [true, true, true], "a": 9.637801, "b": 9.637801, "c": 4.977387, "alpha": 90.0, "beta": 90.0, "gamma": 90.0, "volume": 462.3355821408869}, "properties": {}, "sites": [{"species": [{"element": "Mo", "occu": 1}], "abc": [0.107608, 0.892392, 0.5], "properties": {"magmom": -0.001}, "label": "Mo", "xyz": [1.037104490008, 8.600696509992, 2.4886935]}, {"species": [{"element": "Mo", "occu": 1}], "abc": [0.892392, 0.107608, 0.5], "properties": {"magmom": -0.001}, "label": "Mo", "xyz": [8.600696509992, 1.037104490008, 2.4886935]}, {"species": [{"element": "Mo", "occu": 1}], "abc": [0.392391999999999, 0.392391999999999, 0.0], "properties": {"magmom": -0.001}, "label": "Mo", "xyz": [3.7817960099919903, 3.7817960099919903, 0.0]}, {"species": [{"element": "Mo", "occu": 1}], "abc": [0.607607999999999, 0.607607999999999, 0.0], "properties": {"magmom": -0.001}, "label": "Mo", "xyz": [5.856004990007991, 5.856004990007991, 0.0]}, {"species": [{"element": "Mo", "occu": 1}], "abc": [0.370415, 0.960457999999999, 0.5], "properties": {"magmom": 0.0}, "label": "Mo", "xyz": [3.569986057415, 9.25670307285799, 2.4886935]}, {"species": [{"element": "Mo", "occu": 1}], "abc": [0.629585, 0.039542, 0.5], "properties": {"magmom": 0.0}, "label": "Mo", "xyz": [6.067814942585, 0.38109792714199997, 2.4886935]}, {"species": [{"element": "Mo", "occu": 1}], "abc": [0.129585, 0.460458, 0.0], "properties": {"magmom": 0.0}, "label": "Mo", "xyz": [1.248914442585, 4.437802572858, 0.0]}, {"species": [{"element": "Mo", "occu": 1}], "abc": [0.870414999999999, 0.539542, 0.0], "properties": {"magmom": 0.0}, "label": "Mo", "xyz": [8.38888655741499, 5.199998427142, 0.0]}, {"species": [{"element": "Mo", "occu": 1}], "abc": [0.960457999999999, 0.370415, 0.5], "properties": {"magmom": 0.0}, "label": "Mo", "xyz": [9.25670307285799, 3.569986057415, 2.4886935]}, {"species": [{"element": "Mo", "occu": 1}], "abc": [0.039542, 0.629585, 0.5], "properties": {"magmom": 0.0}, "label": "Mo", "xyz": [0.38109792714199997, 6.067814942585, 2.4886935]}, {"species": [{"element": "Mo", "occu": 1}], "abc": [0.460458, 0.129585, 0.0], "properties": {"magmom": 0.0}, "label": "Mo", "xyz": [4.437802572858, 1.248914442585, 0.0]}, {"species": [{"element": "Mo", "occu": 1}], "abc": [0.539542, 0.870414999999999, 0.0], "properties": {"magmom": 0.0}, "label": "Mo", "xyz": [5.199998427142, 8.38888655741499, 0.0]}, {"species": [{"element": "Mo", "occu": 1}], "abc": [0.322341, 0.677659, 0.243938], "properties": {"magmom": 0.001}, "label": "Mo", "xyz": [3.106658412141, 6.531142587859, 1.214173830006]}, {"species": [{"element": "Mo", "occu": 1}], "abc": [0.677659, 0.322341, 0.243938], "properties": {"magmom": 0.001}, "label": "Mo", "xyz": [6.531142587859, 3.106658412141, 1.214173830006]}, {"species": [{"element": "Mo", "occu": 1}], "abc": [0.177658999999999, 0.177658999999999, 0.743938], "properties": {"magmom": 0.001}, "label": "Mo", "xyz": [1.7122420878589903, 1.7122420878589903, 3.702867330006]}, {"species": [{"element": "Mo", "occu": 1}], "abc": [0.822341, 0.822341, 0.743938], "properties": {"magmom": 0.001}, "label": "Mo", "xyz": [7.925558912141, 7.925558912141, 3.702867330006]}, {"species": [{"element": "Mo", "occu": 1}], "abc": [0.677659, 0.322341, 0.756062], "properties": {"magmom": 0.001}, "label": "Mo", "xyz": [6.531142587859, 3.106658412141, 3.763213169994]}, {"species": [{"element": "Mo", "occu": 1}], "abc": [0.322341, 0.677659, 0.756062], "properties": {"magmom": 0.001}, "label": "Mo", "xyz": [3.106658412141, 6.531142587859, 3.763213169994]}, {"species": [{"element": "Mo", "occu": 1}], "abc": [0.822341, 0.822341, 0.256062], "properties": {"magmom": 0.001}, "label": "Mo", "xyz": [7.925558912141, 7.925558912141, 1.274519669994]}, {"species": [{"element": "Mo", "occu": 1}], "abc": [0.177658999999999, 0.177658999999999, 0.256062], "properties": {"magmom": 0.001}, "label": "Mo", "xyz": [1.7122420878589903, 1.7122420878589903, 1.274519669994]}, {"species": [{"element": "Ru", "occu": 1}], "abc": [0.5, 0.5, 0.5], "properties": {"magmom": -0.002}, "label": "Ru", "xyz": [4.8189005, 4.8189005, 2.4886935]}, {"species": [{"element": "Ru", "occu": 1}], "abc": [0.0, 0.0, 0.0], "properties": {"magmom": -0.002}, "label": "Ru", "xyz": [0.0, 0.0, 0.0]}, {"species": [{"element": "Ru", "occu": 1}], "abc": [0.433371, 0.234491999999999, 0.5], "properties": {"magmom": -0.002}, "label": "Ru", "xyz": [4.176743457171, 2.2599872320919903, 2.4886935]}, {"species": [{"element": "Ru", "occu": 1}], "abc": [0.566628999999999, 0.765508, 0.5], "properties": {"magmom": -0.002}, "label": "Ru", "xyz": [5.461057542828991, 7.377813767907999, 2.4886935]}, {"species": [{"element": "Ru", "occu": 1}], "abc": [0.066629, 0.734491999999999, 0.0], "properties": {"magmom": -0.002}, "label": "Ru", "xyz": [0.6421570428289999, 7.0788877320919905, 0.0]}, {"species": [{"element": "Ru", "occu": 1}], "abc": [0.933371, 0.265507999999999, 0.0], "properties": {"magmom": -0.002}, "label": "Ru", "xyz": [8.995643957171, 2.5589132679079905, 0.0]}, {"species": [{"element": "Ru", "occu": 1}], "abc": [0.234491999999999, 0.433371, 0.5], "properties": {"magmom": -0.002}, "label": "Ru", "xyz": [2.2599872320919903, 4.176743457171, 2.4886935]}, {"species": [{"element": "Ru", "occu": 1}], "abc": [0.765508, 0.566628999999999, 0.5], "properties": {"magmom": -0.002}, "label": "Ru", "xyz": [7.377813767907999, 5.461057542828991, 2.4886935]}, {"species": [{"element": "Ru", "occu": 1}], "abc": [0.734491999999999, 0.066629, 0.0], "properties": {"magmom": -0.002}, "label": "Ru", "xyz": [7.0788877320919905, 0.6421570428289999, 0.0]}, {"species": [{"element": "Ru", "occu": 1}], "abc": [0.265507999999999, 0.933371, 0.0], "properties": {"magmom": -0.002}, "label": "Ru", "xyz": [2.5589132679079905, 8.995643957171, 0.0]}]}, "task_ids": null, "uncorrected_energy_per_atom": null, "energy_per_atom": -25.833081493888887, "formation_energy_per_atom": 0.023083231111111, "energy_above_hull": 0.046111492777779005, "is_stable": false, "equilibrium_reaction_energy_per_atom": null, "decomposes_to": null, "xas": null, "grain_boundaries": null, "band_gap": 0.0, "cbm": null, "vbm": null, "efermi": 8.14225444, "is_gap_direct": null, "is_metal": null, "es_source_calc_id": null, "bandstructure": null, "dos": null, "dos_energy_up": null, "dos_energy_down": null, "is_magnetic": null, "ordering": null, "total_magnetization": 0.005953399999999, "total_magnetization_normalized_vol": null, "total_magnetization_normalized_formula_units": null, "num_magnetic_sites": null, "num_unique_magnetic_sites": null, "types_of_magnetic_species": null, "bulk_modulus": null, "shear_modulus": null, "universal_anisotropy": null, "homogeneous_poisson": null, "e_total": null, "e_ionic": null, "e_electronic": null, "n": null, "e_ij_max": null, "weighted_surface_energy_EV_PER_ANG2": null, "weighted_surface_energy": null, "weighted_work_function": null, "surface_anisotropy": null, "shape_factor": null, "has_reconstructed": null, "possible_species": null, "has_props": null, "theoretical": null, "database_IDs": null, "fields_not_requested": ["builder_meta", "nsites", "elements", "nelements", "composition", "composition_reduced", "chemsys", "symmetry", "property_name", "deprecated", "deprecation_reasons", "last_updated", "origins", "warnings", "task_ids", "uncorrected_energy_per_atom", "equilibrium_reaction_energy_per_atom", "decomposes_to", "xas", "grain_boundaries", "cbm", "vbm", "is_gap_direct", "is_metal", "es_source_calc_id", "bandstructure", "dos", "dos_energy_up", "dos_energy_down", "is_magnetic", "ordering", "total_magnetization_normalized_vol", "total_magnetization_normalized_formula_units", "num_magnetic_sites", "num_unique_magnetic_sites", "types_of_magnetic_species", "bulk_modulus", "shear_modulus", "universal_anisotropy", "homogeneous_poisson", "e_total", "e_ionic", "e_electronic", "n", "e_ij_max", "weighted_surface_energy_EV_PER_ANG2", "weighted_surface_energy", "weighted_work_function", "surface_anisotropy", "shape_factor", "has_reconstructed", "possible_species", "has_props", "theoretical", "database_IDs"]}