{
  "builder_meta": null,
  "nsites": null,
  "elements": null,
  "nelements": null,
  "composition": null,
  "composition_reduced": null,
  "formula_pretty": "Mo2S3",
  "formula_anonymous": "A2B3",
  "chemsys": null,
  "volume": 168.04545355124995,
  "density": 5.6932190845009245,
  "density_atomic": 16.804545355124993,
  "symmetry": null,
  "property_name": null,
  "material_id": "mp-1627",
  "deprecated": null,
  "deprecation_reasons": null,
  "last_updated": null,
  "origins": null,
  "warnings": null,
  "structure": {
    "@module": "pymatgen.core.structure",
    "@class": "Structure",
    "charge": 0,
    "lattice": {
      "matrix": [
        [3.209857, 0.0, 0.0],
        [0.0, 6.170364, 0.0],
        [0.0, 1.952203, 8.484579]
      ],
      "pbc": [true, true, true],
      "a": 3.209857,
      "b": 6.170364,
      "c": 8.706272299925496,
      "alpha": 77.04242643281985,
      "beta": 90.0,
      "gamma": 90.0,
      "volume": 168.04545355124995
    },
    "properties": {},
    "sites": [
      {
        "species": [{ "element": "Mo", "occu": 1 }],
        "abc": [0.25, 0.687472, 0.009120999999999001],
        "properties": { "magmom": 0.001 },
        "label": "Mo",
        "xyz": [0.80246425, 4.259758523370998, 0.07738784505899153]
      },
      {
        "species": [{ "element": "Mo", "occu": 1 }],
        "abc": [0.75, 0.312528, 0.990879],
        "properties": { "magmom": 0.001 },
        "label": "Mo",
        "xyz": [2.40739275, 3.8628084766289996, 8.407191154941]
      },
      {
        "species": [{ "element": "Mo", "occu": 1 }],
        "abc": [0.25, 0.892535, 0.626414],
        "properties": { "magmom": 0.006 },
        "label": "Mo",
        "xyz": [0.80246425, 6.730153122782, 5.314859069706]
      },
      {
        "species": [{ "element": "Mo", "occu": 1 }],
        "abc": [0.75, 0.107464999999999, 0.373586],
        "properties": { "magmom": 0.006 },
        "label": "Mo",
        "xyz": [2.40739275, 1.3924138772179937, 3.169719930294]
      },
      {
        "species": [{ "element": "S", "occu": 1 }],
        "abc": [0.25, 0.493274, 0.803532999999999],
        "properties": { "magmom": 0.0 },
        "label": "S",
        "xyz": [0.80246425, 4.612339664934998, 6.817639217606992]
      },
      {
        "species": [{ "element": "S", "occu": 1 }],
        "abc": [0.75, 0.506726, 0.196467],
        "properties": { "magmom": 0.0 },
        "label": "S",
        "xyz": [2.40739275, 3.510227335065, 1.6669397823930001]
      },
      {
        "species": [{ "element": "S", "occu": 1 }],
        "abc": [0.25, 0.026265, 0.157805],
        "properties": { "magmom": 0.0 },
        "label": "S",
        "xyz": [0.80246425, 0.47013200487499995, 1.3389089890950001]
      },
      {
        "species": [{ "element": "S", "occu": 1 }],
        "abc": [0.75, 0.9737349999999991, 0.842194999999999],
        "properties": { "magmom": 0.0 },
        "label": "S",
        "xyz": [2.40739275, 7.6524349951249935, 7.1456700109049915]
      },
      {
        "species": [{ "element": "S", "occu": 1 }],
        "abc": [0.25, 0.27347000000000005, 0.5132500000000001],
        "properties": { "magmom": -0.0 },
        "label": "S",
        "xyz": [0.80246425, 2.6893776328300003, 4.354710171750001]
      },
      {
        "species": [{ "element": "S", "occu": 1 }],
        "abc": [0.75, 0.72653, 0.48675],
        "properties": { "magmom": -0.0 },
        "label": "S",
        "xyz": [2.40739275, 5.43318936717, 4.12986882825]
      }
    ]
  },
  "task_ids": null,
  "uncorrected_energy_per_atom": null,
  "energy_per_atom": -16.02320169,
  "formation_energy_per_atom": -0.7734104646875011,
  "energy_above_hull": 0.09554071300000101,
  "is_stable": false,
  "equilibrium_reaction_energy_per_atom": null,
  "decomposes_to": null,
  "xas": null,
  "grain_boundaries": null,
  "band_gap": 0.0,
  "cbm": null,
  "vbm": null,
  "efermi": 7.641957,
  "is_gap_direct": null,
  "is_metal": null,
  "es_source_calc_id": null,
  "bandstructure": null,
  "dos": null,
  "dos_energy_up": null,
  "dos_energy_down": null,
  "is_magnetic": null,
  "ordering": null,
  "total_magnetization": 0.0207705,
  "total_magnetization_normalized_vol": null,
  "total_magnetization_normalized_formula_units": null,
  "num_magnetic_sites": null,
  "num_unique_magnetic_sites": null,
  "types_of_magnetic_species": null,
  "bulk_modulus": null,
  "shear_modulus": null,
  "universal_anisotropy": null,
  "homogeneous_poisson": null,
  "e_total": null,
  "e_ionic": null,
  "e_electronic": null,
  "n": null,
  "e_ij_max": null,
  "weighted_surface_energy_EV_PER_ANG2": null,
  "weighted_surface_energy": null,
  "weighted_work_function": null,
  "surface_anisotropy": null,
  "shape_factor": null,
  "has_reconstructed": null,
  "possible_species": null,
  "has_props": null,
  "theoretical": null,
  "database_IDs": null,
  "fields_not_requested": [
    "builder_meta",
    "nsites",
    "elements",
    "nelements",
    "composition",
    "composition_reduced",
    "chemsys",
    "symmetry",
    "property_name",
    "deprecated",
    "deprecation_reasons",
    "last_updated",
    "origins",
    "warnings",
    "task_ids",
    "uncorrected_energy_per_atom",
    "equilibrium_reaction_energy_per_atom",
    "decomposes_to",
    "xas",
    "grain_boundaries",
    "cbm",
    "vbm",
    "is_gap_direct",
    "is_metal",
    "es_source_calc_id",
    "bandstructure",
    "dos",
    "dos_energy_up",
    "dos_energy_down",
    "is_magnetic",
    "ordering",
    "total_magnetization_normalized_vol",
    "total_magnetization_normalized_formula_units",
    "num_magnetic_sites",
    "num_unique_magnetic_sites",
    "types_of_magnetic_species",
    "bulk_modulus",
    "shear_modulus",
    "universal_anisotropy",
    "homogeneous_poisson",
    "e_total",
    "e_ionic",
    "e_electronic",
    "n",
    "e_ij_max",
    "weighted_surface_energy_EV_PER_ANG2",
    "weighted_surface_energy",
    "weighted_work_function",
    "surface_anisotropy",
    "shape_factor",
    "has_reconstructed",
    "possible_species",
    "has_props",
    "theoretical",
    "database_IDs"
  ]
}
