{
  "builder_meta": null,
  "nsites": null,
  "elements": null,
  "nelements": null,
  "composition": null,
  "composition_reduced": null,
  "formula_pretty": "Mo3C2",
  "formula_anonymous": "A2B3",
  "chemsys": null,
  "volume": 59.04830829377281,
  "density": 8.769511646413191,
  "density_atomic": 11.809661658754562,
  "symmetry": null,
  "property_name": null,
  "material_id": "mp-1221473",
  "deprecated": null,
  "deprecation_reasons": null,
  "last_updated": null,
  "origins": null,
  "warnings": null,
  "structure": {
    "@module": "pymatgen.core.structure",
    "@class": "Structure",
    "charge": 0,
    "lattice": {
      "matrix": [
        [1.522055, -2.636276, 0.0],
        [1.522055, 2.636276, 0.0],
        [0.0, 0.0, 7.35794]
      ],
      "pbc": [true, true, true],
      "a": 3.044109487387239,
      "b": 3.044109487387239,
      "c": 7.35794,
      "alpha": 90.0,
      "beta": 90.0,
      "gamma": 119.99998885907738,
      "volume": 59.04830829377281
    },
    "properties": {},
    "sites": [
      {
        "species": [{ "element": "Mo", "occu": 1 }],
        "abc": [0.333333, 0.666667, 0.161457],
        "properties": { "magmom": -0.001 },
        "label": "Mo",
        "xyz": [1.522055, 0.8787604241840001, 1.18799091858]
      },
      {
        "species": [{ "element": "Mo", "occu": 1 }],
        "abc": [0.666667, 0.333333, 0.838542999999999],
        "properties": { "magmom": -0.001 },
        "label": "Mo",
        "xyz": [1.522055, -0.8787604241840001, 6.169949081419993]
      },
      {
        "species": [{ "element": "Mo", "occu": 1 }],
        "abc": [0.0, 0.0, 0.5],
        "properties": { "magmom": -0.002 },
        "label": "Mo",
        "xyz": [0.0, 0.0, 3.67897]
      },
      {
        "species": [{ "element": "C", "occu": 1 }],
        "abc": [0.333333, 0.666667, 0.680835],
        "properties": { "magmom": 0.001 },
        "label": "C",
        "xyz": [1.522055, 0.8787604241840001, 5.0095430799]
      },
      {
        "species": [{ "element": "C", "occu": 1 }],
        "abc": [0.666667, 0.333333, 0.319165],
        "properties": { "magmom": 0.001 },
        "label": "C",
        "xyz": [1.522055, -0.8787604241840001, 2.3483969201]
      }
    ]
  },
  "task_ids": null,
  "uncorrected_energy_per_atom": null,
  "energy_per_atom": -10.166687112,
  "formation_energy_per_atom": 0.032169150999999,
  "energy_above_hull": 0.133463247249999,
  "is_stable": false,
  "equilibrium_reaction_energy_per_atom": null,
  "decomposes_to": null,
  "xas": null,
  "grain_boundaries": null,
  "band_gap": 0.0,
  "cbm": null,
  "vbm": null,
  "efermi": 8.9628742,
  "is_gap_direct": null,
  "is_metal": null,
  "es_source_calc_id": null,
  "bandstructure": null,
  "dos": null,
  "dos_energy_up": null,
  "dos_energy_down": null,
  "is_magnetic": null,
  "ordering": null,
  "total_magnetization": 0.0088849,
  "total_magnetization_normalized_vol": null,
  "total_magnetization_normalized_formula_units": null,
  "num_magnetic_sites": null,
  "num_unique_magnetic_sites": null,
  "types_of_magnetic_species": null,
  "bulk_modulus": null,
  "shear_modulus": null,
  "universal_anisotropy": null,
  "homogeneous_poisson": null,
  "e_total": null,
  "e_ionic": null,
  "e_electronic": null,
  "n": null,
  "e_ij_max": null,
  "weighted_surface_energy_EV_PER_ANG2": null,
  "weighted_surface_energy": null,
  "weighted_work_function": null,
  "surface_anisotropy": null,
  "shape_factor": null,
  "has_reconstructed": null,
  "possible_species": null,
  "has_props": null,
  "theoretical": null,
  "database_IDs": null,
  "fields_not_requested": [
    "builder_meta",
    "nsites",
    "elements",
    "nelements",
    "composition",
    "composition_reduced",
    "chemsys",
    "symmetry",
    "property_name",
    "deprecated",
    "deprecation_reasons",
    "last_updated",
    "origins",
    "warnings",
    "task_ids",
    "uncorrected_energy_per_atom",
    "equilibrium_reaction_energy_per_atom",
    "decomposes_to",
    "xas",
    "grain_boundaries",
    "cbm",
    "vbm",
    "is_gap_direct",
    "is_metal",
    "es_source_calc_id",
    "bandstructure",
    "dos",
    "dos_energy_up",
    "dos_energy_down",
    "is_magnetic",
    "ordering",
    "total_magnetization_normalized_vol",
    "total_magnetization_normalized_formula_units",
    "num_magnetic_sites",
    "num_unique_magnetic_sites",
    "types_of_magnetic_species",
    "bulk_modulus",
    "shear_modulus",
    "universal_anisotropy",
    "homogeneous_poisson",
    "e_total",
    "e_ionic",
    "e_electronic",
    "n",
    "e_ij_max",
    "weighted_surface_energy_EV_PER_ANG2",
    "weighted_surface_energy",
    "weighted_work_function",
    "surface_anisotropy",
    "shape_factor",
    "has_reconstructed",
    "possible_species",
    "has_props",
    "theoretical",
    "database_IDs"
  ]
}
