{
  "builder_meta": null,
  "nsites": null,
  "elements": null,
  "nelements": null,
  "composition": null,
  "composition_reduced": null,
  "formula_pretty": "Mo3O7",
  "formula_anonymous": "A3B7",
  "chemsys": null,
  "volume": 724.2077718336434,
  "density": 3.666957363149855,
  "density_atomic": 18.105194295841084,
  "symmetry": null,
  "property_name": null,
  "material_id": "mp-1044452",
  "deprecated": null,
  "deprecation_reasons": null,
  "last_updated": null,
  "origins": null,
  "warnings": null,
  "structure": {
    "@module": "pymatgen.core.structure",
    "@class": "Structure",
    "charge": 0,
    "lattice": {
      "matrix": [
        [5.7011, 0.0, 0.0],
        [0.0, 11.494702, 0.0],
        [0.0, 0.0, 11.051133]
      ],
      "pbc": [true, true, true],
      "a": 5.7011,
      "b": 11.494702,
      "c": 11.051133,
      "alpha": 90.0,
      "beta": 90.0,
      "gamma": 90.0,
      "volume": 724.2077718336434
    },
    "properties": {},
    "sites": [
      {
        "species": [{ "element": "Mo", "occu": 1 }],
        "abc": [0.28946000000000005, 0.021693, 0.311515999999999],
        "properties": { "magmom": 1.108 },
        "label": "Mo",
        "xyz": [1.6502404060000004, 0.24935457048600002, 3.442604747627989]
      },
      {
        "species": [{ "element": "Mo", "occu": 1 }],
        "abc": [0.78946, 0.978306999999999, 0.188483999999999],
        "properties": { "magmom": 1.108 },
        "label": "Mo",
        "xyz": [4.500790406, 11.24534742951399, 2.082961752371989]
      },
      {
        "species": [{ "element": "Mo", "occu": 1 }],
        "abc": [0.7105400000000001, 0.521693, 0.688484],
        "properties": { "magmom": 1.108 },
        "label": "Mo",
        "xyz": [4.050859594, 5.996705570485999, 7.6085282523719995]
      },
      {
        "species": [{ "element": "Mo", "occu": 1 }],
        "abc": [0.21054, 0.478307, 0.811516],
        "properties": { "magmom": 1.108 },
        "label": "Mo",
        "xyz": [1.2003095940000001, 5.497996429514, 8.968171247628]
      },
      {
        "species": [{ "element": "Mo", "occu": 1 }],
        "abc": [0.293059, 0.75, 0.231097],
        "properties": { "magmom": 1.786 },
        "label": "Mo",
        "xyz": [1.6707586649000001, 8.6210265, 2.553883682901]
      },
      {
        "species": [{ "element": "Mo", "occu": 1 }],
        "abc": [0.793059, 0.25, 0.268903],
        "properties": { "magmom": 1.786 },
        "label": "Mo",
        "xyz": [4.5213086649, 2.8736755, 2.971682817099]
      },
      {
        "species": [{ "element": "Mo", "occu": 1 }],
        "abc": [0.706940999999999, 0.25, 0.768903],
        "properties": { "magmom": 1.786 },
        "label": "Mo",
        "xyz": [4.030341335099995, 2.8736755, 8.497249317099]
      },
      {
        "species": [{ "element": "Mo", "occu": 1 }],
        "abc": [0.20694099999999901, 0.75, 0.731097],
        "properties": { "magmom": 1.786 },
        "label": "Mo",
        "xyz": [1.1797913350999945, 8.6210265, 8.079450182901]
      },
      {
        "species": [{ "element": "Mo", "occu": 1 }],
        "abc": [0.78946, 0.521693, 0.188483999999999],
        "properties": { "magmom": 1.108 },
        "label": "Mo",
        "xyz": [4.500790406, 5.996705570485999, 2.082961752371989]
      },
      {
        "species": [{ "element": "Mo", "occu": 1 }],
        "abc": [0.28946000000000005, 0.478307, 0.311515999999999],
        "properties": { "magmom": 1.108 },
        "label": "Mo",
        "xyz": [1.6502404060000004, 5.497996429514, 3.442604747627989]
      },
      {
        "species": [{ "element": "Mo", "occu": 1 }],
        "abc": [0.21054, 0.021693, 0.811516],
        "properties": { "magmom": 1.108 },
        "label": "Mo",
        "xyz": [1.2003095940000001, 0.24935457048600002, 8.968171247628]
      },
      {
        "species": [{ "element": "Mo", "occu": 1 }],
        "abc": [0.7105400000000001, 0.978306999999999, 0.688484],
        "properties": { "magmom": 1.108 },
        "label": "Mo",
        "xyz": [4.050859594, 11.24534742951399, 7.6085282523719995]
      },
      {
        "species": [{ "element": "O", "occu": 1 }],
        "abc": [0.9391800000000001, 0.109055, 0.733020999999999],
        "properties": { "magmom": 0.008 },
        "label": "O",
        "xyz": [5.354359098000001, 1.25355472661, 8.100712562792989]
      },
      {
        "species": [{ "element": "O", "occu": 1 }],
        "abc": [0.43918, 0.890945, 0.766979],
        "properties": { "magmom": 0.008 },
        "label": "O",
        "xyz": [2.503809098, 10.24114727339, 8.475986937206999]
      },
      {
        "species": [{ "element": "O", "occu": 1 }],
        "abc": [0.060820000000000006, 0.609055, 0.266978999999999],
        "properties": { "magmom": 0.008 },
        "label": "O",
        "xyz": [0.3467409020000001, 7.00090572661, 2.950420437206989]
      },
      {
        "species": [{ "element": "O", "occu": 1 }],
        "abc": [0.5608200000000001, 0.390945, 0.233020999999999],
        "properties": { "magmom": 0.008 },
        "label": "O",
        "xyz": [3.1972909020000007, 4.49379627339, 2.575146062792989]
      },
      {
        "species": [{ "element": "O", "occu": 1 }],
        "abc": [0.060820000000000006, 0.890945, 0.266978999999999],
        "properties": { "magmom": 0.008 },
        "label": "O",
        "xyz": [0.3467409020000001, 10.24114727339, 2.950420437206989]
      },
      {
        "species": [{ "element": "O", "occu": 1 }],
        "abc": [0.5608200000000001, 0.109055, 0.233020999999999],
        "properties": { "magmom": 0.008 },
        "label": "O",
        "xyz": [3.1972909020000007, 1.25355472661, 2.575146062792989]
      },
      {
        "species": [{ "element": "O", "occu": 1 }],
        "abc": [0.9391800000000001, 0.390945, 0.733020999999999],
        "properties": { "magmom": 0.008 },
        "label": "O",
        "xyz": [5.354359098000001, 4.49379627339, 8.100712562792989]
      },
      {
        "species": [{ "element": "O", "occu": 1 }],
        "abc": [0.43918, 0.609055, 0.766979],
        "properties": { "magmom": 0.008 },
        "label": "O",
        "xyz": [2.503809098, 7.00090572661, 8.475986937206999]
      },
      {
        "species": [{ "element": "O", "occu": 1 }],
        "abc": [0.476977, 0.108997, 0.729117999999999],
        "properties": { "magmom": 0.008 },
        "label": "O",
        "xyz": [2.7192935747, 1.252888033894, 8.05757999069399]
      },
      {
        "species": [{ "element": "O", "occu": 1 }],
        "abc": [0.976977, 0.891003, 0.770882],
        "properties": { "magmom": 0.008 },
        "label": "O",
        "xyz": [5.5698435747, 10.241813966106, 8.519119509306]
      },
      {
        "species": [{ "element": "O", "occu": 1 }],
        "abc": [0.523023, 0.608997, 0.270882],
        "properties": { "magmom": 0.008 },
        "label": "O",
        "xyz": [2.9818064253000003, 7.000239033894, 2.9935530093060003]
      },
      {
        "species": [{ "element": "O", "occu": 1 }],
        "abc": [0.023023, 0.391003, 0.229118],
        "properties": { "magmom": 0.008 },
        "label": "O",
        "xyz": [0.1312564253, 4.494462966106, 2.5320134906939997]
      },
      {
        "species": [{ "element": "O", "occu": 1 }],
        "abc": [0.523023, 0.891003, 0.270882],
        "properties": { "magmom": 0.008 },
        "label": "O",
        "xyz": [2.9818064253000003, 10.241813966106, 2.9935530093060003]
      },
      {
        "species": [{ "element": "O", "occu": 1 }],
        "abc": [0.023023, 0.108997, 0.229118],
        "properties": { "magmom": 0.008 },
        "label": "O",
        "xyz": [0.1312564253, 1.252888033894, 2.5320134906939997]
      },
      {
        "species": [{ "element": "O", "occu": 1 }],
        "abc": [0.476977, 0.391003, 0.729117999999999],
        "properties": { "magmom": 0.008 },
        "label": "O",
        "xyz": [2.7192935747, 4.494462966106, 8.05757999069399]
      },
      {
        "species": [{ "element": "O", "occu": 1 }],
        "abc": [0.976977, 0.608997, 0.770882],
        "properties": { "magmom": 0.008 },
        "label": "O",
        "xyz": [5.5698435747, 7.000239033894, 8.519119509306]
      },
      {
        "species": [{ "element": "O", "occu": 1 }],
        "abc": [0.203063, 0.75, 0.571878],
        "properties": { "magmom": 0.016 },
        "label": "O",
        "xyz": [1.1576824693, 8.6210265, 6.319899837774]
      },
      {
        "species": [{ "element": "O", "occu": 1 }],
        "abc": [0.703063, 0.25, 0.928122],
        "properties": { "magmom": 0.016 },
        "label": "O",
        "xyz": [4.0082324693, 2.8736755, 10.256799662226]
      },
      {
        "species": [{ "element": "O", "occu": 1 }],
        "abc": [0.796937, 0.25, 0.428122],
        "properties": { "magmom": 0.016 },
        "label": "O",
        "xyz": [4.5434175307, 2.8736755, 4.731233162226]
      },
      {
        "species": [{ "element": "O", "occu": 1 }],
        "abc": [0.296937, 0.75, 0.071878],
        "properties": { "magmom": 0.016 },
        "label": "O",
        "xyz": [1.6928675307, 8.6210265, 0.794333337774]
      },
      {
        "species": [{ "element": "O", "occu": 1 }],
        "abc": [0.221223999999999, 0.444057, 0.9609939999999991],
        "properties": { "magmom": -0.079 },
        "label": "O",
        "xyz": [1.2612201463999944, 5.104302886014, 10.620072506201991]
      },
      {
        "species": [{ "element": "O", "occu": 1 }],
        "abc": [0.721224, 0.555943, 0.539006],
        "properties": { "magmom": -0.079 },
        "label": "O",
        "xyz": [4.1117701464000005, 6.390399113986, 5.956626993798]
      },
      {
        "species": [{ "element": "O", "occu": 1 }],
        "abc": [0.778775999999999, 0.944056999999999, 0.039006],
        "properties": { "magmom": -0.079 },
        "label": "O",
        "xyz": [4.439879853599995, 10.85165388601399, 0.431060493798]
      },
      {
        "species": [{ "element": "O", "occu": 1 }],
        "abc": [0.278775999999999, 0.055943, 0.460993999999999],
        "properties": { "magmom": -0.079 },
        "label": "O",
        "xyz": [1.5893298535999945, 0.643048113986, 5.094506006201989]
      },
      {
        "species": [{ "element": "O", "occu": 1 }],
        "abc": [0.778775999999999, 0.555943, 0.039006],
        "properties": { "magmom": -0.079 },
        "label": "O",
        "xyz": [4.439879853599995, 6.390399113986, 0.431060493798]
      },
      {
        "species": [{ "element": "O", "occu": 1 }],
        "abc": [0.278775999999999, 0.444057, 0.460993999999999],
        "properties": { "magmom": -0.079 },
        "label": "O",
        "xyz": [1.5893298535999945, 5.104302886014, 5.094506006201989]
      },
      {
        "species": [{ "element": "O", "occu": 1 }],
        "abc": [0.221223999999999, 0.055943, 0.9609939999999991],
        "properties": { "magmom": -0.079 },
        "label": "O",
        "xyz": [1.2612201463999944, 0.643048113986, 10.620072506201991]
      },
      {
        "species": [{ "element": "O", "occu": 1 }],
        "abc": [0.721224, 0.944056999999999, 0.539006],
        "properties": { "magmom": -0.079 },
        "label": "O",
        "xyz": [4.1117701464000005, 10.85165388601399, 5.956626993798]
      }
    ]
  },
  "task_ids": null,
  "uncorrected_energy_per_atom": null,
  "energy_per_atom": -8.486071073,
  "formation_energy_per_atom": -1.768803336499999,
  "energy_above_hull": 0.21451751935714203,
  "is_stable": false,
  "equilibrium_reaction_energy_per_atom": null,
  "decomposes_to": null,
  "xas": null,
  "grain_boundaries": null,
  "band_gap": 0.9197000000000001,
  "cbm": null,
  "vbm": null,
  "efermi": 1.8311181200000002,
  "is_gap_direct": null,
  "is_metal": null,
  "es_source_calc_id": null,
  "bandstructure": null,
  "dos": null,
  "dos_energy_up": null,
  "dos_energy_down": null,
  "is_magnetic": null,
  "ordering": null,
  "total_magnetization": 15.9998873,
  "total_magnetization_normalized_vol": null,
  "total_magnetization_normalized_formula_units": null,
  "num_magnetic_sites": null,
  "num_unique_magnetic_sites": null,
  "types_of_magnetic_species": null,
  "bulk_modulus": null,
  "shear_modulus": null,
  "universal_anisotropy": null,
  "homogeneous_poisson": null,
  "e_total": null,
  "e_ionic": null,
  "e_electronic": null,
  "n": null,
  "e_ij_max": null,
  "weighted_surface_energy_EV_PER_ANG2": null,
  "weighted_surface_energy": null,
  "weighted_work_function": null,
  "surface_anisotropy": null,
  "shape_factor": null,
  "has_reconstructed": null,
  "possible_species": null,
  "has_props": null,
  "theoretical": null,
  "database_IDs": null,
  "fields_not_requested": [
    "builder_meta",
    "nsites",
    "elements",
    "nelements",
    "composition",
    "composition_reduced",
    "chemsys",
    "symmetry",
    "property_name",
    "deprecated",
    "deprecation_reasons",
    "last_updated",
    "origins",
    "warnings",
    "task_ids",
    "uncorrected_energy_per_atom",
    "equilibrium_reaction_energy_per_atom",
    "decomposes_to",
    "xas",
    "grain_boundaries",
    "cbm",
    "vbm",
    "is_gap_direct",
    "is_metal",
    "es_source_calc_id",
    "bandstructure",
    "dos",
    "dos_energy_up",
    "dos_energy_down",
    "is_magnetic",
    "ordering",
    "total_magnetization_normalized_vol",
    "total_magnetization_normalized_formula_units",
    "num_magnetic_sites",
    "num_unique_magnetic_sites",
    "types_of_magnetic_species",
    "bulk_modulus",
    "shear_modulus",
    "universal_anisotropy",
    "homogeneous_poisson",
    "e_total",
    "e_ionic",
    "e_electronic",
    "n",
    "e_ij_max",
    "weighted_surface_energy_EV_PER_ANG2",
    "weighted_surface_energy",
    "weighted_work_function",
    "surface_anisotropy",
    "shape_factor",
    "has_reconstructed",
    "possible_species",
    "has_props",
    "theoretical",
    "database_IDs"
  ]
}
