{"builder_meta": null, "nsites": null, "elements": null, "nelements": null, "composition": null, "composition_reduced": null, "formula_pretty": "Mo3Os2", "formula_anonymous": "A2B3", "chemsys": null, "volume": 465.8987239824778, "density": 14.29115372467751, "density_atomic": 15.529957466082594, "symmetry": null, "property_name": null, "material_id": "mp-1221719", "deprecated": null, "deprecation_reasons": null, "last_updated": null, "origins": null, "warnings": null, "structure": {"@module": "pymatgen.core.structure", "@class": "Structure", "charge": 0, "lattice": {"matrix": [[0.0, 0.0, 4.977927], [9.674349, -0.010414999999999001, 0.0], [-0.010414999999999001, 9.674349, 0.0]], "pbc": [true, true, true], "a": 4.977927, "b": 9.674354606175338, "c": 9.674354606175338, "alpha": 90.12336443787473, "beta": 90.0, "gamma": 90.0, "volume": 465.8987239824778}, "properties": {}, "sites": [{"species": [{"element": "Mo", "occu": 1}], "abc": [0.499445, 0.103853, 0.896146999999999], "properties": {"magmom": 0.0}, "label": "Mo", "xyz": [0.9953767956920009, 8.66855720430799, 2.486200750515]}, {"species": [{"element": "Mo", "occu": 1}], "abc": [0.499445, 0.896146999999999, 0.103853], "properties": {"magmom": 0.0}, "label": "Mo", "xyz": [8.66855720430799, 0.9953767956920009, 2.486200750515]}, {"species": [{"element": "Mo", "occu": 1}], "abc": [0.999138, 0.39696000000000004, 0.39696000000000004], "properties": {"magmom": -0.0}, "label": "Mo", "xyz": [3.8361952406400004, 3.8361952406400004, 4.973636026926]}, {"species": [{"element": "Mo", "occu": 1}], "abc": [0.999138, 0.60304, 0.60304], "properties": {"magmom": -0.0}, "label": "Mo", "xyz": [5.827738759360001, 5.827738759360001, 4.973636026926]}, {"species": [{"element": "Mo", "occu": 1}], "abc": [0.499766999999999, 0.369253, 0.961804999999999], "properties": {"magmom": -0.0}, "label": "Mo", "xyz": [3.5622651922220006, 9.30099146994999, 2.4878036430089954]}, {"species": [{"element": "Mo", "occu": 1}], "abc": [0.499766999999999, 0.630747, 0.038195], "properties": {"magmom": -0.0}, "label": "Mo", "xyz": [6.101668807777999, 0.3629425300500006, 2.4878036430089954]}, {"species": [{"element": "Mo", "occu": 1}], "abc": [0.0008659999999990001, 0.132104, 0.464985999999999], "properties": {"magmom": -0.0}, "label": "Mo", "xyz": [1.2731773711060004, 4.49706098095399, 0.004310884781995023]}, {"species": [{"element": "Mo", "occu": 1}], "abc": [0.0008659999999990001, 0.867896, 0.535014], "properties": {"magmom": -0.0}, "label": "Mo", "xyz": [8.390756628894, 5.166873019046, 0.004310884781995023]}, {"species": [{"element": "Mo", "occu": 1}], "abc": [0.499766999999999, 0.961804999999999, 0.369253], "properties": {"magmom": -0.0}, "label": "Mo", "xyz": [9.30099146994999, 3.5622651922220006, 2.4878036430089954]}, {"species": [{"element": "Mo", "occu": 1}], "abc": [0.499766999999999, 0.038195, 0.630747], "properties": {"magmom": -0.0}, "label": "Mo", "xyz": [0.3629425300500006, 6.101668807777999, 2.4878036430089954]}, {"species": [{"element": "Mo", "occu": 1}], "abc": [0.0008659999999990001, 0.464985999999999, 0.132104], "properties": {"magmom": -0.0}, "label": "Mo", "xyz": [4.49706098095399, 1.2731773711060004, 0.004310884781995023]}, {"species": [{"element": "Mo", "occu": 1}], "abc": [0.0008659999999990001, 0.535014, 0.867896], "properties": {"magmom": -0.0}, "label": "Mo", "xyz": [5.166873019046, 8.390756628894, 0.004310884781995023]}, {"species": [{"element": "Mo", "occu": 1}], "abc": [0.7483900000000001, 0.180932999999999, 0.180932999999999], "properties": {"magmom": 0.0}, "label": "Mo", "xyz": [1.7485245704219905, 1.7485245704219905, 3.7254307875300006]}, {"species": [{"element": "Mo", "occu": 1}], "abc": [0.7483900000000001, 0.819067, 0.819067], "properties": {"magmom": 0.0}, "label": "Mo", "xyz": [7.915409429578, 7.915409429578, 3.7254307875300006]}, {"species": [{"element": "Mo", "occu": 1}], "abc": [0.750876, 0.680975999999999, 0.319024], "properties": {"magmom": -0.0}, "label": "Mo", "xyz": [6.58467684966399, 3.0792571503360002, 3.737805914052]}, {"species": [{"element": "Mo", "occu": 1}], "abc": [0.750876, 0.319024, 0.680975999999999], "properties": {"magmom": -0.0}, "label": "Mo", "xyz": [3.0792571503360002, 6.58467684966399, 3.737805914052]}, {"species": [{"element": "Mo", "occu": 1}], "abc": [0.250344, 0.8178000000000001, 0.8178000000000001], "properties": {"magmom": 0.0}, "label": "Mo", "xyz": [7.9031652252, 7.9031652252, 1.2461941568880002]}, {"species": [{"element": "Mo", "occu": 1}], "abc": [0.250344, 0.1822, 0.1822], "properties": {"magmom": 0.0}, "label": "Mo", "xyz": [1.7607687748, 1.7607687748, 1.2461941568880002]}, {"species": [{"element": "Os", "occu": 1}], "abc": [0.498525999999999, 0.5, 0.5], "properties": {"magmom": -0.0}, "label": "Os", "xyz": [4.831967000000001, 4.831967000000001, 2.4816260356019955]}, {"species": [{"element": "Os", "occu": 1}], "abc": [0.001545, 0.0, 0.0], "properties": {"magmom": 0.0}, "label": "Os", "xyz": [0.0, 0.0, 0.007690897215]}, {"species": [{"element": "Os", "occu": 1}], "abc": [0.498332, 0.433959, 0.235932999999999], "properties": {"magmom": -0.0}, "label": "Os", "xyz": [4.1958135754959995, 2.277978499631991, 2.4806603177640003]}, {"species": [{"element": "Os", "occu": 1}], "abc": [0.498332, 0.566041, 0.764066999999999], "properties": {"magmom": -0.0}, "label": "Os", "xyz": [5.468120424504001, 7.385955500367991, 2.4806603177640003]}, {"species": [{"element": "Os", "occu": 1}], "abc": [0.00168, 0.068356, 0.736356999999999], "properties": {"magmom": 0.0}, "label": "Os", "xyz": [0.6536306420890007, 7.12306267885299, 0.008362917360000001]}, {"species": [{"element": "Os", "occu": 1}], "abc": [0.00168, 0.931643999999999, 0.263642999999999], "properties": {"magmom": 0.0}, "label": "Os", "xyz": [9.01030335791099, 2.5408713211469913, 0.008362917360000001]}, {"species": [{"element": "Os", "occu": 1}], "abc": [0.498332, 0.235932999999999, 0.433959], "properties": {"magmom": -0.0}, "label": "Os", "xyz": [2.277978499631991, 4.1958135754959995, 2.4806603177640003]}, {"species": [{"element": "Os", "occu": 1}], "abc": [0.498332, 0.764066999999999, 0.566041], "properties": {"magmom": -0.0}, "label": "Os", "xyz": [7.385955500367991, 5.468120424504001, 2.4806603177640003]}, {"species": [{"element": "Os", "occu": 1}], "abc": [0.00168, 0.736356999999999, 0.068356], "properties": {"magmom": 0.0}, "label": "Os", "xyz": [7.12306267885299, 0.6536306420890007, 0.008362917360000001]}, {"species": [{"element": "Os", "occu": 1}], "abc": [0.00168, 0.263642999999999, 0.931643999999999], "properties": {"magmom": 0.0}, "label": "Os", "xyz": [2.5408713211469913, 9.01030335791099, 0.008362917360000001]}, {"species": [{"element": "Os", "occu": 1}], "abc": [0.250481, 0.318901, 0.681099], "properties": {"magmom": -0.0}, "label": "Os", "xyz": [3.078065924364, 6.585868075635999, 1.2468761328870002]}, {"species": [{"element": "Os", "occu": 1}], "abc": [0.250481, 0.681099, 0.318901], "properties": {"magmom": -0.0}, "label": "Os", "xyz": [6.585868075635999, 3.078065924364, 1.2468761328870002]}]}, "task_ids": null, "uncorrected_energy_per_atom": null, "energy_per_atom": -36.82320083433333, "formation_energy_per_atom": 0.01407836966667, "energy_above_hull": 0.01407836966667, "is_stable": false, "equilibrium_reaction_energy_per_atom": null, "decomposes_to": null, "xas": null, "grain_boundaries": null, "band_gap": 0.0, "cbm": null, "vbm": null, "efermi": 8.30418434, "is_gap_direct": null, "is_metal": null, "es_source_calc_id": null, "bandstructure": null, "dos": null, "dos_energy_up": null, "dos_energy_down": null, "is_magnetic": null, "ordering": null, "total_magnetization": 0.0026151, "total_magnetization_normalized_vol": null, "total_magnetization_normalized_formula_units": null, "num_magnetic_sites": null, "num_unique_magnetic_sites": null, "types_of_magnetic_species": null, "bulk_modulus": null, "shear_modulus": null, "universal_anisotropy": null, "homogeneous_poisson": null, "e_total": null, "e_ionic": null, "e_electronic": null, "n": null, "e_ij_max": null, "weighted_surface_energy_EV_PER_ANG2": null, "weighted_surface_energy": null, "weighted_work_function": null, "surface_anisotropy": null, "shape_factor": null, "has_reconstructed": null, "possible_species": null, "has_props": null, "theoretical": null, "database_IDs": null, "fields_not_requested": ["builder_meta", "nsites", "elements", "nelements", "composition", "composition_reduced", "chemsys", "symmetry", "property_name", "deprecated", "deprecation_reasons", "last_updated", "origins", "warnings", "task_ids", "uncorrected_energy_per_atom", "equilibrium_reaction_energy_per_atom", "decomposes_to", "xas", "grain_boundaries", "cbm", "vbm", "is_gap_direct", "is_metal", "es_source_calc_id", "bandstructure", "dos", "dos_energy_up", "dos_energy_down", "is_magnetic", "ordering", "total_magnetization_normalized_vol", "total_magnetization_normalized_formula_units", "num_magnetic_sites", "num_unique_magnetic_sites", "types_of_magnetic_species", "bulk_modulus", "shear_modulus", "universal_anisotropy", "homogeneous_poisson", "e_total", "e_ionic", "e_electronic", "n", "e_ij_max", "weighted_surface_energy_EV_PER_ANG2", "weighted_surface_energy", "weighted_work_function", "surface_anisotropy", "shape_factor", "has_reconstructed", "possible_species", "has_props", "theoretical", "database_IDs"]}