{"builder_meta": null, "nsites": null, "elements": null, "nelements": null, "composition": null, "composition_reduced": null, "formula_pretty": "Mo3O8", "formula_anonymous": "A3B8", "chemsys": null, "volume": 326.4560793645561, "density": 4.230139536259214, "density_atomic": 14.838912698388913, "symmetry": null, "property_name": null, "material_id": "mp-1173004", "deprecated": null, "deprecation_reasons": null, "last_updated": null, "origins": null, "warnings": null, "structure": {"@module": "pymatgen.core.structure", "@class": "Structure", "charge": 0, "lattice": {"matrix": [[3.097437, 5.429887, 0.0], [-3.097437, 5.429887, 0.0], [0.0, 3.793176, 9.705133]], "pbc": [true, true, true], "a": 6.251222984483756, "b": 6.251222984483756, "c": 10.420066732735688, "alpha": 71.56688511546425, "beta": 71.56688511546425, "gamma": 59.40452427905161, "volume": 326.4560793645561}, "properties": {}, "sites": [{"species": [{"element": "Mo", "occu": 1}], "abc": [0.237005, 0.760191, 0.232735], "properties": {"magmom": 0.982}, "label": "Mo", "xyz": [-1.6205356742819998, 6.297466413212, 2.258724128755]}, {"species": [{"element": "Mo", "occu": 1}], "abc": [0.753996, 0.753996, 0.720364], "properties": {"magmom": 0.07200000000000001}, "label": "Mo", "xyz": [0.0, 10.920693592968, 6.991228428412]}, {"species": [{"element": "Mo", "occu": 1}], "abc": [0.760191, 0.237005, 0.232735], "properties": {"magmom": 0.982}, "label": "Mo", "xyz": [1.6205356742819998, 6.297466413212, 2.258724128755]}, {"species": [{"element": "Mo", "occu": 1}], "abc": [0.239809, 0.762995, 0.767265], "properties": {"magmom": 0.982}, "label": "Mo", "xyz": [-1.6205356742819998, 8.355483586787999, 7.446408871245]}, {"species": [{"element": "Mo", "occu": 1}], "abc": [0.762995, 0.239809, 0.767265], "properties": {"magmom": 0.982}, "label": "Mo", "xyz": [1.6205356742819998, 8.355483586787999, 7.446408871245]}, {"species": [{"element": "Mo", "occu": 1}], "abc": [0.246004, 0.246004, 0.279636], "properties": {"magmom": 0.07200000000000001}, "label": "Mo", "xyz": [0.0, 3.7322564070319997, 2.713904571588]}, {"species": [{"element": "O", "occu": 1}], "abc": [0.088480999999999, 0.646519, 0.655426], "properties": {"magmom": 0.0}, "label": "O", "xyz": [-1.7284875486060032, 6.477113117975994, 6.360996501658]}, {"species": [{"element": "O", "occu": 1}], "abc": [0.907465, 0.907465, 0.35436], "properties": {"magmom": -0.045}, "label": "O", "xyz": [0.0, 11.19901466027, 3.43911092988]}, {"species": [{"element": "O", "occu": 1}], "abc": [0.092534999999999, 0.092534999999999, 0.6456400000000001], "properties": {"magmom": -0.045}, "label": "O", "xyz": [0.0, 3.4539353397299895, 6.266022070120001]}, {"species": [{"element": "O", "occu": 1}], "abc": [0.911519, 0.353481, 0.344574], "properties": {"magmom": 0.0}, "label": "O", "xyz": [1.7284875486060003, 8.175836882023999, 3.344136498342]}, {"species": [{"element": "O", "occu": 1}], "abc": [0.646519, 0.088480999999999, 0.655426], "properties": {"magmom": 0.0}, "label": "O", "xyz": [1.7284875486060032, 6.477113117975994, 6.360996501658]}, {"species": [{"element": "O", "occu": 1}], "abc": [0.353481, 0.911519, 0.344574], "properties": {"magmom": 0.0}, "label": "O", "xyz": [-1.7284875486060003, 8.175836882023999, 3.344136498342]}, {"species": [{"element": "O", "occu": 1}], "abc": [0.594094999999999, 0.594094999999999, 0.157301], "properties": {"magmom": -0.034}, "label": "O", "xyz": [0.0, 7.04840781250599, 1.526627126033]}, {"species": [{"element": "O", "occu": 1}], "abc": [0.40811000000000003, 0.836769, 0.855654999999999], "properties": {"magmom": 0.013000000000000001}, "label": "O", "xyz": [-1.327744246983, 10.005202308952995, 8.30424557711499]}, {"species": [{"element": "O", "occu": 1}], "abc": [0.836769, 0.40811000000000003, 0.855654999999999], "properties": {"magmom": 0.013000000000000001}, "label": "O", "xyz": [1.327744246983, 10.005202308952995, 8.30424557711499]}, {"species": [{"element": "O", "occu": 1}], "abc": [0.163231, 0.59189, 0.144345], "properties": {"magmom": 0.013000000000000001}, "label": "O", "xyz": [-1.3277442469830003, 4.647747691047, 1.4008874228850001]}, {"species": [{"element": "O", "occu": 1}], "abc": [0.59189, 0.163231, 0.144345], "properties": {"magmom": 0.013000000000000001}, "label": "O", "xyz": [1.3277442469830003, 4.647747691047, 1.4008874228850001]}, {"species": [{"element": "O", "occu": 1}], "abc": [0.405904999999999, 0.405904999999999, 0.842699], "properties": {"magmom": -0.034}, "label": "O", "xyz": [0.0, 7.604542187493989, 8.178505873967]}, {"species": [{"element": "O", "occu": 1}], "abc": [0.121285999999999, 0.121285999999999, 0.133496], "properties": {"magmom": -0.0}, "label": "O", "xyz": [0.0, 1.8235123726599891, 1.295596434968]}, {"species": [{"element": "O", "occu": 1}], "abc": [0.878714, 0.878714, 0.866503999999999], "properties": {"magmom": -0.0}, "label": "O", "xyz": [0.0, 12.829437627339995, 8.40953656503199]}, {"species": [{"element": "O", "occu": 1}], "abc": [0.63131, 0.63131, 0.631486], "properties": {"magmom": 0.004}, "label": "O", "xyz": [0.0, 9.251221463476, 6.128655617638]}, {"species": [{"element": "O", "occu": 1}], "abc": [0.36869, 0.36869, 0.368514], "properties": {"magmom": 0.004}, "label": "O", "xyz": [0.0, 5.401728536524001, 3.576477382362]}]}, "task_ids": null, "uncorrected_energy_per_atom": null, "energy_per_atom": -8.25450861590909, "formation_energy_per_atom": -1.698086945909091, "energy_above_hull": 0.253951274285714, "is_stable": false, "equilibrium_reaction_energy_per_atom": null, "decomposes_to": null, "xas": null, "grain_boundaries": null, "band_gap": 1.2265, "cbm": null, "vbm": null, "efermi": 1.07065281, "is_gap_direct": null, "is_metal": null, "es_source_calc_id": null, "bandstructure": null, "dos": null, "dos_energy_up": null, "dos_energy_down": null, "is_magnetic": null, "ordering": null, "total_magnetization": 3.999798, "total_magnetization_normalized_vol": null, "total_magnetization_normalized_formula_units": null, "num_magnetic_sites": null, "num_unique_magnetic_sites": null, "types_of_magnetic_species": null, "bulk_modulus": null, "shear_modulus": null, "universal_anisotropy": null, "homogeneous_poisson": null, "e_total": null, "e_ionic": null, "e_electronic": null, "n": null, "e_ij_max": null, "weighted_surface_energy_EV_PER_ANG2": null, "weighted_surface_energy": null, "weighted_work_function": null, "surface_anisotropy": null, "shape_factor": null, "has_reconstructed": null, "possible_species": null, "has_props": null, "theoretical": null, "database_IDs": null, "fields_not_requested": ["builder_meta", "nsites", "elements", "nelements", "composition", "composition_reduced", "chemsys", "symmetry", "property_name", "deprecated", "deprecation_reasons", "last_updated", "origins", "warnings", "task_ids", "uncorrected_energy_per_atom", "equilibrium_reaction_energy_per_atom", "decomposes_to", "xas", "grain_boundaries", "cbm", "vbm", "is_gap_direct", "is_metal", "es_source_calc_id", "bandstructure", "dos", "dos_energy_up", "dos_energy_down", "is_magnetic", "ordering", "total_magnetization_normalized_vol", "total_magnetization_normalized_formula_units", "num_magnetic_sites", "num_unique_magnetic_sites", "types_of_magnetic_species", "bulk_modulus", "shear_modulus", "universal_anisotropy", "homogeneous_poisson", "e_total", "e_ionic", "e_electronic", "n", "e_ij_max", "weighted_surface_energy_EV_PER_ANG2", "weighted_surface_energy", "weighted_work_function", "surface_anisotropy", "shape_factor", "has_reconstructed", "possible_species", "has_props", "theoretical", "database_IDs"]}