{"builder_meta": null, "nsites": null, "elements": null, "nelements": null, "composition": null, "composition_reduced": null, "formula_pretty": "Mo3P", "formula_anonymous": "AB3", "chemsys": null, "volume": 231.5514401889818, "density": 9.144741152243927, "density_atomic": 14.471965011811362, "symmetry": null, "property_name": null, "material_id": "mp-10004", "deprecated": null, "deprecation_reasons": null, "last_updated": null, "origins": null, "warnings": null, "structure": {"@module": "pymatgen.core.structure", "@class": "Structure", "charge": 0, "lattice": {"matrix": [[4.54892714, -1e-08, 1.58529952], [2.27446256, 6.93304554, 0.79264925], [-0.00711884, -0.0, 7.33952031]], "pbc": [true, true, true], "a": 4.817251570464305, "b": 7.339522684077025, "c": 7.339523762396675, "alpha": 83.81743925303505, "beta": 70.84214494317936, "gamma": 70.84214899350306, "volume": 231.5514401889818}, "properties": {}, "sites": [{"species": [{"element": "Mo", "occu": 1}], "abc": [0.46795133, -0.0, 0.59844058], "properties": {"magmom": -0.0}, "label": "Mo", "xyz": [2.124416302497569, -4.6795133e-09, 5.134109810070542]}, {"species": [{"element": "Mo", "occu": 1}], "abc": [0.93360809, 0.59844058, 0.0], "properties": {"magmom": -0.0}, "label": "Mo", "xyz": [5.608045872319248, 4.149015784787932, 1.9544019338516816]}, {"species": [{"element": "Mo", "occu": 1}], "abc": [0.53204867, 0.40155942, 0.0], "properties": {"magmom": -0.0}, "label": "Mo", "xyz": [3.333582501169219, 2.7840297405555003, 1.1617522742610733]}, {"species": [{"element": "Mo", "occu": 1}], "abc": [0.06639191, -0.0, 0.40155942], "properties": {"magmom": -0.0}, "label": "Mo", "xyz": [0.2991533240139646, -6.639191e-10, 3.052504581816703]}, {"species": [{"element": "Mo", "occu": 1}], "abc": [0.35504464, 0.64495536, 0.64495536], "properties": {"magmom": -0.0}, "label": "Mo", "xyz": [3.0774076839838687, 4.471504878596648, 5.807738443521414]}, {"species": [{"element": "Mo", "occu": 1}], "abc": [0.0, 0.64495536, 0.35504464], "properties": {"magmom": -0.0}, "label": "Mo", "xyz": [1.4643993132063038, 4.471504882147094, 3.117080728624119]}, {"species": [{"element": "Mo", "occu": 1}], "abc": [-0.0, 0.35504464, 0.64495536], "properties": {"magmom": -0.0}, "label": "Mo", "xyz": [0.802944406793696, 2.4615406578529058, 5.0150888313758815]}, {"species": [{"element": "Mo", "occu": 1}], "abc": [0.64495536, 0.35504464, 0.35504464], "properties": {"magmom": -0.0}, "label": "Mo", "xyz": [3.7388631760161313, 2.461540651403352, 3.909730636478586]}, {"species": [{"element": "Mo", "occu": 1}], "abc": [0.6737044600000001, 0.0, 0.18494945000000002], "properties": {"magmom": 0.0}, "label": "Mo", "xyz": [3.0633158768904067, -6.7370446e-09, 2.4254636016581888]}, {"species": [{"element": "Mo", "occu": 1}], "abc": [0.14134609, 0.18494945000000002, -0.0], "properties": {"magmom": 0.0}, "label": "Mo", "xyz": [1.0636336644514746, 1.2822629580344922, 0.3706759314612893]}, {"species": [{"element": "Mo", "occu": 1}], "abc": [0.32629554, 0.81505055, -0.0], "properties": {"magmom": 0.0}, "label": "Mo", "xyz": [3.338096598049364, 5.6507825772890925, 1.1633253701097281]}, {"species": [{"element": "Mo", "occu": 1}], "abc": [0.85865391, 0.0, 0.81505055], "properties": {"magmom": 0.0}, "label": "Mo", "xyz": [3.9001518606087555, -8.5865391e-09, 7.343303696770794]}, {"species": [{"element": "P", "occu": 1}], "abc": [0.20840489, 0.29159511, 0.29159511], "properties": {"magmom": -0.0}, "label": "P", "xyz": [1.6091650016709236, 2.0216421747872606, 2.7016850494695044]}, {"species": [{"element": "P", "occu": 1}], "abc": [0.5, 0.29159511, 0.7084048900000001], "properties": {"magmom": -0.0}, "label": "P", "xyz": [2.9326427093069536, 2.0216421718713096, 6.223134483103484]}, {"species": [{"element": "P", "occu": 1}], "abc": [0.5, 0.7084048900000001, 0.29159511], "properties": {"magmom": -0.0}, "label": "P", "xyz": [3.8836281506930463, 4.911403358128691, 3.4943345968965165]}, {"species": [{"element": "P", "occu": 1}], "abc": [0.79159511, 0.7084048900000001, 0.7084048900000001], "properties": {"magmom": -0.0}, "label": "P", "xyz": [5.2071058583290775, 4.91140335521274, 7.015784030530496]}]}, "task_ids": null, "uncorrected_energy_per_atom": null, "energy_per_atom": -22.15309586, "formation_energy_per_atom": -0.34859220199405105, "energy_above_hull": 0.0, "is_stable": true, "equilibrium_reaction_energy_per_atom": null, "decomposes_to": null, "xas": null, "grain_boundaries": null, "band_gap": 0.0, "cbm": null, "vbm": null, "efermi": 9.47106402, "is_gap_direct": null, "is_metal": null, "es_source_calc_id": null, "bandstructure": null, "dos": null, "dos_energy_up": null, "dos_energy_down": null, "is_magnetic": null, "ordering": null, "total_magnetization": 0.0, "total_magnetization_normalized_vol": null, "total_magnetization_normalized_formula_units": null, "num_magnetic_sites": null, "num_unique_magnetic_sites": null, "types_of_magnetic_species": null, "bulk_modulus": null, "shear_modulus": null, "universal_anisotropy": null, "homogeneous_poisson": null, "e_total": null, "e_ionic": null, "e_electronic": null, "n": null, "e_ij_max": null, "weighted_surface_energy_EV_PER_ANG2": null, "weighted_surface_energy": null, "weighted_work_function": null, "surface_anisotropy": null, "shape_factor": null, "has_reconstructed": null, "possible_species": null, "has_props": null, "theoretical": null, "database_IDs": null, "fields_not_requested": ["builder_meta", "nsites", "elements", "nelements", "composition", "composition_reduced", "chemsys", "symmetry", "property_name", "deprecated", "deprecation_reasons", "last_updated", "origins", "warnings", "task_ids", "uncorrected_energy_per_atom", "equilibrium_reaction_energy_per_atom", "decomposes_to", "xas", "grain_boundaries", "cbm", "vbm", "is_gap_direct", "is_metal", "es_source_calc_id", "bandstructure", "dos", "dos_energy_up", "dos_energy_down", "is_magnetic", "ordering", "total_magnetization_normalized_vol", "total_magnetization_normalized_formula_units", "num_magnetic_sites", "num_unique_magnetic_sites", "types_of_magnetic_species", "bulk_modulus", "shear_modulus", "universal_anisotropy", "homogeneous_poisson", "e_total", "e_ionic", "e_electronic", "n", "e_ij_max", "weighted_surface_energy_EV_PER_ANG2", "weighted_surface_energy", "weighted_work_function", "surface_anisotropy", "shape_factor", "has_reconstructed", "possible_species", "has_props", "theoretical", "database_IDs"]}