{"builder_meta": null, "nsites": null, "elements": null, "nelements": null, "composition": null, "composition_reduced": null, "formula_pretty": "Mo3Se4", "formula_anonymous": "A3B4", "chemsys": null, "volume": 307.6296516450482, "density": 6.516933641366628, "density_atomic": 21.973546546074875, "symmetry": null, "property_name": null, "material_id": "mp-21021", "deprecated": null, "deprecation_reasons": null, "last_updated": null, "origins": null, "warnings": null, "structure": {"@module": "pymatgen.core.structure", "@class": "Structure", "charge": 0, "lattice": {"matrix": [[4.706624, -4.84318, 0.0], [4.706624, 4.84318, 0.0], [-0.277073, 0.0, 6.747736]], "pbc": [true, true, true], "a": 6.753421502451627, "b": 6.753421502451627, "c": 6.753422137925704, "alpha": 91.63846732437287, "beta": 91.63846732437287, "gamma": 91.63847326405089, "volume": 307.6296516450482}, "properties": {}, "sites": [{"species": [{"element": "Mo", "occu": 1}], "abc": [0.453754999999999, 0.585869, 0.774285999999999], "properties": {"magmom": 0.0}, "label": "Mo", "xyz": [4.678585524497996, 0.6398518825200048, 5.224677516495993]}, {"species": [{"element": "Mo", "occu": 1}], "abc": [0.774285999999999, 0.453754999999999, 0.585869], "properties": {"magmom": 0.0}, "label": "Mo", "xyz": [5.617598762146991, -1.5523893285800003, 3.9532893425839997]}, {"species": [{"element": "Mo", "occu": 1}], "abc": [0.585869, 0.774285999999999, 0.453754999999999], "properties": {"magmom": 0.0}, "label": "Mo", "xyz": [6.276014907604996, 0.9125374460599955, 3.0618189486799934]}, {"species": [{"element": "Mo", "occu": 1}], "abc": [0.546245, 0.414130999999999, 0.225714], "properties": {"magmom": 0.0}, "label": "Mo", "xyz": [4.457589475501995, -0.6398518825200048, 1.523058483504]}, {"species": [{"element": "Mo", "occu": 1}], "abc": [0.225714, 0.546245, 0.414130999999999], "properties": {"magmom": 0.0}, "label": "Mo", "xyz": [3.518576237853, 1.55238932858, 2.7944466574159934]}, {"species": [{"element": "Mo", "occu": 1}], "abc": [0.414130999999999, 0.225714, 0.546245], "properties": {"magmom": 0.0}, "label": "Mo", "xyz": [2.8601600923949952, -0.9125374460599951, 3.6859170513199997]}, {"species": [{"element": "Se", "occu": 1}], "abc": [0.783586, 0.783586, 0.783586], "properties": {"magmom": -0.0}, "label": "Se", "xyz": [7.158978823549999, 0.0, 5.287431461295999]}, {"species": [{"element": "Se", "occu": 1}], "abc": [0.216414, 0.216414, 0.216414], "properties": {"magmom": -0.0}, "label": "Se", "xyz": [1.97719617645, 0.0, 1.460304538704]}, {"species": [{"element": "Se", "occu": 1}], "abc": [0.256974, 0.871803, 0.618578], "properties": {"magmom": -0.0}, "label": "Se", "xyz": [5.1413376566540006, 2.97772751622, 4.174001039407999]}, {"species": [{"element": "Se", "occu": 1}], "abc": [0.618578, 0.256974, 0.871803], "properties": {"magmom": -0.0}, "label": "Se", "xyz": [3.879340983829, -1.75131326072, 5.8826964880079995]}, {"species": [{"element": "Se", "occu": 1}], "abc": [0.871803, 0.618578, 0.256974], "properties": {"magmom": -0.0}, "label": "Se", "xyz": [6.943462426641999, -1.2264142555, 1.7339927108639999]}, {"species": [{"element": "Se", "occu": 1}], "abc": [0.743026, 0.128197, 0.381422], "properties": {"magmom": -0.0}, "label": "Se", "xyz": [3.994837343345999, -2.9777275162200003, 2.5737349605919997]}, {"species": [{"element": "Se", "occu": 1}], "abc": [0.381422, 0.743026, 0.128197], "properties": {"magmom": -0.0}, "label": "Se", "xyz": [5.256834016170999, 1.7513132607200002, 0.865039511992]}, {"species": [{"element": "Se", "occu": 1}], "abc": [0.128197, 0.381422999999999, 0.743026], "properties": {"magmom": -0.0}, "label": "Se", "xyz": [2.1927172799819954, 1.2264190986799952, 5.013743289135999]}]}, "task_ids": null, "uncorrected_energy_per_atom": null, "energy_per_atom": -19.933671465000003, "formation_energy_per_atom": -0.5819315730357171, "energy_above_hull": 0.060871434999999, "is_stable": false, "equilibrium_reaction_energy_per_atom": null, "decomposes_to": null, "xas": null, "grain_boundaries": null, "band_gap": 0.0, "cbm": null, "vbm": null, "efermi": 4.30780209, "is_gap_direct": null, "is_metal": null, "es_source_calc_id": null, "bandstructure": null, "dos": null, "dos_energy_up": null, "dos_energy_down": null, "is_magnetic": null, "ordering": null, "total_magnetization": 0.0001908, "total_magnetization_normalized_vol": null, "total_magnetization_normalized_formula_units": null, "num_magnetic_sites": null, "num_unique_magnetic_sites": null, "types_of_magnetic_species": null, "bulk_modulus": null, "shear_modulus": null, "universal_anisotropy": null, "homogeneous_poisson": null, "e_total": null, "e_ionic": null, "e_electronic": null, "n": null, "e_ij_max": null, "weighted_surface_energy_EV_PER_ANG2": null, "weighted_surface_energy": null, "weighted_work_function": null, "surface_anisotropy": null, "shape_factor": null, "has_reconstructed": null, "possible_species": null, "has_props": null, "theoretical": null, "database_IDs": null, "fields_not_requested": ["builder_meta", "nsites", "elements", "nelements", "composition", "composition_reduced", "chemsys", "symmetry", "property_name", "deprecated", "deprecation_reasons", "last_updated", "origins", "warnings", "task_ids", "uncorrected_energy_per_atom", "equilibrium_reaction_energy_per_atom", "decomposes_to", "xas", "grain_boundaries", "cbm", "vbm", "is_gap_direct", "is_metal", "es_source_calc_id", "bandstructure", "dos", "dos_energy_up", "dos_energy_down", "is_magnetic", "ordering", "total_magnetization_normalized_vol", "total_magnetization_normalized_formula_units", "num_magnetic_sites", "num_unique_magnetic_sites", "types_of_magnetic_species", "bulk_modulus", "shear_modulus", "universal_anisotropy", "homogeneous_poisson", "e_total", "e_ionic", "e_electronic", "n", "e_ij_max", "weighted_surface_energy_EV_PER_ANG2", "weighted_surface_energy", "weighted_work_function", "surface_anisotropy", "shape_factor", "has_reconstructed", "possible_species", "has_props", "theoretical", "database_IDs"]}