{"builder_meta": null, "nsites": null, "elements": null, "nelements": null, "composition": null, "composition_reduced": null, "formula_pretty": "Mo3S4", "formula_anonymous": "A3B4", "chemsys": null, "volume": 273.58904781509915, "density": 5.050765740431783, "density_atomic": 19.542074843935655, "symmetry": null, "property_name": null, "material_id": "mp-2164", "deprecated": null, "deprecation_reasons": null, "last_updated": null, "origins": null, "warnings": null, "structure": {"@module": "pymatgen.core.structure", "@class": "Structure", "charge": 0, "lattice": {"matrix": [[4.538266, -4.644429, 0.0], [4.538266, 4.644429, 0.0], [-0.21481000000000003, 0.0, 6.490026]], "pbc": [true, true, true], "a": 6.493579831094478, "b": 6.493579831094478, "c": 6.493579969229301, "alpha": 91.32476057203668, "beta": 91.32476057203668, "gamma": 91.32475724286137, "volume": 273.58904781509915}, "properties": {}, "sites": [{"species": [{"element": "Mo", "occu": 1}], "abc": [0.212125999999999, 0.405356999999999, 0.550508], "properties": {"magmom": 0.0}, "label": "Mo", "xyz": [2.6840474809979913, 0.897447660099, 3.572811233208]}, {"species": [{"element": "Mo", "occu": 1}], "abc": [0.550508, 0.212125999999999, 0.405356999999999], "properties": {"magmom": 0.0}, "label": "Mo", "xyz": [3.3739612154739955, -1.5715911738780044, 2.630777469281994]}, {"species": [{"element": "Mo", "occu": 1}], "abc": [0.405356999999999, 0.550508, 0.212125999999999], "properties": {"magmom": 0.0}, "label": "Mo", "xyz": [4.292402844029995, 0.6741435137790044, 1.3767032552759937]}, {"species": [{"element": "Mo", "occu": 1}], "abc": [0.787874, 0.594642999999999, 0.449492], "properties": {"magmom": 0.0}, "label": "Mo", "xyz": [6.177674519001997, -0.8974476600990045, 2.917214766792]}, {"species": [{"element": "Mo", "occu": 1}], "abc": [0.449492, 0.787874, 0.594642999999999], "properties": {"magmom": 0.0}, "label": "Mo", "xyz": [5.487760784526, 1.5715911738779997, 3.859248530717994]}, {"species": [{"element": "Mo", "occu": 1}], "abc": [0.594642999999999, 0.449492, 0.787874], "properties": {"magmom": 0.0}, "label": "Mo", "xyz": [4.569319155969996, -0.6741435137789953, 5.113322744724]}, {"species": [{"element": "S", "occu": 1}], "abc": [0.388291999999999, 0.133031999999999, 0.732776], "properties": {"magmom": 0.0}, "label": "S", "xyz": [2.208499371623991, -1.18553694654, 4.755735292176]}, {"species": [{"element": "S", "occu": 1}], "abc": [0.732776, 0.388291999999999, 0.133031999999999], "properties": {"magmom": 0.0}, "label": "S", "xyz": [5.059128184167996, -1.5999314796360042, 0.8633811388319936]}, {"species": [{"element": "S", "occu": 1}], "abc": [0.133031999999999, 0.732776, 0.388291999999999], "properties": {"magmom": 0.0}, "label": "S", "xyz": [3.8458580044079955, 2.785468426176004, 2.520025175591994]}, {"species": [{"element": "S", "occu": 1}], "abc": [0.611707999999999, 0.866968, 0.267223999999999], "properties": {"magmom": 0.0}, "label": "S", "xyz": [6.653222628375996, 1.1855369465400045, 1.7342907078239937]}, {"species": [{"element": "S", "occu": 1}], "abc": [0.267223999999999, 0.611707999999999, 0.866968], "properties": {"magmom": 0.0}, "label": "S", "xyz": [3.8025938158319916, 1.599931479636, 5.626644861168]}, {"species": [{"element": "S", "occu": 1}], "abc": [0.866968, 0.267223999999999, 0.611707999999999], "properties": {"magmom": 0.0}, "label": "S", "xyz": [5.015863995591996, -2.7854684261760045, 3.970000824407994]}, {"species": [{"element": "S", "occu": 1}], "abc": [0.221041, 0.221041, 0.221041], "properties": {"magmom": 0.0}, "label": "S", "xyz": [1.958803892602, 0.0, 1.434561837066]}, {"species": [{"element": "S", "occu": 1}], "abc": [0.778959, 0.778959, 0.778959], "properties": {"magmom": 0.0}, "label": "S", "xyz": [6.9029181073979995, 0.0, 5.055464162934]}]}, "task_ids": null, "uncorrected_energy_per_atom": null, "energy_per_atom": -16.527894489285718, "formation_energy_per_atom": -0.762760968035716, "energy_above_hull": 0.064811582142855, "is_stable": false, "equilibrium_reaction_energy_per_atom": null, "decomposes_to": null, "xas": null, "grain_boundaries": null, "band_gap": 0.0, "cbm": null, "vbm": null, "efermi": 5.14934646, "is_gap_direct": null, "is_metal": null, "es_source_calc_id": null, "bandstructure": null, "dos": null, "dos_energy_up": null, "dos_energy_down": null, "is_magnetic": null, "ordering": null, "total_magnetization": 0.0001121, "total_magnetization_normalized_vol": null, "total_magnetization_normalized_formula_units": null, "num_magnetic_sites": null, "num_unique_magnetic_sites": null, "types_of_magnetic_species": null, "bulk_modulus": null, "shear_modulus": null, "universal_anisotropy": null, "homogeneous_poisson": null, "e_total": null, "e_ionic": null, "e_electronic": null, "n": null, "e_ij_max": null, "weighted_surface_energy_EV_PER_ANG2": null, "weighted_surface_energy": null, "weighted_work_function": null, "surface_anisotropy": null, "shape_factor": null, "has_reconstructed": null, "possible_species": null, "has_props": null, "theoretical": null, "database_IDs": null, "fields_not_requested": ["builder_meta", "nsites", "elements", "nelements", "composition", "composition_reduced", "chemsys", "symmetry", "property_name", "deprecated", "deprecation_reasons", "last_updated", "origins", "warnings", "task_ids", "uncorrected_energy_per_atom", "equilibrium_reaction_energy_per_atom", "decomposes_to", "xas", "grain_boundaries", "cbm", "vbm", "is_gap_direct", "is_metal", "es_source_calc_id", "bandstructure", "dos", "dos_energy_up", "dos_energy_down", "is_magnetic", "ordering", "total_magnetization_normalized_vol", "total_magnetization_normalized_formula_units", "num_magnetic_sites", "num_unique_magnetic_sites", "types_of_magnetic_species", "bulk_modulus", "shear_modulus", "universal_anisotropy", "homogeneous_poisson", "e_total", "e_ionic", "e_electronic", "n", "e_ij_max", "weighted_surface_energy_EV_PER_ANG2", "weighted_surface_energy", "weighted_work_function", "surface_anisotropy", "shape_factor", "has_reconstructed", "possible_species", "has_props", "theoretical", "database_IDs"]}