{"builder_meta": null, "nsites": null, "elements": null, "nelements": null, "composition": null, "composition_reduced": null, "formula_pretty": "Mo4Ir", "formula_anonymous": "AB4", "chemsys": null, "volume": 78.91643423362468, "density": 12.119558102836224, "density_atomic": 15.783286846724938, "symmetry": null, "property_name": null, "material_id": "mp-1221469", "deprecated": null, "deprecation_reasons": null, "last_updated": null, "origins": null, "warnings": null, "structure": {"@module": "pymatgen.core.structure", "@class": "Structure", "charge": 0, "lattice": {"matrix": [[11.853815, -1.387894999999999, 0.0], [11.853815, 1.387894999999999, 0.0], [11.691315, 0.0, 2.398406]], "pbc": [true, true, true], "a": 11.93478875327293, "b": 11.93478875327293, "c": 11.934789389430422, "alpha": 13.356056048591292, "beta": 13.356056048591292, "gamma": 13.356056408119157, "volume": 78.91643423362463}, "properties": {}, "sites": [{"species": [{"element": "Mo", "occu": 1}], "abc": [0.602711, 0.602711, 0.602711], "properties": {"magmom": -0.004}, "label": "Mo", "xyz": [21.335333539895, 0.0, 1.445545678666]}, {"species": [{"element": "Mo", "occu": 1}], "abc": [0.200701, 0.200701, 0.200701], "properties": {"magmom": 0.002}, "label": "Mo", "xyz": [7.104603660445, 0.0, 0.481362482606]}, {"species": [{"element": "Mo", "occu": 1}], "abc": [0.799299, 0.799299, 0.799299], "properties": {"magmom": 0.002}, "label": "Mo", "xyz": [28.294341339554997, 0.0, 1.917043517394]}, {"species": [{"element": "Mo", "occu": 1}], "abc": [0.397289, 0.397289, 0.397289], "properties": {"magmom": -0.004}, "label": "Mo", "xyz": [14.063611460105001, 0.0, 0.952860321334]}, {"species": [{"element": "Ir", "occu": 1}], "abc": [0.0, 0.0, 0.0], "properties": {"magmom": -0.002}, "label": "Ir", "xyz": [0.0, 0.0, 0.0]}]}, "task_ids": null, "uncorrected_energy_per_atom": null, "energy_per_atom": -31.131865576000006, "formation_energy_per_atom": 0.19758866599999, "energy_above_hull": 0.337765234999995, "is_stable": false, "equilibrium_reaction_energy_per_atom": null, "decomposes_to": null, "xas": null, "grain_boundaries": null, "band_gap": 0.0, "cbm": null, "vbm": null, "efermi": 8.23209345, "is_gap_direct": null, "is_metal": null, "es_source_calc_id": null, "bandstructure": null, "dos": null, "dos_energy_up": null, "dos_energy_down": null, "is_magnetic": null, "ordering": null, "total_magnetization": 0.008805799999999, "total_magnetization_normalized_vol": null, "total_magnetization_normalized_formula_units": null, "num_magnetic_sites": null, "num_unique_magnetic_sites": null, "types_of_magnetic_species": null, "bulk_modulus": null, "shear_modulus": null, "universal_anisotropy": null, "homogeneous_poisson": null, "e_total": null, "e_ionic": null, "e_electronic": null, "n": null, "e_ij_max": null, "weighted_surface_energy_EV_PER_ANG2": null, "weighted_surface_energy": null, "weighted_work_function": null, "surface_anisotropy": null, "shape_factor": null, "has_reconstructed": null, "possible_species": null, "has_props": null, "theoretical": null, "database_IDs": null, "fields_not_requested": ["builder_meta", "nsites", "elements", "nelements", "composition", "composition_reduced", "chemsys", "symmetry", "property_name", "deprecated", "deprecation_reasons", "last_updated", "origins", "warnings", "task_ids", "uncorrected_energy_per_atom", "equilibrium_reaction_energy_per_atom", "decomposes_to", "xas", "grain_boundaries", "cbm", "vbm", "is_gap_direct", "is_metal", "es_source_calc_id", "bandstructure", "dos", "dos_energy_up", "dos_energy_down", "is_magnetic", "ordering", "total_magnetization_normalized_vol", "total_magnetization_normalized_formula_units", "num_magnetic_sites", "num_unique_magnetic_sites", "types_of_magnetic_species", "bulk_modulus", "shear_modulus", "universal_anisotropy", "homogeneous_poisson", "e_total", "e_ionic", "e_electronic", "n", "e_ij_max", "weighted_surface_energy_EV_PER_ANG2", "weighted_surface_energy", "weighted_work_function", "surface_anisotropy", "shape_factor", "has_reconstructed", "possible_species", "has_props", "theoretical", "database_IDs"]}