{
  "builder_meta": null,
  "nsites": null,
  "elements": null,
  "nelements": null,
  "composition": null,
  "composition_reduced": null,
  "formula_pretty": "Mo4O5",
  "formula_anonymous": "A4B5",
  "chemsys": null,
  "volume": 486.0945572766229,
  "density": 6.336928520439955,
  "density_atomic": 13.502626591017302,
  "symmetry": null,
  "property_name": null,
  "material_id": "mp-543061",
  "deprecated": null,
  "deprecation_reasons": null,
  "last_updated": null,
  "origins": null,
  "warnings": null,
  "structure": {
    "@module": "pymatgen.core.structure",
    "@class": "Structure",
    "charge": 0,
    "lattice": {
      "matrix": [
        [-3.090537, 3.090537, 12.723098],
        [3.090537, -3.090537, 12.723098],
        [3.090537, 3.090537, -12.723098]
      ],
      "pbc": [true, true, true],
      "a": 13.452882985231902,
      "b": 13.452882985231902,
      "c": 13.452882985231902,
      "alpha": 153.43759331836276,
      "beta": 153.43759331836276,
      "gamma": 37.9175711178784,
      "volume": 486.0945572766229
    },
    "properties": {},
    "sites": [
      {
        "species": [{ "element": "Mo", "occu": 1 }],
        "abc": [0.498924, 0.754197, 0.744726],
        "properties": { "magmom": 0.215 },
        "label": "Mo",
        "xyz": [3.0905339094629998, 1.5126726062609999, 6.46835940771]
      },
      {
        "species": [{ "element": "Mo", "occu": 1 }],
        "abc": [0.999386, 0.239627999999999, 0.240241999999999],
        "properties": { "magmom": 0.591 },
        "label": "Mo",
        "xyz": [-1.6055834200920063, 3.090537, 12.707474035656]
      },
      {
        "species": [{ "element": "Mo", "occu": 1 }],
        "abc": [0.504197, 0.748923999999999, 0.244726],
        "properties": { "magmom": 0.216 },
        "label": "Mo",
        "xyz": [1.5126726062609972, -3.0905369970968266e-6, 12.829908407709988]
      },
      {
        "species": [{ "element": "Mo", "occu": 1 }],
        "abc": [0.504197, 0.259471, 0.755274],
        "properties": { "magmom": 0.217 },
        "label": "Mo",
        "xyz": [1.5778674842759999, 3.0905369999999994, 0.10679768461199934]
      },
      {
        "species": [{ "element": "Mo", "occu": 1 }],
        "abc": [0.989628, 0.249386, 0.740242],
        "properties": { "magmom": 0.588 },
        "label": "Mo",
        "xyz": [0.0, 4.575490579907999, 6.345925035655998]
      },
      {
        "species": [{ "element": "Mo", "occu": 1 }],
        "abc": [0.009471, 0.754197, 0.255274],
        "properties": { "magmom": 0.214 },
        "label": "Mo",
        "xyz": [3.090537, -1.5126695157239998, 6.468346684612001]
      },
      {
        "species": [{ "element": "Mo", "occu": 1 }],
        "abc": [0.509145, 0.249386, 0.259758],
        "properties": { "magmom": 0.587 },
        "label": "Mo",
        "xyz": [-3.090536999872384e-6, 1.6055865106289997, 6.345937758753999]
      },
      {
        "species": [{ "element": "Mo", "occu": 1 }],
        "abc": [0.999386, 0.759145, 0.759757999999999],
        "properties": { "magmom": 0.591 },
        "label": "Mo",
        "xyz": [1.6055865106289966, 3.090533909462997, 12.707486758754014]
      },
      {
        "species": [{ "element": "Mo", "occu": 1 }],
        "abc": [0.653312999999999, 0.923182, 0.7301300000000001],
        "properties": { "magmom": 0.967 },
        "label": "Mo",
        "xyz": [3.090533909463003, 1.422453650156997, 10.768384838769988]
      },
      {
        "species": [{ "element": "Mo", "occu": 1 }],
        "abc": [0.673182, 0.443052, 0.76987],
        "properties": { "magmom": 0.962 },
        "label": "Mo",
        "xyz": [1.66808644038, 3.0905370000000003, 4.406823115671999]
      },
      {
        "species": [{ "element": "Mo", "occu": 1 }],
        "abc": [0.673182, 0.903312999999999, 0.23013000000000003],
        "properties": { "magmom": 0.962 },
        "label": "Mo",
        "xyz": [1.4224536501569969, -3.0905369967637597e-6, 17.129933838769986]
      },
      {
        "species": [{ "element": "Mo", "occu": 1 }],
        "abc": [0.193052, 0.923182, 0.26987],
        "properties": { "magmom": 0.969 },
        "label": "Mo",
        "xyz": [3.0905369999999994, -1.4224505596199997, 10.768372115672]
      },
      {
        "species": [{ "element": "Mo", "occu": 1 }],
        "abc": [0.829622, 0.080911, 0.251289],
        "properties": { "magmom": -1.548 },
        "label": "Mo",
        "xyz": [-1.5373010956139996, 3.0905369999999994, 8.387626017912]
      },
      {
        "species": [{ "element": "Mo", "occu": 1 }],
        "abc": [0.830911, 0.079622, 0.751289],
        "properties": { "magmom": -1.552 },
        "label": "Mo",
        "xyz": [4.440892098500626e-16, 4.643772904385999, 2.026077017912]
      },
      {
        "species": [{ "element": "Mo", "occu": 1 }],
        "abc": [0.829622, 0.578334, 0.748711],
        "properties": { "magmom": -1.546 },
        "label": "Mo",
        "xyz": [1.5373041861510002, 3.0905339094629998, 8.387638741009999]
      },
      {
        "species": [{ "element": "Mo", "occu": 1 }],
        "abc": [0.328333999999999, 0.079622, 0.248711],
        "properties": { "magmom": -1.548 },
        "label": "Mo",
        "xyz": [-3.0905369970968266e-6, 1.537304186150997, 2.0260897410099874]
      },
      {
        "species": [{ "element": "O", "occu": 1 }],
        "abc": [0.602279, 0.839441999999999, 0.762838],
        "properties": { "magmom": 0.004 },
        "label": "O",
        "xyz": [3.0905400905369964, 1.6246180374750032, 8.63749493953399]
      },
      {
        "species": [{ "element": "O", "occu": 1 }],
        "abc": [0.589442, 0.852279, 0.262837999999999],
        "properties": { "magmom": 0.004 },
        "label": "O",
        "xyz": [1.624618037474997, 3.0905369967637597e-6, 14.999043939534014]
      },
      {
        "species": [{ "element": "O", "occu": 1 }],
        "abc": [0.078027, 0.305206, 0.227179],
        "properties": { "magmom": -0.0 },
        "label": "O",
        "xyz": [1.4042102102459997, 1.1102230246251565e-16, 1.9854903352919995]
      },
      {
        "species": [{ "element": "O", "occu": 1 }],
        "abc": [0.914980999999999, 0.133642999999999, 0.218662],
        "properties": { "magmom": -0.005 },
        "label": "O",
        "xyz": [-1.7389709970119998, 3.090537, 10.559687862275975]
      },
      {
        "species": [{ "element": "O", "occu": 1 }],
        "abc": [0.589442, 0.326604, 0.737162],
        "properties": { "magmom": 0.004 },
        "label": "O",
        "xyz": [1.4659158719879997, 3.0905369999999994, 2.275958662632]
      },
      {
        "species": [{ "element": "O", "occu": 1 }],
        "abc": [0.432884, 0.671665, 0.761219],
        "properties": { "magmom": -0.009000000000000001 },
        "label": "O",
        "xyz": [3.0905369999999994, 1.614613969206, 4.36822123634]
      },
      {
        "species": [{ "element": "O", "occu": 1 }],
        "abc": [0.883643, 0.164981, 0.718661999999999],
        "properties": { "magmom": -0.006 },
        "label": "O",
        "xyz": [-2.6645352591003757e-15, 4.442103002987997, 4.1981388622760125]
      },
      {
        "species": [{ "element": "O", "occu": 1 }],
        "abc": [0.055206, 0.328026999999999, 0.727179],
        "properties": { "magmom": -0.001 },
        "label": "O",
        "xyz": [3.0905369999999968, 1.4042102102460028, -4.3760586647080135]
      },
      {
        "species": [{ "element": "O", "occu": 1 }],
        "abc": [0.076603999999999, 0.839441999999999, 0.237161999999999],
        "properties": { "magmom": 0.004 },
        "label": "O",
        "xyz": [3.0905369999999968, -1.624621128012003, 8.63750766263199]
      },
      {
        "species": [{ "element": "O", "occu": 1 }],
        "abc": [0.244111, 0.500726999999999, 0.743383999999999],
        "properties": { "magmom": -0.008 },
        "label": "O",
        "xyz": [3.090536999999994, 1.5043745144160001, 0.01849938449200117]
      },
      {
        "species": [{ "element": "O", "occu": 1 }],
        "abc": [0.757343, 0.500726999999999, 0.256616],
        "properties": { "magmom": -0.005 },
        "label": "O",
        "xyz": [-2.886579864025407e-15, 1.5861624855840029, 12.741597384491989]
      },
      {
        "species": [{ "element": "O", "occu": 1 }],
        "abc": [0.600847, 0.328026999999999, 0.272821],
        "properties": { "magmom": -0.0 },
        "label": "O",
        "xyz": [3.0905369967637597e-6, 1.686323699217003, 8.347026612193988]
      },
      {
        "species": [{ "element": "O", "occu": 1 }],
        "abc": [0.910445, 0.671665, 0.238781],
        "properties": { "magmom": -0.009000000000000001 },
        "label": "O",
        "xyz": [3.0905369999834065e-6, 1.475919940257, 17.091306513242]
      },
      {
        "species": [{ "element": "O", "occu": 1 }],
        "abc": [0.914980999999999, 0.696319, 0.781338],
        "properties": { "magmom": -0.005 },
        "label": "O",
        "xyz": [1.7389709970120029, 3.0905369999999968, 10.55968786227599]
      },
      {
        "species": [{ "element": "O", "occu": 1 }],
        "abc": [0.078027, 0.850846999999999, 0.772821],
        "properties": { "magmom": -0.0 },
        "label": "O",
        "xyz": [4.776860699216996, 3.0905370032030532e-6, 1.9854776121939874]
      },
      {
        "species": [{ "element": "O", "occu": 1 }],
        "abc": [0.421664999999999, 0.160445, 0.738781],
        "properties": { "magmom": -0.008 },
        "label": "O",
        "xyz": [1.4759199402570027, 3.090540090536997, -1.9933404867580133]
      },
      {
        "species": [{ "element": "O", "occu": 1 }],
        "abc": [0.421664999999999, 0.682883999999999, 0.261219],
        "properties": { "magmom": -0.008 },
        "label": "O",
        "xyz": [1.6146139692059998, 0.0, 10.729770236339974]
      },
      {
        "species": [{ "element": "O", "occu": 1 }],
        "abc": [0.250727, 0.007343, 0.756616],
        "properties": { "magmom": -0.008 },
        "label": "O",
        "xyz": [1.586162485584, 3.090537, -6.343049615508001]
      },
      {
        "species": [{ "element": "O", "occu": 1 }],
        "abc": [0.250727, 0.494110999999999, 0.243384],
        "properties": { "magmom": -0.008 },
        "label": "O",
        "xyz": [1.504374514415997, 2.886579864025407e-15, 6.380048384491987]
      },
      {
        "species": [{ "element": "O", "occu": 1 }],
        "abc": [0.446318999999999, 0.164981, 0.281338],
        "properties": { "magmom": -0.006 },
        "label": "O",
        "xyz": [2.9976021664879227e-15, 1.7389709970119966, 4.198138862275988]
      }
    ]
  },
  "task_ids": null,
  "uncorrected_energy_per_atom": null,
  "energy_per_atom": -8.572645433888889,
  "formation_energy_per_atom": -1.003489271111111,
  "energy_above_hull": 0.6811400525,
  "is_stable": false,
  "equilibrium_reaction_energy_per_atom": null,
  "decomposes_to": null,
  "xas": null,
  "grain_boundaries": null,
  "band_gap": 0.0,
  "cbm": null,
  "vbm": null,
  "efermi": 5.19418881,
  "is_gap_direct": null,
  "is_metal": null,
  "es_source_calc_id": null,
  "bandstructure": null,
  "dos": null,
  "dos_energy_up": null,
  "dos_energy_down": null,
  "is_magnetic": null,
  "ordering": null,
  "total_magnetization": 0.0233265,
  "total_magnetization_normalized_vol": null,
  "total_magnetization_normalized_formula_units": null,
  "num_magnetic_sites": null,
  "num_unique_magnetic_sites": null,
  "types_of_magnetic_species": null,
  "bulk_modulus": null,
  "shear_modulus": null,
  "universal_anisotropy": null,
  "homogeneous_poisson": null,
  "e_total": null,
  "e_ionic": null,
  "e_electronic": null,
  "n": null,
  "e_ij_max": null,
  "weighted_surface_energy_EV_PER_ANG2": null,
  "weighted_surface_energy": null,
  "weighted_work_function": null,
  "surface_anisotropy": null,
  "shape_factor": null,
  "has_reconstructed": null,
  "possible_species": null,
  "has_props": null,
  "theoretical": null,
  "database_IDs": null,
  "fields_not_requested": [
    "builder_meta",
    "nsites",
    "elements",
    "nelements",
    "composition",
    "composition_reduced",
    "chemsys",
    "symmetry",
    "property_name",
    "deprecated",
    "deprecation_reasons",
    "last_updated",
    "origins",
    "warnings",
    "task_ids",
    "uncorrected_energy_per_atom",
    "equilibrium_reaction_energy_per_atom",
    "decomposes_to",
    "xas",
    "grain_boundaries",
    "cbm",
    "vbm",
    "is_gap_direct",
    "is_metal",
    "es_source_calc_id",
    "bandstructure",
    "dos",
    "dos_energy_up",
    "dos_energy_down",
    "is_magnetic",
    "ordering",
    "total_magnetization_normalized_vol",
    "total_magnetization_normalized_formula_units",
    "num_magnetic_sites",
    "num_unique_magnetic_sites",
    "types_of_magnetic_species",
    "bulk_modulus",
    "shear_modulus",
    "universal_anisotropy",
    "homogeneous_poisson",
    "e_total",
    "e_ionic",
    "e_electronic",
    "n",
    "e_ij_max",
    "weighted_surface_energy_EV_PER_ANG2",
    "weighted_surface_energy",
    "weighted_work_function",
    "surface_anisotropy",
    "shape_factor",
    "has_reconstructed",
    "possible_species",
    "has_props",
    "theoretical",
    "database_IDs"
  ]
}
