{"builder_meta": null, "nsites": null, "elements": null, "nelements": null, "composition": null, "composition_reduced": null, "formula_pretty": "Mo4P3", "formula_anonymous": "A3B4", "chemsys": null, "volume": 814.0791644211372, "density": 7.778584022923316, "density_atomic": 14.537127936091736, "symmetry": null, "property_name": null, "material_id": "mp-21833", "deprecated": null, "deprecation_reasons": null, "last_updated": null, "origins": null, "warnings": null, "structure": {"@module": "pymatgen.core.structure", "@class": "Structure", "charge": 0, "lattice": {"matrix": [[3.1637, 0.0, 0.0], [0.0, 12.510580000000001, 0.0], [0.0, 0.0, 20.568087]], "pbc": [true, true, true], "a": 3.1637, "b": 12.510580000000001, "c": 20.568087, "alpha": 90.0, "beta": 90.0, "gamma": 90.0, "volume": 814.0791644211372}, "properties": {}, "sites": [{"species": [{"element": "Mo", "occu": 1}], "abc": [0.75, 0.201965999999999, 0.113506], "properties": {"magmom": -0.0}, "label": "Mo", "xyz": [2.372775, 2.5267118002799878, 2.3346012830219998]}, {"species": [{"element": "Mo", "occu": 1}], "abc": [0.25, 0.798033999999999, 0.886494], "properties": {"magmom": 0.0}, "label": "Mo", "xyz": [0.790925, 9.98386819971999, 18.233485716978]}, {"species": [{"element": "Mo", "occu": 1}], "abc": [0.75, 0.701966, 0.386494], "properties": {"magmom": 0.0}, "label": "Mo", "xyz": [2.372775, 8.78200180028, 7.9494422169779995]}, {"species": [{"element": "Mo", "occu": 1}], "abc": [0.25, 0.298033999999999, 0.613506], "properties": {"magmom": -0.0}, "label": "Mo", "xyz": [0.790925, 3.728578199719988, 12.618644783021999]}, {"species": [{"element": "Mo", "occu": 1}], "abc": [0.75, 0.49076499999999906, 0.672304999999999], "properties": {"magmom": 0.0}, "label": "Mo", "xyz": [2.372775, 6.139754793699988, 13.828027730534979]}, {"species": [{"element": "Mo", "occu": 1}], "abc": [0.25, 0.509235, 0.327694999999999], "properties": {"magmom": 0.0}, "label": "Mo", "xyz": [0.790925, 6.3708252063, 6.740059269464979]}, {"species": [{"element": "Mo", "occu": 1}], "abc": [0.75, 0.990765, 0.827695], "properties": {"magmom": -0.0}, "label": "Mo", "xyz": [2.372775, 12.3950447937, 17.024102769465]}, {"species": [{"element": "Mo", "occu": 1}], "abc": [0.25, 0.009235, 0.17230499999999901], "properties": {"magmom": -0.0}, "label": "Mo", "xyz": [0.790925, 0.11553520630000001, 3.5439842305349796]}, {"species": [{"element": "Mo", "occu": 1}], "abc": [0.25, 0.094818, 0.533404], "properties": {"magmom": 0.0}, "label": "Mo", "xyz": [0.790925, 1.18622817444, 10.971099878148]}, {"species": [{"element": "Mo", "occu": 1}], "abc": [0.75, 0.905181999999999, 0.466595999999999], "properties": {"magmom": 0.0}, "label": "Mo", "xyz": [2.372775, 11.324351825559988, 9.59698712185198]}, {"species": [{"element": "Mo", "occu": 1}], "abc": [0.25, 0.594818, 0.966596], "properties": {"magmom": -0.0}, "label": "Mo", "xyz": [0.790925, 7.44151817444, 19.881030621852]}, {"species": [{"element": "Mo", "occu": 1}], "abc": [0.75, 0.405182, 0.033403999999999004], "properties": {"magmom": -0.0}, "label": "Mo", "xyz": [2.372775, 5.06906182556, 0.6870563781479795]}, {"species": [{"element": "Mo", "occu": 1}], "abc": [0.25, 0.400993999999999, 0.472748], "properties": {"magmom": -0.0}, "label": "Mo", "xyz": [0.790925, 5.016667516519988, 9.723521993076]}, {"species": [{"element": "Mo", "occu": 1}], "abc": [0.75, 0.599005999999999, 0.527251999999999], "properties": {"magmom": -0.0}, "label": "Mo", "xyz": [2.372775, 7.493912483479988, 10.844565006923979]}, {"species": [{"element": "Mo", "occu": 1}], "abc": [0.25, 0.900994, 0.027252], "properties": {"magmom": 0.0}, "label": "Mo", "xyz": [0.790925, 11.27195751652, 0.5605215069239999]}, {"species": [{"element": "Mo", "occu": 1}], "abc": [0.75, 0.099006, 0.972748], "properties": {"magmom": 0.0}, "label": "Mo", "xyz": [2.372775, 1.2386224834800001, 20.007565493075997]}, {"species": [{"element": "Mo", "occu": 1}], "abc": [0.25, 0.297170999999999, 0.915978], "properties": {"magmom": -0.0}, "label": "Mo", "xyz": [0.790925, 3.717781569179988, 18.839915194085997]}, {"species": [{"element": "Mo", "occu": 1}], "abc": [0.75, 0.702828999999999, 0.084022], "properties": {"magmom": -0.0}, "label": "Mo", "xyz": [2.372775, 8.792798430819989, 1.7281718059139999]}, {"species": [{"element": "Mo", "occu": 1}], "abc": [0.25, 0.797171, 0.584021999999999], "properties": {"magmom": 0.0}, "label": "Mo", "xyz": [0.790925, 9.97307156918, 12.01221530591398]}, {"species": [{"element": "Mo", "occu": 1}], "abc": [0.75, 0.202828999999999, 0.415977999999999], "properties": {"magmom": -0.0}, "label": "Mo", "xyz": [2.372775, 2.537508430819988, 8.55587169408598]}, {"species": [{"element": "Mo", "occu": 1}], "abc": [0.25, 0.120493999999999, 0.31085], "properties": {"magmom": 0.0}, "label": "Mo", "xyz": [0.790925, 1.5074498265199876, 6.39358984395]}, {"species": [{"element": "Mo", "occu": 1}], "abc": [0.75, 0.879506, 0.68915], "properties": {"magmom": -0.0}, "label": "Mo", "xyz": [2.372775, 11.00313017348, 14.17449715605]}, {"species": [{"element": "Mo", "occu": 1}], "abc": [0.25, 0.620494, 0.18915], "properties": {"magmom": -0.0}, "label": "Mo", "xyz": [0.790925, 7.762739826520001, 3.89045365605]}, {"species": [{"element": "Mo", "occu": 1}], "abc": [0.75, 0.379506, 0.8108500000000001], "properties": {"magmom": 0.0}, "label": "Mo", "xyz": [2.372775, 4.74784017348, 16.67763334395]}, {"species": [{"element": "Mo", "occu": 1}], "abc": [0.25, 0.384803, 0.147514999999999], "properties": {"magmom": -0.001}, "label": "Mo", "xyz": [0.790925, 4.814108715740001, 3.0341013538049793]}, {"species": [{"element": "Mo", "occu": 1}], "abc": [0.75, 0.615197, 0.852484999999999], "properties": {"magmom": 0.001}, "label": "Mo", "xyz": [2.372775, 7.69647128426, 17.533985646194978]}, {"species": [{"element": "Mo", "occu": 1}], "abc": [0.25, 0.884803, 0.352485], "properties": {"magmom": 0.001}, "label": "Mo", "xyz": [0.790925, 11.06939871574, 7.249942146194999]}, {"species": [{"element": "Mo", "occu": 1}], "abc": [0.75, 0.115197, 0.647515], "properties": {"magmom": -0.001}, "label": "Mo", "xyz": [2.372775, 1.44118128426, 13.318144853804998]}, {"species": [{"element": "Mo", "occu": 1}], "abc": [0.25, 0.194031999999999, 0.7735500000000001], "properties": {"magmom": -0.0}, "label": "Mo", "xyz": [0.790925, 2.4274528585599877, 15.91044369885]}, {"species": [{"element": "Mo", "occu": 1}], "abc": [0.75, 0.805968, 0.22645], "properties": {"magmom": 0.0}, "label": "Mo", "xyz": [2.372775, 10.08312714144, 4.65764330115]}, {"species": [{"element": "Mo", "occu": 1}], "abc": [0.25, 0.694032, 0.72645], "properties": {"magmom": -0.0}, "label": "Mo", "xyz": [0.790925, 8.682742858560001, 14.94168680115]}, {"species": [{"element": "Mo", "occu": 1}], "abc": [0.75, 0.305967999999999, 0.27355], "properties": {"magmom": -0.0}, "label": "Mo", "xyz": [2.372775, 3.827837141439988, 5.62640019885]}, {"species": [{"element": "P", "occu": 1}], "abc": [0.25, 0.199574, 0.205092], "properties": {"magmom": -0.0}, "label": "P", "xyz": [0.790925, 2.49678649292, 4.218350099004]}, {"species": [{"element": "P", "occu": 1}], "abc": [0.75, 0.800426, 0.794908], "properties": {"magmom": 0.0}, "label": "P", "xyz": [2.372775, 10.01379350708, 16.349736900995996]}, {"species": [{"element": "P", "occu": 1}], "abc": [0.25, 0.699573999999999, 0.294908], "properties": {"magmom": 0.0}, "label": "P", "xyz": [0.790925, 8.752076492919988, 6.0656934009959995]}, {"species": [{"element": "P", "occu": 1}], "abc": [0.75, 0.300425999999999, 0.705091999999999], "properties": {"magmom": -0.0}, "label": "P", "xyz": [2.372775, 3.758503507079988, 14.50239359900398]}, {"species": [{"element": "P", "occu": 1}], "abc": [0.25, 0.016478, 0.725247], "properties": {"magmom": 0.0}, "label": "P", "xyz": [0.790925, 0.20614933724, 14.916943392488998]}, {"species": [{"element": "P", "occu": 1}], "abc": [0.75, 0.983522, 0.274752999999999], "properties": {"magmom": 0.0}, "label": "P", "xyz": [2.372775, 12.304430662760002, 5.6511436075109795]}, {"species": [{"element": "P", "occu": 1}], "abc": [0.25, 0.516478, 0.774752999999999], "properties": {"magmom": 0.0}, "label": "P", "xyz": [0.790925, 6.461439337240001, 15.935187107510979]}, {"species": [{"element": "P", "occu": 1}], "abc": [0.75, 0.48352199999999906, 0.225247], "properties": {"magmom": -0.0}, "label": "P", "xyz": [2.372775, 6.049140662759989, 4.632899892489]}, {"species": [{"element": "P", "occu": 1}], "abc": [0.25, 0.041399, 0.419205], "properties": {"magmom": -0.0}, "label": "P", "xyz": [0.790925, 0.51792550142, 8.622244910834999]}, {"species": [{"element": "P", "occu": 1}], "abc": [0.75, 0.958600999999999, 0.580795], "properties": {"magmom": 0.0}, "label": "P", "xyz": [2.372775, 11.99265449857999, 11.945842089164998]}, {"species": [{"element": "P", "occu": 1}], "abc": [0.25, 0.541399, 0.080794999999999], "properties": {"magmom": 0.0}, "label": "P", "xyz": [0.790925, 6.77321550142, 1.6617985891649794]}, {"species": [{"element": "P", "occu": 1}], "abc": [0.75, 0.458601, 0.919204999999999], "properties": {"magmom": -0.0}, "label": "P", "xyz": [2.372775, 5.73736449858, 18.90628841083498]}, {"species": [{"element": "P", "occu": 1}], "abc": [0.25, 0.321376999999999, 0.363386], "properties": {"magmom": -0.0}, "label": "P", "xyz": [0.790925, 4.020612668659988, 7.474154862581999]}, {"species": [{"element": "P", "occu": 1}], "abc": [0.75, 0.678623, 0.636614], "properties": {"magmom": 0.0}, "label": "P", "xyz": [2.372775, 8.48996733134, 13.093932137418]}, {"species": [{"element": "P", "occu": 1}], "abc": [0.25, 0.821376999999999, 0.13661399999999901], "properties": {"magmom": 0.0}, "label": "P", "xyz": [0.790925, 10.275902668659988, 2.8098886374179797]}, {"species": [{"element": "P", "occu": 1}], "abc": [0.75, 0.178623, 0.863386], "properties": {"magmom": -0.0}, "label": "P", "xyz": [2.372775, 2.2346773313400004, 17.758198362582]}, {"species": [{"element": "P", "occu": 1}], "abc": [0.25, 0.481697999999999, 0.581033999999999], "properties": {"magmom": 0.0}, "label": "P", "xyz": [0.790925, 6.026321364839988, 11.95075786195798]}, {"species": [{"element": "P", "occu": 1}], "abc": [0.75, 0.518301999999999, 0.418966], "properties": {"magmom": 0.0}, "label": "P", "xyz": [2.372775, 6.484258635159988, 8.617329138041999]}, {"species": [{"element": "P", "occu": 1}], "abc": [0.25, 0.981698, 0.918966], "properties": {"magmom": 0.0}, "label": "P", "xyz": [0.790925, 12.28161136484, 18.901372638041998]}, {"species": [{"element": "P", "occu": 1}], "abc": [0.75, 0.018302, 0.081034], "properties": {"magmom": 0.0}, "label": "P", "xyz": [2.372775, 0.22896863516, 1.6667143619579998]}, {"species": [{"element": "P", "occu": 1}], "abc": [0.25, 0.245603, 0.027693], "properties": {"magmom": -0.0}, "label": "P", "xyz": [0.790925, 3.0726359797400002, 0.5695920332909999]}, {"species": [{"element": "P", "occu": 1}], "abc": [0.75, 0.754397, 0.972306999999999], "properties": {"magmom": 0.0}, "label": "P", "xyz": [2.372775, 9.43794402026, 19.99849496670898]}, {"species": [{"element": "P", "occu": 1}], "abc": [0.25, 0.745603, 0.472307], "properties": {"magmom": 0.0}, "label": "P", "xyz": [0.790925, 9.327925979740002, 9.714451466708999]}, {"species": [{"element": "P", "occu": 1}], "abc": [0.75, 0.254397, 0.527693], "properties": {"magmom": -0.0}, "label": "P", "xyz": [2.372775, 3.18265402026, 10.853635533290998]}]}, "task_ids": null, "uncorrected_energy_per_atom": null, "energy_per_atom": -19.33924317982143, "formation_energy_per_atom": -0.582936508954081, "energy_above_hull": 0.01380545517857, "is_stable": false, "equilibrium_reaction_energy_per_atom": null, "decomposes_to": null, "xas": null, "grain_boundaries": null, "band_gap": 0.0, "cbm": null, "vbm": null, "efermi": 9.4924759, "is_gap_direct": null, "is_metal": null, "es_source_calc_id": null, "bandstructure": null, "dos": null, "dos_energy_up": null, "dos_energy_down": null, "is_magnetic": null, "ordering": null, "total_magnetization": 0.005312799999999, "total_magnetization_normalized_vol": null, "total_magnetization_normalized_formula_units": null, "num_magnetic_sites": null, "num_unique_magnetic_sites": null, "types_of_magnetic_species": null, "bulk_modulus": null, "shear_modulus": null, "universal_anisotropy": null, "homogeneous_poisson": null, "e_total": null, "e_ionic": null, "e_electronic": null, "n": null, "e_ij_max": null, "weighted_surface_energy_EV_PER_ANG2": null, "weighted_surface_energy": null, "weighted_work_function": null, "surface_anisotropy": null, "shape_factor": null, "has_reconstructed": null, "possible_species": null, "has_props": null, "theoretical": null, "database_IDs": null, "fields_not_requested": ["builder_meta", "nsites", "elements", "nelements", "composition", "composition_reduced", "chemsys", "symmetry", "property_name", "deprecated", "deprecation_reasons", "last_updated", "origins", "warnings", "task_ids", "uncorrected_energy_per_atom", "equilibrium_reaction_energy_per_atom", "decomposes_to", "xas", "grain_boundaries", "cbm", "vbm", "is_gap_direct", "is_metal", "es_source_calc_id", "bandstructure", "dos", "dos_energy_up", "dos_energy_down", "is_magnetic", "ordering", "total_magnetization_normalized_vol", "total_magnetization_normalized_formula_units", "num_magnetic_sites", "num_unique_magnetic_sites", "types_of_magnetic_species", "bulk_modulus", "shear_modulus", "universal_anisotropy", "homogeneous_poisson", "e_total", "e_ionic", "e_electronic", "n", "e_ij_max", "weighted_surface_energy_EV_PER_ANG2", "weighted_surface_energy", "weighted_work_function", "surface_anisotropy", "shape_factor", "has_reconstructed", "possible_species", "has_props", "theoretical", "database_IDs"]}