{
  "builder_meta": null,
  "nsites": null,
  "elements": null,
  "nelements": null,
  "composition": null,
  "composition_reduced": null,
  "formula_pretty": "Mo4Ru",
  "formula_anonymous": "AB4",
  "chemsys": null,
  "volume": 77.73637413329615,
  "density": 10.356530834319495,
  "density_atomic": 15.54727482665923,
  "symmetry": null,
  "property_name": null,
  "material_id": "mp-1221461",
  "deprecated": null,
  "deprecation_reasons": null,
  "last_updated": null,
  "origins": null,
  "warnings": null,
  "structure": {
    "@module": "pymatgen.core.structure",
    "@class": "Structure",
    "charge": 0,
    "lattice": {
      "matrix": [
        [0.0, 2.233273999999999, 10.993715],
        [1.5830980000000001, 0.0, 10.993715],
        [1.5830980000000001, 2.233273999999999, 0.0]
      ],
      "pbc": [true, true, true],
      "a": 11.218256649778565,
      "b": 11.107113431437936,
      "c": 2.737464527017655,
      "alpha": 85.27195579342388,
      "beta": 80.653247841527,
      "gamma": 14.07479636504912,
      "volume": 77.73637413329611
    },
    "properties": {},
    "sites": [
      {
        "species": [{ "element": "Mo", "occu": 1 }],
        "abc": [0.40186499999999903, 0.40186499999999903, 0.598135],
        "properties": { "magmom": -0.0 },
        "label": "Mo",
        "xyz": [1.5830979999999986, 2.2332739999999967, 8.835978556949978]
      },
      {
        "species": [{ "element": "Mo", "occu": 1 }],
        "abc": [0.800716, 0.800716, 0.199284],
        "properties": { "magmom": 0.0 },
        "label": "Mo",
        "xyz": [1.5830980000000001, 2.233273999999999, 17.60568699988]
      },
      {
        "species": [{ "element": "Mo", "occu": 1 }],
        "abc": [0.199284, 0.199284, 0.800716],
        "properties": { "magmom": 0.0 },
        "label": "Mo",
        "xyz": [1.5830980000000001, 2.233273999999999, 4.381743000119999]
      },
      {
        "species": [{ "element": "Mo", "occu": 1 }],
        "abc": [0.598135, 0.598135, 0.40186499999999903],
        "properties": { "magmom": -0.0 },
        "label": "Mo",
        "xyz": [1.5830979999999986, 2.2332739999999967, 13.15145144305]
      },
      {
        "species": [{ "element": "Ru", "occu": 1 }],
        "abc": [0.0, 0.0, 0.0],
        "properties": { "magmom": -0.001 },
        "label": "Ru",
        "xyz": [0.0, 0.0, 0.0]
      }
    ]
  },
  "task_ids": null,
  "uncorrected_energy_per_atom": null,
  "energy_per_atom": -25.821407488333335,
  "formation_energy_per_atom": 0.121083122666664,
  "energy_above_hull": 0.134900079666664,
  "is_stable": false,
  "equilibrium_reaction_energy_per_atom": null,
  "decomposes_to": null,
  "xas": null,
  "grain_boundaries": null,
  "band_gap": 0.0,
  "cbm": null,
  "vbm": null,
  "efermi": 8.45675891,
  "is_gap_direct": null,
  "is_metal": null,
  "es_source_calc_id": null,
  "bandstructure": null,
  "dos": null,
  "dos_energy_up": null,
  "dos_energy_down": null,
  "is_magnetic": null,
  "ordering": null,
  "total_magnetization": 0.001533799999999,
  "total_magnetization_normalized_vol": null,
  "total_magnetization_normalized_formula_units": null,
  "num_magnetic_sites": null,
  "num_unique_magnetic_sites": null,
  "types_of_magnetic_species": null,
  "bulk_modulus": null,
  "shear_modulus": null,
  "universal_anisotropy": null,
  "homogeneous_poisson": null,
  "e_total": null,
  "e_ionic": null,
  "e_electronic": null,
  "n": null,
  "e_ij_max": null,
  "weighted_surface_energy_EV_PER_ANG2": null,
  "weighted_surface_energy": null,
  "weighted_work_function": null,
  "surface_anisotropy": null,
  "shape_factor": null,
  "has_reconstructed": null,
  "possible_species": null,
  "has_props": null,
  "theoretical": null,
  "database_IDs": null,
  "fields_not_requested": [
    "builder_meta",
    "nsites",
    "elements",
    "nelements",
    "composition",
    "composition_reduced",
    "chemsys",
    "symmetry",
    "property_name",
    "deprecated",
    "deprecation_reasons",
    "last_updated",
    "origins",
    "warnings",
    "task_ids",
    "uncorrected_energy_per_atom",
    "equilibrium_reaction_energy_per_atom",
    "decomposes_to",
    "xas",
    "grain_boundaries",
    "cbm",
    "vbm",
    "is_gap_direct",
    "is_metal",
    "es_source_calc_id",
    "bandstructure",
    "dos",
    "dos_energy_up",
    "dos_energy_down",
    "is_magnetic",
    "ordering",
    "total_magnetization_normalized_vol",
    "total_magnetization_normalized_formula_units",
    "num_magnetic_sites",
    "num_unique_magnetic_sites",
    "types_of_magnetic_species",
    "bulk_modulus",
    "shear_modulus",
    "universal_anisotropy",
    "homogeneous_poisson",
    "e_total",
    "e_ionic",
    "e_electronic",
    "n",
    "e_ij_max",
    "weighted_surface_energy_EV_PER_ANG2",
    "weighted_surface_energy",
    "weighted_work_function",
    "surface_anisotropy",
    "shape_factor",
    "has_reconstructed",
    "possible_species",
    "has_props",
    "theoretical",
    "database_IDs"
  ]
}
