{"builder_meta": null, "nsites": null, "elements": null, "nelements": null, "composition": null, "composition_reduced": null, "formula_pretty": "Mo5As4", "formula_anonymous": "A4B5", "chemsys": null, "volume": 152.64290299168098, "density": 8.478622587826882, "density_atomic": 16.96032255463122, "symmetry": null, "property_name": null, "material_id": "mp-1743", "deprecated": null, "deprecation_reasons": null, "last_updated": null, "origins": null, "warnings": null, "structure": {"@module": "pymatgen.core.structure", "@class": "Structure", "charge": 0, "lattice": {"matrix": [[3.2013254, -0.0, 0.77438472], [1.60049982, 6.80768324, 0.38786042], [7.754e-05, -0.00068665, 7.00403996]], "pbc": [true, true, true], "a": 3.293653899737287, "b": 7.004040724853012, "c": 7.004039994087518, "alpha": 86.83084972877178, "beta": 76.40101265535613, "gamma": 76.40100348375567, "volume": 152.64290299168098}, "properties": {}, "sites": [{"species": [{"element": "Mo", "occu": 1}], "abc": [0.70148672, 0.91907285, 0.67795472], "properties": {"magmom": -0.0}, "label": "Mo", "xyz": [3.7167157540995643, 6.2562913196755465, 5.648114528813126]}, {"species": [{"element": "Mo", "occu": 1}], "abc": [0.37944043, 0.32204528, 0.91907285], "properties": {"magmom": -0.0}, "label": "Mo", "xyz": [1.7302169639265605, 2.1917511738046547, 6.855964456253134]}, {"species": [{"element": "Mo", "occu": 1}], "abc": [0.6205595700000001, 0.67795472, 0.08092715], "properties": {"magmom": -0.0}, "label": "Mo", "xyz": [3.0716857960734396, 4.615245416195346, 1.3103206437468669]}, {"species": [{"element": "Mo", "occu": 1}], "abc": [0.29851328, 0.08092715, 0.32204528], "properties": {"magmom": -0.0}, "label": "Mo", "xyz": [1.0851870059004363, 0.550705270324454, 2.5181705711868734]}, {"species": [{"element": "Mo", "occu": 1}], "abc": [0.0, -0.0, 0.0], "properties": {"magmom": 0.0}, "label": "Mo", "xyz": [0.0, 0.0, 0.0]}, {"species": [{"element": "As", "occu": 1}], "abc": [0.94255412, 0.77275579, 0.34213498000000003], "properties": {"magmom": 0.0}, "label": "As", "xyz": [4.254244477175955, 5.260441713211943, 3.4259479652016793]}, {"species": [{"element": "As", "occu": 1}], "abc": [0.28469009, 0.65786502, 0.77275579], "properties": {"magmom": 0.0}, "label": "As", "xyz": [1.964358381823539, 4.478006058073062, 5.888031891073302]}, {"species": [{"element": "As", "occu": 1}], "abc": [0.71530991, 0.34213498000000003, 0.22724421], "properties": {"magmom": 0.0}, "label": "As", "xyz": [2.837544378176461, 2.328990531926939, 2.2782532089266985]}, {"species": [{"element": "As", "occu": 1}], "abc": [0.05744588, 0.22724421, 0.65786502], "properties": {"magmom": 0.0}, "label": "As", "xyz": [0.5476582828240449, 1.5465548767880575, 4.740337134798321]}]}, "task_ids": null, "uncorrected_energy_per_atom": null, "energy_per_atom": -21.34089349222222, "formation_energy_per_atom": -0.31978003111110903, "energy_above_hull": 0.0, "is_stable": true, "equilibrium_reaction_energy_per_atom": null, "decomposes_to": null, "xas": null, "grain_boundaries": null, "band_gap": 0.0, "cbm": null, "vbm": null, "efermi": 7.36823767, "is_gap_direct": null, "is_metal": null, "es_source_calc_id": null, "bandstructure": null, "dos": null, "dos_energy_up": null, "dos_energy_down": null, "is_magnetic": null, "ordering": null, "total_magnetization": 0.0, "total_magnetization_normalized_vol": null, "total_magnetization_normalized_formula_units": null, "num_magnetic_sites": null, "num_unique_magnetic_sites": null, "types_of_magnetic_species": null, "bulk_modulus": null, "shear_modulus": null, "universal_anisotropy": null, "homogeneous_poisson": null, "e_total": null, "e_ionic": null, "e_electronic": null, "n": null, "e_ij_max": null, "weighted_surface_energy_EV_PER_ANG2": null, "weighted_surface_energy": null, "weighted_work_function": null, "surface_anisotropy": null, "shape_factor": null, "has_reconstructed": null, "possible_species": null, "has_props": null, "theoretical": null, "database_IDs": null, "fields_not_requested": ["builder_meta", "nsites", "elements", "nelements", "composition", "composition_reduced", "chemsys", "symmetry", "property_name", "deprecated", "deprecation_reasons", "last_updated", "origins", "warnings", "task_ids", "uncorrected_energy_per_atom", "equilibrium_reaction_energy_per_atom", "decomposes_to", "xas", "grain_boundaries", "cbm", "vbm", "is_gap_direct", "is_metal", "es_source_calc_id", "bandstructure", "dos", "dos_energy_up", "dos_energy_down", "is_magnetic", "ordering", "total_magnetization_normalized_vol", "total_magnetization_normalized_formula_units", "num_magnetic_sites", "num_unique_magnetic_sites", "types_of_magnetic_species", "bulk_modulus", "shear_modulus", "universal_anisotropy", "homogeneous_poisson", "e_total", "e_ionic", "e_electronic", "n", "e_ij_max", "weighted_surface_energy_EV_PER_ANG2", "weighted_surface_energy", "weighted_work_function", "surface_anisotropy", "shape_factor", "has_reconstructed", "possible_species", "has_props", "theoretical", "database_IDs"]}