{"builder_meta": null, "nsites": null, "elements": null, "nelements": null, "composition": null, "composition_reduced": null, "formula_pretty": "Mo7S8", "formula_anonymous": "A7B8", "chemsys": null, "volume": 541.7412502758426, "density": 5.689602949477235, "density_atomic": 18.05804167586142, "symmetry": null, "property_name": null, "material_id": "mp-673645", "deprecated": null, "deprecation_reasons": null, "last_updated": null, "origins": null, "warnings": null, "structure": {"@module": "pymatgen.core.structure", "@class": "Structure", "charge": 0, "lattice": {"matrix": [[6.442608, 0.0, 0.0], [-0.744575, 6.471351, 0.0], [-1.02575, -1.111198, 12.993772]], "pbc": [true, true, true], "a": 6.442608, "b": 6.514044495996784, "c": 13.081476783822536, "alpha": 94.32563522246393, "beta": 94.49731630695514, "gamma": 96.56342632268849, "volume": 541.7412502758426}, "properties": {}, "sites": [{"species": [{"element": "Mo", "occu": 1}], "abc": [0.177046999999999, 0.895100999999999, 0.010164999999999001], "properties": {"magmom": 1.505}, "label": "Mo", "xyz": [0.4637478427509954, 5.781217423780995, 0.13208169237998701]}, {"species": [{"element": "Mo", "occu": 1}], "abc": [0.209036, 0.41861000000000004, 0.272478], "properties": {"magmom": 0.002}, "label": "Mo", "xyz": [0.755556156638, 2.406195233466, 3.540517007016]}, {"species": [{"element": "Mo", "occu": 1}], "abc": [0.217984999999999, 0.381918, 0.771411], "properties": {"magmom": 0.055}, "label": "Mo", "xyz": [0.3287504767799936, 1.6143350708400002, 10.023538652291998]}, {"species": [{"element": "Mo", "occu": 1}], "abc": [0.403983999999999, 0.5638200000000001, 0.105944], "properties": {"magmom": -0.03}, "label": "Mo", "xyz": [2.0742322157719935, 3.530952359908001, 1.3766121807679998]}, {"species": [{"element": "Mo", "occu": 1}], "abc": [0.403003, 0.542358999999999, 0.607007], "properties": {"magmom": -0.014}, "label": "Mo", "xyz": [1.5699259691490008, 2.8352904926229936, 7.887310560403999]}, {"species": [{"element": "Mo", "occu": 1}], "abc": [0.44753000000000004, 0.798316999999999, 0.293052], "properties": {"magmom": 0.042}, "label": "Mo", "xyz": [1.988255388965001, 4.840550719970993, 3.807850872144]}, {"species": [{"element": "Mo", "occu": 1}], "abc": [0.476817999999999, 0.773921, 0.800740999999999], "properties": {"magmom": 0.04}, "label": "Mo", "xyz": [1.6743491520189946, 4.118532639553002, 10.404645985051987]}, {"species": [{"element": "Mo", "occu": 1}], "abc": [0.532712, 0.234940999999999, 0.203192999999999], "properties": {"magmom": 0.041}, "label": "Mo", "xyz": [3.0486981780710014, 1.2945980200769949, 2.640243513995987]}, {"species": [{"element": "Mo", "occu": 1}], "abc": [0.54001, 0.209536, 0.701592], "properties": {"magmom": 0.106}, "label": "Mo", "xyz": [2.60339948488, 0.57637337592, 9.116326485024]}, {"species": [{"element": "Mo", "occu": 1}], "abc": [0.587994, 0.469931999999999, 0.389829], "properties": {"magmom": -0.002}, "label": "Mo", "xyz": [3.0384481327020008, 2.6079177129899938, 5.065349144988]}, {"species": [{"element": "Mo", "occu": 1}], "abc": [0.602071999999999, 0.443955999999999, 0.890852], "properties": {"magmom": 0.091}, "label": "Mo", "xyz": [2.6345639060759947, 1.8830821438599936, 11.575527773744]}, {"species": [{"element": "Mo", "occu": 1}], "abc": [0.775216, 0.61077, 0.224727999999999], "properties": {"magmom": -0.0}, "label": "Mo", "xyz": [4.3091339845780015, 3.7027897461260015, 2.920064394015987]}, {"species": [{"element": "Mo", "occu": 1}], "abc": [0.786578, 0.581481999999999, 0.726939], "properties": {"magmom": 0.025}, "label": "Mo", "xyz": [3.8889990760240005, 2.955200959259994, 9.445679623908]}, {"species": [{"element": "Mo", "occu": 1}], "abc": [0.019236, 0.814933999999999, 0.545748], "properties": {"magmom": 1.577}, "label": "Mo", "xyz": [-1.0426504865619992, 4.667289869729994, 7.0913250814560005]}, {"species": [{"element": "S", "occu": 1}], "abc": [0.12881599999999901, 0.749678, 0.176353999999999], "properties": {"magmom": -0.014}, "label": "S", "xyz": [0.09082437977799479, 4.6554652628860005, 2.291503667287987]}, {"species": [{"element": "S", "occu": 1}], "abc": [0.150790999999999, 0.716604999999999, 0.702583], "properties": {"magmom": -0.012}, "label": "S", "xyz": [-0.28275337719700566, 3.856693658920994, 9.129203313076]}, {"species": [{"element": "S", "occu": 1}], "abc": [0.188516, 0.231827999999999, 0.102755], "properties": {"magmom": -0.004}, "label": "S", "xyz": [0.9365204153780006, 1.3860592091379935, 1.33517504186]}, {"species": [{"element": "S", "occu": 1}], "abc": [0.193488, 0.17197, 0.602578], "properties": {"magmom": -0.004}, "label": "S", "xyz": [0.5004283904540001, 0.44329476302600024, 7.829761144216]}, {"species": [{"element": "S", "occu": 1}], "abc": [0.257467, 0.64875, 0.43335], "properties": {"magmom": -0.01}, "label": "S", "xyz": [0.731207160186, 3.71675130795, 5.6308510962]}, {"species": [{"element": "S", "occu": 1}], "abc": [0.27623000000000003, 0.595629, 0.926469], "properties": {"magmom": -0.01}, "label": "S", "xyz": [0.38582556841500015, 2.825033824917, 12.038326951067999]}, {"species": [{"element": "S", "occu": 1}], "abc": [0.356670999999999, 0.147677, 0.360516], "properties": {"magmom": 0.001}, "label": "S", "xyz": [1.8181355486929938, 0.5550650434590001, 4.684462706352]}, {"species": [{"element": "S", "occu": 1}], "abc": [0.367581, 0.11719399999999901, 0.871251999999999], "properties": {"magmom": -0.002}, "label": "S", "xyz": [1.3872338296980018, -0.20972997080200528, 11.320849842543987]}, {"species": [{"element": "S", "occu": 1}], "abc": [0.6331869999999991, 0.889126, 0.13766], "properties": {"magmom": 0.008}, "label": "S", "xyz": [3.276149895245994, 5.6008789125459995, 1.78872265352]}, {"species": [{"element": "S", "occu": 1}], "abc": [0.639861999999999, 0.861938, 0.634486], "properties": {"magmom": -0.005}, "label": "S", "xyz": [2.8297785392459938, 4.872863764010001, 8.244366421192]}, {"species": [{"element": "S", "occu": 1}], "abc": [0.71626, 0.384583, 0.06764099999999901], "properties": {"magmom": -0.003}, "label": "S", "xyz": [4.258848763105002, 2.4136090377150015, 0.8789117318519871]}, {"species": [{"element": "S", "occu": 1}], "abc": [0.708714, 0.373044999999999, 0.564910999999999], "properties": {"magmom": 0.007}, "label": "S", "xyz": [3.7087490469870015, 1.7863771604169951, 7.340324734291988]}, {"species": [{"element": "S", "occu": 1}], "abc": [0.793316999999999, 0.817952999999999, 0.388692], "properties": {"magmom": -0.001}, "label": "S", "xyz": [4.103302276760995, 4.861347191486994, 5.050575226224]}, {"species": [{"element": "S", "occu": 1}], "abc": [0.831562999999999, 0.778857999999999, 0.901045], "properties": {"magmom": -0.006}, "label": "S", "xyz": [3.853269332203994, 4.039024095247994, 11.70797329174]}, {"species": [{"element": "S", "occu": 1}], "abc": [0.852511999999999, 0.299623, 0.313353999999999], "properties": {"magmom": -0.004}, "label": "S", "xyz": [4.947885970570995, 1.590767262581001, 4.0716504312879875]}, {"species": [{"element": "S", "occu": 1}], "abc": [0.861204, 0.264244, 0.810823], "properties": {"magmom": -0.0}, "label": "S", "xyz": [4.519948611482, 0.8090307776900001, 10.535649194356]}]}, "task_ids": null, "uncorrected_energy_per_atom": null, "energy_per_atom": -17.101236488999998, "formation_energy_per_atom": -0.648979906499999, "energy_above_hull": 0.12342114033333401, "is_stable": false, "equilibrium_reaction_energy_per_atom": null, "decomposes_to": null, "xas": null, "grain_boundaries": null, "band_gap": 0.0, "cbm": null, "vbm": null, "efermi": 6.5174237, "is_gap_direct": null, "is_metal": null, "es_source_calc_id": null, "bandstructure": null, "dos": null, "dos_energy_up": null, "dos_energy_down": null, "is_magnetic": null, "ordering": null, "total_magnetization": 3.999754, "total_magnetization_normalized_vol": null, "total_magnetization_normalized_formula_units": null, "num_magnetic_sites": null, "num_unique_magnetic_sites": null, "types_of_magnetic_species": null, "bulk_modulus": null, "shear_modulus": null, "universal_anisotropy": null, "homogeneous_poisson": null, "e_total": null, "e_ionic": null, "e_electronic": null, "n": null, "e_ij_max": null, "weighted_surface_energy_EV_PER_ANG2": null, "weighted_surface_energy": null, "weighted_work_function": null, "surface_anisotropy": null, "shape_factor": null, "has_reconstructed": null, "possible_species": null, "has_props": null, "theoretical": null, "database_IDs": null, "fields_not_requested": ["builder_meta", "nsites", "elements", "nelements", "composition", "composition_reduced", "chemsys", "symmetry", "property_name", "deprecated", "deprecation_reasons", "last_updated", "origins", "warnings", "task_ids", "uncorrected_energy_per_atom", "equilibrium_reaction_energy_per_atom", "decomposes_to", "xas", "grain_boundaries", "cbm", "vbm", "is_gap_direct", "is_metal", "es_source_calc_id", "bandstructure", "dos", "dos_energy_up", "dos_energy_down", "is_magnetic", "ordering", "total_magnetization_normalized_vol", "total_magnetization_normalized_formula_units", "num_magnetic_sites", "num_unique_magnetic_sites", "types_of_magnetic_species", "bulk_modulus", "shear_modulus", "universal_anisotropy", "homogeneous_poisson", "e_total", "e_ionic", "e_electronic", "n", "e_ij_max", "weighted_surface_energy_EV_PER_ANG2", "weighted_surface_energy", "weighted_work_function", "surface_anisotropy", "shape_factor", "has_reconstructed", "possible_species", "has_props", "theoretical", "database_IDs"]}