{
  "builder_meta": null,
  "nsites": null,
  "elements": null,
  "nelements": null,
  "composition": null,
  "composition_reduced": null,
  "formula_pretty": "Mo8P5",
  "formula_anonymous": "A5B8",
  "chemsys": null,
  "volume": 185.87881635864682,
  "density": 8.240114089409705,
  "density_atomic": 14.298370489126679,
  "symmetry": null,
  "property_name": null,
  "material_id": "mp-27413",
  "deprecated": null,
  "deprecation_reasons": null,
  "last_updated": null,
  "origins": null,
  "warnings": null,
  "structure": {
    "@module": "pymatgen.core.structure",
    "@class": "Structure",
    "charge": 0,
    "lattice": {
      "matrix": [
        [3.20104694, 0.0, 0.0],
        [0.0, 6.16870579, -2.1917396],
        [0.0, 0.00655485, 9.411012209999999]
      ],
      "pbc": [true, true, true],
      "a": 3.20104694,
      "b": 6.546499339172629,
      "c": 9.411014492754093,
      "alpha": 109.52020593342505,
      "beta": 90.0,
      "gamma": 90.0,
      "volume": 185.87881635864676
    },
    "properties": {},
    "sites": [
      {
        "species": [{ "element": "Mo", "occu": 1 }],
        "abc": [0.0, 0.00456597, 0.00340047],
        "properties": { "magmom": 0.0 },
        "label": "Mo",
        "xyz": [0.0, 0.028188415146745797, 0.021994447428326694]
      },
      {
        "species": [{ "element": "Mo", "occu": 1 }],
        "abc": [0.0, 0.23564341, 0.78020544],
        "properties": { "magmom": 0.0 },
        "label": "Mo",
        "xyz": [0.0, 1.458728997270728, 6.826053928972386]
      },
      {
        "species": [{ "element": "Mo", "occu": 1 }],
        "abc": [0.0, 0.78938942, 0.24856292],
        "properties": { "magmom": -0.0 },
        "label": "Mo",
        "xyz": [0.0, 4.871140378374903, 0.6090926234382208]
      },
      {
        "species": [{ "element": "Mo", "occu": 1 }],
        "abc": [0.0, 0.35889761000000003, 0.30779902],
        "properties": { "magmom": 0.0 },
        "label": "Mo",
        "xyz": [0.0, 2.2159513412304093, 2.1100902312636776]
      },
      {
        "species": [{ "element": "Mo", "occu": 1 }],
        "abc": [0.0, 0.79822539, 0.5705120300000001],
        "properties": { "magmom": -0.0 },
        "label": "Mo",
        "xyz": [0.0, 4.927757205797854, 3.6195934832934427]
      },
      {
        "species": [{ "element": "Mo", "occu": 1 }],
        "abc": [0.5, 0.39822022, 0.05112136],
        "properties": { "magmom": -0.0 },
        "label": "Mo",
        "xyz": [1.60052347, 2.4568384696556698, -0.39169128254290647]
      },
      {
        "species": [{ "element": "Mo", "occu": 1 }],
        "abc": [0.5, 0.6091804, 0.78098665],
        "properties": { "magmom": -0.0 },
        "label": "Mo",
        "xyz": [1.60052347, 3.762973910977268, 6.014710092773155]
      },
      {
        "species": [{ "element": "Mo", "occu": 1 }],
        "abc": [0.5, 0.13007917, 0.49825289],
        "properties": { "magmom": -0.0 },
        "label": "Mo",
        "xyz": [1.60052347, 0.8056861020934107, 4.403964363433655]
      },
      {
        "species": [{ "element": "P", "occu": 1 }],
        "abc": [0.0, 0.42406999, 0.57467084],
        "properties": { "magmom": 0.0 },
        "label": "P",
        "xyz": [0.0, 2.619729883833816, 4.478783301716352]
      },
      {
        "species": [{ "element": "P", "occu": 1 }],
        "abc": [0.0, 0.6245556, 0.98168166],
        "properties": { "magmom": -0.0 },
        "label": "P",
        "xyz": [0.0, 3.8591345219259745, 7.869754847671308]
      },
      {
        "species": [{ "element": "P", "occu": 1 }],
        "abc": [0.5, 0.06317402, 0.20873509],
        "properties": { "magmom": 0.0 },
        "label": "P",
        "xyz": [1.60052347, 0.3910701701562623, 1.825947479320257]
      },
      {
        "species": [{ "element": "P", "occu": 1 }],
        "abc": [0.5, 0.6530463, 0.37575627],
        "properties": { "magmom": -0.0 },
        "label": "P",
        "xyz": [1.60052347, 4.0309135179344855, 2.1049394086105764]
      },
      {
        "species": [{ "element": "P", "occu": 1 }],
        "abc": [0.5, 0.97825351, 0.78861535],
        "properties": { "magmom": -0.0 },
        "label": "P",
        "xyz": [1.60052347, 6.0397273465517705, 5.277591731137427]
      }
    ]
  },
  "task_ids": null,
  "uncorrected_energy_per_atom": null,
  "energy_per_atom": -20.010872099999997,
  "formation_energy_per_atom": -0.5042400169139181,
  "energy_above_hull": 0.031418928846154,
  "is_stable": false,
  "equilibrium_reaction_energy_per_atom": null,
  "decomposes_to": null,
  "xas": null,
  "grain_boundaries": null,
  "band_gap": 0.0,
  "cbm": null,
  "vbm": null,
  "efermi": 9.56383835,
  "is_gap_direct": null,
  "is_metal": null,
  "es_source_calc_id": null,
  "bandstructure": null,
  "dos": null,
  "dos_energy_up": null,
  "dos_energy_down": null,
  "is_magnetic": null,
  "ordering": null,
  "total_magnetization": 0.0,
  "total_magnetization_normalized_vol": null,
  "total_magnetization_normalized_formula_units": null,
  "num_magnetic_sites": null,
  "num_unique_magnetic_sites": null,
  "types_of_magnetic_species": null,
  "bulk_modulus": null,
  "shear_modulus": null,
  "universal_anisotropy": null,
  "homogeneous_poisson": null,
  "e_total": null,
  "e_ionic": null,
  "e_electronic": null,
  "n": null,
  "e_ij_max": null,
  "weighted_surface_energy_EV_PER_ANG2": null,
  "weighted_surface_energy": null,
  "weighted_work_function": null,
  "surface_anisotropy": null,
  "shape_factor": null,
  "has_reconstructed": null,
  "possible_species": null,
  "has_props": null,
  "theoretical": null,
  "database_IDs": null,
  "fields_not_requested": [
    "builder_meta",
    "nsites",
    "elements",
    "nelements",
    "composition",
    "composition_reduced",
    "chemsys",
    "symmetry",
    "property_name",
    "deprecated",
    "deprecation_reasons",
    "last_updated",
    "origins",
    "warnings",
    "task_ids",
    "uncorrected_energy_per_atom",
    "equilibrium_reaction_energy_per_atom",
    "decomposes_to",
    "xas",
    "grain_boundaries",
    "cbm",
    "vbm",
    "is_gap_direct",
    "is_metal",
    "es_source_calc_id",
    "bandstructure",
    "dos",
    "dos_energy_up",
    "dos_energy_down",
    "is_magnetic",
    "ordering",
    "total_magnetization_normalized_vol",
    "total_magnetization_normalized_formula_units",
    "num_magnetic_sites",
    "num_unique_magnetic_sites",
    "types_of_magnetic_species",
    "bulk_modulus",
    "shear_modulus",
    "universal_anisotropy",
    "homogeneous_poisson",
    "e_total",
    "e_ionic",
    "e_electronic",
    "n",
    "e_ij_max",
    "weighted_surface_energy_EV_PER_ANG2",
    "weighted_surface_energy",
    "weighted_work_function",
    "surface_anisotropy",
    "shape_factor",
    "has_reconstructed",
    "possible_species",
    "has_props",
    "theoretical",
    "database_IDs"
  ]
}
