{"builder_meta": null, "nsites": null, "elements": null, "nelements": null, "composition": null, "composition_reduced": null, "formula_pretty": "MoAs2", "formula_anonymous": "AB2", "chemsys": null, "volume": 101.81974724883656, "density": 8.016767209538022, "density_atomic": 16.969957874806095, "symmetry": null, "property_name": null, "material_id": "mp-1337", "deprecated": null, "deprecation_reasons": null, "last_updated": null, "origins": null, "warnings": null, "structure": {"@module": "pymatgen.core.structure", "@class": "Structure", "charge": 0, "lattice": {"matrix": [[3.23000057, 0.0, 0.78740906], [1.49700286, 4.50752551, 0.8777395], [0.00605278, -0.01066239, 6.9937084800000004]], "pbc": [true, true, true], "a": 3.3245927133966964, "b": 4.830034204434704, "c": 6.99371922698718, "alpha": 79.59700803370961, "beta": 76.25009760709585, "gamma": 69.86956957791162, "volume": 101.81974724883658}, "properties": {}, "sites": [{"species": [{"element": "Mo", "occu": 1}], "abc": [0.8259642700000001, 0.60573426, 0.70232676], "properties": {"magmom": -0.0}, "label": "Mo", "xyz": [3.5789020118860106, 2.7228741474084157, 6.0939172530824814]}, {"species": [{"element": "Mo", "occu": 1}], "abc": [0.13402529, 0.39426574000000003, 0.29767324], "properties": {"magmom": -0.0}, "label": "Mo", "xyz": [1.024920454108039, 1.7739889725915838, 2.533435203966933]}, {"species": [{"element": "As", "occu": 1}], "abc": [0.1258087, 0.74030839, 0.968326399999999], "properties": {"magmom": 0.0}, "label": "As", "xyz": [1.5204670164903464, 3.326634279467933, 7.521053381379093]}, {"species": [{"element": "As", "occu": 1}], "abc": [0.83444249, 0.25969161, 0.031673599999999004], "properties": {"magmom": 0.0}, "label": "As", "xyz": [3.0842005145528324, 1.170228840532067, 1.1065050855026755]}, {"species": [{"element": "As", "occu": 1}], "abc": [0.38277549, 0.79937027, 0.39483899], "properties": {"magmom": 0.0}, "label": "As", "xyz": [2.435414504812894, 3.5989719566620013, 3.7644285424742394]}, {"species": [{"element": "As", "occu": 1}], "abc": [0.57698376, 0.20062973, 0.60516101], "properties": {"magmom": 0.0}, "label": "As", "xyz": [2.167664059749879, 0.8978911633379985, 4.862742566394566]}]}, "task_ids": null, "uncorrected_energy_per_atom": null, "energy_per_atom": -18.767507911666666, "formation_energy_per_atom": -0.27182744000000003, "energy_above_hull": 0.0, "is_stable": true, "equilibrium_reaction_energy_per_atom": null, "decomposes_to": null, "xas": null, "grain_boundaries": null, "band_gap": 0.0, "cbm": null, "vbm": null, "efermi": 7.76821141, "is_gap_direct": null, "is_metal": null, "es_source_calc_id": null, "bandstructure": null, "dos": null, "dos_energy_up": null, "dos_energy_down": null, "is_magnetic": null, "ordering": null, "total_magnetization": 0.0, "total_magnetization_normalized_vol": null, "total_magnetization_normalized_formula_units": null, "num_magnetic_sites": null, "num_unique_magnetic_sites": null, "types_of_magnetic_species": null, "bulk_modulus": null, "shear_modulus": null, "universal_anisotropy": null, "homogeneous_poisson": null, "e_total": null, "e_ionic": null, "e_electronic": null, "n": null, "e_ij_max": null, "weighted_surface_energy_EV_PER_ANG2": null, "weighted_surface_energy": null, "weighted_work_function": null, "surface_anisotropy": null, "shape_factor": null, "has_reconstructed": null, "possible_species": null, "has_props": null, "theoretical": null, "database_IDs": null, "fields_not_requested": ["builder_meta", "nsites", "elements", "nelements", "composition", "composition_reduced", "chemsys", "symmetry", "property_name", "deprecated", "deprecation_reasons", "last_updated", "origins", "warnings", "task_ids", "uncorrected_energy_per_atom", "equilibrium_reaction_energy_per_atom", "decomposes_to", "xas", "grain_boundaries", "cbm", "vbm", "is_gap_direct", "is_metal", "es_source_calc_id", "bandstructure", "dos", "dos_energy_up", "dos_energy_down", "is_magnetic", "ordering", "total_magnetization_normalized_vol", "total_magnetization_normalized_formula_units", "num_magnetic_sites", "num_unique_magnetic_sites", "types_of_magnetic_species", "bulk_modulus", "shear_modulus", "universal_anisotropy", "homogeneous_poisson", "e_total", "e_ionic", "e_electronic", "n", "e_ij_max", "weighted_surface_energy_EV_PER_ANG2", "weighted_surface_energy", "weighted_work_function", "surface_anisotropy", "shape_factor", "has_reconstructed", "possible_species", "has_props", "theoretical", "database_IDs"]}