{
  "builder_meta": null,
  "nsites": null,
  "elements": null,
  "nelements": null,
  "composition": null,
  "composition_reduced": null,
  "formula_pretty": "MoBr2",
  "formula_anonymous": "AB2",
  "chemsys": null,
  "volume": 1099.4413278969641,
  "density": 4.635221919668818,
  "density_atomic": 30.540036886026783,
  "symmetry": null,
  "property_name": null,
  "material_id": "mp-29555",
  "deprecated": null,
  "deprecation_reasons": null,
  "last_updated": null,
  "origins": null,
  "warnings": null,
  "structure": {
    "@module": "pymatgen.core.structure",
    "@class": "Structure",
    "charge": 0,
    "lattice": {
      "matrix": [
        [9.73723626, -0.11864971, 0.0],
        [-2.28656046, 9.46570071, 0.0],
        [0.0, 0.0, 11.96365287]
      ],
      "pbc": [true, true, true],
      "a": 9.737959115581758,
      "b": 9.737959163424845,
      "c": 11.96365287,
      "alpha": 90.0,
      "beta": 90.0,
      "gamma": 104.27848755793578,
      "volume": 1099.4413278969641
    },
    "properties": {},
    "sites": [
      {
        "species": [{ "element": "Mo", "occu": 1 }],
        "abc": [0.06812573, 0.06812573, 0.86082661],
        "properties": { "magmom": -0.0 },
        "label": "Mo",
        "xyz": [0.5075827278683339, 0.63677467272223, 10.298630743298872]
      },
      {
        "species": [{ "element": "Mo", "occu": 1 }],
        "abc": [0.43187427, 0.43187427, 0.36082661],
        "properties": { "magmom": -0.0 },
        "label": "Mo",
        "xyz": [3.2177551721316653, 4.03675082727777, 4.316804308298871]
      },
      {
        "species": [{ "element": "Mo", "occu": 1 }],
        "abc": [0.56812573, 0.56812573, 0.6391733900000001],
        "properties": { "magmom": -0.0 },
        "label": "Mo",
        "xyz": [4.232920627868334, 5.31030017272223, 7.64684856170113]
      },
      {
        "species": [{ "element": "Mo", "occu": 1 }],
        "abc": [0.93187427, 0.93187427, 0.13917339],
        "properties": { "magmom": -0.0 },
        "label": "Mo",
        "xyz": [6.943093072131665, 8.71027632727777, 1.6650221267011296]
      },
      {
        "species": [{ "element": "Mo", "occu": 1 }],
        "abc": [0.8607104600000001, 0.8607104600000001, 0.9320642100000001],
        "properties": { "magmom": -0.0 },
        "label": "Mo",
        "xyz": [6.4128745951288675, 8.04510456585346, 11.150892660990785]
      },
      {
        "species": [{ "element": "Mo", "occu": 1 }],
        "abc": [0.63928954, 0.63928954, 0.43206421],
        "properties": { "magmom": -0.0 },
        "label": "Mo",
        "xyz": [4.763139104871132, 5.975471934146541, 5.169066225990783]
      },
      {
        "species": [{ "element": "Mo", "occu": 1 }],
        "abc": [0.36071046, 0.36071046, 0.56793579],
        "properties": { "magmom": -0.0 },
        "label": "Mo",
        "xyz": [2.687536695128868, 3.37157906585346, 6.794586644009218]
      },
      {
        "species": [{ "element": "Mo", "occu": 1 }],
        "abc": [0.13928954, 0.13928954, 0.06793579],
        "properties": { "magmom": -0.0 },
        "label": "Mo",
        "xyz": [1.037801204871132, 1.3019464341465399, 0.8127602090092173]
      },
      {
        "species": [{ "element": "Mo", "occu": 1 }],
        "abc": [0.62091275, 0.37908725, 0.5],
        "properties": { "magmom": 0.0 },
        "label": "Mo",
        "xyz": [5.17916822685618, 3.5146553337541446, 5.981826435]
      },
      {
        "species": [{ "element": "Mo", "occu": 1 }],
        "abc": [0.87908725, 0.12091275, 0.0],
        "properties": { "magmom": 0.0 },
        "label": "Mo",
        "xyz": [8.28340593314382, 1.040220456245855, 0.0]
      },
      {
        "species": [{ "element": "Mo", "occu": 1 }],
        "abc": [0.37908725, 0.62091275, 0.5],
        "properties": { "magmom": 0.0 },
        "label": "Mo",
        "xyz": [2.2715075731438192, 5.832395666245855, 5.981826435]
      },
      {
        "species": [{ "element": "Mo", "occu": 1 }],
        "abc": [0.12091275, 0.87908725, 0.0],
        "properties": { "magmom": 0.0 },
        "label": "Mo",
        "xyz": [-0.8327301331438199, 8.306830543754144, 0.0]
      },
      {
        "species": [{ "element": "Br", "occu": 1 }],
        "abc": [0.6530603700000001, 0.6530603700000001, 0.84702592],
        "properties": { "magmom": 0.0 },
        "label": "Br",
        "xyz": [4.865741094698046, 6.10418858446887, 10.13352407877239]
      },
      {
        "species": [{ "element": "Br", "occu": 1 }],
        "abc": [0.84693963, 0.84693963, 0.34702592],
        "properties": { "magmom": 0.0 },
        "label": "Br",
        "xyz": [6.310272605301954, 7.916387915531131, 4.1516976437723905]
      },
      {
        "species": [{ "element": "Br", "occu": 1 }],
        "abc": [0.15306037, 0.15306037, 0.65297408],
        "properties": { "magmom": 0.0 },
        "label": "Br",
        "xyz": [1.140403194698046, 1.4306630844688701, 7.81195522622761]
      },
      {
        "species": [{ "element": "Br", "occu": 1 }],
        "abc": [0.34693963, 0.34693963, 0.15297408],
        "properties": { "magmom": 0.0 },
        "label": "Br",
        "xyz": [2.584934705301954, 3.24286241553113, 1.8301287912276099]
      },
      {
        "species": [{ "element": "Br", "occu": 1 }],
        "abc": [0.7874895, 0.2125105, 0.5],
        "properties": { "magmom": 0.0 },
        "label": "Br",
        "xyz": [7.182053207134439, 1.91812538992941, 5.981826435]
      },
      {
        "species": [{ "element": "Br", "occu": 1 }],
        "abc": [0.712510499999999, 0.2874895, 0.0],
        "properties": { "magmom": 0.0 },
        "label": "Br",
        "xyz": [6.280520952865551, 2.63675040007059, 0.0]
      },
      {
        "species": [{ "element": "Br", "occu": 1 }],
        "abc": [0.2125105, 0.7874895, 0.5],
        "properties": { "magmom": 0.0 },
        "label": "Br",
        "xyz": [0.2686225928655599, 7.428925610070589, 5.981826435]
      },
      {
        "species": [{ "element": "Br", "occu": 1 }],
        "abc": [0.2874895, 0.712510499999999, 0.0],
        "properties": { "magmom": 0.0 },
        "label": "Br",
        "xyz": [1.170154847134442, 6.710300599929401, 0.0]
      },
      {
        "species": [{ "element": "Br", "occu": 1 }],
        "abc": [0.08758273, 0.32770933, 0.928308799999999],
        "properties": { "magmom": 0.0 },
        "label": "Br",
        "xyz": [0.10348653795469787, 3.0916067721391163, 11.105964239366244]
      },
      {
        "species": [{ "element": "Br", "occu": 1 }],
        "abc": [0.41241727, 0.17229067, 0.4283088],
        "properties": { "magmom": 0.0 },
        "label": "Br",
        "xyz": [3.6218513620453017, 1.581918727860884, 5.124137804366256]
      },
      {
        "species": [{ "element": "Br", "occu": 1 }],
        "abc": [0.82770933, 0.58758273, 0.5716912],
        "properties": { "magmom": 0.0 },
        "label": "Br",
        "xyz": [6.71605786341945, 5.463674792575945, 6.839515065633744]
      },
      {
        "species": [{ "element": "Br", "occu": 1 }],
        "abc": [0.67229067, 0.9124172700000001, 0.0716912],
        "properties": { "magmom": 0.0 },
        "label": "Br",
        "xyz": [4.45995583658055, 8.556901707424057, 0.857688630633744]
      },
      {
        "species": [{ "element": "Br", "occu": 1 }],
        "abc": [0.19158639, 0.95182658, 0.20748357],
        "properties": { "magmom": -0.0 },
        "label": "Br",
        "xyz": [-0.3108870789745255, 8.986973864489425, 2.482261407708346]
      },
      {
        "species": [{ "element": "Br", "occu": 1 }],
        "abc": [0.30841261000000003, 0.54817342, 0.7074835700000001],
        "properties": { "magmom": -0.0 },
        "label": "Br",
        "xyz": [1.7496547817382655, 5.152252464160285, 8.464087842708347]
      },
      {
        "species": [{ "element": "Br", "occu": 1 }],
        "abc": [0.45182658000000003, 0.69158739, 0.29251643],
        "properties": { "magmom": -0.0 },
        "label": "Br",
        "xyz": [2.818185777399192, 6.492750155862756, 3.4995650272916543]
      },
      {
        "species": [{ "element": "Br", "occu": 1 }],
        "abc": [0.04817342, 0.80841261, 0.79251643],
        "properties": { "magmom": -0.0 },
        "label": "Br",
        "xyz": [-1.3794083373991914, 7.646476054137245, 9.481391462291656]
      },
      {
        "species": [{ "element": "Br", "occu": 1 }],
        "abc": [0.80841261, 0.04817342, 0.79251643],
        "properties": { "magmom": -0.0 },
        "label": "Br",
        "xyz": [7.761553141738265, 0.36007725416028513, 9.481391462291656]
      },
      {
        "species": [{ "element": "Br", "occu": 1 }],
        "abc": [0.69158739, 0.45182658000000003, 0.29251643],
        "properties": { "magmom": -0.0 },
        "label": "Br",
        "xyz": [5.701021018261734, 4.194798535839715, 3.4995650272916543]
      },
      {
        "species": [{ "element": "Br", "occu": 1 }],
        "abc": [0.54817342, 0.30841261000000003, 0.7074835700000001],
        "properties": { "magmom": -0.0 },
        "label": "Br",
        "xyz": [4.632490022600809, 2.8543008441372453, 8.464087842708347]
      },
      {
        "species": [{ "element": "Br", "occu": 1 }],
        "abc": [0.95182658, 0.19158639, 0.20748357],
        "properties": { "magmom": -0.0 },
        "label": "Br",
        "xyz": [8.830086423959651, 1.7005654801620451, 2.482261407708346]
      },
      {
        "species": [{ "element": "Br", "occu": 1 }],
        "abc": [0.32770933, 0.08758273, 0.928308799999999],
        "properties": { "magmom": 0.0 },
        "label": "Br",
        "xyz": [2.99071996341945, 0.7901492925759439, 11.105964239366244]
      },
      {
        "species": [{ "element": "Br", "occu": 1 }],
        "abc": [0.17229067, 0.41241727, 0.4283088],
        "properties": { "magmom": 0.0 },
        "label": "Br",
        "xyz": [0.7346179365805499, 3.8833762074240563, 5.124137804366256]
      },
      {
        "species": [{ "element": "Br", "occu": 1 }],
        "abc": [0.58758273, 0.82770933, 0.5716912],
        "properties": { "magmom": 0.0 },
        "label": "Br",
        "xyz": [3.8288244379546983, 7.765132272139116, 6.839515065633744]
      },
      {
        "species": [{ "element": "Br", "occu": 1 }],
        "abc": [0.9124172700000001, 0.67229067, 0.0716912],
        "properties": { "magmom": 0.0 },
        "label": "Br",
        "xyz": [7.347189262045303, 6.255444227860884, 0.857688630633744]
      }
    ]
  },
  "task_ids": null,
  "uncorrected_energy_per_atom": null,
  "energy_per_atom": -5.752632879999999,
  "formation_energy_per_atom": -1.046118486666666,
  "energy_above_hull": 0.0,
  "is_stable": true,
  "equilibrium_reaction_energy_per_atom": null,
  "decomposes_to": null,
  "xas": null,
  "grain_boundaries": null,
  "band_gap": 2.1004,
  "cbm": null,
  "vbm": null,
  "efermi": 0.73376197,
  "is_gap_direct": null,
  "is_metal": null,
  "es_source_calc_id": null,
  "bandstructure": null,
  "dos": null,
  "dos_energy_up": null,
  "dos_energy_down": null,
  "is_magnetic": null,
  "ordering": null,
  "total_magnetization": 0.0,
  "total_magnetization_normalized_vol": null,
  "total_magnetization_normalized_formula_units": null,
  "num_magnetic_sites": null,
  "num_unique_magnetic_sites": null,
  "types_of_magnetic_species": null,
  "bulk_modulus": null,
  "shear_modulus": null,
  "universal_anisotropy": null,
  "homogeneous_poisson": null,
  "e_total": null,
  "e_ionic": null,
  "e_electronic": null,
  "n": null,
  "e_ij_max": null,
  "weighted_surface_energy_EV_PER_ANG2": null,
  "weighted_surface_energy": null,
  "weighted_work_function": null,
  "surface_anisotropy": null,
  "shape_factor": null,
  "has_reconstructed": null,
  "possible_species": null,
  "has_props": null,
  "theoretical": null,
  "database_IDs": null,
  "fields_not_requested": [
    "builder_meta",
    "nsites",
    "elements",
    "nelements",
    "composition",
    "composition_reduced",
    "chemsys",
    "symmetry",
    "property_name",
    "deprecated",
    "deprecation_reasons",
    "last_updated",
    "origins",
    "warnings",
    "task_ids",
    "uncorrected_energy_per_atom",
    "equilibrium_reaction_energy_per_atom",
    "decomposes_to",
    "xas",
    "grain_boundaries",
    "cbm",
    "vbm",
    "is_gap_direct",
    "is_metal",
    "es_source_calc_id",
    "bandstructure",
    "dos",
    "dos_energy_up",
    "dos_energy_down",
    "is_magnetic",
    "ordering",
    "total_magnetization_normalized_vol",
    "total_magnetization_normalized_formula_units",
    "num_magnetic_sites",
    "num_unique_magnetic_sites",
    "types_of_magnetic_species",
    "bulk_modulus",
    "shear_modulus",
    "universal_anisotropy",
    "homogeneous_poisson",
    "e_total",
    "e_ionic",
    "e_electronic",
    "n",
    "e_ij_max",
    "weighted_surface_energy_EV_PER_ANG2",
    "weighted_surface_energy",
    "weighted_work_function",
    "surface_anisotropy",
    "shape_factor",
    "has_reconstructed",
    "possible_species",
    "has_props",
    "theoretical",
    "database_IDs"
  ]
}
