{
  "builder_meta": null,
  "nsites": null,
  "elements": null,
  "nelements": null,
  "composition": null,
  "composition_reduced": null,
  "formula_pretty": "MoBr3",
  "formula_anonymous": "AB3",
  "chemsys": null,
  "volume": 493.9032200463651,
  "density": 4.5139471553159805,
  "density_atomic": 30.86895125289782,
  "symmetry": null,
  "property_name": null,
  "material_id": "mp-23312",
  "deprecated": null,
  "deprecation_reasons": null,
  "last_updated": null,
  "origins": null,
  "warnings": null,
  "structure": {
    "@module": "pymatgen.core.structure",
    "@class": "Structure",
    "charge": 0,
    "lattice": {
      "matrix": [
        [6.08320666, 0.0, 0.0],
        [0.0, 6.84598127, 0.0],
        [0.0, 0.0, 11.85969664]
      ],
      "pbc": [true, true, true],
      "a": 6.08320666,
      "b": 6.84598127,
      "c": 11.85969664,
      "alpha": 90.0,
      "beta": 90.0,
      "gamma": 90.0,
      "volume": 493.9032200463651
    },
    "properties": {},
    "sites": [
      {
        "species": [{ "element": "Mo", "occu": 1 }],
        "abc": [0.7274424700000001, 0.25434392, 0.5],
        "properties": { "magmom": 1.738 },
        "label": "Mo",
        "xyz": [4.42518287827085, 1.7412337124583785, 5.92984832]
      },
      {
        "species": [{ "element": "Mo", "occu": 1 }],
        "abc": [0.22744247, 0.74565608, -0.0],
        "properties": { "magmom": 1.738 },
        "label": "Mo",
        "xyz": [1.3835795482708502, 5.104747557541622, 0.0]
      },
      {
        "species": [{ "element": "Mo", "occu": 1 }],
        "abc": [0.27255753, 0.25434392, 0.5],
        "properties": { "magmom": 1.738 },
        "label": "Mo",
        "xyz": [1.6580237817291499, 1.7412337124583785, 5.92984832]
      },
      {
        "species": [{ "element": "Mo", "occu": 1 }],
        "abc": [0.77255753, 0.74565608, -0.0],
        "properties": { "magmom": 1.738 },
        "label": "Mo",
        "xyz": [4.69962711172915, 5.104747557541622, 0.0]
      },
      {
        "species": [{ "element": "Br", "occu": 1 }],
        "abc": [0.5, 0.09694787, 0.65704795],
        "properties": { "magmom": 0.037 },
        "label": "Br",
        "xyz": [3.04160333, 0.663703302186395, 7.7923893649338885]
      },
      {
        "species": [{ "element": "Br", "occu": 1 }],
        "abc": [-0.0, 0.9030521300000001, 0.8429520500000001],
        "properties": { "magmom": 0.037 },
        "label": "Br",
        "xyz": [0.0, 6.182277967813606, 9.997155595066111]
      },
      {
        "species": [{ "element": "Br", "occu": 1 }],
        "abc": [0.5, 0.09694787, 0.34295205],
        "properties": { "magmom": 0.037 },
        "label": "Br",
        "xyz": [3.04160333, 0.663703302186395, 4.067307275066112]
      },
      {
        "species": [{ "element": "Br", "occu": 1 }],
        "abc": [-0.0, 0.9030521300000001, 0.15704795],
        "properties": { "magmom": 0.037 },
        "label": "Br",
        "xyz": [0.0, 6.182277967813606, 1.8625410449338877]
      },
      {
        "species": [{ "element": "Br", "occu": 1 }],
        "abc": [-0.0, 0.43146755000000003, -0.0],
        "properties": { "magmom": 0.037 },
        "label": "Br",
        "xyz": [0.0, 2.953818765912789, 0.0]
      },
      {
        "species": [{ "element": "Br", "occu": 1 }],
        "abc": [0.5, 0.56853245, 0.5],
        "properties": { "magmom": 0.037 },
        "label": "Br",
        "xyz": [3.04160333, 3.8921625040872114, 5.92984832]
      },
      {
        "species": [{ "element": "Br", "occu": 1 }],
        "abc": [0.5, 0.043050780000000004, -0.0],
        "properties": { "magmom": 0.006 },
        "label": "Br",
        "xyz": [3.04160333, 0.2947248335388906, 0.0]
      },
      {
        "species": [{ "element": "Br", "occu": 1 }],
        "abc": [-0.0, 0.95694922, 0.5],
        "properties": { "magmom": 0.006 },
        "label": "Br",
        "xyz": [0.0, 6.55125643646111, 5.92984832]
      },
      {
        "species": [{ "element": "Br", "occu": 1 }],
        "abc": [-0.0, 0.40211555, 0.35120345000000003],
        "properties": { "magmom": 0.006 },
        "label": "Br",
        "xyz": [0.0, 2.7528755236757485, 4.165166375921408]
      },
      {
        "species": [{ "element": "Br", "occu": 1 }],
        "abc": [0.5, 0.59788445, 0.14879655],
        "properties": { "magmom": 0.006 },
        "label": "Br",
        "xyz": [3.04160333, 4.093105746324252, 1.764681944078592]
      },
      {
        "species": [{ "element": "Br", "occu": 1 }],
        "abc": [-0.0, 0.40211555, 0.64879655],
        "properties": { "magmom": 0.006 },
        "label": "Br",
        "xyz": [0.0, 2.7528755236757485, 7.694530264078592]
      },
      {
        "species": [{ "element": "Br", "occu": 1 }],
        "abc": [0.5, 0.59788445, 0.85120345],
        "properties": { "magmom": 0.006 },
        "label": "Br",
        "xyz": [3.04160333, 4.093105746324252, 10.095014695921407]
      }
    ]
  },
  "task_ids": null,
  "uncorrected_energy_per_atom": null,
  "energy_per_atom": -4.91740028625,
  "formation_energy_per_atom": -0.9782778575000001,
  "energy_above_hull": 0.0,
  "is_stable": true,
  "equilibrium_reaction_energy_per_atom": null,
  "decomposes_to": null,
  "xas": null,
  "grain_boundaries": null,
  "band_gap": 0.0,
  "cbm": null,
  "vbm": null,
  "efermi": 1.02943285,
  "is_gap_direct": null,
  "is_metal": null,
  "es_source_calc_id": null,
  "bandstructure": null,
  "dos": null,
  "dos_energy_up": null,
  "dos_energy_down": null,
  "is_magnetic": null,
  "ordering": null,
  "total_magnetization": 8.0,
  "total_magnetization_normalized_vol": null,
  "total_magnetization_normalized_formula_units": null,
  "num_magnetic_sites": null,
  "num_unique_magnetic_sites": null,
  "types_of_magnetic_species": null,
  "bulk_modulus": null,
  "shear_modulus": null,
  "universal_anisotropy": null,
  "homogeneous_poisson": null,
  "e_total": null,
  "e_ionic": null,
  "e_electronic": null,
  "n": null,
  "e_ij_max": null,
  "weighted_surface_energy_EV_PER_ANG2": null,
  "weighted_surface_energy": null,
  "weighted_work_function": null,
  "surface_anisotropy": null,
  "shape_factor": null,
  "has_reconstructed": null,
  "possible_species": null,
  "has_props": null,
  "theoretical": null,
  "database_IDs": null,
  "fields_not_requested": [
    "builder_meta",
    "nsites",
    "elements",
    "nelements",
    "composition",
    "composition_reduced",
    "chemsys",
    "symmetry",
    "property_name",
    "deprecated",
    "deprecation_reasons",
    "last_updated",
    "origins",
    "warnings",
    "task_ids",
    "uncorrected_energy_per_atom",
    "equilibrium_reaction_energy_per_atom",
    "decomposes_to",
    "xas",
    "grain_boundaries",
    "cbm",
    "vbm",
    "is_gap_direct",
    "is_metal",
    "es_source_calc_id",
    "bandstructure",
    "dos",
    "dos_energy_up",
    "dos_energy_down",
    "is_magnetic",
    "ordering",
    "total_magnetization_normalized_vol",
    "total_magnetization_normalized_formula_units",
    "num_magnetic_sites",
    "num_unique_magnetic_sites",
    "types_of_magnetic_species",
    "bulk_modulus",
    "shear_modulus",
    "universal_anisotropy",
    "homogeneous_poisson",
    "e_total",
    "e_ionic",
    "e_electronic",
    "n",
    "e_ij_max",
    "weighted_surface_energy_EV_PER_ANG2",
    "weighted_surface_energy",
    "weighted_work_function",
    "surface_anisotropy",
    "shape_factor",
    "has_reconstructed",
    "possible_species",
    "has_props",
    "theoretical",
    "database_IDs"
  ]
}
