{
  "builder_meta": null,
  "nsites": null,
  "elements": null,
  "nelements": null,
  "composition": null,
  "composition_reduced": null,
  "formula_pretty": "MoCl2",
  "formula_anonymous": "AB2",
  "chemsys": null,
  "volume": 951.0552798406189,
  "density": 3.495750124880732,
  "density_atomic": 26.41820221779497,
  "symmetry": null,
  "property_name": null,
  "material_id": "mp-620029",
  "deprecated": null,
  "deprecation_reasons": null,
  "last_updated": null,
  "origins": null,
  "warnings": null,
  "structure": {
    "@module": "pymatgen.core.structure",
    "@class": "Structure",
    "charge": 0,
    "lattice": {
      "matrix": [
        [9.28111514, -0.11692602, 0.0],
        [-2.15248888, 9.02881656, -0.0],
        [0.0, -0.0, 11.38363907]
      ],
      "pbc": [true, true, true],
      "a": 9.281851643723373,
      "b": 9.281849861566059,
      "c": 11.38363907,
      "alpha": 90.0,
      "beta": 90.0,
      "gamma": 104.13092524309894,
      "volume": 951.0552798406189
    },
    "properties": {},
    "sites": [
      {
        "species": [{ "element": "Mo", "occu": 1 }],
        "abc": [0.6258947300000001, 0.37410527, 0.5],
        "properties": { "magmom": 0.0 },
        "label": "Mo",
        "xyz": [5.003743621024816, 3.304544477241396, 5.691819535]
      },
      {
        "species": [{ "element": "Mo", "occu": 1 }],
        "abc": [0.35390435000000003, 0.35390435000000003, 0.56737426],
        "properties": { "magmom": -0.0 },
        "label": "Mo",
        "xyz": [2.522851842938232, 3.1539568288298487, 6.458783793448338]
      },
      {
        "species": [{ "element": "Mo", "occu": 1 }],
        "abc": [0.64609565, 0.64609565, 0.43262574000000004],
        "properties": { "magmom": -0.0 },
        "label": "Mo",
        "xyz": [4.60577441706177, 5.75793371117015, 4.9248552765516616]
      },
      {
        "species": [{ "element": "Mo", "occu": 1 }],
        "abc": [0.14609565, 0.14609565, 0.06737426],
        "properties": { "magmom": -0.0 },
        "label": "Mo",
        "xyz": [1.041461287061769, 1.301988441170151, 0.7669642584483382]
      },
      {
        "species": [{ "element": "Mo", "occu": 1 }],
        "abc": [0.93273724, 0.93273724, 0.14645417],
        "properties": { "magmom": 0.0 },
        "label": "Mo",
        "xyz": [6.649135182743924, 8.31245218546171, 1.6671814115764216]
      },
      {
        "species": [{ "element": "Mo", "occu": 1 }],
        "abc": [0.87410527, 0.12589473, 0.0],
        "properties": { "magmom": 0.0 },
        "label": "Mo",
        "xyz": [7.841684648975187, 1.0344747727586034, 0.0]
      },
      {
        "species": [{ "element": "Mo", "occu": 1 }],
        "abc": [0.56726276, 0.56726276, 0.64645417],
        "properties": { "magmom": 0.0 },
        "label": "Mo",
        "xyz": [4.043804207256079, 5.05538362453829, 7.359000946576422]
      },
      {
        "species": [{ "element": "Mo", "occu": 1 }],
        "abc": [0.06726276, 0.06726276, 0.8535458300000001],
        "properties": { "magmom": 0.0 },
        "label": "Mo",
        "xyz": [0.47949107725607776, 0.5994383545382904, 9.716457658423579]
      },
      {
        "species": [{ "element": "Mo", "occu": 1 }],
        "abc": [0.85390435, 0.85390435, 0.93262574],
        "properties": { "magmom": -0.0 },
        "label": "Mo",
        "xyz": [6.087164972938231, 7.609902098829848, 10.616674811551661]
      },
      {
        "species": [{ "element": "Mo", "occu": 1 }],
        "abc": [0.12589473, 0.87410527, 0.0],
        "properties": { "magmom": 0.0 },
        "label": "Mo",
        "xyz": [-0.7130583889751851, 7.877415767241397, 0.0]
      },
      {
        "species": [{ "element": "Mo", "occu": 1 }],
        "abc": [0.43273724, 0.43273724, 0.35354583],
        "properties": { "magmom": 0.0 },
        "label": "Mo",
        "xyz": [3.0848220527439225, 3.8565069154617095, 4.0246381234235775]
      },
      {
        "species": [{ "element": "Mo", "occu": 1 }],
        "abc": [0.37410527, 0.6258947300000001, 0.5],
        "properties": { "magmom": 0.0 },
        "label": "Mo",
        "xyz": [2.1248826389751856, 5.607346062758604, 5.691819535]
      },
      {
        "species": [{ "element": "Cl", "occu": 1 }],
        "abc": [0.19516895, 0.95668305, 0.20512996],
        "properties": { "magmom": -0.0 },
        "label": "Cl",
        "xyz": [-0.24786413010658048, 8.614895435960229, 2.335125427083537]
      },
      {
        "species": [{ "element": "Cl", "occu": 1 }],
        "abc": [0.17611016000000002, 0.41487528, 0.42394294],
        "properties": { "magmom": 0.0 },
        "label": "Cl",
        "xyz": [0.7414842454969363, 3.725240938308273, 4.826013415234665]
      },
      {
        "species": [{ "element": "Cl", "occu": 1 }],
        "abc": [0.08512472, 0.32388984, 0.92394294],
        "properties": { "magmom": 0.0 },
        "label": "Cl",
        "xyz": [0.09288304863528174, 2.9143886562945354, 10.517832950234665]
      },
      {
        "species": [{ "element": "Cl", "occu": 1 }],
        "abc": [0.35134233, 0.35134233, 0.14815739],
        "properties": { "magmom": 0.0 },
        "label": "Cl",
        "xyz": [2.504588159887586, 3.131124387028558, 1.6865702533132272]
      },
      {
        "species": [{ "element": "Cl", "occu": 1 }],
        "abc": [0.95668305, 0.19516895, 0.20512996],
        "properties": { "magmom": -0.0 },
        "label": "Cl",
        "xyz": [8.458986544940101, 1.6502835063198509, 2.335125427083537]
      },
      {
        "species": [{ "element": "Cl", "occu": 1 }],
        "abc": [0.32388984, 0.08512472, 0.92394294],
        "properties": { "magmom": 0.0 },
        "label": "Cl",
        "xyz": [2.822828884503064, 0.7307043316917263, 10.517832950234665]
      },
      {
        "species": [{ "element": "Cl", "occu": 1 }],
        "abc": [0.04331695, 0.80483105, 0.79487004],
        "properties": { "magmom": -0.0 },
        "label": "Cl",
        "xyz": [-1.3303602849401008, 7.261607033680148, 9.048513642916463]
      },
      {
        "species": [{ "element": "Cl", "occu": 1 }],
        "abc": [0.71157061, 0.28842939, 0.0],
        "properties": { "magmom": 0.0 },
        "label": "Cl",
        "xyz": [5.9833277070098525, 2.5209749334464258, 0.0]
      },
      {
        "species": [{ "element": "Cl", "occu": 1 }],
        "abc": [0.64865767, 0.64865767, 0.8518426100000001],
        "properties": { "magmom": 0.0 },
        "label": "Cl",
        "xyz": [4.624038100112414, 5.780766152971441, 9.697068816686773]
      },
      {
        "species": [{ "element": "Cl", "occu": 1 }],
        "abc": [0.21157061, 0.78842939, 0.5],
        "properties": { "magmom": 0.0 },
        "label": "Cl",
        "xyz": [0.2665256970098522, 7.093846223446425, 5.691819535]
      },
      {
        "species": [{ "element": "Cl", "occu": 1 }],
        "abc": [0.85134233, 0.85134233, 0.35184261],
        "properties": { "magmom": 0.0 },
        "label": "Cl",
        "xyz": [6.068901289887587, 7.587069657028557, 4.005249281686773]
      },
      {
        "species": [{ "element": "Cl", "occu": 1 }],
        "abc": [0.69516895, 0.45668305000000003, 0.29487004],
        "properties": { "magmom": -0.0 },
        "label": "Cl",
        "xyz": [5.46893787989342, 4.042024145960229, 3.3566941079164625]
      },
      {
        "species": [{ "element": "Cl", "occu": 1 }],
        "abc": [0.82388984, 0.58512472, 0.57605706],
        "properties": { "magmom": 0.0 },
        "label": "Cl",
        "xyz": [6.387142014503064, 5.186649601691726, 6.557625654765334]
      },
      {
        "species": [{ "element": "Cl", "occu": 1 }],
        "abc": [0.41487528, 0.17611016000000002, 0.42394294],
        "properties": { "magmom": 0.0 },
        "label": "Cl",
        "xyz": [3.4714300813647188, 1.5415566137054642, 4.826013415234665]
      },
      {
        "species": [{ "element": "Cl", "occu": 1 }],
        "abc": [0.67611016, 0.9148752800000001, 0.07605706],
        "properties": { "magmom": 0.0 },
        "label": "Cl",
        "xyz": [4.305797375496937, 8.181186208308274, 0.8658061197653341]
      },
      {
        "species": [{ "element": "Cl", "occu": 1 }],
        "abc": [0.58512472, 0.82388984, 0.57605706],
        "properties": { "magmom": 0.0 },
        "label": "Cl",
        "xyz": [3.6571961786352825, 7.370333926294535, 6.557625654765334]
      },
      {
        "species": [{ "element": "Cl", "occu": 1 }],
        "abc": [0.54331695, 0.30483105, 0.7051299600000001],
        "properties": { "magmom": -0.0 },
        "label": "Cl",
        "xyz": [4.3864417250599, 2.6887357436801484, 8.026944962083537]
      },
      {
        "species": [{ "element": "Cl", "occu": 1 }],
        "abc": [0.80483105, 0.04331695, 0.79487004],
        "properties": { "magmom": -0.0 },
        "label": "Cl",
        "xyz": [7.376490390106581, 0.296995104039771, 9.048513642916463]
      },
      {
        "species": [{ "element": "Cl", "occu": 1 }],
        "abc": [0.28842939, 0.71157061, 0.0],
        "properties": { "magmom": 0.0 },
        "label": "Cl",
        "xyz": [1.145298552990148, 6.390915606553573, 0.0]
      },
      {
        "species": [{ "element": "Cl", "occu": 1 }],
        "abc": [0.9148752800000001, 0.67611016, 0.07605706],
        "properties": { "magmom": 0.0 },
        "label": "Cl",
        "xyz": [7.035743211364719, 5.997501883705463, 0.8658061197653341]
      },
      {
        "species": [{ "element": "Cl", "occu": 1 }],
        "abc": [0.78842939, 0.21157061, 0.5],
        "properties": { "magmom": 0.0 },
        "label": "Cl",
        "xyz": [6.862100562990149, 1.8180443165535736, 5.691819535]
      },
      {
        "species": [{ "element": "Cl", "occu": 1 }],
        "abc": [0.14865767, 0.14865767, 0.64815739],
        "properties": { "magmom": 0.0 },
        "label": "Cl",
        "xyz": [1.0597249701124143, 1.3248208829714416, 7.3783897883132274]
      },
      {
        "species": [{ "element": "Cl", "occu": 1 }],
        "abc": [0.30483105, 0.54331695, 0.7051299600000001],
        "properties": { "magmom": -0.0 },
        "label": "Cl",
        "xyz": [1.6596883801065812, 4.8698663940397715, 8.026944962083537]
      },
      {
        "species": [{ "element": "Cl", "occu": 1 }],
        "abc": [0.45668305000000003, 0.69516895, 0.29487004],
        "properties": { "magmom": -0.0 },
        "label": "Cl",
        "xyz": [2.742184534940102, 6.223154796319851, 3.3566941079164625]
      }
    ]
  },
  "task_ids": null,
  "uncorrected_energy_per_atom": null,
  "energy_per_atom": -13.869509143611111,
  "formation_energy_per_atom": -1.077223398611112,
  "energy_above_hull": 0.0,
  "is_stable": true,
  "equilibrium_reaction_energy_per_atom": null,
  "decomposes_to": null,
  "xas": null,
  "grain_boundaries": null,
  "band_gap": 2.454799999999999,
  "cbm": null,
  "vbm": null,
  "efermi": 1.25782173,
  "is_gap_direct": null,
  "is_metal": null,
  "es_source_calc_id": null,
  "bandstructure": null,
  "dos": null,
  "dos_energy_up": null,
  "dos_energy_down": null,
  "is_magnetic": null,
  "ordering": null,
  "total_magnetization": 0.0,
  "total_magnetization_normalized_vol": null,
  "total_magnetization_normalized_formula_units": null,
  "num_magnetic_sites": null,
  "num_unique_magnetic_sites": null,
  "types_of_magnetic_species": null,
  "bulk_modulus": null,
  "shear_modulus": null,
  "universal_anisotropy": null,
  "homogeneous_poisson": null,
  "e_total": null,
  "e_ionic": null,
  "e_electronic": null,
  "n": null,
  "e_ij_max": null,
  "weighted_surface_energy_EV_PER_ANG2": null,
  "weighted_surface_energy": null,
  "weighted_work_function": null,
  "surface_anisotropy": null,
  "shape_factor": null,
  "has_reconstructed": null,
  "possible_species": null,
  "has_props": null,
  "theoretical": null,
  "database_IDs": null,
  "fields_not_requested": [
    "builder_meta",
    "nsites",
    "elements",
    "nelements",
    "composition",
    "composition_reduced",
    "chemsys",
    "symmetry",
    "property_name",
    "deprecated",
    "deprecation_reasons",
    "last_updated",
    "origins",
    "warnings",
    "task_ids",
    "uncorrected_energy_per_atom",
    "equilibrium_reaction_energy_per_atom",
    "decomposes_to",
    "xas",
    "grain_boundaries",
    "cbm",
    "vbm",
    "is_gap_direct",
    "is_metal",
    "es_source_calc_id",
    "bandstructure",
    "dos",
    "dos_energy_up",
    "dos_energy_down",
    "is_magnetic",
    "ordering",
    "total_magnetization_normalized_vol",
    "total_magnetization_normalized_formula_units",
    "num_magnetic_sites",
    "num_unique_magnetic_sites",
    "types_of_magnetic_species",
    "bulk_modulus",
    "shear_modulus",
    "universal_anisotropy",
    "homogeneous_poisson",
    "e_total",
    "e_ionic",
    "e_electronic",
    "n",
    "e_ij_max",
    "weighted_surface_energy_EV_PER_ANG2",
    "weighted_surface_energy",
    "weighted_work_function",
    "surface_anisotropy",
    "shape_factor",
    "has_reconstructed",
    "possible_species",
    "has_props",
    "theoretical",
    "database_IDs"
  ]
}
