{"builder_meta": null, "nsites": null, "elements": null, "nelements": null, "composition": null, "composition_reduced": null, "formula_pretty": "MoCl6", "formula_anonymous": "AB6", "chemsys": null, "volume": 187.00819281943546, "density": 2.7407284113669883, "density_atomic": 26.71545611706221, "symmetry": null, "property_name": null, "material_id": "mp-1221436", "deprecated": null, "deprecation_reasons": null, "last_updated": null, "origins": null, "warnings": null, "structure": {"@module": "pymatgen.core.structure", "@class": "Structure", "charge": 0, "lattice": {"matrix": [[0.0, -0.0, -5.66591942], [-6.17347707, -2e-08, 0.0], [-3.0867375, 5.34638709, 0.0]], "pbc": [true, true, true], "a": 5.66591942, "b": 6.17347707, "c": 6.173475788405177, "alpha": 60.000004410181404, "beta": 90.0, "gamma": 90.0, "volume": 187.0081928194355}, "properties": {}, "sites": [{"species": [{"element": "Mo", "occu": 1}], "abc": [0.5, 0.0, -0.0], "properties": {"magmom": -0.0}, "label": "Mo", "xyz": [0.0, 0.0, -2.83295971]}, {"species": [{"element": "Cl", "occu": 1}], "abc": [0.73371201, 0.69639286, 0.0], "properties": {"magmom": 0.0}, "label": "Cl", "xyz": [-4.29916535292172, -1.39278572e-08, -4.157153126146234]}, {"species": [{"element": "Cl", "occu": 1}], "abc": [0.73371201, 0.30360714, 0.69639286], "properties": {"magmom": 0.0}, "label": "Cl", "xyz": [-4.023893672772529, 3.7231857902000347, -4.157153126146234]}, {"species": [{"element": "Cl", "occu": 1}], "abc": [0.73371201, 0.0, 0.30360714], "properties": {"magmom": 0.0}, "label": "Cl", "xyz": [-0.93715554430575, 1.6232012937278226, -4.157153126146234]}, {"species": [{"element": "Cl", "occu": 1}], "abc": [0.26628799000000003, 0.69639286, 0.30360714], "properties": {"magmom": 0.0}, "label": "Cl", "xyz": [-5.23632089722747, 1.6232012797999655, -1.5087662938537658]}, {"species": [{"element": "Cl", "occu": 1}], "abc": [0.26628799000000003, -0.0, 0.69639286], "properties": {"magmom": 0.0}, "label": "Cl", "xyz": [-2.14958195569425, 3.7231857962721775, -1.5087662938537658]}, {"species": [{"element": "Cl", "occu": 1}], "abc": [0.26628799000000003, 0.30360714, -0.0], "properties": {"magmom": 0.0}, "label": "Cl", "xyz": [-1.8743117170782797, -6.0721428e-09, -1.5087662938537658]}]}, "task_ids": null, "uncorrected_energy_per_atom": null, "energy_per_atom": -9.841069797142856, "formation_energy_per_atom": -0.8429822507142841, "energy_above_hull": 0.0, "is_stable": true, "equilibrium_reaction_energy_per_atom": null, "decomposes_to": null, "xas": null, "grain_boundaries": null, "band_gap": 1.094199999999999, "cbm": null, "vbm": null, "efermi": -0.99500846, "is_gap_direct": null, "is_metal": null, "es_source_calc_id": null, "bandstructure": null, "dos": null, "dos_energy_up": null, "dos_energy_down": null, "is_magnetic": null, "ordering": null, "total_magnetization": 0.0, "total_magnetization_normalized_vol": null, "total_magnetization_normalized_formula_units": null, "num_magnetic_sites": null, "num_unique_magnetic_sites": null, "types_of_magnetic_species": null, "bulk_modulus": null, "shear_modulus": null, "universal_anisotropy": null, "homogeneous_poisson": null, "e_total": null, "e_ionic": null, "e_electronic": null, "n": null, "e_ij_max": null, "weighted_surface_energy_EV_PER_ANG2": null, "weighted_surface_energy": null, "weighted_work_function": null, "surface_anisotropy": null, "shape_factor": null, "has_reconstructed": null, "possible_species": null, "has_props": null, "theoretical": null, "database_IDs": null, "fields_not_requested": ["builder_meta", "nsites", "elements", "nelements", "composition", "composition_reduced", "chemsys", "symmetry", "property_name", "deprecated", "deprecation_reasons", "last_updated", "origins", "warnings", "task_ids", "uncorrected_energy_per_atom", "equilibrium_reaction_energy_per_atom", "decomposes_to", "xas", "grain_boundaries", "cbm", "vbm", "is_gap_direct", "is_metal", "es_source_calc_id", "bandstructure", "dos", "dos_energy_up", "dos_energy_down", "is_magnetic", "ordering", "total_magnetization_normalized_vol", "total_magnetization_normalized_formula_units", "num_magnetic_sites", "num_unique_magnetic_sites", "types_of_magnetic_species", "bulk_modulus", "shear_modulus", "universal_anisotropy", "homogeneous_poisson", "e_total", "e_ionic", "e_electronic", "n", "e_ij_max", "weighted_surface_energy_EV_PER_ANG2", "weighted_surface_energy", "weighted_work_function", "surface_anisotropy", "shape_factor", "has_reconstructed", "possible_species", "has_props", "theoretical", "database_IDs"]}