{
  "builder_meta": null,
  "nsites": null,
  "elements": null,
  "nelements": null,
  "composition": null,
  "composition_reduced": null,
  "formula_pretty": "MoCl5",
  "formula_anonymous": "AB5",
  "chemsys": null,
  "volume": 319.22425053705433,
  "density": 2.842312731111216,
  "density_atomic": 26.60202087808786,
  "symmetry": null,
  "property_name": null,
  "material_id": "mp-569436",
  "deprecated": null,
  "deprecation_reasons": null,
  "last_updated": null,
  "origins": null,
  "warnings": null,
  "structure": {
    "@module": "pymatgen.core.structure",
    "@class": "Structure",
    "charge": 0,
    "lattice": {
      "matrix": [
        [6.2252516, 0.00657661, -0.08675434],
        [-2.9984031, 5.61881725, -2.13177019],
        [-0.00413174, -0.05363419, 9.1419354]
      ],
      "pbc": [true, true, true],
      "a": 6.225859543116154,
      "b": 6.716098017596215,
      "c": 9.14209366367385,
      "alpha": 108.7907563012679,
      "beta": 90.82465080371563,
      "gamma": 116.17407629450433,
      "volume": 319.2242505370543
    },
    "properties": {},
    "sites": [
      {
        "species": [{ "element": "Mo", "occu": 1 }],
        "abc": [0.10313775, 0.71292534, 0.71552232],
        "properties": { "magmom": 0.889 },
        "label": "Mo",
        "xyz": [-1.498535458507091, 3.9680990350520218, 5.012518191760178]
      },
      {
        "species": [{ "element": "Mo", "occu": 1 }],
        "abc": [0.89686225, 0.28707466, 0.28447768],
        "properties": { "magmom": 0.889 },
        "label": "Mo",
        "xyz": [4.72125221850709, 1.6036606349479783, 1.9108926782398212]
      },
      {
        "species": [{ "element": "Cl", "occu": 1 }],
        "abc": [0.24507774000000002, 0.68986213, 0.45545064],
        "properties": { "magmom": 0.009000000000000001 },
        "label": "Cl",
        "xyz": [-0.5446959597325325, 3.8533932907200223, 2.67181124724236]
      },
      {
        "species": [{ "element": "Cl", "occu": 1 }],
        "abc": [0.12206307, 0.13542762, 0.35715919],
        "properties": { "magmom": -0.037 },
        "label": "Cl",
        "xyz": [0.35233103727309933, 0.7425898647325316, 2.9658361782014544]
      },
      {
        "species": [{ "element": "Cl", "occu": 1 }],
        "abc": [0.7549222600000001, 0.31013787, 0.54454936],
        "properties": { "magmom": 0.009000000000000001 },
        "label": "Cl",
        "xyz": [3.767412719732533, 1.7183663792799775, 4.25159962275764]
      },
      {
        "species": [{ "element": "Cl", "occu": 1 }],
        "abc": [0.42963543, 0.07253704, 0.83972218],
        "properties": { "magmom": 0.041 },
        "label": "Cl",
        "xyz": [2.453623848703371, 0.3653600973318981, 7.484780885794067]
      },
      {
        "species": [{ "element": "Cl", "occu": 1 }],
        "abc": [0.8779369300000001, 0.86457238, 0.64284081],
        "properties": { "magmom": -0.037 },
        "label": "Cl",
        "xyz": [2.8703857227269007, 4.829169805267468, 3.9575746917985453]
      },
      {
        "species": [{ "element": "Cl", "occu": 1 }],
        "abc": [0.57036457, 0.9274629600000001, 0.16027782000000002],
        "properties": { "magmom": 0.041 },
        "label": "Cl",
        "xyz": [0.769092911296629, 5.2063995726681025, -0.5613700157940682]
      },
      {
        "species": [{ "element": "Cl", "occu": 1 }],
        "abc": [0.057432580000000004, 0.30703091, 0.06628955],
        "properties": { "magmom": 0.04 },
        "label": "Cl",
        "xyz": [-0.5633440629880099, 1.7219728987514369, -0.05348708312390016]
      },
      {
        "species": [{ "element": "Cl", "occu": 1 }],
        "abc": [0.29733087, 0.50381825, 0.73647038],
        "properties": { "magmom": -0.036000000000000004 },
        "label": "Cl",
        "xyz": [0.3372663674324559, 2.793318110847471, 5.632945168057008]
      },
      {
        "species": [{ "element": "Cl", "occu": 1 }],
        "abc": [0.70266913, 0.49618275, 0.26352962],
        "properties": { "magmom": -0.036000000000000004 },
        "label": "Cl",
        "xyz": [2.8854473941644443, 2.7784471779697792, 1.2904635701728013]
      },
      {
        "species": [{ "element": "Cl", "occu": 1 }],
        "abc": [0.94256742, 0.6929690900000001, 0.93371045],
        "properties": { "magmom": 0.04 },
        "label": "Cl",
        "xyz": [3.78606082298801, 3.8497867712485636, 6.9768979531239]
      }
    ]
  },
  "task_ids": null,
  "uncorrected_energy_per_atom": null,
  "energy_per_atom": -10.408269799166666,
  "formation_energy_per_atom": -0.9359074779166671,
  "energy_above_hull": 0.0,
  "is_stable": true,
  "equilibrium_reaction_energy_per_atom": null,
  "decomposes_to": null,
  "xas": null,
  "grain_boundaries": null,
  "band_gap": 0.0,
  "cbm": null,
  "vbm": null,
  "efermi": 0.56359379,
  "is_gap_direct": null,
  "is_metal": null,
  "es_source_calc_id": null,
  "bandstructure": null,
  "dos": null,
  "dos_energy_up": null,
  "dos_energy_down": null,
  "is_magnetic": null,
  "ordering": null,
  "total_magnetization": 2.0,
  "total_magnetization_normalized_vol": null,
  "total_magnetization_normalized_formula_units": null,
  "num_magnetic_sites": null,
  "num_unique_magnetic_sites": null,
  "types_of_magnetic_species": null,
  "bulk_modulus": null,
  "shear_modulus": null,
  "universal_anisotropy": null,
  "homogeneous_poisson": null,
  "e_total": null,
  "e_ionic": null,
  "e_electronic": null,
  "n": null,
  "e_ij_max": null,
  "weighted_surface_energy_EV_PER_ANG2": null,
  "weighted_surface_energy": null,
  "weighted_work_function": null,
  "surface_anisotropy": null,
  "shape_factor": null,
  "has_reconstructed": null,
  "possible_species": null,
  "has_props": null,
  "theoretical": null,
  "database_IDs": null,
  "fields_not_requested": [
    "builder_meta",
    "nsites",
    "elements",
    "nelements",
    "composition",
    "composition_reduced",
    "chemsys",
    "symmetry",
    "property_name",
    "deprecated",
    "deprecation_reasons",
    "last_updated",
    "origins",
    "warnings",
    "task_ids",
    "uncorrected_energy_per_atom",
    "equilibrium_reaction_energy_per_atom",
    "decomposes_to",
    "xas",
    "grain_boundaries",
    "cbm",
    "vbm",
    "is_gap_direct",
    "is_metal",
    "es_source_calc_id",
    "bandstructure",
    "dos",
    "dos_energy_up",
    "dos_energy_down",
    "is_magnetic",
    "ordering",
    "total_magnetization_normalized_vol",
    "total_magnetization_normalized_formula_units",
    "num_magnetic_sites",
    "num_unique_magnetic_sites",
    "types_of_magnetic_species",
    "bulk_modulus",
    "shear_modulus",
    "universal_anisotropy",
    "homogeneous_poisson",
    "e_total",
    "e_ionic",
    "e_electronic",
    "n",
    "e_ij_max",
    "weighted_surface_energy_EV_PER_ANG2",
    "weighted_surface_energy",
    "weighted_work_function",
    "surface_anisotropy",
    "shape_factor",
    "has_reconstructed",
    "possible_species",
    "has_props",
    "theoretical",
    "database_IDs"
  ]
}
