{
  "builder_meta": null,
  "nsites": null,
  "elements": null,
  "nelements": null,
  "composition": null,
  "composition_reduced": null,
  "formula_pretty": "MoCl3",
  "formula_anonymous": "AB3",
  "chemsys": null,
  "volume": 209.21111573865744,
  "density": 3.211353196488326,
  "density_atomic": 26.15138946733218,
  "symmetry": null,
  "property_name": null,
  "material_id": "mp-22853",
  "deprecated": null,
  "deprecation_reasons": null,
  "last_updated": null,
  "origins": null,
  "warnings": null,
  "structure": {
    "@module": "pymatgen.core.structure",
    "@class": "Structure",
    "charge": 0,
    "lattice": {
      "matrix": [
        [5.018055, 3.141178, 0.0],
        [-5.018055, 3.141178, 0.0],
        [0.0, 2.097117, 6.636312]
      ],
      "pbc": [true, true, true],
      "a": 5.920124594187947,
      "b": 5.920124594187947,
      "c": 6.959779929928317,
      "alpha": 80.80018188307693,
      "beta": 80.80018188307693,
      "gamma": 115.9089091845043,
      "volume": 209.21111573865744
    },
    "properties": {},
    "sites": [
      {
        "species": [{ "element": "Mo", "occu": 1 }],
        "abc": [0.146318, 0.853681999999999, 0.0],
        "properties": { "magmom": 1.647 },
        "label": "Mo",
        "xyz": [-3.5495914570199956, 3.1411779999999974, 0.0]
      },
      {
        "species": [{ "element": "Mo", "occu": 1 }],
        "abc": [0.853681999999999, 0.146318, 0.0],
        "properties": { "magmom": 1.647 },
        "label": "Mo",
        "xyz": [3.5495914570199956, 3.1411779999999974, 0.0]
      },
      {
        "species": [{ "element": "Cl", "occu": 1 }],
        "abc": [0.768153, 0.768153, 0.249122999999999],
        "properties": { "magmom": 0.042 },
        "label": "Cl",
        "xyz": [0.0, 5.348250686858998, 1.6532579543759935]
      },
      {
        "species": [{ "element": "Cl", "occu": 1 }],
        "abc": [0.231847, 0.231847, 0.750877],
        "properties": { "magmom": 0.042 },
        "label": "Cl",
        "xyz": [0.0, 3.031222313141, 4.983054045624001]
      },
      {
        "species": [{ "element": "Cl", "occu": 1 }],
        "abc": [0.566898999999999, 0.907752, 0.801468],
        "properties": { "magmom": 0.023 },
        "label": "Cl",
        "xyz": [-1.7104191009150047, 6.312913446633997, 5.3187917060159995]
      },
      {
        "species": [{ "element": "Cl", "occu": 1 }],
        "abc": [0.092248, 0.433100999999999, 0.198532],
        "properties": { "magmom": 0.023 },
        "label": "Cl",
        "xyz": [-1.7104191009149952, 2.066559553365997, 1.317520293984]
      },
      {
        "species": [{ "element": "Cl", "occu": 1 }],
        "abc": [0.433100999999999, 0.092248, 0.198532],
        "properties": { "magmom": 0.023 },
        "label": "Cl",
        "xyz": [1.7104191009149952, 2.066559553365997, 1.317520293984]
      },
      {
        "species": [{ "element": "Cl", "occu": 1 }],
        "abc": [0.907752, 0.566898999999999, 0.801468],
        "properties": { "magmom": 0.023 },
        "label": "Cl",
        "xyz": [1.7104191009150047, 6.312913446633997, 5.3187917060159995]
      }
    ]
  },
  "task_ids": null,
  "uncorrected_energy_per_atom": null,
  "energy_per_atom": -12.1321483153125,
  "formation_energy_per_atom": -0.9998242821875001,
  "energy_above_hull": 0.034383125833333,
  "is_stable": false,
  "equilibrium_reaction_energy_per_atom": null,
  "decomposes_to": null,
  "xas": null,
  "grain_boundaries": null,
  "band_gap": 0.150099999999999,
  "cbm": null,
  "vbm": null,
  "efermi": 2.36465368,
  "is_gap_direct": null,
  "is_metal": null,
  "es_source_calc_id": null,
  "bandstructure": null,
  "dos": null,
  "dos_energy_up": null,
  "dos_energy_down": null,
  "is_magnetic": null,
  "ordering": null,
  "total_magnetization": 3.999542,
  "total_magnetization_normalized_vol": null,
  "total_magnetization_normalized_formula_units": null,
  "num_magnetic_sites": null,
  "num_unique_magnetic_sites": null,
  "types_of_magnetic_species": null,
  "bulk_modulus": null,
  "shear_modulus": null,
  "universal_anisotropy": null,
  "homogeneous_poisson": null,
  "e_total": null,
  "e_ionic": null,
  "e_electronic": null,
  "n": null,
  "e_ij_max": null,
  "weighted_surface_energy_EV_PER_ANG2": null,
  "weighted_surface_energy": null,
  "weighted_work_function": null,
  "surface_anisotropy": null,
  "shape_factor": null,
  "has_reconstructed": null,
  "possible_species": null,
  "has_props": null,
  "theoretical": null,
  "database_IDs": null,
  "fields_not_requested": [
    "builder_meta",
    "nsites",
    "elements",
    "nelements",
    "composition",
    "composition_reduced",
    "chemsys",
    "symmetry",
    "property_name",
    "deprecated",
    "deprecation_reasons",
    "last_updated",
    "origins",
    "warnings",
    "task_ids",
    "uncorrected_energy_per_atom",
    "equilibrium_reaction_energy_per_atom",
    "decomposes_to",
    "xas",
    "grain_boundaries",
    "cbm",
    "vbm",
    "is_gap_direct",
    "is_metal",
    "es_source_calc_id",
    "bandstructure",
    "dos",
    "dos_energy_up",
    "dos_energy_down",
    "is_magnetic",
    "ordering",
    "total_magnetization_normalized_vol",
    "total_magnetization_normalized_formula_units",
    "num_magnetic_sites",
    "num_unique_magnetic_sites",
    "types_of_magnetic_species",
    "bulk_modulus",
    "shear_modulus",
    "universal_anisotropy",
    "homogeneous_poisson",
    "e_total",
    "e_ionic",
    "e_electronic",
    "n",
    "e_ij_max",
    "weighted_surface_energy_EV_PER_ANG2",
    "weighted_surface_energy",
    "weighted_work_function",
    "surface_anisotropy",
    "shape_factor",
    "has_reconstructed",
    "possible_species",
    "has_props",
    "theoretical",
    "database_IDs"
  ]
}
