{
  "builder_meta": null,
  "nsites": null,
  "elements": null,
  "nelements": null,
  "composition": null,
  "composition_reduced": null,
  "formula_pretty": "MoF3",
  "formula_anonymous": "AB3",
  "chemsys": null,
  "volume": 110.67040126955314,
  "density": 4.589391332934936,
  "density_atomic": 13.833800158694142,
  "symmetry": null,
  "property_name": null,
  "material_id": "mp-557539",
  "deprecated": null,
  "deprecation_reasons": null,
  "last_updated": null,
  "origins": null,
  "warnings": null,
  "structure": {
    "@module": "pymatgen.core.structure",
    "@class": "Structure",
    "charge": 0,
    "lattice": {
      "matrix": [
        [4.61503758, 0.03251018, 3.2973288],
        [1.7189334, 4.28314165, 3.29733713],
        [0.050894550000000004, 0.03466244, 5.6676406]
      ],
      "pbc": [true, true, true],
      "a": 5.672037199448302,
      "b": 5.67207780063681,
      "c": 5.667975097928256,
      "alpha": 53.939954368690785,
      "beta": 53.939630492422786,
      "gamma": 53.924620142867894,
      "volume": 110.67040126955314
    },
    "properties": {},
    "sites": [
      {
        "species": [{ "element": "Mo", "occu": 1 }],
        "abc": [0.5, 0.5, 0.5],
        "properties": { "magmom": 2.673 },
        "label": "Mo",
        "xyz": [3.192432765, 2.175157135, 6.131153265]
      },
      {
        "species": [{ "element": "Mo", "occu": 1 }],
        "abc": [0.0, 0.0, -0.0],
        "properties": { "magmom": 2.673 },
        "label": "Mo",
        "xyz": [0.0, 0.0, 0.0]
      },
      {
        "species": [{ "element": "F", "occu": 1 }],
        "abc": [0.3976385, 0.74953627, 0.10233435],
        "properties": { "magmom": 0.056 },
        "label": "F",
        "xyz": [3.12872781046204, 3.2268444736993898, 4.362612968226115]
      },
      {
        "species": [{ "element": "F", "occu": 1 }],
        "abc": [0.75046005, 0.10236307, 0.3976666],
        "properties": { "magmom": 0.056 },
        "label": "F",
        "xyz": [3.6595956956452476, 0.47661721450967853, 5.065870454990189]
      },
      {
        "species": [{ "element": "F", "occu": 1 }],
        "abc": [0.89691283, 0.6030899, 0.24999629],
        "properties": { "magmom": 0.056 },
        "label": "F",
        "xyz": [5.188681237428031, 2.620943748334292, 6.362896348499865]
      },
      {
        "species": [{ "element": "F", "occu": 1 }],
        "abc": [0.24953995, 0.89763593, 0.602334399999999],
        "properties": { "magmom": 0.056 },
        "label": "F",
        "xyz": [2.725268166315903, 3.873692807011112, 7.196438445313276]
      },
      {
        "species": [{ "element": "F", "occu": 1 }],
        "abc": [0.6023625, 0.25046373, 0.8976646500000001],
        "properties": { "magmom": 0.056 },
        "label": "F",
        "xyz": [3.25614228368099, 1.1234697941483507, 7.899691191462086]
      },
      {
        "species": [{ "element": "F", "occu": 1 }],
        "abc": [0.10308617, 0.396911099999999, 0.75000371],
        "properties": { "magmom": 0.056 },
        "label": "F",
        "xyz": [1.1961813964677874, 1.729374772297174, 5.899410181508462]
      }
    ]
  },
  "task_ids": null,
  "uncorrected_energy_per_atom": null,
  "energy_per_atom": -11.41018053625,
  "formation_energy_per_atom": -2.547664713749999,
  "energy_above_hull": 0.0,
  "is_stable": true,
  "equilibrium_reaction_energy_per_atom": null,
  "decomposes_to": null,
  "xas": null,
  "grain_boundaries": null,
  "band_gap": 3.3753,
  "cbm": null,
  "vbm": null,
  "efermi": 0.40315675,
  "is_gap_direct": null,
  "is_metal": null,
  "es_source_calc_id": null,
  "bandstructure": null,
  "dos": null,
  "dos_energy_up": null,
  "dos_energy_down": null,
  "is_magnetic": null,
  "ordering": null,
  "total_magnetization": 6.0,
  "total_magnetization_normalized_vol": null,
  "total_magnetization_normalized_formula_units": null,
  "num_magnetic_sites": null,
  "num_unique_magnetic_sites": null,
  "types_of_magnetic_species": null,
  "bulk_modulus": null,
  "shear_modulus": null,
  "universal_anisotropy": null,
  "homogeneous_poisson": null,
  "e_total": null,
  "e_ionic": null,
  "e_electronic": null,
  "n": null,
  "e_ij_max": null,
  "weighted_surface_energy_EV_PER_ANG2": null,
  "weighted_surface_energy": null,
  "weighted_work_function": null,
  "surface_anisotropy": null,
  "shape_factor": null,
  "has_reconstructed": null,
  "possible_species": null,
  "has_props": null,
  "theoretical": null,
  "database_IDs": null,
  "fields_not_requested": [
    "builder_meta",
    "nsites",
    "elements",
    "nelements",
    "composition",
    "composition_reduced",
    "chemsys",
    "symmetry",
    "property_name",
    "deprecated",
    "deprecation_reasons",
    "last_updated",
    "origins",
    "warnings",
    "task_ids",
    "uncorrected_energy_per_atom",
    "equilibrium_reaction_energy_per_atom",
    "decomposes_to",
    "xas",
    "grain_boundaries",
    "cbm",
    "vbm",
    "is_gap_direct",
    "is_metal",
    "es_source_calc_id",
    "bandstructure",
    "dos",
    "dos_energy_up",
    "dos_energy_down",
    "is_magnetic",
    "ordering",
    "total_magnetization_normalized_vol",
    "total_magnetization_normalized_formula_units",
    "num_magnetic_sites",
    "num_unique_magnetic_sites",
    "types_of_magnetic_species",
    "bulk_modulus",
    "shear_modulus",
    "universal_anisotropy",
    "homogeneous_poisson",
    "e_total",
    "e_ionic",
    "e_electronic",
    "n",
    "e_ij_max",
    "weighted_surface_energy_EV_PER_ANG2",
    "weighted_surface_energy",
    "weighted_work_function",
    "surface_anisotropy",
    "shape_factor",
    "has_reconstructed",
    "possible_species",
    "has_props",
    "theoretical",
    "database_IDs"
  ]
}
