{"builder_meta": null, "nsites": null, "elements": null, "nelements": null, "composition": null, "composition_reduced": null, "formula_pretty": "MoF4", "formula_anonymous": "AB4", "chemsys": null, "volume": 126.57372544435401, "density": 4.511244018674225, "density_atomic": 12.6573725444354, "symmetry": null, "property_name": null, "material_id": "mp-2041583", "deprecated": null, "deprecation_reasons": null, "last_updated": null, "origins": null, "warnings": null, "structure": {"@module": "pymatgen.core.structure", "@class": "Structure", "charge": 0, "lattice": {"matrix": [[4.90222318, 0.00039373, 0.48448758000000003], [-0.00132799, 5.22051336, -0.01877373], [-1.7078145, -2.52677175, 4.78604714]], "pbc": [true, true, true], "a": 4.926106015579332, "b": 5.220547285336475, "c": 5.6751610610898515, "alpha": 116.62740848333613, "beta": 102.5071797171994, "gamma": 90.03018914423781, "volume": 126.57372544435401}, "properties": {}, "sites": [{"species": [{"element": "Mo", "occu": 1}], "abc": [0.97801094, 0.46519929, 0.028117760000000002], "properties": {"magmom": 1.7570000000000001}, "label": "Mo", "xyz": [4.745790202120943, 2.3579170191136405, 0.5996735524986799]}, {"species": [{"element": "Mo", "occu": 1}], "abc": [0.5332456, 0.96265353, 0.02351247], "properties": {"magmom": 1.758}, "label": "Mo", "xyz": [2.5726556094948885, 4.966344924237526, 0.3528100626317169]}, {"species": [{"element": "F", "occu": 1}], "abc": [0.69601939, 0.6029357200000001, 0.79611899], "properties": {"magmom": 0.034}, "label": "F", "xyz": [2.0516181399333027, 1.1362970516251116, 4.136156412668729]}, {"species": [{"element": "F", "occu": 1}], "abc": [0.84323182, 0.8454366400000001, 0.26794016], "properties": {"magmom": 0.025}, "label": "F", "xyz": [3.6749957523337136, 3.736921652839519, 1.6750375810984708]}, {"species": [{"element": "F", "occu": 1}], "abc": [0.26736637, 0.26782224, 0.18337033], "properties": {"magmom": 0.04}, "label": "F", "xyz": [0.9971714428661742, 0.9349398825538089, 1.0021267066102857]}, {"species": [{"element": "F", "occu": 1}], "abc": [0.32076233, 0.7736268900000001, 0.18592275], "properties": {"magmom": 0.04}, "label": "F", "xyz": [1.2538995922932834, 3.5690714562701293, 1.0307165485616967]}, {"species": [{"element": "F", "occu": 1}], "abc": [0.14311958, 0.32412469, 0.73788566], "properties": {"magmom": 0.037}, "label": "F", "xyz": [-0.5589981412492788, -0.17231501549501327, 3.5948101822384353]}, {"species": [{"element": "F", "occu": 1}], "abc": [0.22814674000000001, 0.81739039, 0.7263790999999991], "properties": {"magmom": 0.037}, "label": "F", "xyz": [-0.1231800084715311, 2.4318930898761284, 3.571673409571804]}, {"species": [{"element": "F", "occu": 1}], "abc": [0.7037112, 0.10300387, 0.79565326], "properties": {"magmom": 0.033}, "label": "F", "xyz": [2.0907843941560245, -1.4724240284859258, 4.147039578917237]}, {"species": [{"element": "F", "occu": 1}], "abc": [0.78356604, 0.34517075, 0.26763152], "properties": {"magmom": 0.025}, "label": "F", "xyz": [3.3836922305314747, 1.1260332611675894, 1.6540449428952386]}]}, "task_ids": null, "uncorrected_energy_per_atom": null, "energy_per_atom": -10.282107027, "formation_energy_per_atom": -2.566888779000001, "energy_above_hull": 0.030873788749998004, "is_stable": false, "equilibrium_reaction_energy_per_atom": null, "decomposes_to": null, "xas": null, "grain_boundaries": null, "band_gap": 1.189099999999999, "cbm": null, "vbm": null, "efermi": 2.21953968, "is_gap_direct": null, "is_metal": null, "es_source_calc_id": null, "bandstructure": null, "dos": null, "dos_energy_up": null, "dos_energy_down": null, "is_magnetic": null, "ordering": null, "total_magnetization": 4.0000001, "total_magnetization_normalized_vol": null, "total_magnetization_normalized_formula_units": null, "num_magnetic_sites": null, "num_unique_magnetic_sites": null, "types_of_magnetic_species": null, "bulk_modulus": null, "shear_modulus": null, "universal_anisotropy": null, "homogeneous_poisson": null, "e_total": null, "e_ionic": null, "e_electronic": null, "n": null, "e_ij_max": null, "weighted_surface_energy_EV_PER_ANG2": null, "weighted_surface_energy": null, "weighted_work_function": null, "surface_anisotropy": null, "shape_factor": null, "has_reconstructed": null, "possible_species": null, "has_props": null, "theoretical": null, "database_IDs": null, "fields_not_requested": ["builder_meta", "nsites", "elements", "nelements", "composition", "composition_reduced", "chemsys", "symmetry", "property_name", "deprecated", "deprecation_reasons", "last_updated", "origins", "warnings", "task_ids", "uncorrected_energy_per_atom", "equilibrium_reaction_energy_per_atom", "decomposes_to", "xas", "grain_boundaries", "cbm", "vbm", "is_gap_direct", "is_metal", "es_source_calc_id", "bandstructure", "dos", "dos_energy_up", "dos_energy_down", "is_magnetic", "ordering", "total_magnetization_normalized_vol", "total_magnetization_normalized_formula_units", "num_magnetic_sites", "num_unique_magnetic_sites", "types_of_magnetic_species", "bulk_modulus", "shear_modulus", "universal_anisotropy", "homogeneous_poisson", "e_total", "e_ionic", "e_electronic", "n", "e_ij_max", "weighted_surface_energy_EV_PER_ANG2", "weighted_surface_energy", "weighted_work_function", "surface_anisotropy", "shape_factor", "has_reconstructed", "possible_species", "has_props", "theoretical", "database_IDs"]}