{
  "builder_meta": null,
  "nsites": null,
  "elements": null,
  "nelements": null,
  "composition": null,
  "composition_reduced": null,
  "formula_pretty": "MoF5",
  "formula_anonymous": "AB5",
  "chemsys": null,
  "volume": 336.52016301315683,
  "density": 3.768571473327148,
  "density_atomic": 14.021673458881535,
  "symmetry": null,
  "property_name": null,
  "material_id": "mp-504759",
  "deprecated": null,
  "deprecation_reasons": null,
  "last_updated": null,
  "origins": null,
  "warnings": null,
  "structure": {
    "@module": "pymatgen.core.structure",
    "@class": "Structure",
    "charge": 0,
    "lattice": {
      "matrix": [
        [7.05453061, 4.74959746, 0.17293629],
        [-7.05453061, 4.74959746, 0.17293629],
        [0.0, 0.39986631, 5.03632192]
      ],
      "pbc": [true, true, true],
      "a": 8.50617335350417,
      "b": 8.50617335350417,
      "c": 5.052170973724612,
      "alpha": 86.30412300027368,
      "beta": 86.30412300027368,
      "gamma": 112.06250077011912,
      "volume": 336.52016301315683
    },
    "properties": {},
    "sites": [
      {
        "species": [{ "element": "Mo", "occu": 1 }],
        "abc": [0.79310716, 0.20689284, -0.0],
        "properties": { "magmom": 0.843 },
        "label": "Mo",
        "xyz": [4.135466864460335, 4.74959746, 0.17293629]
      },
      {
        "species": [{ "element": "Mo", "occu": 1 }],
        "abc": [0.20689284, 0.79310716, -0.0],
        "properties": { "magmom": 0.843 },
        "label": "Mo",
        "xyz": [-4.135466864460335, 4.74959746, 0.17293629]
      },
      {
        "species": [{ "element": "Mo", "occu": 1 }],
        "abc": [0.74042148, 0.74042148, 0.7421946500000001],
        "properties": { "magmom": 0.841 },
        "label": "Mo",
        "xyz": [0.0, 7.330186597472123, 3.9940226722767465]
      },
      {
        "species": [{ "element": "Mo", "occu": 1 }],
        "abc": [0.25957852, 0.25957852, 0.25780535],
        "properties": { "magmom": 0.841 },
        "label": "Mo",
        "xyz": [0.0, 2.568874632527877, 1.3881718277232535]
      },
      {
        "species": [{ "element": "F", "occu": 1 }],
        "abc": [0.86716119, 0.86716119, 0.44343373],
        "properties": { "magmom": -0.021 },
        "label": "F",
        "xyz": [0.0, 8.414647380213792, 2.533202292527532]
      },
      {
        "species": [{ "element": "F", "occu": 1 }],
        "abc": [0.13283881, 0.13283881, 0.55656627],
        "properties": { "magmom": -0.021 },
        "label": "F",
        "xyz": [0.0, 1.484413849786209, 2.848992207472468]
      },
      {
        "species": [{ "element": "F", "occu": 1 }],
        "abc": [0.66278342, 0.66278342, 0.0886013],
        "properties": { "magmom": -0.021 },
        "label": "F",
        "xyz": [0.0, 6.33133757121643, 0.6754632807871195]
      },
      {
        "species": [{ "element": "F", "occu": 1 }],
        "abc": [0.33721658, 0.33721658, 0.9113987],
        "properties": { "magmom": -0.021 },
        "label": "F",
        "xyz": [0.0, 3.567723658783571, 4.70673121921288]
      },
      {
        "species": [{ "element": "F", "occu": 1 }],
        "abc": [0.53249303, 0.72184771, 0.6332602900000001],
        "properties": { "magmom": 0.058 },
        "label": "F",
        "xyz": [-1.3358083862067547, 6.210833048110351, 3.4062237135640117]
      },
      {
        "species": [{ "element": "F", "occu": 1 }],
        "abc": [0.27815229, 0.46750697, 0.36673971],
        "properties": { "magmom": 0.058 },
        "label": "F",
        "xyz": [-1.3358083862067547, 3.68822818188965, 1.9759707864359886]
      },
      {
        "species": [{ "element": "F", "occu": 1 }],
        "abc": [0.46750697, 0.27815229, 0.36673971],
        "properties": { "magmom": 0.058 },
        "label": "F",
        "xyz": [1.3358083862067547, 3.68822818188965, 1.9759707864359886]
      },
      {
        "species": [{ "element": "F", "occu": 1 }],
        "abc": [0.72184771, 0.53249303, 0.6332602900000001],
        "properties": { "magmom": 0.058 },
        "label": "F",
        "xyz": [1.3358083862067547, 6.210833048110351, 3.4062237135640117]
      },
      {
        "species": [{ "element": "F", "occu": 1 }],
        "abc": [0.77033819, 0.97519135, 0.86955989],
        "properties": { "magmom": 0.036000000000000004 },
        "label": "F",
        "xyz": [-1.4451428877752273, 8.638270374077276, 4.681248937492795]
      },
      {
        "species": [{ "element": "F", "occu": 1 }],
        "abc": [0.02480865, 0.22966181, 0.13044011],
        "properties": { "magmom": 0.036000000000000004 },
        "label": "F",
        "xyz": [-1.4451428877752275, 1.2607908559227259, 0.7009455625072046]
      },
      {
        "species": [{ "element": "F", "occu": 1 }],
        "abc": [0.22966181, 0.02480865, 0.13044011],
        "properties": { "magmom": 0.036000000000000004 },
        "label": "F",
        "xyz": [1.4451428877752275, 1.2607908559227259, 0.7009455625072046]
      },
      {
        "species": [{ "element": "F", "occu": 1 }],
        "abc": [0.97519135, 0.77033819, 0.86955989],
        "properties": { "magmom": 0.036000000000000004 },
        "label": "F",
        "xyz": [1.4451428877752273, 8.638270374077276, 4.681248937492795]
      },
      {
        "species": [{ "element": "F", "occu": 1 }],
        "abc": [0.91765462, 0.29326145, 0.6808385100000001],
        "properties": { "magmom": -0.022 },
        "label": "F",
        "xyz": [4.404800730439933, 6.02360827304478, 3.63833324454032]
      },
      {
        "species": [{ "element": "F", "occu": 1 }],
        "abc": [0.70673855, 0.08234538, 0.31916149],
        "properties": { "magmom": -0.022 },
        "label": "F",
        "xyz": [4.404800730439932, 3.8754529569552196, 1.7438612554596804]
      },
      {
        "species": [{ "element": "F", "occu": 1 }],
        "abc": [0.08234538, 0.70673855, 0.31916149],
        "properties": { "magmom": -0.022 },
        "label": "F",
        "xyz": [-4.404800730439932, 3.8754529569552196, 1.7438612554596804]
      },
      {
        "species": [{ "element": "F", "occu": 1 }],
        "abc": [0.29326145, 0.91765462, 0.6808385100000001],
        "properties": { "magmom": -0.022 },
        "label": "F",
        "xyz": [-4.404800730439933, 6.02360827304478, 3.63833324454032]
      },
      {
        "species": [{ "element": "F", "occu": 1 }],
        "abc": [0.5847821, 0.17800664, 0.8807171300000001],
        "properties": { "magmom": 0.056 },
        "label": "F",
        "xyz": [2.8696099339668306, 3.9751085709474907, 4.567488841887864]
      },
      {
        "species": [{ "element": "F", "occu": 1 }],
        "abc": [0.82199336, 0.4152179, 0.11928287],
        "properties": { "magmom": 0.056 },
        "label": "F",
        "xyz": [2.8696099339668306, 5.92395265905251, 0.8147056581121357]
      },
      {
        "species": [{ "element": "F", "occu": 1 }],
        "abc": [0.4152179, 0.82199336, 0.11928287],
        "properties": { "magmom": 0.056 },
        "label": "F",
        "xyz": [-2.8696099339668306, 5.92395265905251, 0.8147056581121357]
      },
      {
        "species": [{ "element": "F", "occu": 1 }],
        "abc": [0.17800664, 0.5847821, 0.8807171300000001],
        "properties": { "magmom": 0.056 },
        "label": "F",
        "xyz": [-2.8696099339668306, 3.9751085709474907, 4.567488841887864]
      }
    ]
  },
  "task_ids": null,
  "uncorrected_energy_per_atom": null,
  "energy_per_atom": -9.581514335416667,
  "formation_energy_per_atom": -2.631161137083333,
  "energy_above_hull": 0.0,
  "is_stable": true,
  "equilibrium_reaction_energy_per_atom": null,
  "decomposes_to": null,
  "xas": null,
  "grain_boundaries": null,
  "band_gap": 0.9911000000000001,
  "cbm": null,
  "vbm": null,
  "efermi": -1.5520200000000002,
  "is_gap_direct": null,
  "is_metal": null,
  "es_source_calc_id": null,
  "bandstructure": null,
  "dos": null,
  "dos_energy_up": null,
  "dos_energy_down": null,
  "is_magnetic": null,
  "ordering": null,
  "total_magnetization": 4.0000001,
  "total_magnetization_normalized_vol": null,
  "total_magnetization_normalized_formula_units": null,
  "num_magnetic_sites": null,
  "num_unique_magnetic_sites": null,
  "types_of_magnetic_species": null,
  "bulk_modulus": null,
  "shear_modulus": null,
  "universal_anisotropy": null,
  "homogeneous_poisson": null,
  "e_total": null,
  "e_ionic": null,
  "e_electronic": null,
  "n": null,
  "e_ij_max": null,
  "weighted_surface_energy_EV_PER_ANG2": null,
  "weighted_surface_energy": null,
  "weighted_work_function": null,
  "surface_anisotropy": null,
  "shape_factor": null,
  "has_reconstructed": null,
  "possible_species": null,
  "has_props": null,
  "theoretical": null,
  "database_IDs": null,
  "fields_not_requested": [
    "builder_meta",
    "nsites",
    "elements",
    "nelements",
    "composition",
    "composition_reduced",
    "chemsys",
    "symmetry",
    "property_name",
    "deprecated",
    "deprecation_reasons",
    "last_updated",
    "origins",
    "warnings",
    "task_ids",
    "uncorrected_energy_per_atom",
    "equilibrium_reaction_energy_per_atom",
    "decomposes_to",
    "xas",
    "grain_boundaries",
    "cbm",
    "vbm",
    "is_gap_direct",
    "is_metal",
    "es_source_calc_id",
    "bandstructure",
    "dos",
    "dos_energy_up",
    "dos_energy_down",
    "is_magnetic",
    "ordering",
    "total_magnetization_normalized_vol",
    "total_magnetization_normalized_formula_units",
    "num_magnetic_sites",
    "num_unique_magnetic_sites",
    "types_of_magnetic_species",
    "bulk_modulus",
    "shear_modulus",
    "universal_anisotropy",
    "homogeneous_poisson",
    "e_total",
    "e_ionic",
    "e_electronic",
    "n",
    "e_ij_max",
    "weighted_surface_energy_EV_PER_ANG2",
    "weighted_surface_energy",
    "weighted_work_function",
    "surface_anisotropy",
    "shape_factor",
    "has_reconstructed",
    "possible_species",
    "has_props",
    "theoretical",
    "database_IDs"
  ]
}
