{
  "builder_meta": null,
  "nsites": null,
  "elements": null,
  "nelements": null,
  "composition": null,
  "composition_reduced": null,
  "formula_pretty": "MoH",
  "formula_anonymous": "AB",
  "chemsys": null,
  "volume": 38.18624743364307,
  "density": 8.431613610430865,
  "density_atomic": 9.546561858410767,
  "symmetry": null,
  "property_name": null,
  "material_id": "mp-24417",
  "deprecated": null,
  "deprecation_reasons": null,
  "last_updated": null,
  "origins": null,
  "warnings": null,
  "structure": {
    "@module": "pymatgen.core.structure",
    "@class": "Structure",
    "charge": 0,
    "lattice": {
      "matrix": [
        [1.464489, -2.536569, 0.0],
        [1.464489, 2.536569, 0.0],
        [0.0, 0.0, 5.139776]
      ],
      "pbc": [true, true, true],
      "a": 2.928977692452095,
      "b": 2.928977692452095,
      "c": 5.139776,
      "alpha": 90.0,
      "beta": 90.0,
      "gamma": 119.9999930531373,
      "volume": 38.18624743364307
    },
    "properties": {},
    "sites": [
      {
        "species": [{ "element": "Mo", "occu": 1 }],
        "abc": [0.0, 0.0, 0.5],
        "properties": { "magmom": -0.0 },
        "label": "Mo",
        "xyz": [0.0, 0.0, 2.569888]
      },
      {
        "species": [{ "element": "Mo", "occu": 1 }],
        "abc": [0.0, 0.0, 0.0],
        "properties": { "magmom": -0.0 },
        "label": "Mo",
        "xyz": [0.0, 0.0, 0.0]
      },
      {
        "species": [{ "element": "H", "occu": 1 }],
        "abc": [0.666667, 0.333333, 0.75],
        "properties": { "magmom": 0.0 },
        "label": "H",
        "xyz": [1.464489, -0.8455246910460001, 3.854832]
      },
      {
        "species": [{ "element": "H", "occu": 1 }],
        "abc": [0.333333, 0.666667, 0.25],
        "properties": { "magmom": 0.0 },
        "label": "H",
        "xyz": [1.464489, 0.8455246910460001, 1.284944]
      }
    ]
  },
  "task_ids": null,
  "uncorrected_energy_per_atom": null,
  "energy_per_atom": -14.369589593125,
  "formation_energy_per_atom": 0.39395632749999904,
  "energy_above_hull": 0.39395632749999904,
  "is_stable": false,
  "equilibrium_reaction_energy_per_atom": null,
  "decomposes_to": null,
  "xas": null,
  "grain_boundaries": null,
  "band_gap": 0.0,
  "cbm": null,
  "vbm": null,
  "efermi": 7.38403788,
  "is_gap_direct": null,
  "is_metal": null,
  "es_source_calc_id": null,
  "bandstructure": null,
  "dos": null,
  "dos_energy_up": null,
  "dos_energy_down": null,
  "is_magnetic": null,
  "ordering": null,
  "total_magnetization": 0.0038100000000000005,
  "total_magnetization_normalized_vol": null,
  "total_magnetization_normalized_formula_units": null,
  "num_magnetic_sites": null,
  "num_unique_magnetic_sites": null,
  "types_of_magnetic_species": null,
  "bulk_modulus": null,
  "shear_modulus": null,
  "universal_anisotropy": null,
  "homogeneous_poisson": null,
  "e_total": null,
  "e_ionic": null,
  "e_electronic": null,
  "n": null,
  "e_ij_max": null,
  "weighted_surface_energy_EV_PER_ANG2": null,
  "weighted_surface_energy": null,
  "weighted_work_function": null,
  "surface_anisotropy": null,
  "shape_factor": null,
  "has_reconstructed": null,
  "possible_species": null,
  "has_props": null,
  "theoretical": null,
  "database_IDs": null,
  "fields_not_requested": [
    "builder_meta",
    "nsites",
    "elements",
    "nelements",
    "composition",
    "composition_reduced",
    "chemsys",
    "symmetry",
    "property_name",
    "deprecated",
    "deprecation_reasons",
    "last_updated",
    "origins",
    "warnings",
    "task_ids",
    "uncorrected_energy_per_atom",
    "equilibrium_reaction_energy_per_atom",
    "decomposes_to",
    "xas",
    "grain_boundaries",
    "cbm",
    "vbm",
    "is_gap_direct",
    "is_metal",
    "es_source_calc_id",
    "bandstructure",
    "dos",
    "dos_energy_up",
    "dos_energy_down",
    "is_magnetic",
    "ordering",
    "total_magnetization_normalized_vol",
    "total_magnetization_normalized_formula_units",
    "num_magnetic_sites",
    "num_unique_magnetic_sites",
    "types_of_magnetic_species",
    "bulk_modulus",
    "shear_modulus",
    "universal_anisotropy",
    "homogeneous_poisson",
    "e_total",
    "e_ionic",
    "e_electronic",
    "n",
    "e_ij_max",
    "weighted_surface_energy_EV_PER_ANG2",
    "weighted_surface_energy",
    "weighted_work_function",
    "surface_anisotropy",
    "shape_factor",
    "has_reconstructed",
    "possible_species",
    "has_props",
    "theoretical",
    "database_IDs"
  ]
}
