{
  "builder_meta": null,
  "nsites": null,
  "elements": null,
  "nelements": null,
  "composition": null,
  "composition_reduced": null,
  "formula_pretty": "MoI2",
  "formula_anonymous": "AB2",
  "chemsys": null,
  "volume": 1348.3113780215315,
  "density": 5.168881205089096,
  "density_atomic": 37.45309383393143,
  "symmetry": null,
  "property_name": null,
  "material_id": "mp-1198690",
  "deprecated": null,
  "deprecation_reasons": null,
  "last_updated": null,
  "origins": null,
  "warnings": null,
  "structure": {
    "@module": "pymatgen.core.structure",
    "@class": "Structure",
    "charge": 0,
    "lattice": {
      "matrix": [
        [0.0, -6.3906091400000005, -8.25238656],
        [0.0, -6.3906091400000005, 8.25238656],
        [-12.7831647, -0.0, 0.0]
      ],
      "pbc": [true, true, true],
      "a": 10.437517382784096,
      "b": 10.437517382784096,
      "c": 12.7831647,
      "alpha": 90.0,
      "beta": 90.0,
      "gamma": 104.49193756196675,
      "volume": 1348.3113780215317
    },
    "properties": {},
    "sites": [
      {
        "species": [{ "element": "Mo", "occu": 1 }],
        "abc": [0.6317132, 0.6317132, 0.43377572000000003],
        "properties": { "magmom": -0.0 },
        "label": "Mo",
        "xyz": [-5.545026471621084, -8.074064299557296, 0.0]
      },
      {
        "species": [{ "element": "Mo", "occu": 1 }],
        "abc": [0.368286799999999, 0.368286799999999, 0.56622428],
        "properties": { "magmom": -0.0 },
        "label": "Mo",
        "xyz": [-7.238138228378917, -4.707153980442692, 0.0]
      },
      {
        "species": [{ "element": "Mo", "occu": 1 }],
        "abc": [0.868286799999999, 0.868286799999999, 0.93377572],
        "properties": { "magmom": -0.0 },
        "label": "Mo",
        "xyz": [-11.936608821621084, -11.097763120442693, 0.0]
      },
      {
        "species": [{ "element": "Mo", "occu": 1 }],
        "abc": [0.1317132, 0.1317132, 0.06622428],
        "properties": { "magmom": -0.0 },
        "label": "Mo",
        "xyz": [-0.846555878378916, -1.6834551595572962, 0.0]
      },
      {
        "species": [{ "element": "Mo", "occu": 1 }],
        "abc": [0.56635827, 0.56635827, 0.63163901],
        "properties": { "magmom": -0.0 },
        "label": "Mo",
        "xyz": [-8.074345495774947, -7.238748673553177, 0.0]
      },
      {
        "species": [{ "element": "Mo", "occu": 1 }],
        "abc": [0.43364173, 0.43364173, 0.36836099],
        "properties": { "magmom": -0.0 },
        "label": "Mo",
        "xyz": [-4.708819204225053, -5.542469606446825, 0.0]
      },
      {
        "species": [{ "element": "Mo", "occu": 1 }],
        "abc": [0.9336417300000001, 0.9336417300000001, 0.13163901],
        "properties": { "magmom": -0.0 },
        "label": "Mo",
        "xyz": [-1.682763145774947, -11.933078746446826, 0.0]
      },
      {
        "species": [{ "element": "Mo", "occu": 1 }],
        "abc": [0.06635827, 0.06635827, 0.86836099],
        "properties": { "magmom": -0.0 },
        "label": "Mo",
        "xyz": [-11.100401554225053, -0.8481395335531756, 0.0]
      },
      {
        "species": [{ "element": "Mo", "occu": 1 }],
        "abc": [0.38597924, 0.61402076, 0.5],
        "properties": { "magmom": 0.0 },
        "label": "Mo",
        "xyz": [-6.39158235, -6.3906091400000005, 1.881886774769972]
      },
      {
        "species": [{ "element": "Mo", "occu": 1 }],
        "abc": [0.11402076, 0.8859792400000001, 0.0],
        "properties": { "magmom": 0.0 },
        "label": "Mo",
        "xyz": [0.0, -6.390609140000001, 6.370499785230029]
      },
      {
        "species": [{ "element": "Mo", "occu": 1 }],
        "abc": [0.61402076, 0.38597924, 0.5],
        "properties": { "magmom": 0.0 },
        "label": "Mo",
        "xyz": [-6.39158235, -6.3906091400000005, -1.881886774769972]
      },
      {
        "species": [{ "element": "Mo", "occu": 1 }],
        "abc": [0.8859792400000001, 0.11402076, 0.0],
        "properties": { "magmom": 0.0 },
        "label": "Mo",
        "xyz": [0.0, -6.390609140000001, -6.370499785230029]
      },
      {
        "species": [{ "element": "I", "occu": 1 }],
        "abc": [0.58865113, 0.82753968, 0.56905107],
        "properties": { "magmom": 0.0 },
        "label": "I",
        "xyz": [-7.2742735505212295, -9.050321934370004, 1.9714006593578874]
      },
      {
        "species": [{ "element": "I", "occu": 1 }],
        "abc": [0.17246032, 0.41134887000000003, 0.43094893],
        "properties": { "magmom": 0.0 },
        "label": "I",
        "xyz": [-5.508891149478771, -3.730896345629997, 1.971400659357888]
      },
      {
        "species": [{ "element": "I", "occu": 1 }],
        "abc": [0.91134887, 0.67246032, 0.06905107],
        "properties": { "magmom": 0.0 },
        "label": "I",
        "xyz": [-0.8826912005212291, -10.121505485629996, -1.9714006593578874]
      },
      {
        "species": [{ "element": "I", "occu": 1 }],
        "abc": [0.32753968, 0.08865113000000001, 0.93094893],
        "properties": { "magmom": 0.0 },
        "label": "I",
        "xyz": [-11.900473499478771, -2.6597127943700034, -1.9714006593578879]
      },
      {
        "species": [{ "element": "I", "occu": 1 }],
        "abc": [0.41134887000000003, 0.17246032, 0.43094893],
        "properties": { "magmom": 0.0 },
        "label": "I",
        "xyz": [-5.508891149478771, -3.730896345629997, -1.971400659357888]
      },
      {
        "species": [{ "element": "I", "occu": 1 }],
        "abc": [0.82753968, 0.58865113, 0.56905107],
        "properties": { "magmom": 0.0 },
        "label": "I",
        "xyz": [-7.2742735505212295, -9.050321934370004, -1.9714006593578874]
      },
      {
        "species": [{ "element": "I", "occu": 1 }],
        "abc": [0.08865113000000001, 0.32753968, 0.93094893],
        "properties": { "magmom": 0.0 },
        "label": "I",
        "xyz": [-11.900473499478771, -2.6597127943700034, 1.9714006593578879]
      },
      {
        "species": [{ "element": "I", "occu": 1 }],
        "abc": [0.67246032, 0.91134887, 0.06905107],
        "properties": { "magmom": 0.0 },
        "label": "I",
        "xyz": [-0.8826912005212291, -10.121505485629996, 1.9714006593578874]
      },
      {
        "species": [{ "element": "I", "occu": 1 }],
        "abc": [0.45003688000000003, 0.68854222, 0.29200434000000003],
        "properties": { "magmom": 0.0 },
        "label": "I",
        "xyz": [-3.7327395713347986, -7.276214003072974, 1.9682382623042303]
      },
      {
        "species": [{ "element": "I", "occu": 1 }],
        "abc": [0.31145878, 0.54996312, 0.70799566],
        "properties": { "magmom": 0.0 },
        "label": "I",
        "xyz": [-9.050425128665202, -5.505010667536166, 1.9682300099176713]
      },
      {
        "species": [{ "element": "I", "occu": 1 }],
        "abc": [0.04996312, 0.81145778, 0.79200434],
        "properties": { "magmom": 0.0 },
        "label": "I",
        "xyz": [-10.124321921334799, -5.505004276927027, 6.284148297695769]
      },
      {
        "species": [{ "element": "I", "occu": 1 }],
        "abc": [0.18854222, 0.95003688, 0.20799566],
        "properties": { "magmom": 0.0 },
        "label": "I",
        "xyz": [-2.658842778665202, -7.276214003072974, 6.2841482976957685]
      },
      {
        "species": [{ "element": "I", "occu": 1 }],
        "abc": [0.54996312, 0.31145878, 0.70799566],
        "properties": { "magmom": 0.0 },
        "label": "I",
        "xyz": [-9.050425128665202, -5.505010667536166, -1.9682300099176713]
      },
      {
        "species": [{ "element": "I", "occu": 1 }],
        "abc": [0.68854222, 0.45003688000000003, 0.29200434000000003],
        "properties": { "magmom": 0.0 },
        "label": "I",
        "xyz": [-3.7327395713347986, -7.276214003072974, -1.9682382623042303]
      },
      {
        "species": [{ "element": "I", "occu": 1 }],
        "abc": [0.95003688, 0.18854222, 0.20799566],
        "properties": { "magmom": 0.0 },
        "label": "I",
        "xyz": [-2.658842778665202, -7.276214003072974, -6.2841482976957685]
      },
      {
        "species": [{ "element": "I", "occu": 1 }],
        "abc": [0.81145778, 0.04996312, 0.79200434],
        "properties": { "magmom": 0.0 },
        "label": "I",
        "xyz": [-10.124321921334799, -5.505004276927027, -6.284148297695769]
      },
      {
        "species": [{ "element": "I", "occu": 1 }],
        "abc": [0.6562586300000001, 0.6562586300000001, 0.84405007],
        "properties": { "magmom": -0.0 },
        "label": "I",
        "xyz": [-10.789631059856529, -8.387784798163757, 0.0]
      },
      {
        "species": [{ "element": "I", "occu": 1 }],
        "abc": [0.34374237, 0.34374237, 0.15594993000000001],
        "properties": { "magmom": -0.0 },
        "label": "I",
        "xyz": [-1.9935336401434713, -4.393446263054524, 0.0]
      },
      {
        "species": [{ "element": "I", "occu": 1 }],
        "abc": [0.84374137, 0.84374137, 0.34405007],
        "properties": { "magmom": -0.0 },
        "label": "I",
        "xyz": [-4.398048709856529, -10.784042621836244, 0.0]
      },
      {
        "species": [{ "element": "I", "occu": 1 }],
        "abc": [0.15625863, 0.15625863, 0.65594993],
        "properties": { "magmom": -0.0 },
        "label": "I",
        "xyz": [-8.385115990143472, -1.9971756581637568, 0.0]
      },
      {
        "species": [{ "element": "I", "occu": 1 }],
        "abc": [0.21364378, 0.78635622, 0.5],
        "properties": { "magmom": -0.0 },
        "label": "I",
        "xyz": [-6.39158235, -6.3906091400000005, 4.726244442600807]
      },
      {
        "species": [{ "element": "I", "occu": 1 }],
        "abc": [0.28635622, 0.7136437800000001, 0.0],
        "properties": { "magmom": -0.0 },
        "label": "I",
        "xyz": [0.0, -6.390609140000001, 3.526142117399194]
      },
      {
        "species": [{ "element": "I", "occu": 1 }],
        "abc": [0.78635622, 0.21364378, 0.5],
        "properties": { "magmom": -0.0 },
        "label": "I",
        "xyz": [-6.39158235, -6.3906091400000005, -4.726244442600807]
      },
      {
        "species": [{ "element": "I", "occu": 1 }],
        "abc": [0.7136437800000001, 0.28635622, 0.0],
        "properties": { "magmom": -0.0 },
        "label": "I",
        "xyz": [0.0, -6.390609140000001, -3.526142117399194]
      }
    ]
  },
  "task_ids": null,
  "uncorrected_energy_per_atom": null,
  "energy_per_atom": -5.274343632777778,
  "formation_energy_per_atom": -0.6431185194444441,
  "energy_above_hull": 0.0,
  "is_stable": true,
  "equilibrium_reaction_energy_per_atom": null,
  "decomposes_to": null,
  "xas": null,
  "grain_boundaries": null,
  "band_gap": 1.6796,
  "cbm": null,
  "vbm": null,
  "efermi": 2.71370048,
  "is_gap_direct": null,
  "is_metal": null,
  "es_source_calc_id": null,
  "bandstructure": null,
  "dos": null,
  "dos_energy_up": null,
  "dos_energy_down": null,
  "is_magnetic": null,
  "ordering": null,
  "total_magnetization": 0.0,
  "total_magnetization_normalized_vol": null,
  "total_magnetization_normalized_formula_units": null,
  "num_magnetic_sites": null,
  "num_unique_magnetic_sites": null,
  "types_of_magnetic_species": null,
  "bulk_modulus": null,
  "shear_modulus": null,
  "universal_anisotropy": null,
  "homogeneous_poisson": null,
  "e_total": null,
  "e_ionic": null,
  "e_electronic": null,
  "n": null,
  "e_ij_max": null,
  "weighted_surface_energy_EV_PER_ANG2": null,
  "weighted_surface_energy": null,
  "weighted_work_function": null,
  "surface_anisotropy": null,
  "shape_factor": null,
  "has_reconstructed": null,
  "possible_species": null,
  "has_props": null,
  "theoretical": null,
  "database_IDs": null,
  "fields_not_requested": [
    "builder_meta",
    "nsites",
    "elements",
    "nelements",
    "composition",
    "composition_reduced",
    "chemsys",
    "symmetry",
    "property_name",
    "deprecated",
    "deprecation_reasons",
    "last_updated",
    "origins",
    "warnings",
    "task_ids",
    "uncorrected_energy_per_atom",
    "equilibrium_reaction_energy_per_atom",
    "decomposes_to",
    "xas",
    "grain_boundaries",
    "cbm",
    "vbm",
    "is_gap_direct",
    "is_metal",
    "es_source_calc_id",
    "bandstructure",
    "dos",
    "dos_energy_up",
    "dos_energy_down",
    "is_magnetic",
    "ordering",
    "total_magnetization_normalized_vol",
    "total_magnetization_normalized_formula_units",
    "num_magnetic_sites",
    "num_unique_magnetic_sites",
    "types_of_magnetic_species",
    "bulk_modulus",
    "shear_modulus",
    "universal_anisotropy",
    "homogeneous_poisson",
    "e_total",
    "e_ionic",
    "e_electronic",
    "n",
    "e_ij_max",
    "weighted_surface_energy_EV_PER_ANG2",
    "weighted_surface_energy",
    "weighted_work_function",
    "surface_anisotropy",
    "shape_factor",
    "has_reconstructed",
    "possible_species",
    "has_props",
    "theoretical",
    "database_IDs"
  ]
}
