{"builder_meta": null, "nsites": null, "elements": null, "nelements": null, "composition": null, "composition_reduced": null, "formula_pretty": "MoI3", "formula_anonymous": "AB3", "chemsys": null, "volume": 381.54485659086595, "density": 4.1489308261431574, "density_atomic": 47.69310707385824, "symmetry": null, "property_name": null, "material_id": "mp-864733", "deprecated": null, "deprecation_reasons": null, "last_updated": null, "origins": null, "warnings": null, "structure": {"@module": "pymatgen.core.structure", "@class": "Structure", "charge": 0.0, "lattice": {"matrix": [[5.39707124, -9.34844854, 0.0], [5.39707124, 9.34844854, -0.0], [-0.0, -0.0, 3.78109784]], "pbc": [true, true, true], "a": 10.794529543924703, "b": 10.794529543924703, "c": 3.78109784, "alpha": 90.0, "beta": 90.0, "gamma": 120.00237229329802, "volume": 381.54485659086595}, "properties": {}, "sites": [{"species": [{"element": "Mo", "occu": 1}], "abc": [0.66670379, 0.33329621, 0.25], "properties": {"magmom": 2.632}, "label": "Mo", "xyz": [5.39707124, -3.1168436044759336, 0.94527446]}, {"species": [{"element": "Mo", "occu": 1}], "abc": [0.33331188, 0.66668812, 0.75], "properties": {"magmom": 2.632}, "label": "Mo", "xyz": [5.39707124, 3.1165506240986893, 2.83582338]}, {"species": [{"element": "I", "occu": 1}], "abc": [0.78061826, 0.21938174, 0.75], "properties": {"magmom": -0.003}, "label": "I", "xyz": [5.39707124, -5.24669072598868, 2.83582338]}, {"species": [{"element": "I", "occu": 1}], "abc": [0.43889402, 0.2194266, 0.75], "properties": {"magmom": -0.003}, "label": "I", "xyz": [3.553003284900969, -2.0516798820765665, 2.83582338]}, {"species": [{"element": "I", "occu": 1}], "abc": [0.7805734, 0.56110598, 0.75], "properties": {"magmom": -0.003}, "label": "I", "xyz": [7.241139195099031, -2.0516798820765665, 2.83582338]}, {"species": [{"element": "I", "occu": 1}], "abc": [0.2193857, 0.7806143, 0.25], "properties": {"magmom": -0.003}, "label": "I", "xyz": [5.39707124, 5.246616686276244, 0.94527446]}, {"species": [{"element": "I", "occu": 1}], "abc": [0.56115092, 0.78063796, 0.25], "properties": {"magmom": -0.003}, "label": "I", "xyz": [7.241730174399811, 2.0518632986369214, 0.94527446]}, {"species": [{"element": "I", "occu": 1}], "abc": [0.21936204, 0.43884908, 0.25], "properties": {"magmom": -0.003}, "label": "I", "xyz": [3.5524123056001886, 2.051863298636922, 0.94527446]}]}, "task_ids": null, "uncorrected_energy_per_atom": null, "energy_per_atom": -4.113129882500001, "formation_energy_per_atom": -0.25870789375000103, "energy_above_hull": 0.223630995833332, "is_stable": false, "equilibrium_reaction_energy_per_atom": null, "decomposes_to": null, "xas": null, "grain_boundaries": null, "band_gap": 0.0, "cbm": null, "vbm": null, "efermi": 1.9945095800000001, "is_gap_direct": null, "is_metal": null, "es_source_calc_id": null, "bandstructure": null, "dos": null, "dos_energy_up": null, "dos_energy_down": null, "is_magnetic": null, "ordering": null, "total_magnetization": 5.9986385, "total_magnetization_normalized_vol": null, "total_magnetization_normalized_formula_units": null, "num_magnetic_sites": null, "num_unique_magnetic_sites": null, "types_of_magnetic_species": null, "bulk_modulus": null, "shear_modulus": null, "universal_anisotropy": null, "homogeneous_poisson": null, "e_total": null, "e_ionic": null, "e_electronic": null, "n": null, "e_ij_max": null, "weighted_surface_energy_EV_PER_ANG2": null, "weighted_surface_energy": null, "weighted_work_function": null, "surface_anisotropy": null, "shape_factor": null, "has_reconstructed": null, "possible_species": null, "has_props": null, "theoretical": null, "database_IDs": null, "fields_not_requested": ["builder_meta", "nsites", "elements", "nelements", "composition", "composition_reduced", "chemsys", "symmetry", "property_name", "deprecated", "deprecation_reasons", "last_updated", "origins", "warnings", "task_ids", "uncorrected_energy_per_atom", "equilibrium_reaction_energy_per_atom", "decomposes_to", "xas", "grain_boundaries", "cbm", "vbm", "is_gap_direct", "is_metal", "es_source_calc_id", "bandstructure", "dos", "dos_energy_up", "dos_energy_down", "is_magnetic", "ordering", "total_magnetization_normalized_vol", "total_magnetization_normalized_formula_units", "num_magnetic_sites", "num_unique_magnetic_sites", "types_of_magnetic_species", "bulk_modulus", "shear_modulus", "universal_anisotropy", "homogeneous_poisson", "e_total", "e_ionic", "e_electronic", "n", "e_ij_max", "weighted_surface_energy_EV_PER_ANG2", "weighted_surface_energy", "weighted_work_function", "surface_anisotropy", "shape_factor", "has_reconstructed", "possible_species", "has_props", "theoretical", "database_IDs"]}