{"builder_meta": null, "nsites": null, "elements": null, "nelements": null, "composition": null, "composition_reduced": null, "formula_pretty": "MoIr4", "formula_anonymous": "AB4", "chemsys": null, "volume": 73.96312586679568, "density": 19.415721716446527, "density_atomic": 14.792625173359136, "symmetry": null, "property_name": null, "material_id": "mp-1221426", "deprecated": null, "deprecation_reasons": null, "last_updated": null, "origins": null, "warnings": null, "structure": {"@module": "pymatgen.core.structure", "@class": "Structure", "charge": 0, "lattice": {"matrix": [[11.333902, -1.374219, 0.0], [11.333902, 1.374219, 0.0], [11.16728, 0.0, 2.374378]], "pbc": [true, true, true], "a": 11.416909056551383, "b": 11.416909056551383, "c": 11.416909103837343, "alpha": 13.826566533870952, "beta": 13.826566533870952, "gamma": 13.826566380656871, "volume": 73.96312586679568}, "properties": {}, "sites": [{"species": [{"element": "Mo", "occu": 1}], "abc": [0.0, 0.0, 0.0], "properties": {"magmom": 0.0}, "label": "Mo", "xyz": [0.0, 0.0, 0.0]}, {"species": [{"element": "Ir", "occu": 1}], "abc": [0.600295999999999, 0.600295999999999, 0.600295999999999], "properties": {"magmom": -0.0}, "label": "Ir", "xyz": [20.311065584863968, 0.0, 1.4253296158879978]}, {"species": [{"element": "Ir", "occu": 1}], "abc": [0.199317, 0.199317, 0.199317], "properties": {"magmom": -0.001}, "label": "Ir", "xyz": [6.743907437628, 0.0, 0.473253899826]}, {"species": [{"element": "Ir", "occu": 1}], "abc": [0.800682999999999, 0.800682999999999, 0.800682999999999], "properties": {"magmom": -0.001}, "label": "Ir", "xyz": [27.091176562371967, 0.0, 1.9011241001739978]}, {"species": [{"element": "Ir", "occu": 1}], "abc": [0.399704, 0.399704, 0.399704], "properties": {"magmom": -0.0}, "label": "Ir", "xyz": [13.524018415136, 0.0, 0.9490483841120001]}]}, "task_ids": null, "uncorrected_energy_per_atom": null, "energy_per_atom": -47.195229151, "formation_energy_per_atom": -0.093350502999999, "energy_above_hull": 0.204315122000004, "is_stable": false, "equilibrium_reaction_energy_per_atom": null, "decomposes_to": null, "xas": null, "grain_boundaries": null, "band_gap": 0.0, "cbm": null, "vbm": null, "efermi": 9.28971287, "is_gap_direct": null, "is_metal": null, "es_source_calc_id": null, "bandstructure": null, "dos": null, "dos_energy_up": null, "dos_energy_down": null, "is_magnetic": null, "ordering": null, "total_magnetization": 0.003437699999999, "total_magnetization_normalized_vol": null, "total_magnetization_normalized_formula_units": null, "num_magnetic_sites": null, "num_unique_magnetic_sites": null, "types_of_magnetic_species": null, "bulk_modulus": null, "shear_modulus": null, "universal_anisotropy": null, "homogeneous_poisson": null, "e_total": null, "e_ionic": null, "e_electronic": null, "n": null, "e_ij_max": null, "weighted_surface_energy_EV_PER_ANG2": null, "weighted_surface_energy": null, "weighted_work_function": null, "surface_anisotropy": null, "shape_factor": null, "has_reconstructed": null, "possible_species": null, "has_props": null, "theoretical": null, "database_IDs": null, "fields_not_requested": ["builder_meta", "nsites", "elements", "nelements", "composition", "composition_reduced", "chemsys", "symmetry", "property_name", "deprecated", "deprecation_reasons", "last_updated", "origins", "warnings", "task_ids", "uncorrected_energy_per_atom", "equilibrium_reaction_energy_per_atom", "decomposes_to", "xas", "grain_boundaries", "cbm", "vbm", "is_gap_direct", "is_metal", "es_source_calc_id", "bandstructure", "dos", "dos_energy_up", "dos_energy_down", "is_magnetic", "ordering", "total_magnetization_normalized_vol", "total_magnetization_normalized_formula_units", "num_magnetic_sites", "num_unique_magnetic_sites", "types_of_magnetic_species", "bulk_modulus", "shear_modulus", "universal_anisotropy", "homogeneous_poisson", "e_total", "e_ionic", "e_electronic", "n", "e_ij_max", "weighted_surface_energy_EV_PER_ANG2", "weighted_surface_energy", "weighted_work_function", "surface_anisotropy", "shape_factor", "has_reconstructed", "possible_species", "has_props", "theoretical", "database_IDs"]}