{
  "builder_meta": null,
  "nsites": null,
  "elements": null,
  "nelements": null,
  "composition": null,
  "composition_reduced": null,
  "formula_pretty": "MoIr3",
  "formula_anonymous": "AB3",
  "chemsys": null,
  "volume": 115.59278658449394,
  "density": 19.324106016376305,
  "density_atomic": 14.449098323061742,
  "symmetry": null,
  "property_name": null,
  "material_id": "mp-11482",
  "deprecated": null,
  "deprecation_reasons": null,
  "last_updated": null,
  "origins": null,
  "warnings": null,
  "structure": {
    "@module": "pymatgen.core.structure",
    "@class": "Structure",
    "charge": 0,
    "lattice": {
      "matrix": [
        [5.50902513, 1e-8, -0.0],
        [-2.75451105, 4.77095522, 0.0],
        [0.0, -0.0, 4.39795356]
      ],
      "pbc": [true, true, true],
      "a": 5.50902513,
      "b": 5.509023945838079,
      "c": 4.39795356,
      "alpha": 90.0,
      "beta": 90.0,
      "gamma": 119.99998881239455,
      "volume": 115.59278658449394
    },
    "properties": {},
    "sites": [
      {
        "species": [{ "element": "Mo", "occu": 1 }],
        "abc": [0.333333, 0.666667, 0.25],
        "properties": { "magmom": -0.0 },
        "label": "Mo",
        "xyz": [-1.7445120599202113e-6, 3.18063840698507, 1.09948839]
      },
      {
        "species": [{ "element": "Mo", "occu": 1 }],
        "abc": [0.666667, 0.333333, 0.75],
        "properties": { "magmom": -0.0 },
        "label": "Mo",
        "xyz": [2.7545158245120605, 1.59031682301493, 3.29846517]
      },
      {
        "species": [{ "element": "Ir", "occu": 1 }],
        "abc": [0.83368313, 0.66736526, 0.25],
        "properties": { "magmom": 0.0 },
        "label": "Ir",
        "xyz": [2.7545163305709344, 3.1839697791804884, 1.09948839]
      },
      {
        "species": [{ "element": "Ir", "occu": 1 }],
        "abc": [0.16631687, 0.83368313, 0.75],
        "properties": { "magmom": 0.0 },
        "label": "Ir",
        "xyz": [-1.3801455774106435, 3.9774648825626078, 3.29846517]
      },
      {
        "species": [{ "element": "Ir", "occu": 1 }],
        "abc": [0.66736526, 0.83368313, 0.75],
        "properties": { "magmom": 0.0 },
        "label": "Ir",
        "xyz": [1.380142594445397, 3.977464887573092, 3.29846517]
      },
      {
        "species": [{ "element": "Ir", "occu": 1 }],
        "abc": [0.33263474, 0.16631687, 0.25],
        "properties": { "magmom": 0.0 },
        "label": "Ir",
        "xyz": [1.3743714855546028, 0.7934903424269089, 1.09948839]
      },
      {
        "species": [{ "element": "Ir", "occu": 1 }],
        "abc": [0.83368313, 0.16631687, 0.25],
        "properties": { "magmom": 0.0 },
        "label": "Ir",
        "xyz": [4.134659657410643, 0.7934903474373928, 1.09948839]
      },
      {
        "species": [{ "element": "Ir", "occu": 1 }],
        "abc": [0.16631687, 0.33263474, 0.75],
        "properties": { "magmom": 0.0 },
        "label": "Ir",
        "xyz": [-2.2505709338371815e-6, 1.5869854508195116, 3.29846517]
      }
    ]
  },
  "task_ids": null,
  "uncorrected_energy_per_atom": null,
  "energy_per_atom": -46.15959197875,
  "formation_energy_per_atom": -0.37208203125000205,
  "energy_above_hull": 0.0,
  "is_stable": true,
  "equilibrium_reaction_energy_per_atom": null,
  "decomposes_to": null,
  "xas": null,
  "grain_boundaries": null,
  "band_gap": 0.0,
  "cbm": null,
  "vbm": null,
  "efermi": 9.91757594,
  "is_gap_direct": null,
  "is_metal": null,
  "es_source_calc_id": null,
  "bandstructure": null,
  "dos": null,
  "dos_energy_up": null,
  "dos_energy_down": null,
  "is_magnetic": null,
  "ordering": null,
  "total_magnetization": 0.0,
  "total_magnetization_normalized_vol": null,
  "total_magnetization_normalized_formula_units": null,
  "num_magnetic_sites": null,
  "num_unique_magnetic_sites": null,
  "types_of_magnetic_species": null,
  "bulk_modulus": null,
  "shear_modulus": null,
  "universal_anisotropy": null,
  "homogeneous_poisson": null,
  "e_total": null,
  "e_ionic": null,
  "e_electronic": null,
  "n": null,
  "e_ij_max": null,
  "weighted_surface_energy_EV_PER_ANG2": null,
  "weighted_surface_energy": null,
  "weighted_work_function": null,
  "surface_anisotropy": null,
  "shape_factor": null,
  "has_reconstructed": null,
  "possible_species": null,
  "has_props": null,
  "theoretical": null,
  "database_IDs": null,
  "fields_not_requested": [
    "builder_meta",
    "nsites",
    "elements",
    "nelements",
    "composition",
    "composition_reduced",
    "chemsys",
    "symmetry",
    "property_name",
    "deprecated",
    "deprecation_reasons",
    "last_updated",
    "origins",
    "warnings",
    "task_ids",
    "uncorrected_energy_per_atom",
    "equilibrium_reaction_energy_per_atom",
    "decomposes_to",
    "xas",
    "grain_boundaries",
    "cbm",
    "vbm",
    "is_gap_direct",
    "is_metal",
    "es_source_calc_id",
    "bandstructure",
    "dos",
    "dos_energy_up",
    "dos_energy_down",
    "is_magnetic",
    "ordering",
    "total_magnetization_normalized_vol",
    "total_magnetization_normalized_formula_units",
    "num_magnetic_sites",
    "num_unique_magnetic_sites",
    "types_of_magnetic_species",
    "bulk_modulus",
    "shear_modulus",
    "universal_anisotropy",
    "homogeneous_poisson",
    "e_total",
    "e_ionic",
    "e_electronic",
    "n",
    "e_ij_max",
    "weighted_surface_energy_EV_PER_ANG2",
    "weighted_surface_energy",
    "weighted_work_function",
    "surface_anisotropy",
    "shape_factor",
    "has_reconstructed",
    "possible_species",
    "has_props",
    "theoretical",
    "database_IDs"
  ]
}
