{
  "builder_meta": null,
  "nsites": null,
  "elements": null,
  "nelements": null,
  "composition": null,
  "composition_reduced": null,
  "formula_pretty": "MoN",
  "formula_anonymous": "AB",
  "chemsys": null,
  "volume": 161.20057594049132,
  "density": 9.060552769297692,
  "density_atomic": 10.075035996280707,
  "symmetry": null,
  "property_name": null,
  "material_id": "mp-2811",
  "deprecated": null,
  "deprecation_reasons": null,
  "last_updated": null,
  "origins": null,
  "warnings": null,
  "structure": {
    "@module": "pymatgen.core.structure",
    "@class": "Structure",
    "charge": 0,
    "lattice": {
      "matrix": [
        [5.74303458, -1e-8, -0.0],
        [-2.8715178, 4.97361469, -0.0],
        [-0.0, -0.0, 5.64355837]
      ],
      "pbc": [true, true, true],
      "a": 5.74303458,
      "b": 5.743035570175465,
      "c": 5.64355837,
      "alpha": 90.0,
      "beta": 90.0,
      "gamma": 120.00000027155423,
      "volume": 161.20057594049132
    },
    "properties": {},
    "sites": [
      {
        "species": [{ "element": "Mo", "occu": 1 }],
        "abc": [0.51426464, 0.48573536, 0.4926388],
        "properties": { "magmom": 0.0 },
        "label": "Mo",
        "xyz": [1.5586418784618432, 2.415860516805792, 2.780235823126756]
      },
      {
        "species": [{ "element": "Mo", "occu": 1 }],
        "abc": [0.02853028, 0.51426464, 0.992638799999999],
        "properties": { "magmom": 0.0 },
        "label": "Mo",
        "xyz": [-1.3128696830535096, 2.5577541677662587, 5.602015008126751]
      },
      {
        "species": [{ "element": "Mo", "occu": 1 }],
        "abc": [0.48573536, 0.97146972, 0.992638799999999],
        "properties": { "magmom": 0.0 },
        "label": "Mo",
        "xyz": [2.376067732789977e-6, 4.831716065424833, 5.602015008126751]
      },
      {
        "species": [{ "element": "Mo", "occu": 1 }],
        "abc": [0.51426464, 0.02853028, 0.4926388],
        "properties": { "magmom": 0.0 },
        "label": "Mo",
        "xyz": [2.871514403932267, 0.1418986145751668, 2.780235823126756]
      },
      {
        "species": [{ "element": "Mo", "occu": 1 }],
        "abc": [0.97146972, 0.48573536, 0.4926388],
        "properties": { "magmom": 0.0 },
        "label": "Mo",
        "xyz": [4.184386463053509, 2.415860512233741, 2.780235823126756]
      },
      {
        "species": [{ "element": "Mo", "occu": 1 }],
        "abc": [0.48573536, 0.51426464, 0.992638799999999],
        "properties": { "magmom": 0.0 },
        "label": "Mo",
        "xyz": [1.3128749015381564, 2.557754163194208, 5.602015008126751]
      },
      {
        "species": [{ "element": "Mo", "occu": 1 }],
        "abc": [0.0, -0.0, 0.48565562],
        "properties": { "magmom": -0.0 },
        "label": "Mo",
        "xyz": [0.0, 0.0, 2.7408258391885396]
      },
      {
        "species": [{ "element": "Mo", "occu": 1 }],
        "abc": [0.0, -0.0, 0.9856556200000001],
        "properties": { "magmom": -0.0 },
        "label": "Mo",
        "xyz": [0.0, 0.0, 5.56260502418854]
      },
      {
        "species": [{ "element": "N", "occu": 1 }],
        "abc": [0.83350938, 0.16649062, 0.7487649],
        "properties": { "magmom": 0.0 },
        "label": "N",
        "xyz": [4.308792413231324, 0.8280601850441139, 4.225698418557212]
      },
      {
        "species": [{ "element": "N", "occu": 1 }],
        "abc": [0.6670177700000001, 0.83350938, 0.248764899999999],
        "properties": { "magmom": 0.0 },
        "label": "N",
        "xyz": [1.437269097447523, 4.145554489950615, 1.4039192335572075]
      },
      {
        "species": [{ "element": "N", "occu": 1 }],
        "abc": [0.16649062, 0.33298223, 0.248764899999999],
        "properties": { "magmom": 0.0 },
        "label": "N",
        "xyz": [-3.012623054243768e-6, 1.6561253089720525, 1.4039192335572075]
      },
      {
        "species": [{ "element": "N", "occu": 1 }],
        "abc": [0.83350938, 0.6670177700000001, 0.7487649],
        "properties": { "magmom": 0.0 },
        "label": "N",
        "xyz": [2.8715197926230536, 3.3174893710279476, 4.225698418557212]
      },
      {
        "species": [{ "element": "N", "occu": 1 }],
        "abc": [0.33298223, 0.16649062, 0.7487649],
        "properties": { "magmom": 0.0 },
        "label": "N",
        "xyz": [1.4342476825524773, 0.8280601900493855, 4.225698418557212]
      },
      {
        "species": [{ "element": "N", "occu": 1 }],
        "abc": [0.16649062, 0.83350938, 0.248764899999999],
        "properties": { "magmom": 0.0 },
        "label": "N",
        "xyz": [-1.4372756332313241, 4.145554494955886, 1.4039192335572075]
      },
      {
        "species": [{ "element": "N", "occu": 1 }],
        "abc": [0.666667, 0.333333, 0.21713928000000002],
        "properties": { "magmom": 0.0 },
        "label": "N",
        "xyz": [2.87151999151746, 1.6578698987950997, 1.2254382010997737]
      },
      {
        "species": [{ "element": "N", "occu": 1 }],
        "abc": [0.333333, 0.666667, 0.71713928],
        "properties": { "magmom": 0.0 },
        "label": "N",
        "xyz": [-3.2115174599667284e-6, 3.3157447812049, 4.047217386099774]
      }
    ]
  },
  "task_ids": null,
  "uncorrected_energy_per_atom": null,
  "energy_per_atom": -10.13818434625,
  "formation_energy_per_atom": -0.546220418749999,
  "energy_above_hull": 0.0,
  "is_stable": true,
  "equilibrium_reaction_energy_per_atom": null,
  "decomposes_to": null,
  "xas": null,
  "grain_boundaries": null,
  "band_gap": 0.0,
  "cbm": null,
  "vbm": null,
  "efermi": 9.77749657,
  "is_gap_direct": null,
  "is_metal": null,
  "es_source_calc_id": null,
  "bandstructure": null,
  "dos": null,
  "dos_energy_up": null,
  "dos_energy_down": null,
  "is_magnetic": null,
  "ordering": null,
  "total_magnetization": 8e-7,
  "total_magnetization_normalized_vol": null,
  "total_magnetization_normalized_formula_units": null,
  "num_magnetic_sites": null,
  "num_unique_magnetic_sites": null,
  "types_of_magnetic_species": null,
  "bulk_modulus": null,
  "shear_modulus": null,
  "universal_anisotropy": null,
  "homogeneous_poisson": null,
  "e_total": null,
  "e_ionic": null,
  "e_electronic": null,
  "n": null,
  "e_ij_max": null,
  "weighted_surface_energy_EV_PER_ANG2": null,
  "weighted_surface_energy": null,
  "weighted_work_function": null,
  "surface_anisotropy": null,
  "shape_factor": null,
  "has_reconstructed": null,
  "possible_species": null,
  "has_props": null,
  "theoretical": null,
  "database_IDs": null,
  "fields_not_requested": [
    "builder_meta",
    "nsites",
    "elements",
    "nelements",
    "composition",
    "composition_reduced",
    "chemsys",
    "symmetry",
    "property_name",
    "deprecated",
    "deprecation_reasons",
    "last_updated",
    "origins",
    "warnings",
    "task_ids",
    "uncorrected_energy_per_atom",
    "equilibrium_reaction_energy_per_atom",
    "decomposes_to",
    "xas",
    "grain_boundaries",
    "cbm",
    "vbm",
    "is_gap_direct",
    "is_metal",
    "es_source_calc_id",
    "bandstructure",
    "dos",
    "dos_energy_up",
    "dos_energy_down",
    "is_magnetic",
    "ordering",
    "total_magnetization_normalized_vol",
    "total_magnetization_normalized_formula_units",
    "num_magnetic_sites",
    "num_unique_magnetic_sites",
    "types_of_magnetic_species",
    "bulk_modulus",
    "shear_modulus",
    "universal_anisotropy",
    "homogeneous_poisson",
    "e_total",
    "e_ionic",
    "e_electronic",
    "n",
    "e_ij_max",
    "weighted_surface_energy_EV_PER_ANG2",
    "weighted_surface_energy",
    "weighted_work_function",
    "surface_anisotropy",
    "shape_factor",
    "has_reconstructed",
    "possible_species",
    "has_props",
    "theoretical",
    "database_IDs"
  ]
}
