{
  "builder_meta": null,
  "nsites": null,
  "elements": null,
  "nelements": null,
  "composition": null,
  "composition_reduced": null,
  "formula_pretty": "MoO2",
  "formula_anonymous": "AB2",
  "chemsys": null,
  "volume": 137.09116040744064,
  "density": 6.19871842655709,
  "density_atomic": 11.42426336728672,
  "symmetry": null,
  "property_name": null,
  "material_id": "mp-510536",
  "deprecated": null,
  "deprecation_reasons": null,
  "last_updated": null,
  "origins": null,
  "warnings": null,
  "structure": {
    "@module": "pymatgen.core.structure",
    "@class": "Structure",
    "charge": 0,
    "lattice": {
      "matrix": [
        [4.6388251, -8.529e-5, 3.9580000000000004e-5],
        [-9.949000000000002e-5, 4.65637344, -3.15427751],
        [3.808e-5, -0.0478855, 6.37922117]
      ],
      "pbc": [true, true, true],
      "a": 4.638825100952931,
      "b": 5.624169292680253,
      "c": 6.379400893370514,
      "alpha": 124.54421730657468,
      "beta": 89.99916122896336,
      "gamma": 90.00215989613397,
      "volume": 137.09116040744064
    },
    "properties": {},
    "sites": [
      {
        "species": [{ "element": "Mo", "occu": 1 }],
        "abc": [0.49999952000000003, 0.50000517, 0.25000233],
        "properties": { "magmom": 1.901 },
        "label": "Mo",
        "xyz": [2.319370097938315, 2.316196661918409, 0.01768488345160102]
      },
      {
        "species": [{ "element": "Mo", "occu": 1 }],
        "abc": [0.9999983100000001, 1.759999999999998e-6, 0.24999958],
        "properties": { "magmom": 1.9020000000000001 },
        "label": "Mo",
        "xyz": [4.638826780194485, -0.012048449526695499, 1.594836641631801]
      },
      {
        "species": [{ "element": "Mo", "occu": 1 }],
        "abc": [0.50000048, 0.49999483, 0.7499976700000001],
        "properties": { "magmom": 1.901 },
        "label": "Mo",
        "xyz": [2.319393592061685, 2.2922059880815913, 3.2072983565483995]
      },
      {
        "species": [{ "element": "Mo", "occu": 1 }],
        "abc": [1.69e-6, 0.99999824, 0.75000042],
        "properties": { "magmom": 1.9020000000000001 },
        "label": "Mo",
        "xyz": [-6.309019448500003e-5, 4.620451099526696, 1.6301465983681989]
      },
      {
        "species": [{ "element": "O", "occu": 1 }],
        "abc": [0.194808099999999, 0.8042180600000001, 0.40209704],
        "properties": { "magmom": -0.005 },
        "label": "O",
        "xyz": [0.9036160041637993, 3.7254683815605576, 0.028346720673103842]
      },
      {
        "species": [{ "element": "O", "occu": 1 }],
        "abc": [0.69478461, 0.69570127, 0.09786276000000001],
        "properties": { "magmom": -0.004 },
        "label": "O",
        "xyz": [3.2229187992562593, 3.234699450428902, -1.5701191797179448]
      },
      {
        "species": [{ "element": "O", "occu": 1 }],
        "abc": [0.8051919, 0.19578194000000002, 0.59790296],
        "properties": { "magmom": -0.005 },
        "label": "O",
        "xyz": [3.735147685836196, 0.8829342684394427, 3.196636519326896]
      },
      {
        "species": [{ "element": "O", "occu": 1 }],
        "abc": [0.30521539000000003, 0.30429873, 0.9021372400000001],
        "properties": { "magmom": -0.004 },
        "label": "O",
        "xyz": [1.4158448907437404, 1.3737031995710982, 4.795102419717945]
      },
      {
        "species": [{ "element": "O", "occu": 1 }],
        "abc": [0.80518582, 0.19577538, 0.09789662],
        "properties": { "magmom": -0.005 },
        "label": "O",
        "xyz": [3.7351004421908156, 0.9068467767423094, 0.007006181884497198]
      },
      {
        "species": [{ "element": "O", "occu": 1 }],
        "abc": [0.30521333, 0.30430135, 0.40214337],
        "properties": { "magmom": -0.004 },
        "label": "O",
        "xyz": [1.4158162947368012, 1.3976578559070936, 1.6055226750551062]
      },
      {
        "species": [{ "element": "O", "occu": 1 }],
        "abc": [0.19481418, 0.8042246200000001, 0.90210338],
        "properties": { "magmom": -0.005 },
        "label": "O",
        "xyz": [0.9036632478091846, 3.7015558732576914, 3.217977058115503]
      },
      {
        "species": [{ "element": "O", "occu": 1 }],
        "abc": [0.69478667, 0.6956976500000001, 0.59785663],
        "properties": { "magmom": -0.004 },
        "label": "O",
        "xyz": [3.2229473953626897, 3.2107401377194673, 1.619463719222404]
      }
    ]
  },
  "task_ids": null,
  "uncorrected_energy_per_atom": null,
  "energy_per_atom": -8.935412561666666,
  "formation_energy_per_atom": -2.021555188333332,
  "energy_above_hull": 0.0,
  "is_stable": true,
  "equilibrium_reaction_energy_per_atom": null,
  "decomposes_to": null,
  "xas": null,
  "grain_boundaries": null,
  "band_gap": 0.0,
  "cbm": null,
  "vbm": null,
  "efermi": 4.62219435,
  "is_gap_direct": null,
  "is_metal": null,
  "es_source_calc_id": null,
  "bandstructure": null,
  "dos": null,
  "dos_energy_up": null,
  "dos_energy_down": null,
  "is_magnetic": null,
  "ordering": null,
  "total_magnetization": 7.9999849,
  "total_magnetization_normalized_vol": null,
  "total_magnetization_normalized_formula_units": null,
  "num_magnetic_sites": null,
  "num_unique_magnetic_sites": null,
  "types_of_magnetic_species": null,
  "bulk_modulus": null,
  "shear_modulus": null,
  "universal_anisotropy": null,
  "homogeneous_poisson": null,
  "e_total": null,
  "e_ionic": null,
  "e_electronic": null,
  "n": null,
  "e_ij_max": null,
  "weighted_surface_energy_EV_PER_ANG2": null,
  "weighted_surface_energy": null,
  "weighted_work_function": null,
  "surface_anisotropy": null,
  "shape_factor": null,
  "has_reconstructed": null,
  "possible_species": null,
  "has_props": null,
  "theoretical": null,
  "database_IDs": null,
  "fields_not_requested": [
    "builder_meta",
    "nsites",
    "elements",
    "nelements",
    "composition",
    "composition_reduced",
    "chemsys",
    "symmetry",
    "property_name",
    "deprecated",
    "deprecation_reasons",
    "last_updated",
    "origins",
    "warnings",
    "task_ids",
    "uncorrected_energy_per_atom",
    "equilibrium_reaction_energy_per_atom",
    "decomposes_to",
    "xas",
    "grain_boundaries",
    "cbm",
    "vbm",
    "is_gap_direct",
    "is_metal",
    "es_source_calc_id",
    "bandstructure",
    "dos",
    "dos_energy_up",
    "dos_energy_down",
    "is_magnetic",
    "ordering",
    "total_magnetization_normalized_vol",
    "total_magnetization_normalized_formula_units",
    "num_magnetic_sites",
    "num_unique_magnetic_sites",
    "types_of_magnetic_species",
    "bulk_modulus",
    "shear_modulus",
    "universal_anisotropy",
    "homogeneous_poisson",
    "e_total",
    "e_ionic",
    "e_electronic",
    "n",
    "e_ij_max",
    "weighted_surface_energy_EV_PER_ANG2",
    "weighted_surface_energy",
    "weighted_work_function",
    "surface_anisotropy",
    "shape_factor",
    "has_reconstructed",
    "possible_species",
    "has_props",
    "theoretical",
    "database_IDs"
  ]
}
