{"builder_meta": null, "nsites": null, "elements": null, "nelements": null, "composition": null, "composition_reduced": null, "formula_pretty": "MoO3", "formula_anonymous": "AB3", "chemsys": null, "volume": 216.31208088552106, "density": 4.419817946323175, "density_atomic": 13.519505055345066, "symmetry": null, "property_name": null, "material_id": "mp-715584", "deprecated": null, "deprecation_reasons": null, "last_updated": null, "origins": null, "warnings": null, "structure": {"@module": "pymatgen.core.structure", "@class": "Structure", "charge": 0, "lattice": {"matrix": [[0.0, 0.07856488, 7.14425155], [5.40499669, 0.0, 0.0], [0.0, 5.6006654000000005, -0.10435404000000001]], "pbc": [true, true, true], "a": 7.144683523435227, "b": 5.40499669, "c": 5.601637500626177, "alpha": 90.0, "beta": 90.43738378688819, "gamma": 90.0, "volume": 216.31208088552108}, "properties": {}, "sites": [{"species": [{"element": "Mo", "occu": 1}], "abc": [0.50126542, 0.49499999, 0.7015708700000001], "properties": {"magmom": 0.0}, "label": "Mo", "xyz": [2.675473307500033, 3.968645554827348, 3.507954499165586]}, {"species": [{"element": "Mo", "occu": 1}], "abc": [0.50126542, 0.00500001, 0.20157087], "properties": {"magmom": 0.0}, "label": "Mo", "xyz": [0.0270250374999669, 1.1683128548273478, 3.5601315191655862]}, {"species": [{"element": "Mo", "occu": 1}], "abc": [0.00115607, 0.99828296, 0.03649614], "properties": {"magmom": -0.0}, "label": "Mo", "xyz": [5.395716094483403, 0.20449349503237763, 0.004450735236002899]}, {"species": [{"element": "Mo", "occu": 1}], "abc": [0.00115607, 0.5017170400000001, 0.53649614], "properties": {"magmom": -0.0}, "label": "Mo", "xyz": [2.7117789405165977, 3.004826195032378, -0.04772628476399711]}, {"species": [{"element": "O", "occu": 1}], "abc": [0.46173954, 0.23239135, 0.86857355], "properties": {"magmom": 0.0}, "label": "O", "xyz": [1.2560744775346315, 4.900866340391525, 3.208144265361645]}, {"species": [{"element": "O", "occu": 1}], "abc": [0.46173954, 0.26760865, 0.36857255], "properties": {"magmom": 0.0}, "label": "O", "xyz": [1.4464238674653684, 2.1005280397261252, 3.260321389715685]}, {"species": [{"element": "O", "occu": 1}], "abc": [0.04432461, 0.23392468, 0.83704904], "properties": {"magmom": -0.0}, "label": "O", "xyz": [1.2643621211093092, 4.691513954096914, 0.22931671469352388]}, {"species": [{"element": "O", "occu": 1}], "abc": [0.04432461, 0.26607532, 0.33704904], "properties": {"magmom": -0.0}, "label": "O", "xyz": [1.4381362238906907, 1.891181254096913, 0.2814937346935239]}, {"species": [{"element": "O", "occu": 1}], "abc": [0.75261674, 0.07394831, 0.11251819], "properties": {"magmom": 0.0}, "label": "O", "xyz": [0.39969037078109393, 0.6893059774677173, 5.36514158360096]}, {"species": [{"element": "O", "occu": 1}], "abc": [0.75261674, 0.42605169, 0.61251819], "properties": {"magmom": 0.0}, "label": "O", "xyz": [2.302807974218906, 3.4896386774677173, 5.31296456360096]}, {"species": [{"element": "O", "occu": 1}], "abc": [0.54465258, 0.7842711800000001, 0.41667719000000003], "properties": {"magmom": -0.0}, "label": "O", "xyz": [4.238983131962395, 2.3764600855916167, 3.8476530907241515]}, {"species": [{"element": "O", "occu": 1}], "abc": [0.54465258, 0.71572882, 0.91667719], "properties": {"magmom": -0.0}, "label": "O", "xyz": [3.868511903037606, 5.176792785591617, 3.7954760707241517]}, {"species": [{"element": "O", "occu": 1}], "abc": [0.25324763, 0.92388019, 0.12374873], "properties": {"magmom": 0.0}, "label": "O", "xyz": [4.993569368906571, 0.7129716000661764, 1.7963510932409572]}, {"species": [{"element": "O", "occu": 1}], "abc": [0.25324763, 0.57611981, 0.62374873], "properties": {"magmom": 0.0}, "label": "O", "xyz": [3.113925666093429, 3.5133043000661766, 1.7441740732409574]}, {"species": [{"element": "O", "occu": 1}], "abc": [0.96179541, 0.74810416, 0.85216729], "properties": {"magmom": 0.0}, "label": "O", "xyz": [4.043500508575231, 4.848267197085967, 6.782381249208034]}, {"species": [{"element": "O", "occu": 1}], "abc": [0.96179541, 0.75189584, 0.35216729], "properties": {"magmom": 0.0}, "label": "O", "xyz": [4.06399452642477, 2.047934497085967, 6.834558269208034]}]}, "task_ids": null, "uncorrected_energy_per_atom": null, "energy_per_atom": -8.3470251534375, "formation_energy_per_atom": -1.9246418721875, "energy_above_hull": 0.0, "is_stable": true, "equilibrium_reaction_energy_per_atom": null, "decomposes_to": null, "xas": null, "grain_boundaries": null, "band_gap": 1.834299999999999, "cbm": null, "vbm": null, "efermi": 0.44124089, "is_gap_direct": null, "is_metal": null, "es_source_calc_id": null, "bandstructure": null, "dos": null, "dos_energy_up": null, "dos_energy_down": null, "is_magnetic": null, "ordering": null, "total_magnetization": 0.0, "total_magnetization_normalized_vol": null, "total_magnetization_normalized_formula_units": null, "num_magnetic_sites": null, "num_unique_magnetic_sites": null, "types_of_magnetic_species": null, "bulk_modulus": null, "shear_modulus": null, "universal_anisotropy": null, "homogeneous_poisson": null, "e_total": null, "e_ionic": null, "e_electronic": null, "n": null, "e_ij_max": null, "weighted_surface_energy_EV_PER_ANG2": null, "weighted_surface_energy": null, "weighted_work_function": null, "surface_anisotropy": null, "shape_factor": null, "has_reconstructed": null, "possible_species": null, "has_props": null, "theoretical": null, "database_IDs": null, "fields_not_requested": ["builder_meta", "nsites", "elements", "nelements", "composition", "composition_reduced", "chemsys", "symmetry", "property_name", "deprecated", "deprecation_reasons", "last_updated", "origins", "warnings", "task_ids", "uncorrected_energy_per_atom", "equilibrium_reaction_energy_per_atom", "decomposes_to", "xas", "grain_boundaries", "cbm", "vbm", "is_gap_direct", "is_metal", "es_source_calc_id", "bandstructure", "dos", "dos_energy_up", "dos_energy_down", "is_magnetic", "ordering", "total_magnetization_normalized_vol", "total_magnetization_normalized_formula_units", "num_magnetic_sites", "num_unique_magnetic_sites", "types_of_magnetic_species", "bulk_modulus", "shear_modulus", "universal_anisotropy", "homogeneous_poisson", "e_total", "e_ionic", "e_electronic", "n", "e_ij_max", "weighted_surface_energy_EV_PER_ANG2", "weighted_surface_energy", "weighted_work_function", "surface_anisotropy", "shape_factor", "has_reconstructed", "possible_species", "has_props", "theoretical", "database_IDs"]}