{
  "builder_meta": null,
  "nsites": null,
  "elements": null,
  "nelements": null,
  "composition": null,
  "composition_reduced": null,
  "formula_pretty": "MoO4",
  "formula_anonymous": "AB4",
  "chemsys": null,
  "volume": 169.9138080370062,
  "density": 3.126086526886642,
  "density_atomic": 16.99138080370062,
  "symmetry": null,
  "property_name": null,
  "material_id": "mp-1180203",
  "deprecated": null,
  "deprecation_reasons": null,
  "last_updated": null,
  "origins": null,
  "warnings": null,
  "structure": {
    "@module": "pymatgen.core.structure",
    "@class": "Structure",
    "charge": 0,
    "lattice": {
      "matrix": [
        [7.726234, 0.002284999999999, 0.229134999999999],
        [-2.777661, 5.841922, -1.707328],
        [-0.000167, -0.034463, 3.773531]
      ],
      "pbc": [true, true, true],
      "a": 7.729631290831795,
      "b": 6.690173554145588,
      "c": 3.773688372695737,
      "alpha": 105.25675026867734,
      "beta": 88.30405245689128,
      "gamma": 114.98049057986732,
      "volume": 169.9138080370062
    },
    "properties": {},
    "sites": [
      {
        "species": [{ "element": "Mo", "occu": 1 }],
        "abc": [0.796211, 0.962565, 0.745236999999999],
        "properties": { "magmom": -0.074 },
        "label": "Mo",
        "xyz": [3.47790878433, 5.599365889333999, 1.3512005530119962]
      },
      {
        "species": [{ "element": "Mo", "occu": 1 }],
        "abc": [0.203789, 0.037434999999999004, 0.254762999999999],
        "properties": { "magmom": -0.074 },
        "label": "Mo",
        "xyz": [1.4704972156700027, 0.21037811066599402, 0.9441374469879978]
      },
      {
        "species": [{ "element": "O", "occu": 1 }],
        "abc": [0.551584, 0.79376, 0.679933999999999],
        "properties": { "magmom": 0.152 },
        "label": "O",
        "xyz": [2.0567573103179995, 4.6149118107180005, 1.3369305535139961]
      },
      {
        "species": [{ "element": "O", "occu": 1 }],
        "abc": [0.448416, 0.20624, 0.320065999999999],
        "properties": { "magmom": 0.152 },
        "label": "O",
        "xyz": [2.8916486896819995, 1.1948321892819997, 0.958407446485996]
      },
      {
        "species": [{ "element": "O", "occu": 1 }],
        "abc": [0.128581, 0.062106999999999, 0.770497],
        "properties": { "magmom": 0.108 },
        "label": "O",
        "xyz": [0.8208060292280027, 0.33656441912799406, 2.830919702246002]
      },
      {
        "species": [{ "element": "O", "occu": 1 }],
        "abc": [0.871418999999999, 0.937893, 0.229502999999999],
        "properties": { "magmom": 0.108 },
        "label": "O",
        "xyz": [4.1275999707719935, 5.4731795808719985, -0.5355817022460045]
      },
      {
        "species": [{ "element": "O", "occu": 1 }],
        "abc": [0.820006999999999, 0.239487999999999, 0.875288],
        "properties": { "magmom": 0.043000000000000003 },
        "label": "O",
        "xyz": [5.670203312973995, 1.3707788815869932, 3.0819341378090006]
      },
      {
        "species": [{ "element": "O", "occu": 1 }],
        "abc": [0.179993, 0.760512, 0.124711999999999],
        "properties": { "magmom": 0.043000000000000003 },
        "label": "O",
        "xyz": [-0.721797312974, 4.438965118412999, -0.7865961378090037]
      },
      {
        "species": [{ "element": "O", "occu": 1 }],
        "abc": [0.8143600000000001, 0.616035999999999, 0.587621],
        "properties": { "magmom": 1.381 },
        "label": "O",
        "xyz": [4.580698615737003, 3.5804438912689935, 1.352228926543001]
      },
      {
        "species": [{ "element": "O", "occu": 1 }],
        "abc": [0.18564000000000003, 0.38396399999999903, 0.412379],
        "properties": { "magmom": 1.381 },
        "label": "O",
        "xyz": [0.3677073842630028, 2.2293001087309943, 0.9431090734570016]
      }
    ]
  },
  "task_ids": null,
  "uncorrected_energy_per_atom": null,
  "energy_per_atom": -7.197824207000001,
  "formation_energy_per_atom": -1.070325381,
  "energy_above_hull": 0.46938811674999703,
  "is_stable": false,
  "equilibrium_reaction_energy_per_atom": null,
  "decomposes_to": null,
  "xas": null,
  "grain_boundaries": null,
  "band_gap": 0.498,
  "cbm": null,
  "vbm": null,
  "efermi": -1.71904866,
  "is_gap_direct": null,
  "is_metal": null,
  "es_source_calc_id": null,
  "bandstructure": null,
  "dos": null,
  "dos_energy_up": null,
  "dos_energy_down": null,
  "is_magnetic": null,
  "ordering": null,
  "total_magnetization": 3.9998597,
  "total_magnetization_normalized_vol": null,
  "total_magnetization_normalized_formula_units": null,
  "num_magnetic_sites": null,
  "num_unique_magnetic_sites": null,
  "types_of_magnetic_species": null,
  "bulk_modulus": null,
  "shear_modulus": null,
  "universal_anisotropy": null,
  "homogeneous_poisson": null,
  "e_total": null,
  "e_ionic": null,
  "e_electronic": null,
  "n": null,
  "e_ij_max": null,
  "weighted_surface_energy_EV_PER_ANG2": null,
  "weighted_surface_energy": null,
  "weighted_work_function": null,
  "surface_anisotropy": null,
  "shape_factor": null,
  "has_reconstructed": null,
  "possible_species": null,
  "has_props": null,
  "theoretical": null,
  "database_IDs": null,
  "fields_not_requested": [
    "builder_meta",
    "nsites",
    "elements",
    "nelements",
    "composition",
    "composition_reduced",
    "chemsys",
    "symmetry",
    "property_name",
    "deprecated",
    "deprecation_reasons",
    "last_updated",
    "origins",
    "warnings",
    "task_ids",
    "uncorrected_energy_per_atom",
    "equilibrium_reaction_energy_per_atom",
    "decomposes_to",
    "xas",
    "grain_boundaries",
    "cbm",
    "vbm",
    "is_gap_direct",
    "is_metal",
    "es_source_calc_id",
    "bandstructure",
    "dos",
    "dos_energy_up",
    "dos_energy_down",
    "is_magnetic",
    "ordering",
    "total_magnetization_normalized_vol",
    "total_magnetization_normalized_formula_units",
    "num_magnetic_sites",
    "num_unique_magnetic_sites",
    "types_of_magnetic_species",
    "bulk_modulus",
    "shear_modulus",
    "universal_anisotropy",
    "homogeneous_poisson",
    "e_total",
    "e_ionic",
    "e_electronic",
    "n",
    "e_ij_max",
    "weighted_surface_energy_EV_PER_ANG2",
    "weighted_surface_energy",
    "weighted_work_function",
    "surface_anisotropy",
    "shape_factor",
    "has_reconstructed",
    "possible_species",
    "has_props",
    "theoretical",
    "database_IDs"
  ]
}
