{"builder_meta": null, "nsites": null, "elements": null, "nelements": null, "composition": null, "composition_reduced": null, "formula_pretty": "MoO5", "formula_anonymous": "AB5", "chemsys": null, "volume": 185.63348588446073, "density": 3.14760303474816, "density_atomic": 15.469457157038393, "symmetry": null, "property_name": null, "material_id": "mp-796331", "deprecated": null, "deprecation_reasons": null, "last_updated": null, "origins": null, "warnings": null, "structure": {"@module": "pymatgen.core.structure", "@class": "Structure", "charge": 0, "lattice": {"matrix": [[6.067013, 0.0, 0.0], [0.0, 3.946721, 0.0], [0.0, 0.0018549999999990002, 7.7525569999999995]], "pbc": [true, true, true], "a": 6.067013, "b": 3.946721, "c": 7.752557221928387, "alpha": 89.98629050144767, "beta": 90.0, "gamma": 90.0, "volume": 185.6334858844607}, "properties": {}, "sites": [{"species": [{"element": "Mo", "occu": 1}], "abc": [0.0, 0.868042, 0.274512], "properties": {"magmom": 0.0}, "label": "Mo", "xyz": [0.0, 3.4264288100419997, 2.1281699271839996]}, {"species": [{"element": "Mo", "occu": 1}], "abc": [0.0, 0.991698, 0.774712], "properties": {"magmom": -0.0}, "label": "Mo", "xyz": [0.0, 3.915392413017999, 6.005998938583999]}, {"species": [{"element": "O", "occu": 1}], "abc": [0.0, 0.422929, 0.300957], "properties": {"magmom": -0.0}, "label": "O", "xyz": [0.0, 1.669741041044, 2.3331862970489996]}, {"species": [{"element": "O", "occu": 1}], "abc": [0.0, 0.442677, 0.795164], "properties": {"magmom": 0.0}, "label": "O", "xyz": [0.0, 1.7485976413369992, 6.1645542343479995]}, {"species": [{"element": "O", "occu": 1}], "abc": [0.320465, 0.941839, 0.272799], "properties": {"magmom": -0.0}, "label": "O", "xyz": [1.944265321045, 3.7176818020639995, 2.114889797043]}, {"species": [{"element": "O", "occu": 1}], "abc": [0.679535, 0.941839, 0.272799], "properties": {"magmom": -0.0}, "label": "O", "xyz": [4.122747678955, 3.7176818020639995, 2.114889797043]}, {"species": [{"element": "O", "occu": 1}], "abc": [0.67969, 0.974579, 0.805049], "properties": {"magmom": 0.0}, "label": "O", "xyz": [4.123688065970001, 3.847884771353999, 6.241188260293]}, {"species": [{"element": "O", "occu": 1}], "abc": [0.32031000000000004, 0.974579, 0.805049], "properties": {"magmom": 0.0}, "label": "O", "xyz": [1.9433249340300003, 3.847884771353999, 6.241188260293]}, {"species": [{"element": "O", "occu": 1}], "abc": [0.0, 0.939898999999999, 0.045183], "properties": {"magmom": -0.0}, "label": "O", "xyz": [0.0, 3.7096029356439963, 0.350283782931]}, {"species": [{"element": "O", "occu": 1}], "abc": [0.0, 0.920744, 0.544743], "properties": {"magmom": -0.0}, "label": "O", "xyz": [0.0, 3.634930178689, 4.2231511578509995]}, {"species": [{"element": "O", "occu": 1}], "abc": [0.5, 0.780758, 0.745688], "properties": {"magmom": 0.0}, "label": "O", "xyz": [3.0335065, 3.082817245757999, 5.780988724216]}, {"species": [{"element": "O", "occu": 1}], "abc": [0.5, 0.800414, 0.363348], "properties": {"magmom": -0.0}, "label": "O", "xyz": [3.0335065, 3.1596847530339995, 2.816876080836]}]}, "task_ids": null, "uncorrected_energy_per_atom": null, "energy_per_atom": -6.544812912499999, "formation_energy_per_atom": -0.6139037233333331, "energy_above_hull": 0.669190858124999, "is_stable": false, "equilibrium_reaction_energy_per_atom": null, "decomposes_to": null, "xas": null, "grain_boundaries": null, "band_gap": 0.489299999999999, "cbm": null, "vbm": null, "efermi": 0.33913818, "is_gap_direct": null, "is_metal": null, "es_source_calc_id": null, "bandstructure": null, "dos": null, "dos_energy_up": null, "dos_energy_down": null, "is_magnetic": null, "ordering": null, "total_magnetization": 8e-07, "total_magnetization_normalized_vol": null, "total_magnetization_normalized_formula_units": null, "num_magnetic_sites": null, "num_unique_magnetic_sites": null, "types_of_magnetic_species": null, "bulk_modulus": null, "shear_modulus": null, "universal_anisotropy": null, "homogeneous_poisson": null, "e_total": null, "e_ionic": null, "e_electronic": null, "n": null, "e_ij_max": null, "weighted_surface_energy_EV_PER_ANG2": null, "weighted_surface_energy": null, "weighted_work_function": null, "surface_anisotropy": null, "shape_factor": null, "has_reconstructed": null, "possible_species": null, "has_props": null, "theoretical": null, "database_IDs": null, "fields_not_requested": ["builder_meta", "nsites", "elements", "nelements", "composition", "composition_reduced", "chemsys", "symmetry", "property_name", "deprecated", "deprecation_reasons", "last_updated", "origins", "warnings", "task_ids", "uncorrected_energy_per_atom", "equilibrium_reaction_energy_per_atom", "decomposes_to", "xas", "grain_boundaries", "cbm", "vbm", "is_gap_direct", "is_metal", "es_source_calc_id", "bandstructure", "dos", "dos_energy_up", "dos_energy_down", "is_magnetic", "ordering", "total_magnetization_normalized_vol", "total_magnetization_normalized_formula_units", "num_magnetic_sites", "num_unique_magnetic_sites", "types_of_magnetic_species", "bulk_modulus", "shear_modulus", "universal_anisotropy", "homogeneous_poisson", "e_total", "e_ionic", "e_electronic", "n", "e_ij_max", "weighted_surface_energy_EV_PER_ANG2", "weighted_surface_energy", "weighted_work_function", "surface_anisotropy", "shape_factor", "has_reconstructed", "possible_species", "has_props", "theoretical", "database_IDs"]}