{
  "builder_meta": null,
  "nsites": null,
  "elements": null,
  "nelements": null,
  "composition": null,
  "composition_reduced": null,
  "formula_pretty": "MoP2",
  "formula_anonymous": "AB2",
  "chemsys": null,
  "volume": 88.45215178155648,
  "density": 5.928140728067916,
  "density_atomic": 14.74202529692608,
  "symmetry": null,
  "property_name": null,
  "material_id": "mp-1887",
  "deprecated": null,
  "deprecation_reasons": null,
  "last_updated": null,
  "origins": null,
  "warnings": null,
  "structure": {
    "@module": "pymatgen.core.structure",
    "@class": "Structure",
    "charge": 0,
    "lattice": {
      "matrix": [
        [3.04527862, 0.0, -0.85634728],
        [0.0, 4.99442287, 0.0],
        [-0.0070991100000000005, 0.0, 5.8176168]
      ],
      "pbc": [true, true, true],
      "a": 3.1633925677020396,
      "b": 4.99442287,
      "c": 5.817621131442389,
      "alpha": 90.0,
      "beta": 105.77616010375218,
      "gamma": 90.0,
      "volume": 88.4521517815565
    },
    "properties": {},
    "sites": [
      {
        "species": [{ "element": "Mo", "occu": 1 }],
        "abc": [0.09352603, 0.50093396, 0.18705107],
        "properties": { "magmom": 0.0 },
        "label": "Mo",
        "xyz": [0.28348492345093085, 2.5018760261836652, 1.0081006858902777]
      },
      {
        "species": [{ "element": "Mo", "occu": 1 }],
        "abc": [0.9064739700000001, 0.0009339600000000001, 0.81294893],
        "properties": { "magmom": 0.0 },
        "label": "Mo",
        "xyz": [2.754694586549069, 0.0046645911836652, 3.9531688341097224]
      },
      {
        "species": [{ "element": "P", "occu": 1 }],
        "abc": [0.43088069, 0.61977256, 0.86176039],
        "properties": { "magmom": 0.0 },
        "label": "P",
        "xyz": [1.3060340212255948, 3.0954062478624476, 4.644408215552529]
      },
      {
        "species": [{ "element": "P", "occu": 1 }],
        "abc": [0.56911931, 0.11977256, 0.13823961],
        "properties": { "magmom": 0.0 },
        "label": "P",
        "xyz": [1.7321454887744052, 0.5981948128624472, 0.3168613044474711]
      },
      {
        "species": [{ "element": "P", "occu": 1 }],
        "abc": [0.70035483, 0.80429247, 0.40070765],
        "properties": { "magmom": -0.0 },
        "label": "P",
        "xyz": [2.1299309225275427, 4.01697670633679, 1.731416602823158]
      },
      {
        "species": [{ "element": "P", "occu": 1 }],
        "abc": [0.29964517, 0.30429247, 0.59929235],
        "properties": { "magmom": -0.0 },
        "label": "P",
        "xyz": [0.9082485874724568, 1.5197652713367888, 3.229852917176842]
      }
    ]
  },
  "task_ids": null,
  "uncorrected_energy_per_atom": null,
  "energy_per_atom": -15.234164130000002,
  "formation_energy_per_atom": -0.5421201086507941,
  "energy_above_hull": 0.0,
  "is_stable": true,
  "equilibrium_reaction_energy_per_atom": null,
  "decomposes_to": null,
  "xas": null,
  "grain_boundaries": null,
  "band_gap": 0.0,
  "cbm": null,
  "vbm": null,
  "efermi": 9.23522111,
  "is_gap_direct": null,
  "is_metal": null,
  "es_source_calc_id": null,
  "bandstructure": null,
  "dos": null,
  "dos_energy_up": null,
  "dos_energy_down": null,
  "is_magnetic": null,
  "ordering": null,
  "total_magnetization": 0.0,
  "total_magnetization_normalized_vol": null,
  "total_magnetization_normalized_formula_units": null,
  "num_magnetic_sites": null,
  "num_unique_magnetic_sites": null,
  "types_of_magnetic_species": null,
  "bulk_modulus": null,
  "shear_modulus": null,
  "universal_anisotropy": null,
  "homogeneous_poisson": null,
  "e_total": null,
  "e_ionic": null,
  "e_electronic": null,
  "n": null,
  "e_ij_max": null,
  "weighted_surface_energy_EV_PER_ANG2": null,
  "weighted_surface_energy": null,
  "weighted_work_function": null,
  "surface_anisotropy": null,
  "shape_factor": null,
  "has_reconstructed": null,
  "possible_species": null,
  "has_props": null,
  "theoretical": null,
  "database_IDs": null,
  "fields_not_requested": [
    "builder_meta",
    "nsites",
    "elements",
    "nelements",
    "composition",
    "composition_reduced",
    "chemsys",
    "symmetry",
    "property_name",
    "deprecated",
    "deprecation_reasons",
    "last_updated",
    "origins",
    "warnings",
    "task_ids",
    "uncorrected_energy_per_atom",
    "equilibrium_reaction_energy_per_atom",
    "decomposes_to",
    "xas",
    "grain_boundaries",
    "cbm",
    "vbm",
    "is_gap_direct",
    "is_metal",
    "es_source_calc_id",
    "bandstructure",
    "dos",
    "dos_energy_up",
    "dos_energy_down",
    "is_magnetic",
    "ordering",
    "total_magnetization_normalized_vol",
    "total_magnetization_normalized_formula_units",
    "num_magnetic_sites",
    "num_unique_magnetic_sites",
    "types_of_magnetic_species",
    "bulk_modulus",
    "shear_modulus",
    "universal_anisotropy",
    "homogeneous_poisson",
    "e_total",
    "e_ionic",
    "e_electronic",
    "n",
    "e_ij_max",
    "weighted_surface_energy_EV_PER_ANG2",
    "weighted_surface_energy",
    "weighted_work_function",
    "surface_anisotropy",
    "shape_factor",
    "has_reconstructed",
    "possible_species",
    "has_props",
    "theoretical",
    "database_IDs"
  ]
}
