{
  "builder_meta": null,
  "nsites": null,
  "elements": null,
  "nelements": null,
  "composition": null,
  "composition_reduced": null,
  "formula_pretty": "MoP4",
  "formula_anonymous": "AB4",
  "chemsys": null,
  "volume": 162.40743473603237,
  "density": 4.49541840255292,
  "density_atomic": 16.24074347360324,
  "symmetry": null,
  "property_name": null,
  "material_id": "mp-11508",
  "deprecated": null,
  "deprecation_reasons": null,
  "last_updated": null,
  "origins": null,
  "warnings": null,
  "structure": {
    "@module": "pymatgen.core.structure",
    "@class": "Structure",
    "charge": 0,
    "lattice": {
      "matrix": [
        [4.79959915, 0.01501249, 2.28927906],
        [1.86703603, 5.48035131, 0.89052597],
        [-0.0019447, 0.00750625, 6.18002724]
      ],
      "pbc": [true, true, true],
      "a": 5.317628793935433,
      "b": 5.857739369550451,
      "c": 6.180032104511204,
      "alpha": 81.19561505137919,
      "beta": 64.51806050200224,
      "gamma": 69.15939586554543,
      "volume": 162.4074347360324
    },
    "properties": {},
    "sites": [
      {
        "species": [{ "element": "Mo", "occu": 1 }],
        "abc": [0.059624399999999, 0.25, 0.88075019],
        "properties": { "magmom": 0.0 },
        "label": "Mo",
        "xyz": [0.7512194321647621, 1.3775940693224435, 5.802188548720237]
      },
      {
        "species": [{ "element": "Mo", "occu": 1 }],
        "abc": [0.9403756, 0.75, 0.11924981],
        "properties": { "magmom": 0.0 },
        "label": "Mo",
        "xyz": [5.913471047835232, 4.125275980677556, 3.5576437212797605]
      },
      {
        "species": [{ "element": "P", "occu": 1 }],
        "abc": [0.50151533, 0.31116556, 0.55328506],
        "properties": { "magmom": -0.0 },
        "label": "P",
        "xyz": [2.9869538899389143, 1.7169786742309803, 4.844526297672617]
      },
      {
        "species": [{ "element": "P", "occu": 1 }],
        "abc": [0.94519861, 0.18883444, 0.55328506],
        "properties": { "magmom": -0.0 },
        "label": "P",
        "xyz": [4.888059174865873, 1.0532219512893801, 5.751302100549548]
      },
      {
        "species": [{ "element": "P", "occu": 1 }],
        "abc": [0.18580405, 0.3158491, 0.18743287],
        "properties": { "magmom": -0.0 },
        "label": "P",
        "xyz": [1.4811221094873412, 1.735160328370343, 1.864969389350699]
      },
      {
        "species": [{ "element": "P", "occu": 1 }],
        "abc": [0.6267640800000001, 0.184150899999999, 0.18743287],
        "properties": { "magmom": -0.0 },
        "label": "P",
        "xyz": [3.351668210173168, 1.0200278335164703, 2.757169285024416]
      },
      {
        "species": [{ "element": "P", "occu": 1 }],
        "abc": [0.81419595, 0.6841509, 0.81256713],
        "properties": { "magmom": -0.0 },
        "label": "P",
        "xyz": [5.183568370512658, 3.767709721629657, 7.494862880649301]
      },
      {
        "species": [{ "element": "P", "occu": 1 }],
        "abc": [0.37323592, 0.8158491, 0.81256713],
        "properties": { "magmom": -0.0 },
        "label": "P",
        "xyz": [3.31302226982683, 4.482842216483524, 6.602662984975583]
      },
      {
        "species": [{ "element": "P", "occu": 1 }],
        "abc": [0.05480139, 0.8111655600000001, 0.44671494],
        "properties": { "magmom": -0.0 },
        "label": "P",
        "xyz": [1.7766313051341274, 4.44964809871062, 3.6085301694504524]
      },
      {
        "species": [{ "element": "P", "occu": 1 }],
        "abc": [0.49848467, 0.68883444, 0.44671494],
        "properties": { "magmom": -0.0 },
        "label": "P",
        "xyz": [3.6777365900610857, 3.78589137576902, 4.515305972327383]
      }
    ]
  },
  "task_ids": null,
  "uncorrected_energy_per_atom": null,
  "energy_per_atom": -12.795916401,
  "formation_energy_per_atom": -0.37985946338095106,
  "energy_above_hull": 0.0,
  "is_stable": true,
  "equilibrium_reaction_energy_per_atom": null,
  "decomposes_to": null,
  "xas": null,
  "grain_boundaries": null,
  "band_gap": 0.0,
  "cbm": null,
  "vbm": null,
  "efermi": 8.23042936,
  "is_gap_direct": null,
  "is_metal": null,
  "es_source_calc_id": null,
  "bandstructure": null,
  "dos": null,
  "dos_energy_up": null,
  "dos_energy_down": null,
  "is_magnetic": null,
  "ordering": null,
  "total_magnetization": 0.0,
  "total_magnetization_normalized_vol": null,
  "total_magnetization_normalized_formula_units": null,
  "num_magnetic_sites": null,
  "num_unique_magnetic_sites": null,
  "types_of_magnetic_species": null,
  "bulk_modulus": null,
  "shear_modulus": null,
  "universal_anisotropy": null,
  "homogeneous_poisson": null,
  "e_total": null,
  "e_ionic": null,
  "e_electronic": null,
  "n": null,
  "e_ij_max": null,
  "weighted_surface_energy_EV_PER_ANG2": null,
  "weighted_surface_energy": null,
  "weighted_work_function": null,
  "surface_anisotropy": null,
  "shape_factor": null,
  "has_reconstructed": null,
  "possible_species": null,
  "has_props": null,
  "theoretical": null,
  "database_IDs": null,
  "fields_not_requested": [
    "builder_meta",
    "nsites",
    "elements",
    "nelements",
    "composition",
    "composition_reduced",
    "chemsys",
    "symmetry",
    "property_name",
    "deprecated",
    "deprecation_reasons",
    "last_updated",
    "origins",
    "warnings",
    "task_ids",
    "uncorrected_energy_per_atom",
    "equilibrium_reaction_energy_per_atom",
    "decomposes_to",
    "xas",
    "grain_boundaries",
    "cbm",
    "vbm",
    "is_gap_direct",
    "is_metal",
    "es_source_calc_id",
    "bandstructure",
    "dos",
    "dos_energy_up",
    "dos_energy_down",
    "is_magnetic",
    "ordering",
    "total_magnetization_normalized_vol",
    "total_magnetization_normalized_formula_units",
    "num_magnetic_sites",
    "num_unique_magnetic_sites",
    "types_of_magnetic_species",
    "bulk_modulus",
    "shear_modulus",
    "universal_anisotropy",
    "homogeneous_poisson",
    "e_total",
    "e_ionic",
    "e_electronic",
    "n",
    "e_ij_max",
    "weighted_surface_energy_EV_PER_ANG2",
    "weighted_surface_energy",
    "weighted_work_function",
    "surface_anisotropy",
    "shape_factor",
    "has_reconstructed",
    "possible_species",
    "has_props",
    "theoretical",
    "database_IDs"
  ]
}
