{"builder_meta": null, "nsites": null, "elements": null, "nelements": null, "composition": null, "composition_reduced": null, "formula_pretty": "MoPd4", "formula_anonymous": "AB4", "chemsys": null, "volume": 77.31716907125373, "density": 11.202820774796464, "density_atomic": 15.463433814250745, "symmetry": null, "property_name": null, "material_id": "mp-1221442", "deprecated": null, "deprecation_reasons": null, "last_updated": null, "origins": null, "warnings": null, "structure": {"@module": "pymatgen.core.structure", "@class": "Structure", "charge": 0, "lattice": {"matrix": [[11.449783, -1.397928, 0.0], [11.449783, 1.397928, 0.0], [11.279107, 0.0, 2.41526]], "pbc": [true, true, true], "a": 11.534805305694283, "b": 11.534805305694283, "c": 11.534805398664036, "alpha": 13.921824010470527, "beta": 13.921824010470527, "gamma": 13.921821306026374, "volume": 77.31716907125373}, "properties": {}, "sites": [{"species": [{"element": "Mo", "occu": 1}], "abc": [0.0, 0.0, 0.0], "properties": {"magmom": 0.001}, "label": "Mo", "xyz": [0.0, 0.0, 0.0]}, {"species": [{"element": "Pd", "occu": 1}], "abc": [0.601779, 0.601779, 0.601779], "properties": {"magmom": 0.0}, "label": "Pd", "xyz": [20.568007659267, 0.0, 1.4534527475399999]}, {"species": [{"element": "Pd", "occu": 1}], "abc": [0.200401, 0.200401, 0.200401], "properties": {"magmom": 0.0}, "label": "Pd", "xyz": [6.849440247873, 0.0, 0.48402051926]}, {"species": [{"element": "Pd", "occu": 1}], "abc": [0.799599, 0.799599, 0.799599], "properties": {"magmom": 0.0}, "label": "Pd", "xyz": [27.329232752126998, 0.0, 1.9312394807399997]}, {"species": [{"element": "Pd", "occu": 1}], "abc": [0.398221, 0.398221, 0.398221], "properties": {"magmom": 0.0}, "label": "Pd", "xyz": [13.610665340733, 0.0, 0.96180725246]}]}, "task_ids": null, "uncorrected_energy_per_atom": null, "energy_per_atom": -23.618280903999995, "formation_energy_per_atom": -0.035522127999993006, "energy_above_hull": 0.011304352000003001, "is_stable": false, "equilibrium_reaction_energy_per_atom": null, "decomposes_to": null, "xas": null, "grain_boundaries": null, "band_gap": 0.0, "cbm": null, "vbm": null, "efermi": 4.91446824, "is_gap_direct": null, "is_metal": null, "es_source_calc_id": null, "bandstructure": null, "dos": null, "dos_energy_up": null, "dos_energy_down": null, "is_magnetic": null, "ordering": null, "total_magnetization": 0.0057554, "total_magnetization_normalized_vol": null, "total_magnetization_normalized_formula_units": null, "num_magnetic_sites": null, "num_unique_magnetic_sites": null, "types_of_magnetic_species": null, "bulk_modulus": null, "shear_modulus": null, "universal_anisotropy": null, "homogeneous_poisson": null, "e_total": null, "e_ionic": null, "e_electronic": null, "n": null, "e_ij_max": null, "weighted_surface_energy_EV_PER_ANG2": null, "weighted_surface_energy": null, "weighted_work_function": null, "surface_anisotropy": null, "shape_factor": null, "has_reconstructed": null, "possible_species": null, "has_props": null, "theoretical": null, "database_IDs": null, "fields_not_requested": ["builder_meta", "nsites", "elements", "nelements", "composition", "composition_reduced", "chemsys", "symmetry", "property_name", "deprecated", "deprecation_reasons", "last_updated", "origins", "warnings", "task_ids", "uncorrected_energy_per_atom", "equilibrium_reaction_energy_per_atom", "decomposes_to", "xas", "grain_boundaries", "cbm", "vbm", "is_gap_direct", "is_metal", "es_source_calc_id", "bandstructure", "dos", "dos_energy_up", "dos_energy_down", "is_magnetic", "ordering", "total_magnetization_normalized_vol", "total_magnetization_normalized_formula_units", "num_magnetic_sites", "num_unique_magnetic_sites", "types_of_magnetic_species", "bulk_modulus", "shear_modulus", "universal_anisotropy", "homogeneous_poisson", "e_total", "e_ionic", "e_electronic", "n", "e_ij_max", "weighted_surface_energy_EV_PER_ANG2", "weighted_surface_energy", "weighted_work_function", "surface_anisotropy", "shape_factor", "has_reconstructed", "possible_species", "has_props", "theoretical", "database_IDs"]}