{"builder_meta": null, "nsites": null, "elements": null, "nelements": null, "composition": null, "composition_reduced": null, "formula_pretty": "MoPt2", "formula_anonymous": "AB2", "chemsys": null, "volume": 45.43505903363901, "density": 17.76604546698532, "density_atomic": 15.145019677879668, "symmetry": null, "property_name": null, "material_id": "mp-952", "deprecated": null, "deprecation_reasons": null, "last_updated": null, "origins": null, "warnings": null, "structure": {"@module": "pymatgen.core.structure", "@class": "Structure", "charge": 0, "lattice": {"matrix": [[2.64027485, 1e-08, -0.79547285], [-0.49085013, 3.58038876, -1.62919557], [0.00826009, -0.00610156, 4.80684973]], "pbc": [true, true, true], "a": 2.757504005188323, "b": 3.964138712023455, "c": 4.806860699554576, "alpha": 114.3520278357622, "beta": 106.66824856478314, "gamma": 89.99999147874355, "volume": 45.435059033639}, "properties": {}, "sites": [{"species": [{"element": "Mo", "occu": 1}], "abc": [-0.0, -0.0, 0.0], "properties": {"magmom": 0.0}, "label": "Mo", "xyz": [0.0, 0.0, 0.0]}, {"species": [{"element": "Pt", "occu": 1}], "abc": [0.66334157, 0.66334157, 0.32668415], "properties": {"magmom": 0.0}, "label": "Pt", "xyz": [1.428501208842184, 2.373027424959895, -0.038061738229440145]}, {"species": [{"element": "Pt", "occu": 1}], "abc": [0.33665843, 0.33665843, 0.67331585], "properties": {"magmom": 0.0}, "label": "Pt", "xyz": [0.7291836011578161, 1.201259785040105, 2.42024304822944]}]}, "task_ids": null, "uncorrected_energy_per_atom": null, "energy_per_atom": -43.41308569333333, "formation_energy_per_atom": -0.397281279999996, "energy_above_hull": 0.0, "is_stable": true, "equilibrium_reaction_energy_per_atom": null, "decomposes_to": null, "xas": null, "grain_boundaries": null, "band_gap": 0.0, "cbm": null, "vbm": null, "efermi": 8.29270599, "is_gap_direct": null, "is_metal": null, "es_source_calc_id": null, "bandstructure": null, "dos": null, "dos_energy_up": null, "dos_energy_down": null, "is_magnetic": null, "ordering": null, "total_magnetization": 2e-07, "total_magnetization_normalized_vol": null, "total_magnetization_normalized_formula_units": null, "num_magnetic_sites": null, "num_unique_magnetic_sites": null, "types_of_magnetic_species": null, "bulk_modulus": null, "shear_modulus": null, "universal_anisotropy": null, "homogeneous_poisson": null, "e_total": null, "e_ionic": null, "e_electronic": null, "n": null, "e_ij_max": null, "weighted_surface_energy_EV_PER_ANG2": null, "weighted_surface_energy": null, "weighted_work_function": null, "surface_anisotropy": null, "shape_factor": null, "has_reconstructed": null, "possible_species": null, "has_props": null, "theoretical": null, "database_IDs": null, "fields_not_requested": ["builder_meta", "nsites", "elements", "nelements", "composition", "composition_reduced", "chemsys", "symmetry", "property_name", "deprecated", "deprecation_reasons", "last_updated", "origins", "warnings", "task_ids", "uncorrected_energy_per_atom", "equilibrium_reaction_energy_per_atom", "decomposes_to", "xas", "grain_boundaries", "cbm", "vbm", "is_gap_direct", "is_metal", "es_source_calc_id", "bandstructure", "dos", "dos_energy_up", "dos_energy_down", "is_magnetic", "ordering", "total_magnetization_normalized_vol", "total_magnetization_normalized_formula_units", "num_magnetic_sites", "num_unique_magnetic_sites", "types_of_magnetic_species", "bulk_modulus", "shear_modulus", "universal_anisotropy", "homogeneous_poisson", "e_total", "e_ionic", "e_electronic", "n", "e_ij_max", "weighted_surface_energy_EV_PER_ANG2", "weighted_surface_energy", "weighted_work_function", "surface_anisotropy", "shape_factor", "has_reconstructed", "possible_species", "has_props", "theoretical", "database_IDs"]}