{"builder_meta": null, "nsites": null, "elements": null, "nelements": null, "composition": null, "composition_reduced": null, "formula_pretty": "MoPt", "formula_anonymous": "AB", "chemsys": null, "volume": 60.68032896618626, "density": 15.927953244534658, "density_atomic": 15.170082241546565, "symmetry": null, "property_name": null, "material_id": "mp-999502", "deprecated": null, "deprecation_reasons": null, "last_updated": null, "origins": null, "warnings": null, "structure": {"@module": "pymatgen.core.structure", "@class": "Structure", "charge": 0, "lattice": {"matrix": [[4.47661493, 0.0, 0.0], [0.0, 2.73373498, 0.0], [-0.0, 0.0, 4.9584025]], "pbc": [true, true, true], "a": 4.47661493, "b": 2.73373498, "c": 4.9584025, "alpha": 90.0, "beta": 90.0, "gamma": 90.0, "volume": 60.68032896618626}, "properties": {}, "sites": [{"species": [{"element": "Mo", "occu": 1}], "abc": [0.25, -0.0, 0.16175037], "properties": {"magmom": 0.0}, "label": "Mo", "xyz": [1.1191537325, 0.0, 0.802023438983925]}, {"species": [{"element": "Mo", "occu": 1}], "abc": [0.75, -0.0, 0.83824963], "properties": {"magmom": 0.0}, "label": "Mo", "xyz": [3.3574611975, 0.0, 4.156379061016075]}, {"species": [{"element": "Pt", "occu": 1}], "abc": [0.25, 0.5, 0.66272895], "properties": {"magmom": -0.0}, "label": "Pt", "xyz": [1.1191537325, 1.36686749, 3.2860768825023747]}, {"species": [{"element": "Pt", "occu": 1}], "abc": [0.75, 0.5, 0.33727105], "properties": {"magmom": -0.0}, "label": "Pt", "xyz": [3.3574611975, 1.36686749, 1.672325617497625]}]}, "task_ids": null, "uncorrected_energy_per_atom": null, "energy_per_atom": -39.13794834, "formation_energy_per_atom": -0.35810017000000005, "energy_above_hull": 0.0, "is_stable": true, "equilibrium_reaction_energy_per_atom": null, "decomposes_to": null, "xas": null, "grain_boundaries": null, "band_gap": 0.0, "cbm": null, "vbm": null, "efermi": 8.65995558, "is_gap_direct": null, "is_metal": null, "es_source_calc_id": null, "bandstructure": null, "dos": null, "dos_energy_up": null, "dos_energy_down": null, "is_magnetic": null, "ordering": null, "total_magnetization": 0.0, "total_magnetization_normalized_vol": null, "total_magnetization_normalized_formula_units": null, "num_magnetic_sites": null, "num_unique_magnetic_sites": null, "types_of_magnetic_species": null, "bulk_modulus": null, "shear_modulus": null, "universal_anisotropy": null, "homogeneous_poisson": null, "e_total": null, "e_ionic": null, "e_electronic": null, "n": null, "e_ij_max": null, "weighted_surface_energy_EV_PER_ANG2": null, "weighted_surface_energy": null, "weighted_work_function": null, "surface_anisotropy": null, "shape_factor": null, "has_reconstructed": null, "possible_species": null, "has_props": null, "theoretical": null, "database_IDs": null, "fields_not_requested": ["builder_meta", "nsites", "elements", "nelements", "composition", "composition_reduced", "chemsys", "symmetry", "property_name", "deprecated", "deprecation_reasons", "last_updated", "origins", "warnings", "task_ids", "uncorrected_energy_per_atom", "equilibrium_reaction_energy_per_atom", "decomposes_to", "xas", "grain_boundaries", "cbm", "vbm", "is_gap_direct", "is_metal", "es_source_calc_id", "bandstructure", "dos", "dos_energy_up", "dos_energy_down", "is_magnetic", "ordering", "total_magnetization_normalized_vol", "total_magnetization_normalized_formula_units", "num_magnetic_sites", "num_unique_magnetic_sites", "types_of_magnetic_species", "bulk_modulus", "shear_modulus", "universal_anisotropy", "homogeneous_poisson", "e_total", "e_ionic", "e_electronic", "n", "e_ij_max", "weighted_surface_energy_EV_PER_ANG2", "weighted_surface_energy", "weighted_work_function", "surface_anisotropy", "shape_factor", "has_reconstructed", "possible_species", "has_props", "theoretical", "database_IDs"]}