{
  "builder_meta": null,
  "nsites": null,
  "elements": null,
  "nelements": null,
  "composition": null,
  "composition_reduced": null,
  "formula_pretty": "MoRh3",
  "formula_anonymous": "AB3",
  "chemsys": null,
  "volume": 112.46393353444299,
  "density": 11.949571843809524,
  "density_atomic": 14.057991691805373,
  "symmetry": null,
  "property_name": null,
  "material_id": "mp-30787",
  "deprecated": null,
  "deprecation_reasons": null,
  "last_updated": null,
  "origins": null,
  "warnings": null,
  "structure": {
    "@module": "pymatgen.core.structure",
    "@class": "Structure",
    "charge": 0,
    "lattice": {
      "matrix": [
        [5.46647769, 0.0, 0.0],
        [-2.733238339999999, 4.73410764, 0.0],
        [0.0, 0.0, 4.34577824]
      ],
      "pbc": [true, true, true],
      "a": 5.46647769,
      "b": 5.466476650489995,
      "c": 4.34577824,
      "alpha": 90.0,
      "beta": 90.0,
      "gamma": 120.00000017857629,
      "volume": 112.46393353444299
    },
    "properties": {},
    "sites": [
      {
        "species": [{ "element": "Mo", "occu": 1 }],
        "abc": [0.333333, 0.666667, 0.25],
        "properties": { "magmom": 0.0 },
        "label": "Mo",
        "xyz": [-2.3965720095109333e-6, 3.1560733380358803, 1.08644456]
      },
      {
        "species": [{ "element": "Mo", "occu": 1 }],
        "abc": [0.666667, 0.333333, 0.75],
        "properties": { "magmom": 0.0 },
        "label": "Mo",
        "xyz": [2.73324174657201, 1.57803430196412, 3.2593336799999997]
      },
      {
        "species": [{ "element": "Rh", "occu": 1 }],
        "abc": [0.83344599, 0.66689099, 0.25],
        "properties": { "magmom": -0.0 },
        "label": "Rh",
        "xyz": [2.7332418876864075, 3.1571337308061636, 1.08644456]
      },
      {
        "species": [{ "element": "Rh", "occu": 1 }],
        "abc": [0.16655401, 0.83344599, 0.75],
        "properties": { "magmom": -0.0 },
        "label": "Rh",
        "xyz": [-1.3675427543422187, 3.945623028786364, 3.2593336799999997]
      },
      {
        "species": [{ "element": "Rh", "occu": 1 }],
        "abc": [0.66689099, 0.83344599, 0.75],
        "properties": { "magmom": -0.0 },
        "label": "Rh",
        "xyz": [1.367538184309757, 3.945623028786364, 3.2593336799999997]
      },
      {
        "species": [{ "element": "Rh", "occu": 1 }],
        "abc": [0.33310901, 0.16655401, 0.25],
        "properties": { "magmom": -0.0 },
        "label": "Rh",
        "xyz": [1.3657011656902436, 0.7884846112136364, 1.08644456]
      },
      {
        "species": [{ "element": "Rh", "occu": 1 }],
        "abc": [0.83344599, 0.16655401, 0.25],
        "properties": { "magmom": -0.0 },
        "label": "Rh",
        "xyz": [4.10078210434222, 0.7884846112136364, 1.08644456]
      },
      {
        "species": [{ "element": "Rh", "occu": 1 }],
        "abc": [0.16655401, 0.33310901, 0.75],
        "properties": { "magmom": -0.0 },
        "label": "Rh",
        "xyz": [-2.537686406123285e-6, 1.5769739091938364, 3.2593336799999997]
      }
    ]
  },
  "task_ids": null,
  "uncorrected_energy_per_atom": null,
  "energy_per_atom": -24.88100564375,
  "formation_energy_per_atom": -0.26083931125000204,
  "energy_above_hull": 0.0,
  "is_stable": true,
  "equilibrium_reaction_energy_per_atom": null,
  "decomposes_to": null,
  "xas": null,
  "grain_boundaries": null,
  "band_gap": 0.0,
  "cbm": null,
  "vbm": null,
  "efermi": 7.73792742,
  "is_gap_direct": null,
  "is_metal": null,
  "es_source_calc_id": null,
  "bandstructure": null,
  "dos": null,
  "dos_energy_up": null,
  "dos_energy_down": null,
  "is_magnetic": null,
  "ordering": null,
  "total_magnetization": 3e-7,
  "total_magnetization_normalized_vol": null,
  "total_magnetization_normalized_formula_units": null,
  "num_magnetic_sites": null,
  "num_unique_magnetic_sites": null,
  "types_of_magnetic_species": null,
  "bulk_modulus": null,
  "shear_modulus": null,
  "universal_anisotropy": null,
  "homogeneous_poisson": null,
  "e_total": null,
  "e_ionic": null,
  "e_electronic": null,
  "n": null,
  "e_ij_max": null,
  "weighted_surface_energy_EV_PER_ANG2": null,
  "weighted_surface_energy": null,
  "weighted_work_function": null,
  "surface_anisotropy": null,
  "shape_factor": null,
  "has_reconstructed": null,
  "possible_species": null,
  "has_props": null,
  "theoretical": null,
  "database_IDs": null,
  "fields_not_requested": [
    "builder_meta",
    "nsites",
    "elements",
    "nelements",
    "composition",
    "composition_reduced",
    "chemsys",
    "symmetry",
    "property_name",
    "deprecated",
    "deprecation_reasons",
    "last_updated",
    "origins",
    "warnings",
    "task_ids",
    "uncorrected_energy_per_atom",
    "equilibrium_reaction_energy_per_atom",
    "decomposes_to",
    "xas",
    "grain_boundaries",
    "cbm",
    "vbm",
    "is_gap_direct",
    "is_metal",
    "es_source_calc_id",
    "bandstructure",
    "dos",
    "dos_energy_up",
    "dos_energy_down",
    "is_magnetic",
    "ordering",
    "total_magnetization_normalized_vol",
    "total_magnetization_normalized_formula_units",
    "num_magnetic_sites",
    "num_unique_magnetic_sites",
    "types_of_magnetic_species",
    "bulk_modulus",
    "shear_modulus",
    "universal_anisotropy",
    "homogeneous_poisson",
    "e_total",
    "e_ionic",
    "e_electronic",
    "n",
    "e_ij_max",
    "weighted_surface_energy_EV_PER_ANG2",
    "weighted_surface_energy",
    "weighted_work_function",
    "surface_anisotropy",
    "shape_factor",
    "has_reconstructed",
    "possible_species",
    "has_props",
    "theoretical",
    "database_IDs"
  ]
}
