{
  "builder_meta": null,
  "nsites": null,
  "elements": null,
  "nelements": null,
  "composition": null,
  "composition_reduced": null,
  "formula_pretty": "MoRu3",
  "formula_anonymous": "AB3",
  "chemsys": null,
  "volume": 112.2591651392234,
  "density": 11.808464237398926,
  "density_atomic": 14.032395642402925,
  "symmetry": null,
  "property_name": null,
  "material_id": "mp-975834",
  "deprecated": null,
  "deprecation_reasons": null,
  "last_updated": null,
  "origins": null,
  "warnings": null,
  "structure": {
    "@module": "pymatgen.core.structure",
    "@class": "Structure",
    "charge": 0,
    "lattice": {
      "matrix": [
        [5.46418178, 0.0, 0.0],
        [-2.73209038, 4.73211887, 0.0],
        [0.0, 0.0, 4.34151218]
      ],
      "pbc": [true, true, true],
      "a": 5.46418178,
      "b": 5.4641803451477164,
      "c": 4.34151218,
      "alpha": 90.0,
      "beta": 90.0,
      "gamma": 120.00000251148433,
      "volume": 112.2591651392234
    },
    "properties": {},
    "sites": [
      {
        "species": [{ "element": "Mo", "occu": 1 }],
        "abc": [0.666667999999999, 0.333333, 0.250002],
        "properties": { "magmom": -0.0 },
        "label": "Mo",
        "xyz": [2.7320992562724946, 1.5773713792937099, 1.0853867280243599]
      },
      {
        "species": [{ "element": "Mo", "occu": 1 }],
        "abc": [0.333333999999999, 0.666667999999999, 0.750000999999999],
        "properties": { "magmom": -0.0 },
        "label": "Mo",
        "xyz": [3.4000067739015094e-7, 3.1547522228251554, 3.2561384765121755]
      },
      {
        "species": [{ "element": "Ru", "occu": 1 }],
        "abc": [0.8338789, 0.1661231, 0.750000999999999],
        "properties": { "magmom": 0.0 },
        "label": "Ru",
        "xyz": [4.1026025687006635, 0.786114256252897, 3.2561384765121755]
      },
      {
        "species": [{ "element": "Ru", "occu": 1 }],
        "abc": [0.3322462, 0.1661231, 0.750000999999999],
        "properties": { "magmom": 0.0 },
        "label": "Ru",
        "xyz": [1.361590309108458, 0.786114256252897, 3.2561384765121755]
      },
      {
        "species": [{ "element": "Ru", "occu": 1 }],
        "abc": [0.8338779, 0.6677558, 0.750000999999999],
        "properties": { "magmom": 0.0 },
        "label": "Ru",
        "xyz": [2.7320912305554574, 3.159899821731946, 3.2561384765121755]
      },
      {
        "species": [{ "element": "Ru", "occu": 1 }],
        "abc": [0.1661231, 0.8338779, 0.250002],
        "properties": { "magmom": 0.0 },
        "label": "Ru",
        "xyz": [-1.3705029724274838, 3.946009345865973, 1.0853867280243599]
      },
      {
        "species": [{ "element": "Ru", "occu": 1 }],
        "abc": [0.6677558, 0.8338779, 0.250002],
        "properties": { "magmom": 0.0 },
        "label": "Ru",
        "xyz": [1.370509287164722, 3.946009345865973, 1.0853867280243599]
      },
      {
        "species": [{ "element": "Ru", "occu": 1 }],
        "abc": [0.1661231, 0.332245199999999, 0.250002],
        "properties": { "magmom": 0.0 },
        "label": "Ru",
        "xyz": [2.901535944621614e-6, 1.5722237803869192, 1.0853867280243599]
      }
    ]
  },
  "task_ids": null,
  "uncorrected_energy_per_atom": null,
  "energy_per_atom": -25.63820992,
  "formation_energy_per_atom": -0.05181358875000001,
  "energy_above_hull": 0.0,
  "is_stable": true,
  "equilibrium_reaction_energy_per_atom": null,
  "decomposes_to": null,
  "xas": null,
  "grain_boundaries": null,
  "band_gap": 0.0,
  "cbm": null,
  "vbm": null,
  "efermi": 8.04173727,
  "is_gap_direct": null,
  "is_metal": null,
  "es_source_calc_id": null,
  "bandstructure": null,
  "dos": null,
  "dos_energy_up": null,
  "dos_energy_down": null,
  "is_magnetic": null,
  "ordering": null,
  "total_magnetization": 3.55e-5,
  "total_magnetization_normalized_vol": null,
  "total_magnetization_normalized_formula_units": null,
  "num_magnetic_sites": null,
  "num_unique_magnetic_sites": null,
  "types_of_magnetic_species": null,
  "bulk_modulus": null,
  "shear_modulus": null,
  "universal_anisotropy": null,
  "homogeneous_poisson": null,
  "e_total": null,
  "e_ionic": null,
  "e_electronic": null,
  "n": null,
  "e_ij_max": null,
  "weighted_surface_energy_EV_PER_ANG2": null,
  "weighted_surface_energy": null,
  "weighted_work_function": null,
  "surface_anisotropy": null,
  "shape_factor": null,
  "has_reconstructed": null,
  "possible_species": null,
  "has_props": null,
  "theoretical": null,
  "database_IDs": null,
  "fields_not_requested": [
    "builder_meta",
    "nsites",
    "elements",
    "nelements",
    "composition",
    "composition_reduced",
    "chemsys",
    "symmetry",
    "property_name",
    "deprecated",
    "deprecation_reasons",
    "last_updated",
    "origins",
    "warnings",
    "task_ids",
    "uncorrected_energy_per_atom",
    "equilibrium_reaction_energy_per_atom",
    "decomposes_to",
    "xas",
    "grain_boundaries",
    "cbm",
    "vbm",
    "is_gap_direct",
    "is_metal",
    "es_source_calc_id",
    "bandstructure",
    "dos",
    "dos_energy_up",
    "dos_energy_down",
    "is_magnetic",
    "ordering",
    "total_magnetization_normalized_vol",
    "total_magnetization_normalized_formula_units",
    "num_magnetic_sites",
    "num_unique_magnetic_sites",
    "types_of_magnetic_species",
    "bulk_modulus",
    "shear_modulus",
    "universal_anisotropy",
    "homogeneous_poisson",
    "e_total",
    "e_ionic",
    "e_electronic",
    "n",
    "e_ij_max",
    "weighted_surface_energy_EV_PER_ANG2",
    "weighted_surface_energy",
    "weighted_work_function",
    "surface_anisotropy",
    "shape_factor",
    "has_reconstructed",
    "possible_species",
    "has_props",
    "theoretical",
    "database_IDs"
  ]
}
