{"builder_meta": null, "nsites": null, "elements": null, "nelements": null, "composition": null, "composition_reduced": null, "formula_pretty": "MoS3", "formula_anonymous": "AB3", "chemsys": null, "volume": 209.33972866896224, "density": 3.048133057110382, "density_atomic": 26.16746608362028, "symmetry": null, "property_name": null, "material_id": "mp-1239169", "deprecated": null, "deprecation_reasons": null, "last_updated": null, "origins": null, "warnings": null, "structure": {"@module": "pymatgen.core.structure", "@class": "Structure", "charge": 0, "lattice": {"matrix": [[4.425169, 0.0, 0.0], [0.0, 6.10693, 0.0], [0.0, 2.236171, 7.7463809999999995]], "pbc": [true, true, true], "a": 4.425169, "b": 6.10693, "c": 8.062684375467143, "alpha": 73.89799943298287, "beta": 90.0, "gamma": 90.0, "volume": 209.3397286689622}, "properties": {}, "sites": [{"species": [{"element": "Mo", "occu": 1}], "abc": [0.25, 0.706874999999999, 0.30708], "properties": {"magmom": -0.0}, "label": "Mo", "xyz": [1.10629225, 5.003519534429994, 2.37875867748]}, {"species": [{"element": "Mo", "occu": 1}], "abc": [0.75, 0.293124999999999, 0.6929200000000001], "properties": {"magmom": -0.0}, "label": "Mo", "xyz": [3.3188767500000003, 3.3395814655699945, 5.36762232252]}, {"species": [{"element": "S", "occu": 1}], "abc": [0.75, 0.543717, 0.381163], "properties": {"magmom": 0.0}, "label": "S", "xyz": [3.3188767500000003, 4.172787305683, 2.9526338211029994]}, {"species": [{"element": "S", "occu": 1}], "abc": [0.25, 0.456283, 0.618837], "properties": {"magmom": 0.0}, "label": "S", "xyz": [1.10629225, 4.1703136943170005, 4.793747178896999]}, {"species": [{"element": "S", "occu": 1}], "abc": [0.25, 0.050628, 0.314637], "properties": {"magmom": -0.0}, "label": "S", "xyz": [1.10629225, 1.012763786967, 2.4372980786969998]}, {"species": [{"element": "S", "occu": 1}], "abc": [0.75, 0.949372, 0.6853629999999991], "properties": {"magmom": -0.0}, "label": "S", "xyz": [3.3188767500000003, 7.330337213032998, 5.309082921302992]}, {"species": [{"element": "S", "occu": 1}], "abc": [0.25, 0.704125999999999, 0.042962], "properties": {"magmom": 0.0}, "label": "S", "xyz": [1.10629225, 4.396118571681994, 0.332800020522]}, {"species": [{"element": "S", "occu": 1}], "abc": [0.75, 0.295873999999999, 0.9570379999999991], "properties": {"magmom": 0.0}, "label": "S", "xyz": [3.3188767500000003, 3.946982428317992, 7.4135809794779925]}]}, "task_ids": null, "uncorrected_energy_per_atom": null, "energy_per_atom": -12.965438405078125, "formation_energy_per_atom": -0.4211942334375, "energy_above_hull": 0.302931747968749, "is_stable": false, "equilibrium_reaction_energy_per_atom": null, "decomposes_to": null, "xas": null, "grain_boundaries": null, "band_gap": 0.7267, "cbm": null, "vbm": null, "efermi": 1.98954252, "is_gap_direct": null, "is_metal": null, "es_source_calc_id": null, "bandstructure": null, "dos": null, "dos_energy_up": null, "dos_energy_down": null, "is_magnetic": null, "ordering": null, "total_magnetization": 0.00024339999999900002, "total_magnetization_normalized_vol": null, "total_magnetization_normalized_formula_units": null, "num_magnetic_sites": null, "num_unique_magnetic_sites": null, "types_of_magnetic_species": null, "bulk_modulus": null, "shear_modulus": null, "universal_anisotropy": null, "homogeneous_poisson": null, "e_total": null, "e_ionic": null, "e_electronic": null, "n": null, "e_ij_max": null, "weighted_surface_energy_EV_PER_ANG2": null, "weighted_surface_energy": null, "weighted_work_function": null, "surface_anisotropy": null, "shape_factor": null, "has_reconstructed": null, "possible_species": null, "has_props": null, "theoretical": null, "database_IDs": null, "fields_not_requested": ["builder_meta", "nsites", "elements", "nelements", "composition", "composition_reduced", "chemsys", "symmetry", "property_name", "deprecated", "deprecation_reasons", "last_updated", "origins", "warnings", "task_ids", "uncorrected_energy_per_atom", "equilibrium_reaction_energy_per_atom", "decomposes_to", "xas", "grain_boundaries", "cbm", "vbm", "is_gap_direct", "is_metal", "es_source_calc_id", "bandstructure", "dos", "dos_energy_up", "dos_energy_down", "is_magnetic", "ordering", "total_magnetization_normalized_vol", "total_magnetization_normalized_formula_units", "num_magnetic_sites", "num_unique_magnetic_sites", "types_of_magnetic_species", "bulk_modulus", "shear_modulus", "universal_anisotropy", "homogeneous_poisson", "e_total", "e_ionic", "e_electronic", "n", "e_ij_max", "weighted_surface_energy_EV_PER_ANG2", "weighted_surface_energy", "weighted_work_function", "surface_anisotropy", "shape_factor", "has_reconstructed", "possible_species", "has_props", "theoretical", "database_IDs"]}