{
  "builder_meta": null,
  "nsites": null,
  "elements": null,
  "nelements": null,
  "composition": null,
  "composition_reduced": null,
  "formula_pretty": "MoS6",
  "formula_anonymous": "AB6",
  "chemsys": null,
  "volume": 3660.915107300307,
  "density": 0.130782390478824,
  "density_atomic": 522.9878724714724,
  "symmetry": null,
  "property_name": null,
  "material_id": "mp-1211453",
  "deprecated": null,
  "deprecation_reasons": null,
  "last_updated": null,
  "origins": null,
  "warnings": null,
  "structure": {
    "@module": "pymatgen.core.structure",
    "@class": "Structure",
    "charge": 0,
    "lattice": {
      "matrix": [
        [4.476309, -8.301383, 0.0],
        [4.476309, 8.301383, 0.0],
        [0.0, 0.0, 49.259404]
      ],
      "pbc": [true, true, true],
      "a": 9.431346774250748,
      "b": 9.431346774250748,
      "c": 49.259404,
      "alpha": 90.0,
      "beta": 90.0,
      "gamma": 123.33073360713581,
      "volume": 3660.915107300307
    },
    "properties": {},
    "sites": [
      {
        "species": [{ "element": "Mo", "occu": 1 }],
        "abc": [0.0, 0.0, 0.0],
        "properties": { "magmom": 1.851 },
        "label": "Mo",
        "xyz": [0.0, 0.0, 0.0]
      },
      {
        "species": [{ "element": "S", "occu": 1 }],
        "abc": [0.0, 0.0, 0.250094],
        "properties": { "magmom": -1.114 },
        "label": "S",
        "xyz": [0.0, 0.0, 12.319481383976001]
      },
      {
        "species": [{ "element": "S", "occu": 1 }],
        "abc": [0.0, 0.0, 0.749906],
        "properties": { "magmom": -1.114 },
        "label": "S",
        "xyz": [0.0, 0.0, 36.939922616024]
      },
      {
        "species": [{ "element": "S", "occu": 1 }],
        "abc": [0.242302, 0.990945, 0.0],
        "properties": { "magmom": -0.06 },
        "label": "S",
        "xyz": [5.520394645322999, 6.214772273269, 0.0]
      },
      {
        "species": [{ "element": "S", "occu": 1 }],
        "abc": [0.757698, 0.009054999999999001, 0.0],
        "properties": { "magmom": -0.06 },
        "label": "S",
        "xyz": [3.432223354676995, -6.214772273269008, 0.0]
      },
      {
        "species": [{ "element": "S", "occu": 1 }],
        "abc": [0.990945, 0.242302, 0.0],
        "properties": { "magmom": -0.06 },
        "label": "S",
        "xyz": [5.520394645322999, -6.214772273269, 0.0]
      },
      {
        "species": [{ "element": "S", "occu": 1 }],
        "abc": [0.009054999999999001, 0.757698, 0.0],
        "properties": { "magmom": -0.06 },
        "label": "S",
        "xyz": [3.432223354676995, 6.214772273269008, 0.0]
      }
    ]
  },
  "task_ids": null,
  "uncorrected_energy_per_atom": null,
  "energy_per_atom": -9.731813351607144,
  "formation_energy_per_atom": 0.8798972102678561,
  "energy_above_hull": 1.293683485357142,
  "is_stable": false,
  "equilibrium_reaction_energy_per_atom": null,
  "decomposes_to": null,
  "xas": null,
  "grain_boundaries": null,
  "band_gap": 0.21579999999999902,
  "cbm": null,
  "vbm": null,
  "efermi": -5.24171695,
  "is_gap_direct": null,
  "is_metal": null,
  "es_source_calc_id": null,
  "bandstructure": null,
  "dos": null,
  "dos_energy_up": null,
  "dos_energy_down": null,
  "is_magnetic": null,
  "ordering": null,
  "total_magnetization": 2.000972,
  "total_magnetization_normalized_vol": null,
  "total_magnetization_normalized_formula_units": null,
  "num_magnetic_sites": null,
  "num_unique_magnetic_sites": null,
  "types_of_magnetic_species": null,
  "bulk_modulus": null,
  "shear_modulus": null,
  "universal_anisotropy": null,
  "homogeneous_poisson": null,
  "e_total": null,
  "e_ionic": null,
  "e_electronic": null,
  "n": null,
  "e_ij_max": null,
  "weighted_surface_energy_EV_PER_ANG2": null,
  "weighted_surface_energy": null,
  "weighted_work_function": null,
  "surface_anisotropy": null,
  "shape_factor": null,
  "has_reconstructed": null,
  "possible_species": null,
  "has_props": null,
  "theoretical": null,
  "database_IDs": null,
  "fields_not_requested": [
    "builder_meta",
    "nsites",
    "elements",
    "nelements",
    "composition",
    "composition_reduced",
    "chemsys",
    "symmetry",
    "property_name",
    "deprecated",
    "deprecation_reasons",
    "last_updated",
    "origins",
    "warnings",
    "task_ids",
    "uncorrected_energy_per_atom",
    "equilibrium_reaction_energy_per_atom",
    "decomposes_to",
    "xas",
    "grain_boundaries",
    "cbm",
    "vbm",
    "is_gap_direct",
    "is_metal",
    "es_source_calc_id",
    "bandstructure",
    "dos",
    "dos_energy_up",
    "dos_energy_down",
    "is_magnetic",
    "ordering",
    "total_magnetization_normalized_vol",
    "total_magnetization_normalized_formula_units",
    "num_magnetic_sites",
    "num_unique_magnetic_sites",
    "types_of_magnetic_species",
    "bulk_modulus",
    "shear_modulus",
    "universal_anisotropy",
    "homogeneous_poisson",
    "e_total",
    "e_ionic",
    "e_electronic",
    "n",
    "e_ij_max",
    "weighted_surface_energy_EV_PER_ANG2",
    "weighted_surface_energy",
    "weighted_work_function",
    "surface_anisotropy",
    "shape_factor",
    "has_reconstructed",
    "possible_species",
    "has_props",
    "theoretical",
    "database_IDs"
  ]
}
