{
  "builder_meta": null,
  "nsites": null,
  "elements": null,
  "nelements": null,
  "composition": null,
  "composition_reduced": null,
  "formula_pretty": "N2Cl",
  "formula_anonymous": "AB2",
  "chemsys": null,
  "volume": 346.12443168613487,
  "density": 1.217925427604929,
  "density_atomic": 28.84370264051124,
  "symmetry": null,
  "property_name": null,
  "material_id": "mp-695743",
  "deprecated": null,
  "deprecation_reasons": null,
  "last_updated": null,
  "origins": null,
  "warnings": null,
  "structure": {
    "@module": "pymatgen.core.structure",
    "@class": "Structure",
    "charge": 0,
    "lattice": {
      "matrix": [
        [2.294258, 11.030915, 0.0],
        [-2.294258, 11.030915, 0.0],
        [0.0, 11.033068, 6.838305]
      ],
      "pbc": [true, true, true],
      "a": 11.266974106111588,
      "b": 11.266974106111588,
      "c": 12.980408497641706,
      "alpha": 33.677676919188144,
      "beta": 33.677676919188144,
      "gamma": 23.498251275426295,
      "volume": 346.12443168613487
    },
    "properties": {},
    "sites": [
      {
        "species": [{ "element": "N", "occu": 1 }],
        "abc": [0.360645999999999, 0.376789, 0.301002999999999],
        "properties": { "magmom": 0.005 },
        "label": "N",
        "xyz": [-0.03703620689400211, 11.455569370228979, 2.0583503199149935]
      },
      {
        "species": [{ "element": "N", "occu": 1 }],
        "abc": [0.627626, 0.643971, 0.689052],
        "properties": { "magmom": 0.004 },
        "label": "N",
        "xyz": [-0.03749964700999997, 21.629235992791, 4.71194773686]
      },
      {
        "species": [{ "element": "N", "occu": 1 }],
        "abc": [0.420324, 0.931117, 0.188064999999999],
        "properties": { "magmom": 0.004 },
        "label": "N",
        "xyz": [-1.171890926594, 16.98256473193499, 1.2860458298249933]
      },
      {
        "species": [{ "element": "N", "occu": 1 }],
        "abc": [0.073013, 0.584544, 0.808943],
        "properties": { "magmom": 0.005 },
        "label": "N",
        "xyz": [-1.173584088998, 16.178578501779, 5.531798961614999]
      },
      {
        "species": [{ "element": "N", "occu": 1 }],
        "abc": [0.196608, 0.561744, 0.346068999999999],
        "properties": { "magmom": 0.005 },
        "label": "N",
        "xyz": [-0.837716189088, 12.18351926177199, 2.3665253730449933]
      },
      {
        "species": [{ "element": "N", "occu": 1 }],
        "abc": [0.441488999999999, 0.804711, 0.654199],
        "properties": { "magmom": 0.005 },
        "label": "N",
        "xyz": [-0.8333249792760022, 20.96454832553199, 4.473612292695]
      },
      {
        "species": [{ "element": "N", "occu": 1 }],
        "abc": [0.301722999999999, 0.148775, 0.147681999999999],
        "properties": { "magmom": 0.004 },
        "label": "N",
        "xyz": [0.3509021725839978, 6.598790694045978, 1.0098945590099933]
      },
      {
        "species": [{ "element": "N", "occu": 1 }],
        "abc": [0.84628, 0.706418, 0.849035],
        "properties": { "magmom": 0.005 },
        "label": "N",
        "xyz": [0.3208795123960002, 26.495140548050003, 5.805960285675]
      },
      {
        "species": [{ "element": "Cl", "occu": 1 }],
        "abc": [0.707293, 0.213576, 0.42791],
        "properties": { "magmom": 0.755 },
        "label": "Cl",
        "xyz": [1.1327141769859999, 14.879187793015, 2.92617909255]
      },
      {
        "species": [{ "element": "Cl", "occu": 1 }],
        "abc": [0.79029, 0.28344, 0.581268],
        "properties": { "magmom": 0.734 },
        "label": "Cl",
        "xyz": [1.1628446673, 18.257393733174002, 3.97488787074]
      },
      {
        "species": [{ "element": "Cl", "occu": 1 }],
        "abc": [0.8871600000000001, 0.8770500000000001, 0.081155999999999],
        "properties": { "magmom": 0.73 },
        "label": "Cl",
        "xyz": [0.023194948380000024, 20.35625021875799, 0.5549694805799932]
      },
      {
        "species": [{ "element": "Cl", "occu": 1 }],
        "abc": [0.112996, 0.121045, 0.919995999999999],
        "properties": { "magmom": 0.727 },
        "label": "Cl",
        "xyz": [-0.018466482642000015, 12.73206480524299, 6.291213246779994]
      }
    ]
  },
  "task_ids": null,
  "uncorrected_energy_per_atom": null,
  "energy_per_atom": -7.813550244166666,
  "formation_energy_per_atom": 0.32309650250000005,
  "energy_above_hull": 0.32309650250000105,
  "is_stable": false,
  "equilibrium_reaction_energy_per_atom": null,
  "decomposes_to": null,
  "xas": null,
  "grain_boundaries": null,
  "band_gap": 0.0,
  "cbm": null,
  "vbm": null,
  "efermi": -4.04678939,
  "is_gap_direct": null,
  "is_metal": null,
  "es_source_calc_id": null,
  "bandstructure": null,
  "dos": null,
  "dos_energy_up": null,
  "dos_energy_down": null,
  "is_magnetic": null,
  "ordering": null,
  "total_magnetization": 4.0000235,
  "total_magnetization_normalized_vol": null,
  "total_magnetization_normalized_formula_units": null,
  "num_magnetic_sites": null,
  "num_unique_magnetic_sites": null,
  "types_of_magnetic_species": null,
  "bulk_modulus": null,
  "shear_modulus": null,
  "universal_anisotropy": null,
  "homogeneous_poisson": null,
  "e_total": null,
  "e_ionic": null,
  "e_electronic": null,
  "n": null,
  "e_ij_max": null,
  "weighted_surface_energy_EV_PER_ANG2": null,
  "weighted_surface_energy": null,
  "weighted_work_function": null,
  "surface_anisotropy": null,
  "shape_factor": null,
  "has_reconstructed": null,
  "possible_species": null,
  "has_props": null,
  "theoretical": null,
  "database_IDs": null,
  "fields_not_requested": [
    "builder_meta",
    "nsites",
    "elements",
    "nelements",
    "composition",
    "composition_reduced",
    "chemsys",
    "symmetry",
    "property_name",
    "deprecated",
    "deprecation_reasons",
    "last_updated",
    "origins",
    "warnings",
    "task_ids",
    "uncorrected_energy_per_atom",
    "equilibrium_reaction_energy_per_atom",
    "decomposes_to",
    "xas",
    "grain_boundaries",
    "cbm",
    "vbm",
    "is_gap_direct",
    "is_metal",
    "es_source_calc_id",
    "bandstructure",
    "dos",
    "dos_energy_up",
    "dos_energy_down",
    "is_magnetic",
    "ordering",
    "total_magnetization_normalized_vol",
    "total_magnetization_normalized_formula_units",
    "num_magnetic_sites",
    "num_unique_magnetic_sites",
    "types_of_magnetic_species",
    "bulk_modulus",
    "shear_modulus",
    "universal_anisotropy",
    "homogeneous_poisson",
    "e_total",
    "e_ionic",
    "e_electronic",
    "n",
    "e_ij_max",
    "weighted_surface_energy_EV_PER_ANG2",
    "weighted_surface_energy",
    "weighted_work_function",
    "surface_anisotropy",
    "shape_factor",
    "has_reconstructed",
    "possible_species",
    "has_props",
    "theoretical",
    "database_IDs"
  ]
}
