{"builder_meta": null, "nsites": null, "elements": null, "nelements": null, "composition": null, "composition_reduced": null, "formula_pretty": "N2F", "formula_anonymous": "AB2", "chemsys": null, "volume": 424.4885979808458, "density": 1.471227942069405, "density_atomic": 17.687024915868573, "symmetry": null, "property_name": null, "material_id": "mp-1210764", "deprecated": null, "deprecation_reasons": null, "last_updated": null, "origins": null, "warnings": null, "structure": {"@module": "pymatgen.core.structure", "@class": "Structure", "charge": 0, "lattice": {"matrix": [[4.380955, 0.0, 0.0], [0.0, 7.846785, 0.0], [0.0, 0.0, 12.348252]], "pbc": [true, true, true], "a": 4.380955, "b": 7.846785, "c": 12.348252, "alpha": 90.0, "beta": 90.0, "gamma": 90.0, "volume": 424.4885979808458}, "properties": {}, "sites": [{"species": [{"element": "N", "occu": 1}], "abc": [0.132616999999999, 0.491056999999999, 0.435214999999999], "properties": {"magmom": 0.07}, "label": "N", "xyz": [0.5809891092349957, 3.8532187017449924, 5.374144494179988]}, {"species": [{"element": "N", "occu": 1}], "abc": [0.367382999999999, 0.508942999999999, 0.935214999999999], "properties": {"magmom": 0.07}, "label": "N", "xyz": [1.6094883907649957, 3.993566298254992, 11.548270494179988]}, {"species": [{"element": "N", "occu": 1}], "abc": [0.867383, 0.991057, 0.064785], "properties": {"magmom": 0.07}, "label": "N", "xyz": [3.7999658907650002, 7.776611201744999, 0.7999815058199999]}, {"species": [{"element": "N", "occu": 1}], "abc": [0.632617, 0.008943, 0.564785], "properties": {"magmom": 0.07}, "label": "N", "xyz": [2.771466609235, 0.07017379825499999, 6.97410750582]}, {"species": [{"element": "N", "occu": 1}], "abc": [0.23166000000000003, 0.681171, 0.202918], "properties": {"magmom": 0.138}, "label": "N", "xyz": [1.0148920353000002, 5.3450023852349995, 2.505682599336]}, {"species": [{"element": "N", "occu": 1}], "abc": [0.26834, 0.318829, 0.702917999999999], "properties": {"magmom": 0.138}, "label": "N", "xyz": [1.1755854647000001, 2.5017826147649997, 8.679808599335988]}, {"species": [{"element": "N", "occu": 1}], "abc": [0.76834, 0.181171, 0.297082], "properties": {"magmom": 0.138}, "label": "N", "xyz": [3.3660629647, 1.4216098852349999, 3.668443400664]}, {"species": [{"element": "N", "occu": 1}], "abc": [0.7316600000000001, 0.818828999999999, 0.797082], "properties": {"magmom": 0.138}, "label": "N", "xyz": [3.2053695353000005, 6.4251751147649925, 9.842569400663999]}, {"species": [{"element": "N", "occu": 1}], "abc": [0.094378999999999, 0.055400000000000005, 0.070302], "properties": {"magmom": 0.137}, "label": "N", "xyz": [0.41347015194499565, 0.434711889, 0.8681068121040001]}, {"species": [{"element": "N", "occu": 1}], "abc": [0.405621, 0.9446, 0.570302], "properties": {"magmom": 0.137}, "label": "N", "xyz": [1.7770073480550002, 7.412073111, 7.042232812104]}, {"species": [{"element": "N", "occu": 1}], "abc": [0.905621, 0.5554, 0.429697999999999], "properties": {"magmom": 0.137}, "label": "N", "xyz": [3.9674848480550002, 4.358104389, 5.306019187895989]}, {"species": [{"element": "N", "occu": 1}], "abc": [0.594379, 0.4446, 0.929697999999999], "properties": {"magmom": 0.137}, "label": "N", "xyz": [2.603947651945, 3.488680611, 11.480145187895989]}, {"species": [{"element": "N", "occu": 1}], "abc": [0.196219, 0.200589, 0.746321999999999], "properties": {"magmom": 0.066}, "label": "N", "xyz": [0.859626609145, 1.5739787563649998, 9.21577212914399]}, {"species": [{"element": "N", "occu": 1}], "abc": [0.303780999999999, 0.799411, 0.24632199999999901], "properties": {"magmom": 0.066}, "label": "N", "xyz": [1.3308508908549959, 6.272806243634999, 3.041646129143988]}, {"species": [{"element": "N", "occu": 1}], "abc": [0.803781, 0.700589, 0.753678], "properties": {"magmom": 0.066}, "label": "N", "xyz": [3.521328390855, 5.497371256365, 9.306605870856]}, {"species": [{"element": "N", "occu": 1}], "abc": [0.696218999999999, 0.299411, 0.253678], "properties": {"magmom": 0.066}, "label": "N", "xyz": [3.050104109144996, 2.3494137436349996, 3.132479870856]}, {"species": [{"element": "F", "occu": 1}], "abc": [0.202366, 0.294502999999999, 0.105762], "properties": {"magmom": 0.671}, "label": "F", "xyz": [0.88655633953, 2.310901722854992, 1.305975828024]}, {"species": [{"element": "F", "occu": 1}], "abc": [0.297634, 0.705496999999999, 0.605762], "properties": {"magmom": 0.671}, "label": "F", "xyz": [1.30392116047, 5.535883277144992, 7.480101828024001]}, {"species": [{"element": "F", "occu": 1}], "abc": [0.797634, 0.794503, 0.394238], "properties": {"magmom": 0.671}, "label": "F", "xyz": [3.49439866047, 6.234294222855, 4.868150171976]}, {"species": [{"element": "F", "occu": 1}], "abc": [0.702365999999999, 0.205496999999999, 0.894238], "properties": {"magmom": 0.671}, "label": "F", "xyz": [3.077033839529996, 1.6124907771449921, 11.042276171976]}, {"species": [{"element": "F", "occu": 1}], "abc": [0.134872, 0.127698, 0.38719000000000003], "properties": {"magmom": 0.682}, "label": "F", "xyz": [0.59086816276, 1.00201875093, 4.781119691880001]}, {"species": [{"element": "F", "occu": 1}], "abc": [0.365128, 0.872301999999999, 0.88719], "properties": {"magmom": 0.682}, "label": "F", "xyz": [1.59960933724, 6.844766249069992, 10.95524569188]}, {"species": [{"element": "F", "occu": 1}], "abc": [0.865128, 0.627698, 0.11281000000000001], "properties": {"magmom": 0.682}, "label": "F", "xyz": [3.79008683724, 4.92541125093, 1.3930063081200001]}, {"species": [{"element": "F", "occu": 1}], "abc": [0.634872, 0.372301999999999, 0.6128100000000001], "properties": {"magmom": 0.682}, "label": "F", "xyz": [2.78134566276, 2.9213737490699923, 7.5671323081200015]}]}, "task_ids": null, "uncorrected_energy_per_atom": null, "energy_per_atom": -6.028530463749999, "formation_energy_per_atom": 0.16827215791666603, "energy_above_hull": 0.33442795208333304, "is_stable": false, "equilibrium_reaction_energy_per_atom": null, "decomposes_to": null, "xas": null, "grain_boundaries": null, "band_gap": 0.0, "cbm": null, "vbm": null, "efermi": -4.65158629, "is_gap_direct": null, "is_metal": null, "es_source_calc_id": null, "bandstructure": null, "dos": null, "dos_energy_up": null, "dos_energy_down": null, "is_magnetic": null, "ordering": null, "total_magnetization": 8.0128155, "total_magnetization_normalized_vol": null, "total_magnetization_normalized_formula_units": null, "num_magnetic_sites": null, "num_unique_magnetic_sites": null, "types_of_magnetic_species": null, "bulk_modulus": null, "shear_modulus": null, "universal_anisotropy": null, "homogeneous_poisson": null, "e_total": null, "e_ionic": null, "e_electronic": null, "n": null, "e_ij_max": null, "weighted_surface_energy_EV_PER_ANG2": null, "weighted_surface_energy": null, "weighted_work_function": null, "surface_anisotropy": null, "shape_factor": null, "has_reconstructed": null, "possible_species": null, "has_props": null, "theoretical": null, "database_IDs": null, "fields_not_requested": ["builder_meta", "nsites", "elements", "nelements", "composition", "composition_reduced", "chemsys", "symmetry", "property_name", "deprecated", "deprecation_reasons", "last_updated", "origins", "warnings", "task_ids", "uncorrected_energy_per_atom", "equilibrium_reaction_energy_per_atom", "decomposes_to", "xas", "grain_boundaries", "cbm", "vbm", "is_gap_direct", "is_metal", "es_source_calc_id", "bandstructure", "dos", "dos_energy_up", "dos_energy_down", "is_magnetic", "ordering", "total_magnetization_normalized_vol", "total_magnetization_normalized_formula_units", "num_magnetic_sites", "num_unique_magnetic_sites", "types_of_magnetic_species", "bulk_modulus", "shear_modulus", "universal_anisotropy", "homogeneous_poisson", "e_total", "e_ionic", "e_electronic", "n", "e_ij_max", "weighted_surface_energy_EV_PER_ANG2", "weighted_surface_energy", "weighted_work_function", "surface_anisotropy", "shape_factor", "has_reconstructed", "possible_species", "has_props", "theoretical", "database_IDs"]}