{
  "builder_meta": null,
  "nsites": null,
  "elements": null,
  "nelements": null,
  "composition": null,
  "composition_reduced": null,
  "formula_pretty": "N2O3",
  "formula_anonymous": "A2B3",
  "chemsys": null,
  "volume": 302.12064502621485,
  "density": 1.671123551372273,
  "density_atomic": 15.106032251310742,
  "symmetry": null,
  "property_name": null,
  "material_id": "mp-616407",
  "deprecated": null,
  "deprecation_reasons": null,
  "last_updated": null,
  "origins": null,
  "warnings": null,
  "structure": {
    "@module": "pymatgen.core.structure",
    "@class": "Structure",
    "charge": 0,
    "lattice": {
      "matrix": [
        [5.207858, 0.0, 0.0],
        [0.0, 6.609929, 0.0],
        [0.0, 0.0, 8.776563]
      ],
      "pbc": [true, true, true],
      "a": 5.207858,
      "b": 6.609929,
      "c": 8.776563,
      "alpha": 90.0,
      "beta": 90.0,
      "gamma": 90.0,
      "volume": 302.12064502621485
    },
    "properties": {},
    "sites": [
      {
        "species": [{ "element": "N", "occu": 1 }],
        "abc": [0.098743, 0.641154999999999, 0.625968],
        "properties": { "magmom": -0.0 },
        "label": "N",
        "xyz": [0.514239522494, 4.237989027994994, 5.493847587983999]
      },
      {
        "species": [{ "element": "N", "occu": 1 }],
        "abc": [0.598743, 0.858845, 0.374032],
        "properties": { "magmom": -0.0 },
        "label": "N",
        "xyz": [3.118168522494, 5.676904472005, 3.2827154120159996]
      },
      {
        "species": [{ "element": "N", "occu": 1 }],
        "abc": [0.401257, 0.358844999999999, 0.125968],
        "properties": { "magmom": -0.0 },
        "label": "N",
        "xyz": [2.089689477506, 2.3719399720049936, 1.105566087984]
      },
      {
        "species": [{ "element": "N", "occu": 1 }],
        "abc": [0.928021, 0.998563, 0.344047],
        "properties": { "magmom": 0.0 },
        "label": "N",
        "xyz": [4.833001589018, 6.600430532027, 3.0195501704609997]
      },
      {
        "species": [{ "element": "N", "occu": 1 }],
        "abc": [0.901257, 0.141155, 0.874031999999999],
        "properties": { "magmom": -0.0 },
        "label": "N",
        "xyz": [4.693618477506, 0.933024527995, 7.670996912015991]
      },
      {
        "species": [{ "element": "N", "occu": 1 }],
        "abc": [0.428021, 0.501437, 0.655953],
        "properties": { "magmom": 0.0 },
        "label": "N",
        "xyz": [2.2290725890179997, 3.314462967973, 5.757012829539]
      },
      {
        "species": [{ "element": "N", "occu": 1 }],
        "abc": [0.071979, 0.498563, 0.155952999999999],
        "properties": { "magmom": 0.0 },
        "label": "N",
        "xyz": [0.374856410982, 3.295466032027, 1.3687313295389911]
      },
      {
        "species": [{ "element": "N", "occu": 1 }],
        "abc": [0.571979, 0.001437, 0.844047],
        "properties": { "magmom": 0.0 },
        "label": "N",
        "xyz": [2.9787854109820002, 0.009498467973, 7.407831670460999]
      },
      {
        "species": [{ "element": "O", "occu": 1 }],
        "abc": [0.026345999999999002, 0.766193, 0.719256],
        "properties": { "magmom": 0.0 },
        "label": "O",
        "xyz": [0.1372062268679948, 5.064481330297, 6.3125955971279994]
      },
      {
        "species": [{ "element": "O", "occu": 1 }],
        "abc": [0.007601999999999, 0.08647, 0.991356999999999],
        "properties": { "magmom": 0.0 },
        "label": "O",
        "xyz": [0.039590136515994793, 0.57156056063, 8.700707165990991]
      },
      {
        "species": [{ "element": "O", "occu": 1 }],
        "abc": [0.973653999999999, 0.266193, 0.780744],
        "properties": { "magmom": -0.0 },
        "label": "O",
        "xyz": [5.070651773131995, 1.7595168302970001, 6.852248902872]
      },
      {
        "species": [{ "element": "O", "occu": 1 }],
        "abc": [0.444221, 0.388296, 0.556855],
        "properties": { "magmom": 0.0 },
        "label": "O",
        "xyz": [2.313439888618, 2.5666089909839997, 4.887272989365]
      },
      {
        "species": [{ "element": "O", "occu": 1 }],
        "abc": [0.992398, 0.58647, 0.508643],
        "properties": { "magmom": 0.0 },
        "label": "O",
        "xyz": [5.168267863484, 3.8765250606300006, 4.464137334008999]
      },
      {
        "species": [{ "element": "O", "occu": 1 }],
        "abc": [0.473653999999999, 0.233807, 0.219255999999999],
        "properties": { "magmom": 0.0 },
        "label": "O",
        "xyz": [2.4667227731319947, 1.545447669703, 1.924314097127991]
      },
      {
        "species": [{ "element": "O", "occu": 1 }],
        "abc": [0.526346, 0.733807, 0.280744],
        "properties": { "magmom": 0.0 },
        "label": "O",
        "xyz": [2.741135226868, 4.850412169703, 2.463967402872]
      },
      {
        "species": [{ "element": "O", "occu": 1 }],
        "abc": [0.492398, 0.9135300000000001, 0.491357],
        "properties": { "magmom": 0.0 },
        "label": "O",
        "xyz": [2.564338863484, 6.038368439370001, 4.312425665990999]
      },
      {
        "species": [{ "element": "O", "occu": 1 }],
        "abc": [0.555779, 0.888296, 0.943145],
        "properties": { "magmom": 0.0 },
        "label": "O",
        "xyz": [2.894418111382, 5.871573490984, 8.277571510635]
      },
      {
        "species": [{ "element": "O", "occu": 1 }],
        "abc": [0.944221, 0.111704, 0.443144999999999],
        "properties": { "magmom": 0.0 },
        "label": "O",
        "xyz": [4.917368888617999, 0.738355509016, 3.889290010634991]
      },
      {
        "species": [{ "element": "O", "occu": 1 }],
        "abc": [0.507602, 0.41353, 0.008643],
        "properties": { "magmom": 0.0 },
        "label": "O",
        "xyz": [2.643519136516, 2.73340393937, 0.07585583400899999]
      },
      {
        "species": [{ "element": "O", "occu": 1 }],
        "abc": [0.055778999999999, 0.611704, 0.056854999999999004],
        "properties": { "magmom": 0.0 },
        "label": "O",
        "xyz": [0.2904891113819948, 4.043320009016, 0.4989914893649912]
      }
    ]
  },
  "task_ids": null,
  "uncorrected_energy_per_atom": null,
  "energy_per_atom": -6.7482150144999995,
  "formation_energy_per_atom": -0.444127313499999,
  "energy_above_hull": 0.172990001,
  "is_stable": false,
  "equilibrium_reaction_energy_per_atom": null,
  "decomposes_to": null,
  "xas": null,
  "grain_boundaries": null,
  "band_gap": 0.9366000000000001,
  "cbm": null,
  "vbm": null,
  "efermi": -1.11449042,
  "is_gap_direct": null,
  "is_metal": null,
  "es_source_calc_id": null,
  "bandstructure": null,
  "dos": null,
  "dos_energy_up": null,
  "dos_energy_down": null,
  "is_magnetic": null,
  "ordering": null,
  "total_magnetization": 3.3e-5,
  "total_magnetization_normalized_vol": null,
  "total_magnetization_normalized_formula_units": null,
  "num_magnetic_sites": null,
  "num_unique_magnetic_sites": null,
  "types_of_magnetic_species": null,
  "bulk_modulus": null,
  "shear_modulus": null,
  "universal_anisotropy": null,
  "homogeneous_poisson": null,
  "e_total": null,
  "e_ionic": null,
  "e_electronic": null,
  "n": null,
  "e_ij_max": null,
  "weighted_surface_energy_EV_PER_ANG2": null,
  "weighted_surface_energy": null,
  "weighted_work_function": null,
  "surface_anisotropy": null,
  "shape_factor": null,
  "has_reconstructed": null,
  "possible_species": null,
  "has_props": null,
  "theoretical": null,
  "database_IDs": null,
  "fields_not_requested": [
    "builder_meta",
    "nsites",
    "elements",
    "nelements",
    "composition",
    "composition_reduced",
    "chemsys",
    "symmetry",
    "property_name",
    "deprecated",
    "deprecation_reasons",
    "last_updated",
    "origins",
    "warnings",
    "task_ids",
    "uncorrected_energy_per_atom",
    "equilibrium_reaction_energy_per_atom",
    "decomposes_to",
    "xas",
    "grain_boundaries",
    "cbm",
    "vbm",
    "is_gap_direct",
    "is_metal",
    "es_source_calc_id",
    "bandstructure",
    "dos",
    "dos_energy_up",
    "dos_energy_down",
    "is_magnetic",
    "ordering",
    "total_magnetization_normalized_vol",
    "total_magnetization_normalized_formula_units",
    "num_magnetic_sites",
    "num_unique_magnetic_sites",
    "types_of_magnetic_species",
    "bulk_modulus",
    "shear_modulus",
    "universal_anisotropy",
    "homogeneous_poisson",
    "e_total",
    "e_ionic",
    "e_electronic",
    "n",
    "e_ij_max",
    "weighted_surface_energy_EV_PER_ANG2",
    "weighted_surface_energy",
    "weighted_work_function",
    "surface_anisotropy",
    "shape_factor",
    "has_reconstructed",
    "possible_species",
    "has_props",
    "theoretical",
    "database_IDs"
  ]
}
