{
  "builder_meta": null,
  "nsites": null,
  "elements": null,
  "nelements": null,
  "composition": null,
  "composition_reduced": null,
  "formula_pretty": "N2O5",
  "formula_anonymous": "A2B5",
  "chemsys": null,
  "volume": 162.90043329493702,
  "density": 2.202025926774094,
  "density_atomic": 11.635745235352644,
  "symmetry": null,
  "property_name": null,
  "material_id": "mp-504769",
  "deprecated": null,
  "deprecation_reasons": null,
  "last_updated": null,
  "origins": null,
  "warnings": null,
  "structure": {
    "@module": "pymatgen.core.structure",
    "@class": "Structure",
    "charge": 0,
    "lattice": {
      "matrix": [
        [5.37288842, 0.0, -0.0],
        [-2.6864437, 4.65305709, 0.0],
        [-0.0, 0.0, 6.5159244]
      ],
      "pbc": [true, true, true],
      "a": 5.37288842,
      "b": 5.372887495199295,
      "c": 6.5159244,
      "alpha": 90.0,
      "beta": 90.0,
      "gamma": 119.99999941387803,
      "volume": 162.90043329493702
    },
    "properties": {},
    "sites": [
      {
        "species": [{ "element": "N", "occu": 1 }],
        "abc": [0.666667, 0.333333, 0.25],
        "properties": { "magmom": -0.0 },
        "label": "N",
        "xyz": [2.68644706644404, 1.5510174789809699, 1.6289811]
      },
      {
        "species": [{ "element": "N", "occu": 1 }],
        "abc": [-0.0, -0.0, 0.75],
        "properties": { "magmom": -0.0 },
        "label": "N",
        "xyz": [0.0, 0.0, 4.8869433]
      },
      {
        "species": [{ "element": "N", "occu": 1 }],
        "abc": [0.333333, 0.666667, 0.75],
        "properties": { "magmom": -0.0 },
        "label": "N",
        "xyz": [-2.346444040179918e-6, 3.10203961101903, 4.8869433]
      },
      {
        "species": [{ "element": "N", "occu": 1 }],
        "abc": [-0.0, -0.0, 0.25],
        "properties": { "magmom": -0.0 },
        "label": "N",
        "xyz": [0.0, 0.0, 1.6289811]
      },
      {
        "species": [{ "element": "O", "occu": 1 }],
        "abc": [0.333333, 0.666667, 0.57632898],
        "properties": { "magmom": 0.0 },
        "label": "O",
        "xyz": [-2.346444040179918e-6, 3.10203961101903, 3.7553160632091123]
      },
      {
        "species": [{ "element": "O", "occu": 1 }],
        "abc": [0.666667, 0.333333, 0.42367102],
        "properties": { "magmom": 0.0 },
        "label": "O",
        "xyz": [2.68644706644404, 1.5510174789809699, 2.760608336790888]
      },
      {
        "species": [{ "element": "O", "occu": 1 }],
        "abc": [0.864438199999999, 0.72887639, 0.75],
        "properties": { "magmom": 0.0 },
        "label": "O",
        "xyz": [2.6864446085913958, 3.391503454223105, 4.8869433]
      },
      {
        "species": [{ "element": "O", "occu": 1 }],
        "abc": [0.666667, 0.333333, 0.07632898],
        "properties": { "magmom": 0.0 },
        "label": "O",
        "xyz": [2.68644706644404, 1.5510174789809699, 0.49735386320911207]
      },
      {
        "species": [{ "element": "O", "occu": 1 }],
        "abc": [0.27112361, 0.135561799999999, 0.75],
        "properties": { "magmom": 0.0 },
        "label": "O",
        "xyz": [1.0925377609869389, 0.6307767946231574, 4.8869433]
      },
      {
        "species": [{ "element": "O", "occu": 1 }],
        "abc": [0.135561799999999, 0.27112361, 0.25],
        "properties": { "magmom": 0.0 },
        "label": "O",
        "xyz": [1.1140859368374834e-7, 1.2615536357768948, 1.6289811]
      },
      {
        "species": [{ "element": "O", "occu": 1 }],
        "abc": [0.135561799999999, 0.864438199999999, 0.25],
        "properties": { "magmom": 0.0 },
        "label": "O",
        "xyz": [-1.5939061310149867, 4.0222802953768335, 1.6289811]
      },
      {
        "species": [{ "element": "O", "occu": 1 }],
        "abc": [0.864438199999999, 0.135561799999999, 0.75],
        "properties": { "magmom": 0.0 },
        "label": "O",
        "xyz": [4.2803508510149815, 0.6307767946231574, 4.8869433]
      },
      {
        "species": [{ "element": "O", "occu": 1 }],
        "abc": [0.333333, 0.666667, 0.92367102],
        "properties": { "magmom": 0.0 },
        "label": "O",
        "xyz": [-2.346444040179918e-6, 3.10203961101903, 6.018570536790889]
      },
      {
        "species": [{ "element": "O", "occu": 1 }],
        "abc": [0.72887639, 0.864438199999999, 0.25],
        "properties": { "magmom": 0.0 },
        "label": "O",
        "xyz": [1.5939069590130663, 4.0222802953768335, 1.6289811]
      }
    ]
  },
  "task_ids": null,
  "uncorrected_energy_per_atom": null,
  "energy_per_atom": -6.52491343,
  "formation_energy_per_atom": -0.6082904992857151,
  "energy_above_hull": 0.007622939732143,
  "is_stable": false,
  "equilibrium_reaction_energy_per_atom": null,
  "decomposes_to": null,
  "xas": null,
  "grain_boundaries": null,
  "band_gap": 0.6751,
  "cbm": null,
  "vbm": null,
  "efermi": 0.24139374,
  "is_gap_direct": null,
  "is_metal": null,
  "es_source_calc_id": null,
  "bandstructure": null,
  "dos": null,
  "dos_energy_up": null,
  "dos_energy_down": null,
  "is_magnetic": null,
  "ordering": null,
  "total_magnetization": 0.0,
  "total_magnetization_normalized_vol": null,
  "total_magnetization_normalized_formula_units": null,
  "num_magnetic_sites": null,
  "num_unique_magnetic_sites": null,
  "types_of_magnetic_species": null,
  "bulk_modulus": null,
  "shear_modulus": null,
  "universal_anisotropy": null,
  "homogeneous_poisson": null,
  "e_total": null,
  "e_ionic": null,
  "e_electronic": null,
  "n": null,
  "e_ij_max": null,
  "weighted_surface_energy_EV_PER_ANG2": null,
  "weighted_surface_energy": null,
  "weighted_work_function": null,
  "surface_anisotropy": null,
  "shape_factor": null,
  "has_reconstructed": null,
  "possible_species": null,
  "has_props": null,
  "theoretical": null,
  "database_IDs": null,
  "fields_not_requested": [
    "builder_meta",
    "nsites",
    "elements",
    "nelements",
    "composition",
    "composition_reduced",
    "chemsys",
    "symmetry",
    "property_name",
    "deprecated",
    "deprecation_reasons",
    "last_updated",
    "origins",
    "warnings",
    "task_ids",
    "uncorrected_energy_per_atom",
    "equilibrium_reaction_energy_per_atom",
    "decomposes_to",
    "xas",
    "grain_boundaries",
    "cbm",
    "vbm",
    "is_gap_direct",
    "is_metal",
    "es_source_calc_id",
    "bandstructure",
    "dos",
    "dos_energy_up",
    "dos_energy_down",
    "is_magnetic",
    "ordering",
    "total_magnetization_normalized_vol",
    "total_magnetization_normalized_formula_units",
    "num_magnetic_sites",
    "num_unique_magnetic_sites",
    "types_of_magnetic_species",
    "bulk_modulus",
    "shear_modulus",
    "universal_anisotropy",
    "homogeneous_poisson",
    "e_total",
    "e_ionic",
    "e_electronic",
    "n",
    "e_ij_max",
    "weighted_surface_energy_EV_PER_ANG2",
    "weighted_surface_energy",
    "weighted_work_function",
    "surface_anisotropy",
    "shape_factor",
    "has_reconstructed",
    "possible_species",
    "has_props",
    "theoretical",
    "database_IDs"
  ]
}
