{"builder_meta": null, "nsites": null, "elements": null, "nelements": null, "composition": null, "composition_reduced": null, "formula_pretty": "N3Cl", "formula_anonymous": "AB3", "chemsys": null, "volume": 197.31112144450196, "density": 1.304002614944269, "density_atomic": 24.663890180562746, "symmetry": null, "property_name": null, "material_id": "mp-1095181", "deprecated": null, "deprecation_reasons": null, "last_updated": null, "origins": null, "warnings": null, "structure": {"@module": "pymatgen.core.structure", "@class": "Structure", "charge": 0, "lattice": {"matrix": [[3.278614, -6.199906, 0.0], [3.278614, 6.199906, 0.0], [0.0, 0.0, 4.853401]], "pbc": [true, true, true], "a": 7.0134259937516985, "b": 7.0134259937516985, "c": 4.853401, "alpha": 90.0, "beta": 90.0, "gamma": 124.25873005004748, "volume": 197.31112144450196}, "properties": {}, "sites": [{"species": [{"element": "N", "occu": 1}], "abc": [0.768291, 0.231709, 0.545509], "properties": {"magmom": 0.0}, "label": "N", "xyz": [3.278614, -3.326757961292, 2.647573926109]}, {"species": [{"element": "N", "occu": 1}], "abc": [0.231709, 0.768291, 0.045509], "properties": {"magmom": 0.0}, "label": "N", "xyz": [3.278614, 3.326757961292, 0.220873426109]}, {"species": [{"element": "N", "occu": 1}], "abc": [0.684874, 0.315125999999999, 0.401433], "properties": {"magmom": -0.0}, "label": "N", "xyz": [3.278613999999997, -2.2924028436880066, 1.948315323633]}, {"species": [{"element": "N", "occu": 1}], "abc": [0.315125999999999, 0.684874, 0.901432999999999], "properties": {"magmom": -0.0}, "label": "N", "xyz": [3.278613999999997, 2.2924028436880066, 4.375015823632995]}, {"species": [{"element": "N", "occu": 1}], "abc": [0.601719, 0.398281, 0.298291], "properties": {"magmom": -0.0}, "label": "N", "xyz": [3.278614, -1.261296476828, 1.4477258376909998]}, {"species": [{"element": "N", "occu": 1}], "abc": [0.398281, 0.601719, 0.798291], "properties": {"magmom": -0.0}, "label": "N", "xyz": [3.278614, 1.261296476828, 3.8744263376909998]}, {"species": [{"element": "Cl", "occu": 1}], "abc": [0.883002, 0.116997999999999, 0.335267], "properties": {"magmom": 0.0}, "label": "Cl", "xyz": [3.2786139999999966, -4.749152795624006, 1.6271851930669998]}, {"species": [{"element": "Cl", "occu": 1}], "abc": [0.116997999999999, 0.883002, 0.835267], "properties": {"magmom": 0.0}, "label": "Cl", "xyz": [3.2786139999999966, 4.749152795624006, 4.0538856930669995]}]}, "task_ids": null, "uncorrected_energy_per_atom": null, "energy_per_atom": -7.8093915940625, "formation_energy_per_atom": 0.575281133749999, "energy_above_hull": 0.575281133749999, "is_stable": false, "equilibrium_reaction_energy_per_atom": null, "decomposes_to": null, "xas": null, "grain_boundaries": null, "band_gap": 2.3595, "cbm": null, "vbm": null, "efermi": -2.07864538, "is_gap_direct": null, "is_metal": null, "es_source_calc_id": null, "bandstructure": null, "dos": null, "dos_energy_up": null, "dos_energy_down": null, "is_magnetic": null, "ordering": null, "total_magnetization": 0.0007295, "total_magnetization_normalized_vol": null, "total_magnetization_normalized_formula_units": null, "num_magnetic_sites": null, "num_unique_magnetic_sites": null, "types_of_magnetic_species": null, "bulk_modulus": null, "shear_modulus": null, "universal_anisotropy": null, "homogeneous_poisson": null, "e_total": null, "e_ionic": null, "e_electronic": null, "n": null, "e_ij_max": null, "weighted_surface_energy_EV_PER_ANG2": null, "weighted_surface_energy": null, "weighted_work_function": null, "surface_anisotropy": null, "shape_factor": null, "has_reconstructed": null, "possible_species": null, "has_props": null, "theoretical": null, "database_IDs": null, "fields_not_requested": ["builder_meta", "nsites", "elements", "nelements", "composition", "composition_reduced", "chemsys", "symmetry", "property_name", "deprecated", "deprecation_reasons", "last_updated", "origins", "warnings", "task_ids", "uncorrected_energy_per_atom", "equilibrium_reaction_energy_per_atom", "decomposes_to", "xas", "grain_boundaries", "cbm", "vbm", "is_gap_direct", "is_metal", "es_source_calc_id", "bandstructure", "dos", "dos_energy_up", "dos_energy_down", "is_magnetic", "ordering", "total_magnetization_normalized_vol", "total_magnetization_normalized_formula_units", "num_magnetic_sites", "num_unique_magnetic_sites", "types_of_magnetic_species", "bulk_modulus", "shear_modulus", "universal_anisotropy", "homogeneous_poisson", "e_total", "e_ionic", "e_electronic", "n", "e_ij_max", "weighted_surface_energy_EV_PER_ANG2", "weighted_surface_energy", "weighted_work_function", "surface_anisotropy", "shape_factor", "has_reconstructed", "possible_species", "has_props", "theoretical", "database_IDs"]}