{
  "builder_meta": null,
  "nsites": null,
  "elements": null,
  "nelements": null,
  "composition": null,
  "composition_reduced": null,
  "formula_pretty": "N4Cl",
  "formula_anonymous": "AB4",
  "chemsys": null,
  "volume": 330.32840744480717,
  "density": 1.839451627909244,
  "density_atomic": 16.516420372240358,
  "symmetry": null,
  "property_name": null,
  "material_id": "mp-726151",
  "deprecated": null,
  "deprecation_reasons": null,
  "last_updated": null,
  "origins": null,
  "warnings": null,
  "structure": {
    "@module": "pymatgen.core.structure",
    "@class": "Structure",
    "charge": 0,
    "lattice": {
      "matrix": [
        [-6.468243, 0.0, 0.0],
        [-0.052856, -6.821759, 0.0],
        [-0.03461, -0.053977, 7.486231]
      ],
      "pbc": [true, true, true],
      "a": 6.468243,
      "b": 6.821963764988568,
      "c": 7.486505590326504,
      "alpha": 89.58485934596975,
      "beta": 89.73512155056102,
      "gamma": 89.5560726901243,
      "volume": 330.32840744480717
    },
    "properties": {},
    "sites": [
      {
        "species": [{ "element": "N", "occu": 1 }],
        "abc": [0.186358, 0.47366, 0.458798],
        "properties": { "magmom": 0.026000000000000002 },
        "label": "N",
        "xyz": [-1.246323600734, -3.2559589075860003, 3.434667810338]
      },
      {
        "species": [{ "element": "N", "occu": 1 }],
        "abc": [0.684179, 0.521357, 0.041346999999999],
        "properties": { "magmom": 0.033 },
        "label": "N",
        "xyz": [-4.454423892758999, -3.5588035939819997, 0.3095331931569925]
      },
      {
        "species": [{ "element": "N", "occu": 1 }],
        "abc": [0.816705, 0.028596999999999, 0.9581500000000001],
        "properties": { "magmom": 0.026000000000000002 },
        "label": "N",
        "xyz": [-5.317319493847, -0.2467999046729932, 7.172932232650001]
      },
      {
        "species": [{ "element": "N", "occu": 1 }],
        "abc": [0.314318, 0.978692999999999, 0.544821],
        "properties": { "magmom": 0.032 },
        "label": "N",
        "xyz": [-2.1036712552920003, -6.705815584103994, 4.078655859651]
      },
      {
        "species": [{ "element": "N", "occu": 1 }],
        "abc": [0.024468, 0.418788, 0.45129],
        "properties": { "magmom": 0.066 },
        "label": "N",
        "xyz": [-0.196019575152, -2.8812300884220003, 3.37846118799]
      },
      {
        "species": [{ "element": "N", "occu": 1 }],
        "abc": [0.523536, 0.582994, 0.047767],
        "properties": { "magmom": 0.094 },
        "label": "N",
        "xyz": [-3.4188260139819997, -3.979622885805, 0.35759479617699996]
      },
      {
        "species": [{ "element": "N", "occu": 1 }],
        "abc": [0.978752, 0.082686, 0.946527],
        "properties": { "magmom": 0.063 },
        "label": "N",
        "xyz": [-6.367935523422001, -0.615154652553, 7.085919769737]
      },
      {
        "species": [{ "element": "N", "occu": 1 }],
        "abc": [0.475072999999999, 0.917172999999999, 0.550002],
        "properties": { "magmom": 0.089 },
        "label": "N",
        "xyz": [-3.140401272046994, -6.286420625260994, 4.117442022462]
      },
      {
        "species": [{ "element": "N", "occu": 1 }],
        "abc": [0.059588999999999004, 0.724484, 0.7270800000000001],
        "properties": { "magmom": 0.004 },
        "label": "N",
        "xyz": [-0.4488936972309936, -4.981500844516, 5.44308883548]
      },
      {
        "species": [{ "element": "N", "occu": 1 }],
        "abc": [0.561331, 0.287758, 0.769311],
        "properties": { "magmom": 0.007 },
        "label": "N",
        "xyz": [-3.6726609019910006, -2.004540826169, 5.759239856841]
      },
      {
        "species": [{ "element": "N", "occu": 1 }],
        "abc": [0.939631999999999, 0.774202, 0.223992],
        "properties": { "magmom": 0.005 },
        "label": "N",
        "xyz": [-6.126441690607994, -5.293509877501999, 1.676855854152]
      },
      {
        "species": [{ "element": "N", "occu": 1 }],
        "abc": [0.440283, 0.217722, 0.269317],
        "properties": { "magmom": 0.006 },
        "label": "N",
        "xyz": [-2.868686408171, -1.499783936707, 2.016169274227]
      },
      {
        "species": [{ "element": "N", "occu": 1 }],
        "abc": [0.087793, 0.838917999999999, 0.27029000000000003],
        "properties": { "magmom": 0.004 },
        "label": "N",
        "xyz": [-0.6215630444069999, -5.737485860091994, 2.02345337699]
      },
      {
        "species": [{ "element": "N", "occu": 1 }],
        "abc": [0.602049, 0.179201, 0.229294],
        "properties": { "magmom": 0.005 },
        "label": "N",
        "xyz": [-3.9116069433029996, -1.234842636797, 1.716547850914]
      },
      {
        "species": [{ "element": "N", "occu": 1 }],
        "abc": [0.907932, 0.661559, 0.769501],
        "properties": { "magmom": 0.004 },
        "label": "N",
        "xyz": [-5.934324595590001, -4.5545314177580005, 5.760662240731]
      },
      {
        "species": [{ "element": "N", "occu": 1 }],
        "abc": [0.396472999999999, 0.315089, 0.732599],
        "properties": { "magmom": 0.005 },
        "label": "N",
        "xyz": [-2.6064933025129937, -2.1890047177740004, 5.484405344369]
      },
      {
        "species": [{ "element": "Cl", "occu": 1 }],
        "abc": [0.642423, 0.581284999999999, 0.46451000000000003],
        "properties": { "magmom": 0.667 },
        "label": "Cl",
        "xyz": [-4.202149163849, -3.9904590365849937, 3.4774291618100004]
      },
      {
        "species": [{ "element": "Cl", "occu": 1 }],
        "abc": [0.151495, 0.431027, 0.039262],
        "properties": { "magmom": 0.663 },
        "label": "Cl",
        "xyz": [-1.004047694217, -2.9424815614670004, 0.293924401522]
      },
      {
        "species": [{ "element": "Cl", "occu": 1 }],
        "abc": [0.360591999999999, 0.916037999999999, 0.967302],
        "properties": { "magmom": 0.666 },
        "label": "Cl",
        "xyz": [-2.414293106603994, -6.301202530895993, 7.241446218762]
      },
      {
        "species": [{ "element": "Cl", "occu": 1 }],
        "abc": [0.847016999999999, 0.068769, 0.538841],
        "properties": { "magmom": 0.666 },
        "label": "Cl",
        "xyz": [-5.500995922404994, -0.498210565328, 4.033888198271]
      }
    ]
  },
  "task_ids": null,
  "uncorrected_energy_per_atom": null,
  "energy_per_atom": -8.172647536,
  "formation_energy_per_atom": 0.360840780499999,
  "energy_above_hull": 0.3608407805,
  "is_stable": false,
  "equilibrium_reaction_energy_per_atom": null,
  "decomposes_to": null,
  "xas": null,
  "grain_boundaries": null,
  "band_gap": 0.23399999999999901,
  "cbm": null,
  "vbm": null,
  "efermi": -1.302618799999999,
  "is_gap_direct": null,
  "is_metal": null,
  "es_source_calc_id": null,
  "bandstructure": null,
  "dos": null,
  "dos_energy_up": null,
  "dos_energy_down": null,
  "is_magnetic": null,
  "ordering": null,
  "total_magnetization": 3.99998,
  "total_magnetization_normalized_vol": null,
  "total_magnetization_normalized_formula_units": null,
  "num_magnetic_sites": null,
  "num_unique_magnetic_sites": null,
  "types_of_magnetic_species": null,
  "bulk_modulus": null,
  "shear_modulus": null,
  "universal_anisotropy": null,
  "homogeneous_poisson": null,
  "e_total": null,
  "e_ionic": null,
  "e_electronic": null,
  "n": null,
  "e_ij_max": null,
  "weighted_surface_energy_EV_PER_ANG2": null,
  "weighted_surface_energy": null,
  "weighted_work_function": null,
  "surface_anisotropy": null,
  "shape_factor": null,
  "has_reconstructed": null,
  "possible_species": null,
  "has_props": null,
  "theoretical": null,
  "database_IDs": null,
  "fields_not_requested": [
    "builder_meta",
    "nsites",
    "elements",
    "nelements",
    "composition",
    "composition_reduced",
    "chemsys",
    "symmetry",
    "property_name",
    "deprecated",
    "deprecation_reasons",
    "last_updated",
    "origins",
    "warnings",
    "task_ids",
    "uncorrected_energy_per_atom",
    "equilibrium_reaction_energy_per_atom",
    "decomposes_to",
    "xas",
    "grain_boundaries",
    "cbm",
    "vbm",
    "is_gap_direct",
    "is_metal",
    "es_source_calc_id",
    "bandstructure",
    "dos",
    "dos_energy_up",
    "dos_energy_down",
    "is_magnetic",
    "ordering",
    "total_magnetization_normalized_vol",
    "total_magnetization_normalized_formula_units",
    "num_magnetic_sites",
    "num_unique_magnetic_sites",
    "types_of_magnetic_species",
    "bulk_modulus",
    "shear_modulus",
    "universal_anisotropy",
    "homogeneous_poisson",
    "e_total",
    "e_ionic",
    "e_electronic",
    "n",
    "e_ij_max",
    "weighted_surface_energy_EV_PER_ANG2",
    "weighted_surface_energy",
    "weighted_work_function",
    "surface_anisotropy",
    "shape_factor",
    "has_reconstructed",
    "possible_species",
    "has_props",
    "theoretical",
    "database_IDs"
  ]
}
