{"builder_meta": null, "nsites": null, "elements": null, "nelements": null, "composition": null, "composition_reduced": null, "formula_pretty": "Na2Au", "formula_anonymous": "AB2", "chemsys": null, "volume": 149.5362551063645, "density": 5.395634689324452, "density_atomic": 24.922709184394083, "symmetry": null, "property_name": null, "material_id": "mp-1363", "deprecated": null, "deprecation_reasons": null, "last_updated": null, "origins": null, "warnings": null, "structure": {"@module": "pymatgen.core.structure", "@class": "Structure", "charge": 0, "lattice": {"matrix": [[4.97027678, -0.0, 2.61657873], [2.48513788, 5.1596823, 1.30828886], [0.08157271, -0.0, 5.87394254]], "pbc": [true, true, true], "a": 5.616950731499751, "b": 5.8745086144071905, "c": 5.874508921623866, "alpha": 76.78775883567435, "beta": 61.44002228991507, "gamma": 61.44003677906403, "volume": 149.5362551063645}, "properties": {}, "sites": [{"species": [{"element": "Na", "occu": 1}], "abc": [0.82530624, 0.5, 0.84938552], "properties": {"magmom": 0.0}, "label": "Na", "xyz": [5.413856059762266, 2.57984115, 7.802864922108296]}, {"species": [{"element": "Na", "occu": 1}], "abc": [0.67469376, 0.15061448, 0.5], "properties": {"magmom": 0.0}, "label": "Na", "xyz": [3.768498833463395, 0.777122866579704, 4.899407858018417]}, {"species": [{"element": "Na", "occu": 1}], "abc": [0.17469376, 0.5, 0.15061448], "properties": {"magmom": 0.0}, "label": "Na", "xyz": [2.1231313102377336, 2.57984115, 1.9959452078917037]}, {"species": [{"element": "Na", "occu": 1}], "abc": [0.32530624, 0.84938552, 0.5], "properties": {"magmom": 0.0}, "label": "Na", "xyz": [3.768488536536605, 4.382559433420296, 4.899402271981582]}, {"species": [{"element": "Au", "occu": 1}], "abc": [0.75, 0.0, -0.0], "properties": {"magmom": 0.0}, "label": "Au", "xyz": [3.727707585, 0.0, 1.9624340475]}, {"species": [{"element": "Au", "occu": 1}], "abc": [0.25, 0.0, -0.0], "properties": {"magmom": 0.0}, "label": "Au", "xyz": [1.242569195, 0.0, 0.6541446825]}]}, "task_ids": null, "uncorrected_energy_per_atom": null, "energy_per_atom": -19.53509214, "formation_energy_per_atom": -0.297318376666666, "energy_above_hull": 0.0, "is_stable": true, "equilibrium_reaction_energy_per_atom": null, "decomposes_to": null, "xas": null, "grain_boundaries": null, "band_gap": 0.0, "cbm": null, "vbm": null, "efermi": 1.81952063, "is_gap_direct": null, "is_metal": null, "es_source_calc_id": null, "bandstructure": null, "dos": null, "dos_energy_up": null, "dos_energy_down": null, "is_magnetic": null, "ordering": null, "total_magnetization": 1e-07, "total_magnetization_normalized_vol": null, "total_magnetization_normalized_formula_units": null, "num_magnetic_sites": null, "num_unique_magnetic_sites": null, "types_of_magnetic_species": null, "bulk_modulus": null, "shear_modulus": null, "universal_anisotropy": null, "homogeneous_poisson": null, "e_total": null, "e_ionic": null, "e_electronic": null, "n": null, "e_ij_max": null, "weighted_surface_energy_EV_PER_ANG2": null, "weighted_surface_energy": null, "weighted_work_function": null, "surface_anisotropy": null, "shape_factor": null, "has_reconstructed": null, "possible_species": null, "has_props": null, "theoretical": null, "database_IDs": null, "fields_not_requested": ["builder_meta", "nsites", "elements", "nelements", "composition", "composition_reduced", "chemsys", "symmetry", "property_name", "deprecated", "deprecation_reasons", "last_updated", "origins", "warnings", "task_ids", "uncorrected_energy_per_atom", "equilibrium_reaction_energy_per_atom", "decomposes_to", "xas", "grain_boundaries", "cbm", "vbm", "is_gap_direct", "is_metal", "es_source_calc_id", "bandstructure", "dos", "dos_energy_up", "dos_energy_down", "is_magnetic", "ordering", "total_magnetization_normalized_vol", "total_magnetization_normalized_formula_units", "num_magnetic_sites", "num_unique_magnetic_sites", "types_of_magnetic_species", "bulk_modulus", "shear_modulus", "universal_anisotropy", "homogeneous_poisson", "e_total", "e_ionic", "e_electronic", "n", "e_ij_max", "weighted_surface_energy_EV_PER_ANG2", "weighted_surface_energy", "weighted_work_function", "surface_anisotropy", "shape_factor", "has_reconstructed", "possible_species", "has_props", "theoretical", "database_IDs"]}