{"builder_meta": null, "nsites": null, "elements": null, "nelements": null, "composition": null, "composition_reduced": null, "formula_pretty": "Na2In", "formula_anonymous": "AB2", "chemsys": null, "volume": 700.639108348262, "density": 3.048766092677529, "density_atomic": 29.193296181177583, "symmetry": null, "property_name": null, "material_id": "mp-31430", "deprecated": null, "deprecation_reasons": null, "last_updated": null, "origins": null, "warnings": null, "structure": {"@module": "pymatgen.core.structure", "@class": "Structure", "charge": 0, "lattice": {"matrix": [[8.15094719, 0.01983706, -0.0], [-3.41962855, 7.39895042, 0.0], [-0.0, 0.0, 11.60454069]], "pbc": [true, true, true], "a": 8.150971328812188, "b": 8.150970907664515, "c": 11.60454069, "alpha": 90.0, "beta": 90.0, "gamma": 114.66587736620694, "volume": 700.639108348262}, "properties": {}, "sites": [{"species": [{"element": "Na", "occu": 1}], "abc": [0.06602365, 0.93397635, -0.0], "properties": {"magmom": -0.0}, "label": "Na", "xyz": [-2.6556969070437493, 6.911754422209037, 0.0]}, {"species": [{"element": "Na", "occu": 1}], "abc": [0.93397635, 0.06602365, 0.5], "properties": {"magmom": -0.0}, "label": "Na", "xyz": [7.387015547043749, 0.5070330577909641, 5.802270345]}, {"species": [{"element": "Na", "occu": 1}], "abc": [0.59035682, 0.59035682, 0.25], "properties": {"magmom": 0.0}, "label": "Na", "xyz": [2.793166226717125, 4.379731784948614, 2.9011351725]}, {"species": [{"element": "Na", "occu": 1}], "abc": [0.40964318, 0.40964318, 0.75], "properties": {"magmom": 0.0}, "label": "Na", "xyz": [1.9381524132828751, 3.0390556950513865, 8.7034055175]}, {"species": [{"element": "Na", "occu": 1}], "abc": [0.4980521, 0.89630088, 0.42000317], "properties": {"magmom": -0.0}, "label": "Na", "xyz": [0.9945802863304753, 6.641565661913195, 4.873943876193987]}, {"species": [{"element": "Na", "occu": 1}], "abc": [0.5019479, 0.10369912, 0.92000317], "properties": {"magmom": -0.0}, "label": "Na", "xyz": [3.7367383536695247, 0.7772218180868045, 10.676214221193987]}, {"species": [{"element": "Na", "occu": 1}], "abc": [0.89630088, 0.4980521, 0.07999683], "properties": {"magmom": -0.0}, "label": "Na", "xyz": [5.602547958683072, 3.702842768811495, 0.9283264688060128]}, {"species": [{"element": "Na", "occu": 1}], "abc": [0.10369912, 0.5019479, 0.57999683], "properties": {"magmom": -0.0}, "label": "Na", "xyz": [-0.8712293186830721, 3.7159447111885053, 6.730596813806013]}, {"species": [{"element": "Na", "occu": 1}], "abc": [0.397217899999999, 0.152416399999999, 0.2071643], "properties": {"magmom": 0.0}, "label": "Na", "xyz": [2.7164946528944762, 1.1356010221102548, 2.404046548865367]}, {"species": [{"element": "Na", "occu": 1}], "abc": [0.6027821, 0.8475836, 0.7071643], "properties": {"magmom": 0.0}, "label": "Na", "xyz": [2.014823987105519, 6.283186457889738, 8.206316893865367]}, {"species": [{"element": "Na", "occu": 1}], "abc": [0.152416399999999, 0.397217899999999, 0.2928357], "properties": {"magmom": 0.0}, "label": "Na", "xyz": [-0.11599964412113373, 2.9420190413082947, 3.3982237961346327]}, {"species": [{"element": "Na", "occu": 1}], "abc": [0.8475836, 0.6027821, 0.792835699999999], "properties": {"magmom": 0.0}, "label": "Na", "xyz": [4.847318284121129, 4.476768438691698, 9.200494141134621]}, {"species": [{"element": "Na", "occu": 1}], "abc": [0.77478601, 0.04976221, 0.16713665], "properties": {"magmom": -0.0}, "label": "Na", "xyz": [6.1450715770337165, 0.38355760114715887, 1.9395440557152885]}, {"species": [{"element": "Na", "occu": 1}], "abc": [0.22521399, 0.95023779, 0.66713665], "properties": {"magmom": -0.0}, "label": "Na", "xyz": [-1.4137529370337163, 7.035229878852841, 7.741814400715288]}, {"species": [{"element": "Na", "occu": 1}], "abc": [0.04976221, 0.77478601, 0.33286335], "properties": {"magmom": -0.0}, "label": "Na", "xyz": [-2.2438712141688955, 5.733590410045127, 3.8627262892847116]}, {"species": [{"element": "Na", "occu": 1}], "abc": [0.95023779, 0.22521399, 0.83286335], "properties": {"magmom": -0.0}, "label": "Na", "xyz": [6.975189854168895, 1.6851970699548733, 9.664996634284712]}, {"species": [{"element": "In", "occu": 1}], "abc": [0.3304832, 0.75608135, 0.12792244], "properties": {"magmom": 0.0}, "label": "In", "xyz": [0.10823373979966533, 5.600764237204059, 1.4844811601440837]}, {"species": [{"element": "In", "occu": 1}], "abc": [0.6695168, 0.24391865000000001, 0.62792244], "properties": {"magmom": 0.0}, "label": "In", "xyz": [4.623084900200334, 1.8180232427959413, 7.286751505144084]}, {"species": [{"element": "In", "occu": 1}], "abc": [0.75608135, 0.3304832, 0.37207756000000003], "properties": {"magmom": 0.0}, "label": "In", "xyz": [5.0326493691785466, 2.460227242547775, 4.317789184855917]}, {"species": [{"element": "In", "occu": 1}], "abc": [0.24391865000000001, 0.6695168, 0.87207756], "properties": {"magmom": 0.0}, "label": "In", "xyz": [-0.3013307291785463, 4.958560237452225, 10.120059529855917]}, {"species": [{"element": "In", "occu": 1}], "abc": [0.72738368, 0.62238332, 0.52548746], "properties": {"magmom": 0.0}, "label": "In", "xyz": [3.800546192432073, 4.619412480618175, 6.098040611654747]}, {"species": [{"element": "In", "occu": 1}], "abc": [0.27261632, 0.37761668, 0.02548746], "properties": {"magmom": 0.0}, "label": "In", "xyz": [0.9307724475679269, 2.7993749993818247, 0.2957702666547474]}, {"species": [{"element": "In", "occu": 1}], "abc": [0.62238332, 0.72738368, 0.97451254], "properties": {"magmom": 0.0}, "label": "In", "xyz": [2.585631574324807, 5.394222039898985, 11.308770423345253]}, {"species": [{"element": "In", "occu": 1}], "abc": [0.37761668, 0.27261632, 0.47451254], "properties": {"magmom": 0.0}, "label": "In", "xyz": [2.145687065675193, 2.0245654401010156, 5.506500078345253]}]}, "task_ids": null, "uncorrected_energy_per_atom": null, "energy_per_atom": -10.078149446666666, "formation_energy_per_atom": -0.175832273333333, "energy_above_hull": 0.0, "is_stable": true, "equilibrium_reaction_energy_per_atom": null, "decomposes_to": null, "xas": null, "grain_boundaries": null, "band_gap": 0.0, "cbm": null, "vbm": null, "efermi": 2.4361988, "is_gap_direct": null, "is_metal": null, "es_source_calc_id": null, "bandstructure": null, "dos": null, "dos_energy_up": null, "dos_energy_down": null, "is_magnetic": null, "ordering": null, "total_magnetization": 1.3e-06, "total_magnetization_normalized_vol": null, "total_magnetization_normalized_formula_units": null, "num_magnetic_sites": null, "num_unique_magnetic_sites": null, "types_of_magnetic_species": null, "bulk_modulus": null, "shear_modulus": null, "universal_anisotropy": null, "homogeneous_poisson": null, "e_total": null, "e_ionic": null, "e_electronic": null, "n": null, "e_ij_max": null, "weighted_surface_energy_EV_PER_ANG2": null, "weighted_surface_energy": null, "weighted_work_function": null, "surface_anisotropy": null, "shape_factor": null, "has_reconstructed": null, "possible_species": null, "has_props": null, "theoretical": null, "database_IDs": null, "fields_not_requested": ["builder_meta", "nsites", "elements", "nelements", "composition", "composition_reduced", "chemsys", "symmetry", "property_name", "deprecated", "deprecation_reasons", "last_updated", "origins", "warnings", "task_ids", "uncorrected_energy_per_atom", "equilibrium_reaction_energy_per_atom", "decomposes_to", "xas", "grain_boundaries", "cbm", "vbm", "is_gap_direct", "is_metal", "es_source_calc_id", "bandstructure", "dos", "dos_energy_up", "dos_energy_down", "is_magnetic", "ordering", "total_magnetization_normalized_vol", "total_magnetization_normalized_formula_units", "num_magnetic_sites", "num_unique_magnetic_sites", "types_of_magnetic_species", "bulk_modulus", "shear_modulus", "universal_anisotropy", "homogeneous_poisson", "e_total", "e_ionic", "e_electronic", "n", "e_ij_max", "weighted_surface_energy_EV_PER_ANG2", "weighted_surface_energy", "weighted_work_function", "surface_anisotropy", "shape_factor", "has_reconstructed", "possible_species", "has_props", "theoretical", "database_IDs"]}