{
  "builder_meta": null,
  "nsites": null,
  "elements": null,
  "nelements": null,
  "composition": null,
  "composition_reduced": null,
  "formula_pretty": "Na2O2",
  "formula_anonymous": "AB",
  "chemsys": null,
  "volume": 144.24885606779526,
  "density": 2.6929727082185853,
  "density_atomic": 12.020738005649605,
  "symmetry": null,
  "property_name": null,
  "material_id": "mp-2340",
  "deprecated": null,
  "deprecation_reasons": null,
  "last_updated": null,
  "origins": null,
  "warnings": null,
  "structure": {
    "@module": "pymatgen.core.structure",
    "@class": "Structure",
    "charge": 0,
    "lattice": {
      "matrix": [
        [6.13536778, -0.0, 0.0],
        [-3.06768389, 5.3133843, -0.0],
        [0.0, -0.0, 4.42487033]
      ],
      "pbc": [true, true, true],
      "a": 6.13536778,
      "b": 6.135367728869397,
      "c": 4.42487033,
      "alpha": 90.0,
      "beta": 90.0,
      "gamma": 120.00000027567815,
      "volume": 144.24885606779526
    },
    "properties": {},
    "sites": [
      {
        "species": [{ "element": "Na", "occu": 1 }],
        "abc": [-0.0, 0.7000375600000001, 0.5],
        "properties": { "magmom": -0.0 },
        "label": "Na",
        "xyz": [-2.1474939452069086, 3.7195685807143084, 2.212435165]
      },
      {
        "species": [{ "element": "Na", "occu": 1 }],
        "abc": [0.29996244, 0.29996244, 0.5],
        "properties": { "magmom": -0.0 },
        "label": "Na",
        "xyz": [0.9201899447930916, 1.593815719285692, 2.212435165]
      },
      {
        "species": [{ "element": "Na", "occu": 1 }],
        "abc": [0.7000375600000001, 0.0, 0.5],
        "properties": { "magmom": -0.0 },
        "label": "Na",
        "xyz": [4.294987890413817, 0.0, 2.212435165]
      },
      {
        "species": [{ "element": "Na", "occu": 1 }],
        "abc": [-0.0, 0.36572569, -0.0],
        "properties": { "magmom": -0.0 },
        "label": "Na",
        "xyz": [-1.1219308073721341, 1.943241139352667, 0.0]
      },
      {
        "species": [{ "element": "Na", "occu": 1 }],
        "abc": [0.63427431, 0.63427431, -0.0],
        "properties": { "magmom": -0.0 },
        "label": "Na",
        "xyz": [1.945753082627866, 3.370143160647333, 0.0]
      },
      {
        "species": [{ "element": "Na", "occu": 1 }],
        "abc": [0.36572569, 0.0, -0.0],
        "properties": { "magmom": -0.0 },
        "label": "Na",
        "xyz": [2.2438616147442683, 0.0, 0.0]
      },
      {
        "species": [{ "element": "O", "occu": 1 }],
        "abc": [0.666667, 0.333333, 0.325554],
        "properties": { "magmom": 0.0 },
        "label": "O",
        "xyz": [3.0676869576838905, 1.7711263288719, 1.44053423541282]
      },
      {
        "species": [{ "element": "O", "occu": 1 }],
        "abc": [0.666667, 0.333333, 0.674446],
        "properties": { "magmom": 0.0 },
        "label": "O",
        "xyz": [3.0676869576838905, 1.7711263288719, 2.98433609458718]
      },
      {
        "species": [{ "element": "O", "occu": 1 }],
        "abc": [0.333333, 0.666667, 0.674446],
        "properties": { "magmom": 0.0 },
        "label": "O",
        "xyz": [-3.0676838900234316e-6, 3.5422579711281, 2.98433609458718]
      },
      {
        "species": [{ "element": "O", "occu": 1 }],
        "abc": [0.333333, 0.666667, 0.325554],
        "properties": { "magmom": 0.0 },
        "label": "O",
        "xyz": [-3.0676838900234316e-6, 3.5422579711281, 1.44053423541282]
      },
      {
        "species": [{ "element": "O", "occu": 1 }],
        "abc": [-0.0, 0.0, 0.82767284],
        "properties": { "magmom": -0.0 },
        "label": "O",
        "xyz": [0.0, 0.0, 3.6623449926628373]
      },
      {
        "species": [{ "element": "O", "occu": 1 }],
        "abc": [-0.0, 0.0, 0.17232716],
        "properties": { "magmom": -0.0 },
        "label": "O",
        "xyz": [0.0, 0.0, 0.7625253373371629]
      }
    ]
  },
  "task_ids": null,
  "uncorrected_energy_per_atom": null,
  "energy_per_atom": -4.442937286666667,
  "formation_energy_per_atom": -1.2980963948563211,
  "energy_above_hull": 0.0,
  "is_stable": true,
  "equilibrium_reaction_energy_per_atom": null,
  "decomposes_to": null,
  "xas": null,
  "grain_boundaries": null,
  "band_gap": 1.7361,
  "cbm": null,
  "vbm": null,
  "efermi": 1.833154899999999,
  "is_gap_direct": null,
  "is_metal": null,
  "es_source_calc_id": null,
  "bandstructure": null,
  "dos": null,
  "dos_energy_up": null,
  "dos_energy_down": null,
  "is_magnetic": null,
  "ordering": null,
  "total_magnetization": 0.0,
  "total_magnetization_normalized_vol": null,
  "total_magnetization_normalized_formula_units": null,
  "num_magnetic_sites": null,
  "num_unique_magnetic_sites": null,
  "types_of_magnetic_species": null,
  "bulk_modulus": null,
  "shear_modulus": null,
  "universal_anisotropy": null,
  "homogeneous_poisson": null,
  "e_total": null,
  "e_ionic": null,
  "e_electronic": null,
  "n": null,
  "e_ij_max": null,
  "weighted_surface_energy_EV_PER_ANG2": null,
  "weighted_surface_energy": null,
  "weighted_work_function": null,
  "surface_anisotropy": null,
  "shape_factor": null,
  "has_reconstructed": null,
  "possible_species": null,
  "has_props": null,
  "theoretical": null,
  "database_IDs": null,
  "fields_not_requested": [
    "builder_meta",
    "nsites",
    "elements",
    "nelements",
    "composition",
    "composition_reduced",
    "chemsys",
    "symmetry",
    "property_name",
    "deprecated",
    "deprecation_reasons",
    "last_updated",
    "origins",
    "warnings",
    "task_ids",
    "uncorrected_energy_per_atom",
    "equilibrium_reaction_energy_per_atom",
    "decomposes_to",
    "xas",
    "grain_boundaries",
    "cbm",
    "vbm",
    "is_gap_direct",
    "is_metal",
    "es_source_calc_id",
    "bandstructure",
    "dos",
    "dos_energy_up",
    "dos_energy_down",
    "is_magnetic",
    "ordering",
    "total_magnetization_normalized_vol",
    "total_magnetization_normalized_formula_units",
    "num_magnetic_sites",
    "num_unique_magnetic_sites",
    "types_of_magnetic_species",
    "bulk_modulus",
    "shear_modulus",
    "universal_anisotropy",
    "homogeneous_poisson",
    "e_total",
    "e_ionic",
    "e_electronic",
    "n",
    "e_ij_max",
    "weighted_surface_energy_EV_PER_ANG2",
    "weighted_surface_energy",
    "weighted_work_function",
    "surface_anisotropy",
    "shape_factor",
    "has_reconstructed",
    "possible_species",
    "has_props",
    "theoretical",
    "database_IDs"
  ]
}
