{
  "builder_meta": null,
  "nsites": null,
  "elements": null,
  "nelements": null,
  "composition": null,
  "composition_reduced": null,
  "formula_pretty": "Na2S5",
  "formula_anonymous": "A2B5",
  "chemsys": null,
  "volume": 642.57460262411,
  "density": 2.132525901252682,
  "density_atomic": 22.94909295086107,
  "symmetry": null,
  "property_name": null,
  "material_id": "mp-28127",
  "deprecated": null,
  "deprecation_reasons": null,
  "last_updated": null,
  "origins": null,
  "warnings": null,
  "structure": {
    "@module": "pymatgen.core.structure",
    "@class": "Structure",
    "charge": 0,
    "lattice": {
      "matrix": [
        [5.79066164, 0.0, 0.0],
        [0.0, 7.647367369999999, 0.0],
        [0.0, 0.0, 14.51053462]
      ],
      "pbc": [true, true, true],
      "a": 5.79066164,
      "b": 7.647367369999999,
      "c": 14.51053462,
      "alpha": 90.0,
      "beta": 90.0,
      "gamma": 90.0,
      "volume": 642.5746026241097
    },
    "properties": {},
    "sites": [
      {
        "species": [{ "element": "Na", "occu": 1 }],
        "abc": [0.20169499, 0.9476915300000001, 0.75],
        "properties": { "magmom": -0.0 },
        "label": "Na",
        "xyz": [1.1679474415731834, 7.247345283347375, 10.882900965]
      },
      {
        "species": [{ "element": "Na", "occu": 1 }],
        "abc": [0.70169499, 0.55230847, 0.25],
        "properties": { "magmom": -0.0 },
        "label": "Na",
        "xyz": [4.063278261573184, 4.223705771652623, 3.627633655]
      },
      {
        "species": [{ "element": "Na", "occu": 1 }],
        "abc": [0.29830501, 0.44769153, 0.75],
        "properties": { "magmom": -0.0 },
        "label": "Na",
        "xyz": [1.7273833784268162, 3.4236615983473757, 10.882900965]
      },
      {
        "species": [{ "element": "Na", "occu": 1 }],
        "abc": [0.79830501, 0.05230847, 0.25],
        "properties": { "magmom": -0.0 },
        "label": "Na",
        "xyz": [4.622714198426816, 0.40002208665262384, 3.627633655]
      },
      {
        "species": [{ "element": "Na", "occu": 1 }],
        "abc": [-0.0, 0.0, 0.5],
        "properties": { "magmom": 0.0 },
        "label": "Na",
        "xyz": [0.0, 0.0, 7.25526731]
      },
      {
        "species": [{ "element": "Na", "occu": 1 }],
        "abc": [0.5, 0.5, 0.5],
        "properties": { "magmom": 0.0 },
        "label": "Na",
        "xyz": [2.89533082, 3.8236836849999993, 7.25526731]
      },
      {
        "species": [{ "element": "Na", "occu": 1 }],
        "abc": [0.5, 0.5, 0.0],
        "properties": { "magmom": 0.0 },
        "label": "Na",
        "xyz": [2.89533082, 3.8236836849999993, 0.0]
      },
      {
        "species": [{ "element": "Na", "occu": 1 }],
        "abc": [-0.0, 0.0, 0.0],
        "properties": { "magmom": 0.0 },
        "label": "Na",
        "xyz": [0.0, 0.0, 0.0]
      },
      {
        "species": [{ "element": "S", "occu": 1 }],
        "abc": [0.11011277, 0.45727314, 0.13411589000000002],
        "properties": { "magmom": 0.0 },
        "label": "S",
        "xyz": [0.6376257933131427, 3.496935690013441, 1.9460932649371119]
      },
      {
        "species": [{ "element": "S", "occu": 1 }],
        "abc": [0.61011277, 0.04272686, 0.86588411],
        "properties": { "magmom": 0.0 },
        "label": "S",
        "xyz": [3.5329566133131425, 0.32674799498655815, 12.564441355062888]
      },
      {
        "species": [{ "element": "S", "occu": 1 }],
        "abc": [0.38988723000000003, 0.95727314, 0.36588411],
        "properties": { "magmom": 0.0 },
        "label": "S",
        "xyz": [2.2577050266868572, 7.3206193750134405, 5.309174045062888]
      },
      {
        "species": [{ "element": "S", "occu": 1 }],
        "abc": [0.88988723, 0.54272686, 0.63411589],
        "properties": { "magmom": 0.0 },
        "label": "S",
        "xyz": [5.1530358466868575, 4.150431679986558, 9.201360574937112]
      },
      {
        "species": [{ "element": "S", "occu": 1 }],
        "abc": [0.88988723, 0.54272686, 0.86588411],
        "properties": { "magmom": 0.0 },
        "label": "S",
        "xyz": [5.1530358466868575, 4.150431679986558, 12.564441355062888]
      },
      {
        "species": [{ "element": "S", "occu": 1 }],
        "abc": [0.38988723000000003, 0.95727314, 0.13411589000000002],
        "properties": { "magmom": 0.0 },
        "label": "S",
        "xyz": [2.2577050266868572, 7.3206193750134405, 1.9460932649371119]
      },
      {
        "species": [{ "element": "S", "occu": 1 }],
        "abc": [0.61011277, 0.04272686, 0.63411589],
        "properties": { "magmom": 0.0 },
        "label": "S",
        "xyz": [3.5329566133131425, 0.32674799498655815, 9.201360574937112]
      },
      {
        "species": [{ "element": "S", "occu": 1 }],
        "abc": [0.11011277, 0.45727314, 0.36588411],
        "properties": { "magmom": 0.0 },
        "label": "S",
        "xyz": [0.6376257933131427, 3.496935690013441, 5.309174045062888]
      },
      {
        "species": [{ "element": "S", "occu": 1 }],
        "abc": [0.27135967, 0.35790271, 0.25],
        "properties": { "magmom": 0.0 },
        "label": "S",
        "xyz": [1.5713520317120586, 2.7370135060885725, 3.627633655]
      },
      {
        "species": [{ "element": "S", "occu": 1 }],
        "abc": [0.77135967, 0.14209729000000001, 0.75],
        "properties": { "magmom": 0.0 },
        "label": "S",
        "xyz": [4.466682851712059, 1.0866701789114273, 10.882900965]
      },
      {
        "species": [{ "element": "S", "occu": 1 }],
        "abc": [0.22864033, 0.8579027100000001, 0.25],
        "properties": { "magmom": 0.0 },
        "label": "S",
        "xyz": [1.3239787882879412, 6.560697191088572, 3.627633655]
      },
      {
        "species": [{ "element": "S", "occu": 1 }],
        "abc": [0.7286403300000001, 0.64209729, 0.75],
        "properties": { "magmom": 0.0 },
        "label": "S",
        "xyz": [4.219309608287942, 4.910353863911427, 10.882900965]
      },
      {
        "species": [{ "element": "S", "occu": 1 }],
        "abc": [0.8358092300000001, 0.29673246000000003, 0.39732761],
        "properties": { "magmom": -0.0 },
        "label": "S",
        "xyz": [4.839888446518938, 2.26922213222383, 5.765436040386858]
      },
      {
        "species": [{ "element": "S", "occu": 1 }],
        "abc": [0.33580923, 0.20326754, 0.6026723900000001],
        "properties": { "magmom": -0.0 },
        "label": "S",
        "xyz": [1.9445576265189373, 1.5544615527761696, 8.745098579613142]
      },
      {
        "species": [{ "element": "S", "occu": 1 }],
        "abc": [0.66419077, 0.79673246, 0.10267239],
        "properties": { "magmom": -0.0 },
        "label": "S",
        "xyz": [3.846104013481063, 6.092905817223829, 1.4898312696131417]
      },
      {
        "species": [{ "element": "S", "occu": 1 }],
        "abc": [0.16419077, 0.70326754, 0.89732761],
        "properties": { "magmom": -0.0 },
        "label": "S",
        "xyz": [0.9507731934810628, 5.378145237776169, 13.020703350386858]
      },
      {
        "species": [{ "element": "S", "occu": 1 }],
        "abc": [0.16419077, 0.70326754, 0.6026723900000001],
        "properties": { "magmom": -0.0 },
        "label": "S",
        "xyz": [0.9507731934810628, 5.378145237776169, 8.745098579613142]
      },
      {
        "species": [{ "element": "S", "occu": 1 }],
        "abc": [0.66419077, 0.79673246, 0.39732761],
        "properties": { "magmom": -0.0 },
        "label": "S",
        "xyz": [3.846104013481063, 6.092905817223829, 5.765436040386858]
      },
      {
        "species": [{ "element": "S", "occu": 1 }],
        "abc": [0.33580923, 0.20326754, 0.89732761],
        "properties": { "magmom": -0.0 },
        "label": "S",
        "xyz": [1.9445576265189373, 1.5544615527761696, 13.020703350386858]
      },
      {
        "species": [{ "element": "S", "occu": 1 }],
        "abc": [0.8358092300000001, 0.29673246000000003, 0.10267239],
        "properties": { "magmom": -0.0 },
        "label": "S",
        "xyz": [4.839888446518938, 2.26922213222383, 1.4898312696131417]
      }
    ]
  },
  "task_ids": null,
  "uncorrected_energy_per_atom": null,
  "energy_per_atom": -7.364453934642857,
  "formation_energy_per_atom": -0.6068315702232141,
  "energy_above_hull": 0.0,
  "is_stable": true,
  "equilibrium_reaction_energy_per_atom": null,
  "decomposes_to": null,
  "xas": null,
  "grain_boundaries": null,
  "band_gap": 1.7772000000000001,
  "cbm": null,
  "vbm": null,
  "efermi": 2.10622043,
  "is_gap_direct": null,
  "is_metal": null,
  "es_source_calc_id": null,
  "bandstructure": null,
  "dos": null,
  "dos_energy_up": null,
  "dos_energy_down": null,
  "is_magnetic": null,
  "ordering": null,
  "total_magnetization": 0.0,
  "total_magnetization_normalized_vol": null,
  "total_magnetization_normalized_formula_units": null,
  "num_magnetic_sites": null,
  "num_unique_magnetic_sites": null,
  "types_of_magnetic_species": null,
  "bulk_modulus": null,
  "shear_modulus": null,
  "universal_anisotropy": null,
  "homogeneous_poisson": null,
  "e_total": null,
  "e_ionic": null,
  "e_electronic": null,
  "n": null,
  "e_ij_max": null,
  "weighted_surface_energy_EV_PER_ANG2": null,
  "weighted_surface_energy": null,
  "weighted_work_function": null,
  "surface_anisotropy": null,
  "shape_factor": null,
  "has_reconstructed": null,
  "possible_species": null,
  "has_props": null,
  "theoretical": null,
  "database_IDs": null,
  "fields_not_requested": [
    "builder_meta",
    "nsites",
    "elements",
    "nelements",
    "composition",
    "composition_reduced",
    "chemsys",
    "symmetry",
    "property_name",
    "deprecated",
    "deprecation_reasons",
    "last_updated",
    "origins",
    "warnings",
    "task_ids",
    "uncorrected_energy_per_atom",
    "equilibrium_reaction_energy_per_atom",
    "decomposes_to",
    "xas",
    "grain_boundaries",
    "cbm",
    "vbm",
    "is_gap_direct",
    "is_metal",
    "es_source_calc_id",
    "bandstructure",
    "dos",
    "dos_energy_up",
    "dos_energy_down",
    "is_magnetic",
    "ordering",
    "total_magnetization_normalized_vol",
    "total_magnetization_normalized_formula_units",
    "num_magnetic_sites",
    "num_unique_magnetic_sites",
    "types_of_magnetic_species",
    "bulk_modulus",
    "shear_modulus",
    "universal_anisotropy",
    "homogeneous_poisson",
    "e_total",
    "e_ionic",
    "e_electronic",
    "n",
    "e_ij_max",
    "weighted_surface_energy_EV_PER_ANG2",
    "weighted_surface_energy",
    "weighted_work_function",
    "surface_anisotropy",
    "shape_factor",
    "has_reconstructed",
    "possible_species",
    "has_props",
    "theoretical",
    "database_IDs"
  ]
}
