{"builder_meta": null, "nsites": null, "elements": null, "nelements": null, "composition": null, "composition_reduced": null, "formula_pretty": "Na2Te", "formula_anonymous": "AB2", "chemsys": null, "volume": 95.90002973074063, "density": 3.005584104098432, "density_atomic": 31.966676576913542, "symmetry": null, "property_name": null, "material_id": "mp-2784", "deprecated": null, "deprecation_reasons": null, "last_updated": null, "origins": null, "warnings": null, "structure": {"@module": "pymatgen.core.structure", "@class": "Structure", "charge": 0, "lattice": {"matrix": [[4.44947416, 0.0, 2.56890501], [1.4831580500000001, 4.19500208, 2.56890501], [0.0, 0.0, 5.13780802]], "pbc": [true, true, true], "a": 5.1378101610424265, "b": 5.137808210013997, "c": 5.13780802, "alpha": 59.9999883464201, "beta": 60.0000009081001, "gamma": 59.99998808089255, "volume": 95.90002973074063}, "properties": {}, "sites": [{"species": [{"element": "Na", "occu": 1}], "abc": [0.25, 0.25, 0.25], "properties": {"magmom": -0.0}, "label": "Na", "xyz": [1.4831580525, 1.04875052, 2.56890451]}, {"species": [{"element": "Na", "occu": 1}], "abc": [0.75, 0.75, 0.75], "properties": {"magmom": -0.0}, "label": "Na", "xyz": [4.4494741575, 3.14625156, 7.70671353]}, {"species": [{"element": "Te", "occu": 1}], "abc": [0.0, -0.0, 0.0], "properties": {"magmom": 0.0}, "label": "Te", "xyz": [0.0, 0.0, 0.0]}]}, "task_ids": null, "uncorrected_energy_per_atom": null, "energy_per_atom": -11.976331103333335, "formation_energy_per_atom": -1.127802620000001, "energy_above_hull": 0.0, "is_stable": true, "equilibrium_reaction_energy_per_atom": null, "decomposes_to": null, "xas": null, "grain_boundaries": null, "band_gap": 2.0282, "cbm": null, "vbm": null, "efermi": 0.7018901200000001, "is_gap_direct": null, "is_metal": null, "es_source_calc_id": null, "bandstructure": null, "dos": null, "dos_energy_up": null, "dos_energy_down": null, "is_magnetic": null, "ordering": null, "total_magnetization": 0.0, "total_magnetization_normalized_vol": null, "total_magnetization_normalized_formula_units": null, "num_magnetic_sites": null, "num_unique_magnetic_sites": null, "types_of_magnetic_species": null, "bulk_modulus": null, "shear_modulus": null, "universal_anisotropy": null, "homogeneous_poisson": null, "e_total": null, "e_ionic": null, "e_electronic": null, "n": null, "e_ij_max": null, "weighted_surface_energy_EV_PER_ANG2": null, "weighted_surface_energy": null, "weighted_work_function": null, "surface_anisotropy": null, "shape_factor": null, "has_reconstructed": null, "possible_species": null, "has_props": null, "theoretical": null, "database_IDs": null, "fields_not_requested": ["builder_meta", "nsites", "elements", "nelements", "composition", "composition_reduced", "chemsys", "symmetry", "property_name", "deprecated", "deprecation_reasons", "last_updated", "origins", "warnings", "task_ids", "uncorrected_energy_per_atom", "equilibrium_reaction_energy_per_atom", "decomposes_to", "xas", "grain_boundaries", "cbm", "vbm", "is_gap_direct", "is_metal", "es_source_calc_id", "bandstructure", "dos", "dos_energy_up", "dos_energy_down", "is_magnetic", "ordering", "total_magnetization_normalized_vol", "total_magnetization_normalized_formula_units", "num_magnetic_sites", "num_unique_magnetic_sites", "types_of_magnetic_species", "bulk_modulus", "shear_modulus", "universal_anisotropy", "homogeneous_poisson", "e_total", "e_ionic", "e_electronic", "n", "e_ij_max", "weighted_surface_energy_EV_PER_ANG2", "weighted_surface_energy", "weighted_work_function", "surface_anisotropy", "shape_factor", "has_reconstructed", "possible_species", "has_props", "theoretical", "database_IDs"]}