{
  "builder_meta": null,
  "nsites": null,
  "elements": null,
  "nelements": null,
  "composition": null,
  "composition_reduced": null,
  "formula_pretty": "Na2Tl",
  "formula_anonymous": "AB2",
  "chemsys": null,
  "volume": 710.1502692292977,
  "density": 4.683372432766204,
  "density_atomic": 29.58959455122074,
  "symmetry": null,
  "property_name": null,
  "material_id": "mp-30795",
  "deprecated": null,
  "deprecation_reasons": null,
  "last_updated": null,
  "origins": null,
  "warnings": null,
  "structure": {
    "@module": "pymatgen.core.structure",
    "@class": "Structure",
    "charge": 0,
    "lattice": {
      "matrix": [
        [8.23241492, 0.00931156, 0.0],
        [-3.46910942, 7.46579123, 0.0],
        [0.0, 0.0, 11.54832421]
      ],
      "pbc": [true, true, true],
      "a": 8.232420186080654,
      "b": 8.23242120265221,
      "c": 11.54832421,
      "alpha": 90.0,
      "beta": 90.0,
      "gamma": 114.85794827674859,
      "volume": 710.1502692292977
    },
    "properties": {},
    "sites": [
      {
        "species": [{ "element": "Na", "occu": 1 }],
        "abc": [0.07022058, 0.92977942, -0.0],
        "properties": { "magmom": -0.0 },
        "label": "Na",
        "xyz": [-2.647421593961083, 6.942192902814391, 0.0]
      },
      {
        "species": [{ "element": "Na", "occu": 1 }],
        "abc": [0.92977942, 0.07022058, 0.5],
        "properties": { "magmom": -0.0 },
        "label": "Na",
        "xyz": [7.410727093961083, 0.5329098871856086, 5.774162105]
      },
      {
        "species": [{ "element": "Na", "occu": 1 }],
        "abc": [0.59223205, 0.59223205, 0.25],
        "properties": { "magmom": -0.0 },
        "label": "Na",
        "xyz": [2.820982181041275, 4.426995449282419, 2.8870810525]
      },
      {
        "species": [{ "element": "Na", "occu": 1 }],
        "abc": [0.40776795, 0.40776795, 0.75],
        "properties": { "magmom": -0.0 },
        "label": "Na",
        "xyz": [1.942323318958725, 3.0481073407175803, 8.6612431575]
      },
      {
        "species": [{ "element": "Na", "occu": 1 }],
        "abc": [0.49324104, 0.902133099999999, 0.42155396],
        "properties": { "magmom": -0.0 },
        "label": "Na",
        "xyz": [0.9309664615485183, 6.739730229811128, 4.868241802089372]
      },
      {
        "species": [{ "element": "Na", "occu": 1 }],
        "abc": [0.50675896, 0.09786689999999901, 0.92155396],
        "properties": { "magmom": -0.0 },
        "label": "Na",
        "xyz": [3.8323390384514884, 0.7353725601888572, 10.642403907089372]
      },
      {
        "species": [{ "element": "Na", "occu": 1 }],
        "abc": [0.902133099999999, 0.49324104, 0.07844604000000001],
        "properties": { "magmom": -0.0 },
        "label": "Na",
        "xyz": [5.715626854071247, 3.6908348971967153, 0.9059203029106285]
      },
      {
        "species": [{ "element": "Na", "occu": 1 }],
        "abc": [0.09786689999999901, 0.50675896, 0.57844604],
        "properties": { "magmom": -0.0 },
        "label": "Na",
        "xyz": [-0.9523213540712633, 3.7842678928032845, 6.6800824079106285]
      },
      {
        "species": [{ "element": "Na", "occu": 1 }],
        "abc": [0.40243166, 0.15684037, 0.20953477],
        "properties": { "magmom": 0.0 },
        "label": "Na",
        "xyz": [2.768887997061082, 1.1746847254039448, 2.419775457227782]
      },
      {
        "species": [{ "element": "Na", "occu": 1 }],
        "abc": [0.59756834, 0.84315963, 0.70953477],
        "properties": { "magmom": 0.0 },
        "label": "Na",
        "xyz": [1.9944175029389184, 6.300418064596056, 8.193937562227783]
      },
      {
        "species": [{ "element": "Na", "occu": 1 }],
        "abc": [0.15684037, 0.40243166, 0.29046523],
        "properties": { "magmom": 0.0 },
        "label": "Na",
        "xyz": [-0.10490446056591685, 3.005931186418019, 3.354386647772219]
      },
      {
        "species": [{ "element": "Na", "occu": 1 }],
        "abc": [0.84315963, 0.59756834, 0.79046523],
        "properties": { "magmom": 0.0 },
        "label": "Na",
        "xyz": [4.868209960565917, 4.469171603581981, 9.128548752772218]
      },
      {
        "species": [{ "element": "Na", "occu": 1 }],
        "abc": [0.777752, 0.044263830000000004, 0.16811315000000002],
        "properties": { "magmom": -0.0 },
        "label": "Na",
        "xyz": [6.249221099241562, 0.33770659823333093, 1.9414251601643617]
      },
      {
        "species": [{ "element": "Na", "occu": 1 }],
        "abc": [0.222248, 0.95573617, 0.66811315],
        "properties": { "magmom": -0.0 },
        "label": "Na",
        "xyz": [-1.4859155992415614, 7.137396191766668, 7.715587265164363]
      },
      {
        "species": [{ "element": "Na", "occu": 1 }],
        "abc": [0.044263830000000004, 0.777752, 0.33188685],
        "properties": { "magmom": -0.0 },
        "label": "Na",
        "xyz": [-2.3337085751154967, 5.806946226023835, 3.8327369448356388]
      },
      {
        "species": [{ "element": "Na", "occu": 1 }],
        "abc": [0.95573617, 0.222248, 0.8318868500000001],
        "properties": { "magmom": -0.0 },
        "label": "Na",
        "xyz": [7.097014075115496, 1.668156563976165, 9.60689904983564]
      },
      {
        "species": [{ "element": "Tl", "occu": 1 }],
        "abc": [0.33316938, 0.765037899999999, 0.13374305],
        "properties": { "magmom": 0.0 },
        "label": "Tl",
        "xyz": [0.08878838925213461, 5.714715571109642, 1.5445081022342406]
      },
      {
        "species": [{ "element": "Tl", "occu": 1 }],
        "abc": [0.66683062, 0.234962099999999, 0.63374305],
        "properties": { "magmom": 0.0 },
        "label": "Tl",
        "xyz": [4.674517110747872, 1.7603872188903429, 7.31867020723424]
      },
      {
        "species": [{ "element": "Tl", "occu": 1 }],
        "abc": [0.765037899999999, 0.33316938, 0.36625695],
        "properties": { "magmom": 0.0 },
        "label": "Tl",
        "xyz": [5.142308387711901, 2.4944967316166613, 4.22965400276576]
      },
      {
        "species": [{ "element": "Tl", "occu": 1 }],
        "abc": [0.234962099999999, 0.66683062, 0.86625695],
        "properties": { "magmom": 0.0 },
        "label": "Tl",
        "xyz": [-0.3790028877119169, 4.980606058383339, 10.00381610776576]
      },
      {
        "species": [{ "element": "Tl", "occu": 1 }],
        "abc": [0.72605315, 0.63074208, 0.52644093],
        "properties": { "magmom": 0.0 },
        "label": "Tl",
        "xyz": [3.789057493454605, 4.7157493767253715, 6.079510537053916]
      },
      {
        "species": [{ "element": "Tl", "occu": 1 }],
        "abc": [0.27394685, 0.36925792, 0.02644093],
        "properties": { "magmom": 0.0 },
        "label": "Tl",
        "xyz": [0.9742480065453958, 2.7593534132746274, 0.3053484320539153]
      },
      {
        "species": [{ "element": "Tl", "occu": 1 }],
        "abc": [0.63074208, 0.72605315, 0.97355907],
        "properties": { "magmom": 0.0 },
        "label": "Tl",
        "xyz": [2.6737726879781603, 5.426434432506319, 11.242975777946086]
      },
      {
        "species": [{ "element": "Tl", "occu": 1 }],
        "abc": [0.36925792, 0.27394685, 0.47355907],
        "properties": { "magmom": 0.0 },
        "label": "Tl",
        "xyz": [2.0895328120218393, 2.0486683574936806, 5.4688136729460854]
      }
    ]
  },
  "task_ids": null,
  "uncorrected_energy_per_atom": null,
  "energy_per_atom": -20.24044029875,
  "formation_energy_per_atom": -0.137885058749998,
  "energy_above_hull": 0.0,
  "is_stable": true,
  "equilibrium_reaction_energy_per_atom": null,
  "decomposes_to": null,
  "xas": null,
  "grain_boundaries": null,
  "band_gap": 0.0,
  "cbm": null,
  "vbm": null,
  "efermi": 2.31353167,
  "is_gap_direct": null,
  "is_metal": null,
  "es_source_calc_id": null,
  "bandstructure": null,
  "dos": null,
  "dos_energy_up": null,
  "dos_energy_down": null,
  "is_magnetic": null,
  "ordering": null,
  "total_magnetization": 1e-7,
  "total_magnetization_normalized_vol": null,
  "total_magnetization_normalized_formula_units": null,
  "num_magnetic_sites": null,
  "num_unique_magnetic_sites": null,
  "types_of_magnetic_species": null,
  "bulk_modulus": null,
  "shear_modulus": null,
  "universal_anisotropy": null,
  "homogeneous_poisson": null,
  "e_total": null,
  "e_ionic": null,
  "e_electronic": null,
  "n": null,
  "e_ij_max": null,
  "weighted_surface_energy_EV_PER_ANG2": null,
  "weighted_surface_energy": null,
  "weighted_work_function": null,
  "surface_anisotropy": null,
  "shape_factor": null,
  "has_reconstructed": null,
  "possible_species": null,
  "has_props": null,
  "theoretical": null,
  "database_IDs": null,
  "fields_not_requested": [
    "builder_meta",
    "nsites",
    "elements",
    "nelements",
    "composition",
    "composition_reduced",
    "chemsys",
    "symmetry",
    "property_name",
    "deprecated",
    "deprecation_reasons",
    "last_updated",
    "origins",
    "warnings",
    "task_ids",
    "uncorrected_energy_per_atom",
    "equilibrium_reaction_energy_per_atom",
    "decomposes_to",
    "xas",
    "grain_boundaries",
    "cbm",
    "vbm",
    "is_gap_direct",
    "is_metal",
    "es_source_calc_id",
    "bandstructure",
    "dos",
    "dos_energy_up",
    "dos_energy_down",
    "is_magnetic",
    "ordering",
    "total_magnetization_normalized_vol",
    "total_magnetization_normalized_formula_units",
    "num_magnetic_sites",
    "num_unique_magnetic_sites",
    "types_of_magnetic_species",
    "bulk_modulus",
    "shear_modulus",
    "universal_anisotropy",
    "homogeneous_poisson",
    "e_total",
    "e_ionic",
    "e_electronic",
    "n",
    "e_ij_max",
    "weighted_surface_energy_EV_PER_ANG2",
    "weighted_surface_energy",
    "weighted_work_function",
    "surface_anisotropy",
    "shape_factor",
    "has_reconstructed",
    "possible_species",
    "has_props",
    "theoretical",
    "database_IDs"
  ]
}
