{
  "builder_meta": null,
  "nsites": null,
  "elements": null,
  "nelements": null,
  "composition": null,
  "composition_reduced": null,
  "formula_pretty": "Na3As7",
  "formula_anonymous": "A3B7",
  "chemsys": null,
  "volume": 2189.0797853155223,
  "density": 3.601140324989667,
  "density_atomic": 27.36349731644403,
  "symmetry": null,
  "property_name": null,
  "material_id": "mp-30233",
  "deprecated": null,
  "deprecation_reasons": null,
  "last_updated": null,
  "origins": null,
  "warnings": null,
  "structure": {
    "@module": "pymatgen.core.structure",
    "@class": "Structure",
    "charge": 0,
    "lattice": {
      "matrix": [
        [10.96294593, 0.0, 0.0],
        [0.0, 14.28311712, 0.00889172],
        [0.0, 6.80119423, 13.98436755]
      ],
      "pbc": [true, true, true],
      "a": 10.96294593,
      "b": 14.283119887696863,
      "c": 15.55052342294877,
      "alpha": 64.02870086759108,
      "beta": 90.0,
      "gamma": 90.0,
      "volume": 2189.0797853155223
    },
    "properties": {},
    "sites": [
      {
        "species": [{ "element": "Na", "occu": 1 }],
        "abc": [0.29425016, 0.43297313, 0.71309672],
        "properties": { "magmom": -0.0 },
        "label": "Na",
        "xyz": [3.225848593973849, 11.034115223098912, 9.976056507018919]
      },
      {
        "species": [{ "element": "Na", "occu": 1 }],
        "abc": [0.79425016, 0.06702687, 0.28690328],
        "properties": { "magmom": -0.0 },
        "label": "Na",
        "xyz": [8.707321558973849, 2.908637566901089, 4.01275690298108]
      },
      {
        "species": [{ "element": "Na", "occu": 1 }],
        "abc": [0.70574984, 0.56702687, 0.28690328],
        "properties": { "magmom": -0.0 },
        "label": "Na",
        "xyz": [7.737097336026151, 10.050196126901088, 4.017202762981079]
      },
      {
        "species": [{ "element": "Na", "occu": 1 }],
        "abc": [0.20574984000000002, 0.93297313, 0.71309672],
        "properties": { "magmom": -0.0 },
        "label": "Na",
        "xyz": [2.255624371026151, 18.17567378309891, 9.98050236701892]
      },
      {
        "species": [{ "element": "Na", "occu": 1 }],
        "abc": [0.80318552, 0.65123632, 0.7901367300000001],
        "properties": { "magmom": 0.0 },
        "label": "Na",
        "xyz": [8.805279427518933, 14.675558000344866, 11.055353058086384]
      },
      {
        "species": [{ "element": "Na", "occu": 1 }],
        "abc": [0.30318552, 0.84876368, 0.20986327],
        "properties": { "magmom": 0.0 },
        "label": "Na",
        "xyz": [3.3238064625189336, 13.550311909655134, 2.9423520719136182]
      },
      {
        "species": [{ "element": "Na", "occu": 1 }],
        "abc": [0.19681448, 0.34876368, 0.20986327],
        "properties": { "magmom": 0.0 },
        "label": "Na",
        "xyz": [2.1576665024810664, 6.408753349655134, 2.937906211913618]
      },
      {
        "species": [{ "element": "Na", "occu": 1 }],
        "abc": [0.69681448, 0.15123632, 0.7901367300000001],
        "properties": { "magmom": 0.0 },
        "label": "Na",
        "xyz": [7.639139467481066, 7.533999440344866, 11.050907198086383]
      },
      {
        "species": [{ "element": "Na", "occu": 1 }],
        "abc": [0.44200527, 0.63145143, 0.06921528],
        "properties": { "magmom": 0.0 },
        "label": "Na",
        "xyz": [4.845679875785051, 9.489841293245316, 0.9735466049053237]
      },
      {
        "species": [{ "element": "Na", "occu": 1 }],
        "abc": [0.94200527, 0.86854857, 0.93078472],
        "properties": { "magmom": 0.0 },
        "label": "Na",
        "xyz": [10.32715284078505, 18.736028616754684, 13.024158525094675]
      },
      {
        "species": [{ "element": "Na", "occu": 1 }],
        "abc": [0.55799473, 0.36854857, 0.93078472],
        "properties": { "magmom": 0.0 },
        "label": "Na",
        "xyz": [6.117266054214949, 11.594470056754684, 13.019712665094676]
      },
      {
        "species": [{ "element": "Na", "occu": 1 }],
        "abc": [0.05799473, 0.13145143, 0.06921528],
        "properties": { "magmom": 0.0 },
        "label": "Na",
        "xyz": [0.6357930892149489, 2.3482827332453162, 0.9691007449053237]
      },
      {
        "species": [{ "element": "Na", "occu": 1 }],
        "abc": [0.43463849, 0.30252143, 0.56310731],
        "properties": { "magmom": 0.0 },
        "label": "Na",
        "xyz": [4.764918264966846, 8.150751203642702, 7.87738952898135]
      },
      {
        "species": [{ "element": "Na", "occu": 1 }],
        "abc": [0.93463849, 0.19747857, 0.43689269000000003],
        "properties": { "magmom": 0.0 },
        "label": "Na",
        "xyz": [10.246391229966846, 5.792001586357298, 6.11142388101865]
      },
      {
        "species": [{ "element": "Na", "occu": 1 }],
        "abc": [0.56536151, 0.69747857, 0.43689269000000003],
        "properties": { "magmom": 0.0 },
        "label": "Na",
        "xyz": [6.1980276650331545, 12.933560146357298, 6.11586974101865]
      },
      {
        "species": [{ "element": "Na", "occu": 1 }],
        "abc": [0.06536151, 0.80252143, 0.56310731],
        "properties": { "magmom": 0.0 },
        "label": "Na",
        "xyz": [0.7165547000331542, 15.292309763642702, 7.88183538898135]
      },
      {
        "species": [{ "element": "Na", "occu": 1 }],
        "abc": [0.45766481000000003, 0.9799270600000001, 0.8973328500000001],
        "properties": { "magmom": -0.0 },
        "label": "Na",
        "xyz": [5.017354566093724, 20.099347968846722, 12.557345626126962]
      },
      {
        "species": [{ "element": "Na", "occu": 1 }],
        "abc": [0.95766481, 0.52007294, 0.10266715],
        "properties": { "magmom": -0.0 },
        "label": "Na",
        "xyz": [10.498827531093724, 8.126521941153278, 1.4403595038730392]
      },
      {
        "species": [{ "element": "Na", "occu": 1 }],
        "abc": [0.54233519, 0.02007294, 0.10266715],
        "properties": { "magmom": -0.0 },
        "label": "Na",
        "xyz": [5.945591363906276, 0.9849633811532774, 1.4359136438730393]
      },
      {
        "species": [{ "element": "Na", "occu": 1 }],
        "abc": [0.04233519, 0.47992706, 0.8973328500000001],
        "properties": { "magmom": -0.0 },
        "label": "Na",
        "xyz": [0.4641183989062767, 12.957789408846724, 12.552899766126961]
      },
      {
        "species": [{ "element": "Na", "occu": 1 }],
        "abc": [0.53627482, 0.87230979, 0.60254085],
        "properties": { "magmom": 0.0 },
        "label": "Na",
        "xyz": [5.879151855280483, 16.5573002478519, 8.433909044695357]
      },
      {
        "species": [{ "element": "Na", "occu": 1 }],
        "abc": [0.03627482, 0.62769021, 0.39745915],
        "properties": { "magmom": 0.0 },
        "label": "Na",
        "xyz": [0.3976788902804826, 11.668569662148101, 5.563796085304643]
      },
      {
        "species": [{ "element": "Na", "occu": 1 }],
        "abc": [0.46372518, 0.12769021, 0.39745915],
        "properties": { "magmom": 0.0 },
        "label": "Na",
        "xyz": [5.083794074719518, 4.5270111021481, 5.559350225304644]
      },
      {
        "species": [{ "element": "Na", "occu": 1 }],
        "abc": [0.9637251800000001, 0.37230979000000003, 0.60254085],
        "properties": { "magmom": 0.0 },
        "label": "Na",
        "xyz": [10.565267039719519, 9.415741687851902, 8.429463184695358]
      },
      {
        "species": [{ "element": "As", "occu": 1 }],
        "abc": [0.66040389, 0.68044689, 0.62083862],
        "properties": { "magmom": -0.0 },
        "label": "As",
        "xyz": [7.239972138031668, 13.94134666391492, 8.688085794535533]
      },
      {
        "species": [{ "element": "As", "occu": 1 }],
        "abc": [0.21887091, 0.45950192, 0.51607038],
        "properties": { "magmom": 0.0 },
        "label": "As",
        "xyz": [2.3994699519798965, 10.073014630954777, 7.221003638000272]
      },
      {
        "species": [{ "element": "As", "occu": 1 }],
        "abc": [0.28112909, 0.95950192, 0.51607038],
        "properties": { "magmom": 0.0 },
        "label": "As",
        "xyz": [3.082003013020104, 17.214573190954777, 7.225449498000272]
      },
      {
        "species": [{ "element": "As", "occu": 1 }],
        "abc": [0.78112909, 0.54049808, 0.48392962],
        "properties": { "magmom": 0.0 },
        "label": "As",
        "xyz": [8.563475978020103, 11.011296719045223, 6.772255631999729]
      },
      {
        "species": [{ "element": "As", "occu": 1 }],
        "abc": [0.34645506, 0.20800485, 0.94153001],
        "properties": { "magmom": -0.0 },
        "label": "As",
        "xyz": [3.7981680899549057, 9.374486105461875, 13.168551240080019]
      },
      {
        "species": [{ "element": "As", "occu": 1 }],
        "abc": [0.84645506, 0.29199515, 0.05846999],
        "properties": { "magmom": -0.0 },
        "label": "As",
        "xyz": [9.279641054954906, 4.568266684538125, 0.8202621699199825]
      },
      {
        "species": [{ "element": "As", "occu": 1 }],
        "abc": [0.65354494, 0.79199515, 0.05846999],
        "properties": { "magmom": -0.0 },
        "label": "As",
        "xyz": [7.164777840045094, 11.709825244538125, 0.8247080299199825]
      },
      {
        "species": [{ "element": "As", "occu": 1 }],
        "abc": [0.15354494, 0.70800485, 0.94153001],
        "properties": { "magmom": -0.0 },
        "label": "As",
        "xyz": [1.683304875045094, 16.516044665461877, 13.172997100080018]
      },
      {
        "species": [{ "element": "As", "occu": 1 }],
        "abc": [0.072226699999999, 0.20588634, 0.80597397],
        "properties": { "magmom": 0.0 },
        "label": "As",
        "xyz": [0.7918174068023202, 8.422284221922334, 11.27286691589978]
      },
      {
        "species": [{ "element": "As", "occu": 1 }],
        "abc": [0.5722267, 0.29411366, 0.19402603000000002],
        "properties": { "magmom": 0.0 },
        "label": "As",
        "xyz": [6.2732903718023305, 5.520468568077666, 2.715946494100222]
      },
      {
        "species": [{ "element": "As", "occu": 1 }],
        "abc": [0.927773299999999, 0.79411366, 0.19402603000000002],
        "properties": { "magmom": 0.0 },
        "label": "As",
        "xyz": [10.171128523197659, 12.662027128077666, 2.720392354100222]
      },
      {
        "species": [{ "element": "As", "occu": 1 }],
        "abc": [0.427773299999999, 0.7058863400000001, 0.80597397],
        "properties": { "magmom": 0.0 },
        "label": "As",
        "xyz": [4.689655558197658, 15.563842781922336, 11.277312775899778]
      },
      {
        "species": [{ "element": "As", "occu": 1 }],
        "abc": [0.25387706, 0.1498367, 0.7411829400000001],
        "properties": { "magmom": -0.0 },
        "label": "As",
        "xyz": [2.7832404816473657, 7.181064269876741, 10.366306960731723]
      },
      {
        "species": [{ "element": "As", "occu": 1 }],
        "abc": [0.75387706, 0.3501633, 0.25881706],
        "properties": { "magmom": -0.0 },
        "label": "As",
        "xyz": [8.264713446647365, 6.76168852012326, 3.6225064492682786]
      },
      {
        "species": [{ "element": "As", "occu": 1 }],
        "abc": [0.74612294, 0.8501633, 0.25881706],
        "properties": { "magmom": -0.0 },
        "label": "As",
        "xyz": [8.179705448352635, 13.90324708012326, 3.6269523092682787]
      },
      {
        "species": [{ "element": "As", "occu": 1 }],
        "abc": [0.24612294, 0.649836699999999, 0.7411829400000001],
        "properties": { "magmom": -0.0 },
        "label": "As",
        "xyz": [2.6982324833526343, 14.322622829876728, 10.370752820731722]
      },
      {
        "species": [{ "element": "As", "occu": 1 }],
        "abc": [0.71887091, 0.04049808, 0.48392962],
        "properties": { "magmom": 0.0 },
        "label": "As",
        "xyz": [7.880942916979897, 3.8697381590452222, 6.767809771999729]
      },
      {
        "species": [{ "element": "As", "occu": 1 }],
        "abc": [0.6534246300000001, 0.47527138, 0.10634461],
        "properties": { "magmom": -0.0 },
        "label": "As",
        "xyz": [7.163458888020257, 7.511627132247626, 1.4913880932363792]
      },
      {
        "species": [{ "element": "As", "occu": 1 }],
        "abc": [0.84657537, 0.97527138, 0.10634461],
        "properties": { "magmom": -0.0 },
        "label": "As",
        "xyz": [9.280960006979745, 14.653185692247627, 1.4958339532363794]
      },
      {
        "species": [{ "element": "As", "occu": 1 }],
        "abc": [0.34657537, 0.52472862, 0.89365539],
        "properties": { "magmom": -0.0 },
        "label": "As",
        "xyz": [3.799487041979744, 13.572684217752375, 12.501871176763622]
      },
      {
        "species": [{ "element": "As", "occu": 1 }],
        "abc": [0.15654413, 0.29835278, 0.88640165],
        "properties": { "magmom": -0.0 },
        "label": "As",
        "xyz": [1.716184832848891, 10.289997487260074, 12.39841933990744]
      },
      {
        "species": [{ "element": "As", "occu": 1 }],
        "abc": [0.65654413, 0.20164722000000002, 0.11359835],
        "properties": { "magmom": -0.0 },
        "label": "As",
        "xyz": [7.197657797848891, 3.6527553027399273, 1.590394070092561]
      },
      {
        "species": [{ "element": "As", "occu": 1 }],
        "abc": [0.84345587, 0.70164722, 0.11359835],
        "properties": { "magmom": -0.0 },
        "label": "As",
        "xyz": [9.24676109715111, 10.794313862739928, 1.5948399300925609]
      },
      {
        "species": [{ "element": "As", "occu": 1 }],
        "abc": [0.34345587, 0.79835278, 0.88640165],
        "properties": { "magmom": -0.0 },
        "label": "As",
        "xyz": [3.765288132151109, 17.431556047260074, 12.40286519990744]
      },
      {
        "species": [{ "element": "As", "occu": 1 }],
        "abc": [0.42517279, 0.21442472, 0.79282744],
        "properties": { "magmom": 0.0 },
        "label": "As",
        "xyz": [4.661146307677245, 8.454826799496878, 11.089096929256891]
      },
      {
        "species": [{ "element": "As", "occu": 1 }],
        "abc": [0.92517279, 0.28557528, 0.20717256],
        "properties": { "magmom": 0.0 },
        "label": "As",
        "xyz": [10.142619272677244, 5.487925990503122, 2.8997164807431095]
      },
      {
        "species": [{ "element": "As", "occu": 1 }],
        "abc": [0.57482721, 0.78557528, 0.20717256],
        "properties": { "magmom": 0.0 },
        "label": "As",
        "xyz": [6.301799622322756, 12.629484550503124, 2.9041623407431096]
      },
      {
        "species": [{ "element": "As", "occu": 1 }],
        "abc": [0.07482721, 0.71442472, 0.79282744],
        "properties": { "magmom": 0.0 },
        "label": "As",
        "xyz": [0.8203266573227553, 15.596385359496878, 11.09354278925689]
      },
      {
        "species": [{ "element": "As", "occu": 1 }],
        "abc": [0.27330944, 0.02929016, 0.018897399999999002],
        "properties": { "magmom": 0.0 },
        "label": "As",
        "xyz": [2.9962766128785794, 0.5468796735855344, 0.2645286272408312]
      },
      {
        "species": [{ "element": "As", "occu": 1 }],
        "abc": [0.77330944, 0.47070984, 0.981102599999999],
        "properties": { "magmom": 0.0 },
        "label": "As",
        "xyz": [8.47774957787858, 13.395873116414453, 13.724284782759142]
      },
      {
        "species": [{ "element": "As", "occu": 1 }],
        "abc": [0.72669056, 0.97070984, 0.981102599999999],
        "properties": { "magmom": 0.0 },
        "label": "As",
        "xyz": [7.966669317121421, 20.537431676414453, 13.728730642759142]
      },
      {
        "species": [{ "element": "As", "occu": 1 }],
        "abc": [0.22669056, 0.5292901600000001, 0.018897399999999002],
        "properties": { "magmom": 0.0 },
        "label": "As",
        "xyz": [2.485196352121421, 7.6884382335855355, 0.26897448724083123]
      },
      {
        "species": [{ "element": "As", "occu": 1 }],
        "abc": [0.91450504, 0.48771391000000003, 0.71953418],
        "properties": { "magmom": -0.0 },
        "label": "As",
        "xyz": [10.025669306232487, 11.859766610886922, 10.066567053435683]
      },
      {
        "species": [{ "element": "As", "occu": 1 }],
        "abc": [0.41450504, 0.01228609, 0.28046582000000003],
        "properties": { "magmom": -0.0 },
        "label": "As",
        "xyz": [4.544196341232487, 2.08298617911308, 3.922246356564316]
      },
      {
        "species": [{ "element": "As", "occu": 1 }],
        "abc": [0.08549496000000001, 0.51228609, 0.28046582000000003],
        "properties": { "magmom": -0.0 },
        "label": "As",
        "xyz": [0.9372766237675129, 9.22454473911308, 3.9266922165643163]
      },
      {
        "species": [{ "element": "As", "occu": 1 }],
        "abc": [0.58549496, 0.98771391, 0.71953418],
        "properties": { "magmom": -0.0 },
        "label": "As",
        "xyz": [6.418749588767513, 19.001325170886922, 10.071012913435684]
      },
      {
        "species": [{ "element": "As", "occu": 1 }],
        "abc": [0.15342463, 0.02472862, 0.89365539],
        "properties": { "magmom": -0.0 },
        "label": "As",
        "xyz": [1.681985923020256, 6.431125657752375, 12.497425316763621]
      },
      {
        "species": [{ "element": "As", "occu": 1 }],
        "abc": [0.16040389, 0.81955311, 0.37916138],
        "properties": { "magmom": -0.0 },
        "label": "As",
        "xyz": [1.7584991730316677, 14.28452324608508, 5.309619335464468]
      },
      {
        "species": [{ "element": "As", "occu": 1 }],
        "abc": [0.33959611, 0.31955311000000003, 0.37916138],
        "properties": { "magmom": -0.0 },
        "label": "As",
        "xyz": [3.7229737919683323, 7.142964686085081, 5.305173475464468]
      },
      {
        "species": [{ "element": "As", "occu": 1 }],
        "abc": [0.83959611, 0.18044689, 0.62083862],
        "properties": { "magmom": -0.0 },
        "label": "As",
        "xyz": [9.204446756968332, 6.79978810391492, 8.683639934535533]
      },
      {
        "species": [{ "element": "As", "occu": 1 }],
        "abc": [0.6449855600000001, 0.42184272, 0.59755955],
        "properties": { "magmom": -0.0 },
        "label": "As",
        "xyz": [7.070941819910772, 10.089347539520762, 8.360243287562882]
      },
      {
        "species": [{ "element": "As", "occu": 1 }],
        "abc": [0.14498556, 0.07815728, 0.40244045],
        "properties": { "magmom": -0.0 },
        "label": "As",
        "xyz": [1.589468854910771, 3.8534052504792373, 5.62857012243712]
      },
      {
        "species": [{ "element": "As", "occu": 1 }],
        "abc": [0.35501444, 0.57815728, 0.40244045],
        "properties": { "magmom": -0.0 },
        "label": "As",
        "xyz": [3.892004110089229, 10.994963810479238, 5.6330159824371195]
      },
      {
        "species": [{ "element": "As", "occu": 1 }],
        "abc": [0.85501444, 0.92184272, 0.59755955],
        "properties": { "magmom": -0.0 },
        "label": "As",
        "xyz": [9.37347707508923, 17.230906099520766, 8.364689147562883]
      },
      {
        "species": [{ "element": "As", "occu": 1 }],
        "abc": [0.73416993, 0.3861328, 0.75728384],
        "properties": { "magmom": 0.0 },
        "label": "As",
        "xyz": [8.048665246021885, 10.66561448935378, 10.593568942975809]
      },
      {
        "species": [{ "element": "As", "occu": 1 }],
        "abc": [0.23416993, 0.1138672, 0.24271616000000001],
        "properties": { "magmom": 0.0 },
        "label": "As",
        "xyz": [2.567192281021885, 3.277138300646221, 3.395244467024192]
      },
      {
        "species": [{ "element": "As", "occu": 1 }],
        "abc": [0.26583007000000003, 0.6138672, 0.24271616000000001],
        "properties": { "magmom": 0.0 },
        "label": "As",
        "xyz": [2.9142806839781152, 10.41869686064622, 3.3996903270241923]
      },
      {
        "species": [{ "element": "As", "occu": 1 }],
        "abc": [0.76583007, 0.886132799999999, 0.75728384],
        "properties": { "magmom": 0.0 },
        "label": "As",
        "xyz": [8.395753648978115, 17.807173049353768, 10.598014802975808]
      },
      {
        "species": [{ "element": "As", "occu": 1 }],
        "abc": [0.56291417, 0.51607623, 0.68805595],
        "properties": { "magmom": 0.0 },
        "label": "As",
        "xyz": [6.171197608940828, 12.050779392995226, 9.626616105100238]
      },
      {
        "species": [{ "element": "As", "occu": 1 }],
        "abc": [0.06291417, 0.98392377, 0.31194405000000003],
        "properties": { "magmom": 0.0 },
        "label": "As",
        "xyz": [0.6897246439408281, 16.175090517004776, 4.371089024899762]
      },
      {
        "species": [{ "element": "As", "occu": 1 }],
        "abc": [0.43708583, 0.48392377000000003, 0.31194405000000003],
        "properties": { "magmom": 0.0 },
        "label": "As",
        "xyz": [4.791748321059172, 9.033531957004776, 4.366643164899762]
      },
      {
        "species": [{ "element": "As", "occu": 1 }],
        "abc": [0.93708583, 0.01607623, 0.68805595],
        "properties": { "magmom": 0.0 },
        "label": "As",
        "xyz": [10.273221286059172, 4.909220832995226, 9.622170245100238]
      },
      {
        "species": [{ "element": "As", "occu": 1 }],
        "abc": [0.85195462, 0.63435787, 0.57300205],
        "properties": { "magmom": 0.0 },
        "label": "As",
        "xyz": [9.339932433873697, 12.957705989441907, 8.018711806663314]
      },
      {
        "species": [{ "element": "As", "occu": 1 }],
        "abc": [0.35195462, 0.86564213, 0.42699795],
        "properties": { "magmom": 0.0 },
        "label": "As",
        "xyz": [3.8584594688736966, 15.268163920558093, 5.978993323336686]
      },
      {
        "species": [{ "element": "As", "occu": 1 }],
        "abc": [0.14804538, 0.36564213, 0.42699795],
        "properties": { "magmom": 0.0 },
        "label": "As",
        "xyz": [1.6230134961263034, 8.126605360558095, 5.974547463336687]
      },
      {
        "species": [{ "element": "As", "occu": 1 }],
        "abc": [0.64804538, 0.13435787, 0.57300205],
        "properties": { "magmom": 0.0 },
        "label": "As",
        "xyz": [7.104486461126304, 5.816147429441906, 8.014265946663315]
      }
    ]
  },
  "task_ids": null,
  "uncorrected_energy_per_atom": null,
  "energy_per_atom": -11.721791855374999,
  "formation_energy_per_atom": -0.357265993125,
  "energy_above_hull": 0.0,
  "is_stable": true,
  "equilibrium_reaction_energy_per_atom": null,
  "decomposes_to": null,
  "xas": null,
  "grain_boundaries": null,
  "band_gap": 1.5304,
  "cbm": null,
  "vbm": null,
  "efermi": 1.64493586,
  "is_gap_direct": null,
  "is_metal": null,
  "es_source_calc_id": null,
  "bandstructure": null,
  "dos": null,
  "dos_energy_up": null,
  "dos_energy_down": null,
  "is_magnetic": null,
  "ordering": null,
  "total_magnetization": 0.0,
  "total_magnetization_normalized_vol": null,
  "total_magnetization_normalized_formula_units": null,
  "num_magnetic_sites": null,
  "num_unique_magnetic_sites": null,
  "types_of_magnetic_species": null,
  "bulk_modulus": null,
  "shear_modulus": null,
  "universal_anisotropy": null,
  "homogeneous_poisson": null,
  "e_total": null,
  "e_ionic": null,
  "e_electronic": null,
  "n": null,
  "e_ij_max": null,
  "weighted_surface_energy_EV_PER_ANG2": null,
  "weighted_surface_energy": null,
  "weighted_work_function": null,
  "surface_anisotropy": null,
  "shape_factor": null,
  "has_reconstructed": null,
  "possible_species": null,
  "has_props": null,
  "theoretical": null,
  "database_IDs": null,
  "fields_not_requested": [
    "builder_meta",
    "nsites",
    "elements",
    "nelements",
    "composition",
    "composition_reduced",
    "chemsys",
    "symmetry",
    "property_name",
    "deprecated",
    "deprecation_reasons",
    "last_updated",
    "origins",
    "warnings",
    "task_ids",
    "uncorrected_energy_per_atom",
    "equilibrium_reaction_energy_per_atom",
    "decomposes_to",
    "xas",
    "grain_boundaries",
    "cbm",
    "vbm",
    "is_gap_direct",
    "is_metal",
    "es_source_calc_id",
    "bandstructure",
    "dos",
    "dos_energy_up",
    "dos_energy_down",
    "is_magnetic",
    "ordering",
    "total_magnetization_normalized_vol",
    "total_magnetization_normalized_formula_units",
    "num_magnetic_sites",
    "num_unique_magnetic_sites",
    "types_of_magnetic_species",
    "bulk_modulus",
    "shear_modulus",
    "universal_anisotropy",
    "homogeneous_poisson",
    "e_total",
    "e_ionic",
    "e_electronic",
    "n",
    "e_ij_max",
    "weighted_surface_energy_EV_PER_ANG2",
    "weighted_surface_energy",
    "weighted_work_function",
    "surface_anisotropy",
    "shape_factor",
    "has_reconstructed",
    "possible_species",
    "has_props",
    "theoretical",
    "database_IDs"
  ]
}
