{"builder_meta": null, "nsites": null, "elements": null, "nelements": null, "composition": null, "composition_reduced": null, "formula_pretty": "Na3Au", "formula_anonymous": "AB3", "chemsys": null, "volume": 94.51243607045845, "density": 4.672368325943247, "density_atomic": 23.628109017614612, "symmetry": null, "property_name": null, "material_id": "mp-1186018", "deprecated": null, "deprecation_reasons": null, "last_updated": null, "origins": null, "warnings": null, "structure": {"@module": "pymatgen.core.structure", "@class": "Structure", "charge": 0, "lattice": {"matrix": [[-2.524958, 2.524958, 3.70613], [2.524958, -2.524958, 3.70613], [2.524958, 2.524958, -3.70613]], "pbc": [true, true, true], "a": 5.146476987263034, "b": 5.146476987263034, "c": 5.146476987263034, "alpha": 121.2374860543218, "beta": 121.2374860543218, "gamma": 87.86965031411552, "volume": 94.51243607045845}, "properties": {}, "sites": [{"species": [{"element": "Na", "occu": 1}], "abc": [0.75, 0.25, 0.499998999999999], "properties": {"magmom": -0.0}, "label": "Na", "xyz": [-2.524958002458888e-06, 2.524955475041997, 1.8530687061300035]}, {"species": [{"element": "Na", "occu": 1}], "abc": [0.25, 0.75, 0.499998999999999], "properties": {"magmom": -0.0}, "label": "Na", "xyz": [2.524955475041997, -2.524958002458888e-06, 1.8530687061300035]}, {"species": [{"element": "Na", "occu": 1}], "abc": [0.500001, 0.500001, 0.0], "properties": {"magmom": -0.0}, "label": "Na", "xyz": [0.0, 0.0, 3.70613741226]}, {"species": [{"element": "Au", "occu": 1}], "abc": [0.0, 0.0, 0.0], "properties": {"magmom": 0.0}, "label": "Au", "xyz": [0.0, 0.0, 0.0]}]}, "task_ids": null, "uncorrected_energy_per_atom": null, "energy_per_atom": -15.4991985675, "formation_energy_per_atom": -0.17982310250000003, "energy_above_hull": 0.043165679999997, "is_stable": false, "equilibrium_reaction_energy_per_atom": null, "decomposes_to": null, "xas": null, "grain_boundaries": null, "band_gap": 0.0, "cbm": null, "vbm": null, "efermi": 1.66704755, "is_gap_direct": null, "is_metal": null, "es_source_calc_id": null, "bandstructure": null, "dos": null, "dos_energy_up": null, "dos_energy_down": null, "is_magnetic": null, "ordering": null, "total_magnetization": 0.0, "total_magnetization_normalized_vol": null, "total_magnetization_normalized_formula_units": null, "num_magnetic_sites": null, "num_unique_magnetic_sites": null, "types_of_magnetic_species": null, "bulk_modulus": null, "shear_modulus": null, "universal_anisotropy": null, "homogeneous_poisson": null, "e_total": null, "e_ionic": null, "e_electronic": null, "n": null, "e_ij_max": null, "weighted_surface_energy_EV_PER_ANG2": null, "weighted_surface_energy": null, "weighted_work_function": null, "surface_anisotropy": null, "shape_factor": null, "has_reconstructed": null, "possible_species": null, "has_props": null, "theoretical": null, "database_IDs": null, "fields_not_requested": ["builder_meta", "nsites", "elements", "nelements", "composition", "composition_reduced", "chemsys", "symmetry", "property_name", "deprecated", "deprecation_reasons", "last_updated", "origins", "warnings", "task_ids", "uncorrected_energy_per_atom", "equilibrium_reaction_energy_per_atom", "decomposes_to", "xas", "grain_boundaries", "cbm", "vbm", "is_gap_direct", "is_metal", "es_source_calc_id", "bandstructure", "dos", "dos_energy_up", "dos_energy_down", "is_magnetic", "ordering", "total_magnetization_normalized_vol", "total_magnetization_normalized_formula_units", "num_magnetic_sites", "num_unique_magnetic_sites", "types_of_magnetic_species", "bulk_modulus", "shear_modulus", "universal_anisotropy", "homogeneous_poisson", "e_total", "e_ionic", "e_electronic", "n", "e_ij_max", "weighted_surface_energy_EV_PER_ANG2", "weighted_surface_energy", "weighted_work_function", "surface_anisotropy", "shape_factor", "has_reconstructed", "possible_species", "has_props", "theoretical", "database_IDs"]}