{"builder_meta": null, "nsites": null, "elements": null, "nelements": null, "composition": null, "composition_reduced": null, "formula_pretty": "Na3As", "formula_anonymous": "AB3", "chemsys": null, "volume": 588.9212956640015, "density": 2.434313130356024, "density_atomic": 24.538387319333395, "symmetry": null, "property_name": null, "material_id": "mp-655", "deprecated": null, "deprecation_reasons": null, "last_updated": null, "origins": null, "warnings": null, "structure": {"@module": "pymatgen.core.structure", "@class": "Structure", "charge": 0, "lattice": {"matrix": [[8.72295757, -0.00049338, 1e-06], [-4.36190556, 7.55405627, 0.0], [1e-06, 1e-06, 8.93773487]], "pbc": [true, true, true], "a": 8.722957583953113, "b": 8.722957425362411, "c": 8.937734870000112, "alpha": 89.99999765407134, "beta": 89.99998702142538, "gamma": 120.00647819774807, "volume": 588.9212956640015}, "properties": {}, "sites": [{"species": [{"element": "Na", "occu": 1}], "abc": [0.99999961, 0.99999961, 0.79231564], "properties": {"magmom": -0.0}, "label": "Na", "xyz": [4.361051101505357, 7.553560736426114, 7.081508123673977]}, {"species": [{"element": "Na", "occu": 1}], "abc": [3.899999999999998e-07, 3.899999999999998e-07, 0.29231564], "properties": {"magmom": -0.0}, "label": "Na", "xyz": [1.993125923899999e-06, 3.238205167099999e-06, 2.6126396886747565]}, {"species": [{"element": "Na", "occu": 1}], "abc": [0.66668259, 0.33335447, 0.22840472], "properties": {"magmom": 0.0}, "label": "Na", "xyz": [4.361383457488572, 2.517849724784493, 2.0414214970991766]}, {"species": [{"element": "Na", "occu": 1}], "abc": [0.33331741, 0.66664553, 0.72840572], "properties": {"magmom": 0.0}, "label": "Na", "xyz": [-0.0003304906781333624, 5.035714122025948, 6.510297536468867]}, {"species": [{"element": "Na", "occu": 1}], "abc": [0.66664553, 0.33331741, 0.72840572], "properties": {"magmom": 0.0}, "label": "Na", "xyz": [4.361222336902083, 2.517570289744789, 6.510297869796987]}, {"species": [{"element": "Na", "occu": 1}], "abc": [0.33335447, 0.66668259, 0.22840472], "properties": {"magmom": 0.0}, "label": "Na", "xyz": [-0.00016937009164233314, 5.03599355706565, 2.0414211637710564]}, {"species": [{"element": "Na", "occu": 1}], "abc": [0.30095095, 0.99998106, 0.58184627], "properties": {"magmom": 0.0}, "label": "Na", "xyz": [-1.7366399961612322, 7.553765294840805, 5.200387997309385]}, {"species": [{"element": "Na", "occu": 1}], "abc": [0.30093404, 0.30093404, 0.08184951], "properties": {"magmom": -0.0}, "label": "Na", "xyz": [1.3123890818689306, 2.2731242787312858, 0.7315495205534537]}, {"species": [{"element": "Na", "occu": 1}], "abc": [1.894e-05, 0.69905005, 0.08184627], "properties": {"magmom": 0.0}, "label": "Na", "xyz": [-3.0490250051506322, 5.280663485747966, 0.7315202613773748]}, {"species": [{"element": "Na", "occu": 1}], "abc": [0.99998106, 0.30095095, 0.58184627], "properties": {"magmom": 0.0}, "label": "Na", "xyz": [7.410073316937613, 2.2729076220008433, 5.200388696339495]}, {"species": [{"element": "Na", "occu": 1}], "abc": [0.69906596, 0.69906596, 0.58184951], "properties": {"magmom": -0.0}, "label": "Na", "xyz": [3.0486635918300897, 5.280439274967735, 5.200417353685373]}, {"species": [{"element": "Na", "occu": 1}], "abc": [0.69905005, 1.894e-05, 0.08184627], "properties": {"magmom": 0.0}, "label": "Na", "xyz": [6.097701392811342, -0.00020174164164519994, 0.7315209604084848]}, {"species": [{"element": "Na", "occu": 1}], "abc": [0.36125594, 0.999995499999999, 0.9192697], "properties": {"magmom": 0.0}, "label": "Na", "xyz": [-1.2106647756248106, 7.553844959560801, 8.21618921388038]}, {"species": [{"element": "Na", "occu": 1}], "abc": [0.36123379, 0.36123379, 0.41927173], "properties": {"magmom": 0.0}, "label": "Na", "xyz": [1.5753597652311477, 2.728602570029783, 3.7473399224600152]}, {"species": [{"element": "Na", "occu": 1}], "abc": [4.5e-06, 0.6387440600000001, 0.4192707], "properties": {"magmom": 0.0}, "label": "Na", "xyz": [-2.786101594151209, 4.825108988418747, 3.747330355363809]}, {"species": [{"element": "Na", "occu": 1}], "abc": [0.999995499999999, 0.36125594, 0.9192697], "properties": {"magmom": 0.0}, "label": "Na", "xyz": [7.147154942691602, 2.7284552401216535, 8.216189852619939]}, {"species": [{"element": "Na", "occu": 1}], "abc": [0.63876621, 0.63876621, 0.9192717300000001], "properties": {"magmom": 0.0}, "label": "Na", "xyz": [2.7856935833123115, 4.824961658513677, 8.216207634992434]}, {"species": [{"element": "Na", "occu": 1}], "abc": [0.6387440600000001, 4.5e-06, 0.419269699999999], "properties": {"magmom": 0.0}, "label": "Na", "xyz": [5.571718124164215, -0.00028073102140779995, 3.74732205636849]}, {"species": [{"element": "As", "occu": 1}], "abc": [0.66926137, 6.65e-06, 0.75077512], "properties": {"magmom": -0.0}, "label": "As", "xyz": [5.837910277853218, -0.0002792149254150999, 6.7102296388138045]}, {"species": [{"element": "As", "occu": 1}], "abc": [0.66926852, 0.66926852, 0.25077049], "properties": {"magmom": 0.0}, "label": "As", "xyz": [2.9187150751462156, 5.055362106887713, 2.2413208221085066]}, {"species": [{"element": "As", "occu": 1}], "abc": [0.99999335, 0.33073863000000003, 0.25077512], "properties": {"magmom": -0.0}, "label": "As", "xyz": [7.280249144003497, 2.497925095738807, 2.2413625345457846]}, {"species": [{"element": "As", "occu": 1}], "abc": [6.65e-06, 0.66926137, 0.75077512], "properties": {"magmom": -0.0}, "label": "As", "xyz": [-2.9191961324532567, 5.055638795811433, 6.710228969559084]}, {"species": [{"element": "As", "occu": 1}], "abc": [0.33073148, 0.33073148, 0.7507704900000001], "properties": {"magmom": 0.0}, "label": "As", "xyz": [1.442337936394765, 2.4982017846532676, 6.710187918571467]}, {"species": [{"element": "As", "occu": 1}], "abc": [0.33073863000000003, 0.99999335, 0.25077512], "properties": {"magmom": -0.0}, "label": "As", "xyz": [-1.476857266302977, 7.5538431064756555, 2.2413618652910645]}]}, "task_ids": null, "uncorrected_energy_per_atom": null, "energy_per_atom": -6.902991813333333, "formation_energy_per_atom": -0.5529736389583331, "energy_above_hull": 0.0, "is_stable": true, "equilibrium_reaction_energy_per_atom": null, "decomposes_to": null, "xas": null, "grain_boundaries": null, "band_gap": 0.064, "cbm": null, "vbm": null, "efermi": 1.05820111, "is_gap_direct": null, "is_metal": null, "es_source_calc_id": null, "bandstructure": null, "dos": null, "dos_energy_up": null, "dos_energy_down": null, "is_magnetic": null, "ordering": null, "total_magnetization": 0.0, "total_magnetization_normalized_vol": null, "total_magnetization_normalized_formula_units": null, "num_magnetic_sites": null, "num_unique_magnetic_sites": null, "types_of_magnetic_species": null, "bulk_modulus": null, "shear_modulus": null, "universal_anisotropy": null, "homogeneous_poisson": null, "e_total": null, "e_ionic": null, "e_electronic": null, "n": null, "e_ij_max": null, "weighted_surface_energy_EV_PER_ANG2": null, "weighted_surface_energy": null, "weighted_work_function": null, "surface_anisotropy": null, "shape_factor": null, "has_reconstructed": null, "possible_species": null, "has_props": null, "theoretical": null, "database_IDs": null, "fields_not_requested": ["builder_meta", "nsites", "elements", "nelements", "composition", "composition_reduced", "chemsys", "symmetry", "property_name", "deprecated", "deprecation_reasons", "last_updated", "origins", "warnings", "task_ids", "uncorrected_energy_per_atom", "equilibrium_reaction_energy_per_atom", "decomposes_to", "xas", "grain_boundaries", "cbm", "vbm", "is_gap_direct", "is_metal", "es_source_calc_id", "bandstructure", "dos", "dos_energy_up", "dos_energy_down", "is_magnetic", "ordering", "total_magnetization_normalized_vol", "total_magnetization_normalized_formula_units", "num_magnetic_sites", "num_unique_magnetic_sites", "types_of_magnetic_species", "bulk_modulus", "shear_modulus", "universal_anisotropy", "homogeneous_poisson", "e_total", "e_ionic", "e_electronic", "n", "e_ij_max", "weighted_surface_energy_EV_PER_ANG2", "weighted_surface_energy", "weighted_work_function", "surface_anisotropy", "shape_factor", "has_reconstructed", "possible_species", "has_props", "theoretical", "database_IDs"]}