{"builder_meta": null, "nsites": null, "elements": null, "nelements": null, "composition": null, "composition_reduced": null, "formula_pretty": "Na3Bi", "formula_anonymous": "AB3", "chemsys": null, "volume": 245.59197374072602, "density": 3.7586435858497182, "density_atomic": 30.698996717590752, "symmetry": null, "property_name": null, "material_id": "mp-27838", "deprecated": null, "deprecation_reasons": null, "last_updated": null, "origins": null, "warnings": null, "structure": {"@module": "pymatgen.core.structure", "@class": "Structure", "charge": 0, "lattice": {"matrix": [[5.42003886, 0.0, 0.0], [-2.710020929999999, 4.69389185, 0.0], [0.0, -0.0, 9.65336417]], "pbc": [true, true, true], "a": 5.42003886, "b": 5.420040049716836, "c": 9.65336417, "alpha": 90.0, "beta": 90.0, "gamma": 120.00001104856935, "volume": 245.59197374072602}, "properties": {}, "sites": [{"species": [{"element": "Na", "occu": 1}], "abc": [0.333333, 0.666667, 0.91729282], "properties": {"magmom": -0.0}, "label": "Na", "xyz": [-3.7100199292705582e-06, 3.1292627979639502, 8.85496164198626]}, {"species": [{"element": "Na", "occu": 1}], "abc": [0.666667, 0.333333, 0.41729282], "properties": {"magmom": -0.0}, "label": "Na", "xyz": [2.7100216400199306, 1.56462905203605, 4.028279556986259]}, {"species": [{"element": "Na", "occu": 1}], "abc": [-0.0, 0.0, 0.25], "properties": {"magmom": -0.0}, "label": "Na", "xyz": [0.0, 0.0, 2.4133410425]}, {"species": [{"element": "Na", "occu": 1}], "abc": [0.0, 0.0, 0.75], "properties": {"magmom": -0.0}, "label": "Na", "xyz": [0.0, 0.0, 7.2400231275]}, {"species": [{"element": "Na", "occu": 1}], "abc": [0.333333, 0.666667, 0.58270718], "properties": {"magmom": -0.0}, "label": "Na", "xyz": [-3.7100199292705582e-06, 3.1292627979639502, 5.62508461301374]}, {"species": [{"element": "Na", "occu": 1}], "abc": [0.666667, 0.333333, 0.08270718], "properties": {"magmom": -0.0}, "label": "Na", "xyz": [2.7100216400199306, 1.56462905203605, 0.7984025280137407]}, {"species": [{"element": "Bi", "occu": 1}], "abc": [0.666667, 0.333333, 0.75], "properties": {"magmom": 0.0}, "label": "Bi", "xyz": [2.7100216400199306, 1.56462905203605, 7.2400231275]}, {"species": [{"element": "Bi", "occu": 1}], "abc": [0.333333, 0.666667, 0.25], "properties": {"magmom": 0.0}, "label": "Bi", "xyz": [-3.7100199292705582e-06, 3.1292627979639502, 2.4133410425]}]}, "task_ids": null, "uncorrected_energy_per_atom": null, "energy_per_atom": -17.796861165, "formation_energy_per_atom": -0.498157301249999, "energy_above_hull": 0.0, "is_stable": true, "equilibrium_reaction_energy_per_atom": null, "decomposes_to": null, "xas": null, "grain_boundaries": null, "band_gap": 0.0, "cbm": null, "vbm": null, "efermi": 1.36403368, "is_gap_direct": null, "is_metal": null, "es_source_calc_id": null, "bandstructure": null, "dos": null, "dos_energy_up": null, "dos_energy_down": null, "is_magnetic": null, "ordering": null, "total_magnetization": 0.0, "total_magnetization_normalized_vol": null, "total_magnetization_normalized_formula_units": null, "num_magnetic_sites": null, "num_unique_magnetic_sites": null, "types_of_magnetic_species": null, "bulk_modulus": null, "shear_modulus": null, "universal_anisotropy": null, "homogeneous_poisson": null, "e_total": null, "e_ionic": null, "e_electronic": null, "n": null, "e_ij_max": null, "weighted_surface_energy_EV_PER_ANG2": null, "weighted_surface_energy": null, "weighted_work_function": null, "surface_anisotropy": null, "shape_factor": null, "has_reconstructed": null, "possible_species": null, "has_props": null, "theoretical": null, "database_IDs": null, "fields_not_requested": ["builder_meta", "nsites", "elements", "nelements", "composition", "composition_reduced", "chemsys", "symmetry", "property_name", "deprecated", "deprecation_reasons", "last_updated", "origins", "warnings", "task_ids", "uncorrected_energy_per_atom", "equilibrium_reaction_energy_per_atom", "decomposes_to", "xas", "grain_boundaries", "cbm", "vbm", "is_gap_direct", "is_metal", "es_source_calc_id", "bandstructure", "dos", "dos_energy_up", "dos_energy_down", "is_magnetic", "ordering", "total_magnetization_normalized_vol", "total_magnetization_normalized_formula_units", "num_magnetic_sites", "num_unique_magnetic_sites", "types_of_magnetic_species", "bulk_modulus", "shear_modulus", "universal_anisotropy", "homogeneous_poisson", "e_total", "e_ionic", "e_electronic", "n", "e_ij_max", "weighted_surface_energy_EV_PER_ANG2", "weighted_surface_energy", "weighted_work_function", "surface_anisotropy", "shape_factor", "has_reconstructed", "possible_species", "has_props", "theoretical", "database_IDs"]}