{"builder_meta": null, "nsites": null, "elements": null, "nelements": null, "composition": null, "composition_reduced": null, "formula_pretty": "Na3Cl2", "formula_anonymous": "A2B3", "chemsys": null, "volume": 126.28338746355526, "density": 1.8392634042070872, "density_atomic": 25.256677492711052, "symmetry": null, "property_name": null, "material_id": "mp-1069676", "deprecated": null, "deprecation_reasons": null, "last_updated": null, "origins": null, "warnings": null, "structure": {"@module": "pymatgen.core.structure", "@class": "Structure", "charge": 0, "lattice": {"matrix": [[1.759951, -10.170256, 0.0], [1.759951, 10.170256, 0.0], [0.0, 0.0, 3.527636]], "pbc": [true, true, true], "a": 10.321411464908131, "b": 10.321411464908131, "c": 3.527636, "alpha": 90.0, "beta": 90.0, "gamma": 160.3645232609624, "volume": 126.28338746355526}, "properties": {}, "sites": [{"species": [{"element": "Na", "occu": 1}], "abc": [0.5, 0.5, 0.0], "properties": {"magmom": 0.0}, "label": "Na", "xyz": [1.759951, 0.0, 0.0]}, {"species": [{"element": "Na", "occu": 1}], "abc": [0.331011, 0.668989, 0.0], "properties": {"magmom": 0.0}, "label": "Na", "xyz": [1.759951, 3.4373227823679997, 0.0]}, {"species": [{"element": "Na", "occu": 1}], "abc": [0.668989, 0.331011, 0.0], "properties": {"magmom": 0.0}, "label": "Na", "xyz": [1.759951, -3.4373227823679997, 0.0]}, {"species": [{"element": "Cl", "occu": 1}], "abc": [0.913401999999999, 0.086598, 0.5], "properties": {"magmom": -0.0}, "label": "Cl", "xyz": [1.7599509999999983, -8.40880834182399, 1.763818]}, {"species": [{"element": "Cl", "occu": 1}], "abc": [0.086598, 0.913401999999999, 0.5], "properties": {"magmom": -0.0}, "label": "Cl", "xyz": [1.7599509999999983, 8.40880834182399, 1.763818]}]}, "task_ids": null, "uncorrected_energy_per_atom": null, "energy_per_atom": -6.061502943310345, "formation_energy_per_atom": -1.462019042310345, "energy_above_hull": 0.16870189468965502, "is_stable": false, "equilibrium_reaction_energy_per_atom": null, "decomposes_to": null, "xas": null, "grain_boundaries": null, "band_gap": 0.0, "cbm": null, "vbm": null, "efermi": 2.63747118, "is_gap_direct": null, "is_metal": null, "es_source_calc_id": null, "bandstructure": null, "dos": null, "dos_energy_up": null, "dos_energy_down": null, "is_magnetic": null, "ordering": null, "total_magnetization": 0.0048946, "total_magnetization_normalized_vol": null, "total_magnetization_normalized_formula_units": null, "num_magnetic_sites": null, "num_unique_magnetic_sites": null, "types_of_magnetic_species": null, "bulk_modulus": null, "shear_modulus": null, "universal_anisotropy": null, "homogeneous_poisson": null, "e_total": null, "e_ionic": null, "e_electronic": null, "n": null, "e_ij_max": null, "weighted_surface_energy_EV_PER_ANG2": null, "weighted_surface_energy": null, "weighted_work_function": null, "surface_anisotropy": null, "shape_factor": null, "has_reconstructed": null, "possible_species": null, "has_props": null, "theoretical": null, "database_IDs": null, "fields_not_requested": ["builder_meta", "nsites", "elements", "nelements", "composition", "composition_reduced", "chemsys", "symmetry", "property_name", "deprecated", "deprecation_reasons", "last_updated", "origins", "warnings", "task_ids", "uncorrected_energy_per_atom", "equilibrium_reaction_energy_per_atom", "decomposes_to", "xas", "grain_boundaries", "cbm", "vbm", "is_gap_direct", "is_metal", "es_source_calc_id", "bandstructure", "dos", "dos_energy_up", "dos_energy_down", "is_magnetic", "ordering", "total_magnetization_normalized_vol", "total_magnetization_normalized_formula_units", "num_magnetic_sites", "num_unique_magnetic_sites", "types_of_magnetic_species", "bulk_modulus", "shear_modulus", "universal_anisotropy", "homogeneous_poisson", "e_total", "e_ionic", "e_electronic", "n", "e_ij_max", "weighted_surface_energy_EV_PER_ANG2", "weighted_surface_energy", "weighted_work_function", "surface_anisotropy", "shape_factor", "has_reconstructed", "possible_species", "has_props", "theoretical", "database_IDs"]}