{"builder_meta": null, "nsites": null, "elements": null, "nelements": null, "composition": null, "composition_reduced": null, "formula_pretty": "Na3Dy", "formula_anonymous": "AB3", "chemsys": null, "volume": 268.96905491463815, "density": 2.858052414313356, "density_atomic": 33.62113186432977, "symmetry": null, "property_name": null, "material_id": "mp-1186038", "deprecated": null, "deprecation_reasons": null, "last_updated": null, "origins": null, "warnings": null, "structure": {"@module": "pymatgen.core.structure", "@class": "Structure", "charge": 0, "lattice": {"matrix": [[3.643706, -6.311085, 0.0], [3.643706, 6.311085, 0.0], [0.0, 0.0, 5.848237]], "pbc": [true, true, true], "a": 7.2874129354429344, "b": 7.2874129354429344, "c": 5.848237, "alpha": 90.0, "beta": 90.0, "gamma": 120.00000849250696, "volume": 268.96905491463815}, "properties": {}, "sites": [{"species": [{"element": "Na", "occu": 1}], "abc": [0.162964, 0.325928999999999, 0.25], "properties": {"magmom": -0.0}, "label": "Na", "xyz": [1.7813823574579963, 1.0284859670249937, 1.46205925]}, {"species": [{"element": "Na", "occu": 1}], "abc": [0.674071, 0.837036, 0.25], "properties": {"magmom": -0.0}, "label": "Na", "xyz": [5.506029642542, 1.0284859670250004, 1.46205925]}, {"species": [{"element": "Na", "occu": 1}], "abc": [0.162964, 0.837036, 0.25], "properties": {"magmom": -0.0}, "label": "Na", "xyz": [3.643706, 4.25412568812, 1.46205925]}, {"species": [{"element": "Na", "occu": 1}], "abc": [0.837036, 0.674071, 0.75], "properties": {"magmom": -0.0}, "label": "Na", "xyz": [5.506029642542, -1.0284859670250004, 4.38617775]}, {"species": [{"element": "Na", "occu": 1}], "abc": [0.325928999999999, 0.162964, 0.75], "properties": {"magmom": -0.0}, "label": "Na", "xyz": [1.7813823574579963, -1.0284859670249937, 4.38617775]}, {"species": [{"element": "Na", "occu": 1}], "abc": [0.837036, 0.162964, 0.75], "properties": {"magmom": -0.0}, "label": "Na", "xyz": [3.643706, -4.25412568812, 4.38617775]}, {"species": [{"element": "Dy", "occu": 1}], "abc": [0.333333, 0.666667, 0.75], "properties": {"magmom": -0.003}, "label": "Dy", "xyz": [3.643706, 2.1036992073900005, 4.38617775]}, {"species": [{"element": "Dy", "occu": 1}], "abc": [0.666667, 0.333333, 0.25], "properties": {"magmom": -0.003}, "label": "Dy", "xyz": [3.643706, -2.1036992073900005, 1.46205925]}]}, "task_ids": null, "uncorrected_energy_per_atom": null, "energy_per_atom": -10.291944673663792, "formation_energy_per_atom": 0.37664156008620703, "energy_above_hull": 0.37664156008620703, "is_stable": false, "equilibrium_reaction_energy_per_atom": null, "decomposes_to": null, "xas": null, "grain_boundaries": null, "band_gap": 0.0, "cbm": null, "vbm": null, "efermi": 1.15473709, "is_gap_direct": null, "is_metal": null, "es_source_calc_id": null, "bandstructure": null, "dos": null, "dos_energy_up": null, "dos_energy_down": null, "is_magnetic": null, "ordering": null, "total_magnetization": 0.013439699999999001, "total_magnetization_normalized_vol": null, "total_magnetization_normalized_formula_units": null, "num_magnetic_sites": null, "num_unique_magnetic_sites": null, "types_of_magnetic_species": null, "bulk_modulus": null, "shear_modulus": null, "universal_anisotropy": null, "homogeneous_poisson": null, "e_total": null, "e_ionic": null, "e_electronic": null, "n": null, "e_ij_max": null, "weighted_surface_energy_EV_PER_ANG2": null, "weighted_surface_energy": null, "weighted_work_function": null, "surface_anisotropy": null, "shape_factor": null, "has_reconstructed": null, "possible_species": null, "has_props": null, "theoretical": null, "database_IDs": null, "fields_not_requested": ["builder_meta", "nsites", "elements", "nelements", "composition", "composition_reduced", "chemsys", "symmetry", "property_name", "deprecated", "deprecation_reasons", "last_updated", "origins", "warnings", "task_ids", "uncorrected_energy_per_atom", "equilibrium_reaction_energy_per_atom", "decomposes_to", "xas", "grain_boundaries", "cbm", "vbm", "is_gap_direct", "is_metal", "es_source_calc_id", "bandstructure", "dos", "dos_energy_up", "dos_energy_down", "is_magnetic", "ordering", "total_magnetization_normalized_vol", "total_magnetization_normalized_formula_units", "num_magnetic_sites", "num_unique_magnetic_sites", "types_of_magnetic_species", "bulk_modulus", "shear_modulus", "universal_anisotropy", "homogeneous_poisson", "e_total", "e_ionic", "e_electronic", "n", "e_ij_max", "weighted_surface_energy_EV_PER_ANG2", "weighted_surface_energy", "weighted_work_function", "surface_anisotropy", "shape_factor", "has_reconstructed", "possible_species", "has_props", "theoretical", "database_IDs"]}