{
  "builder_meta": null,
  "nsites": null,
  "elements": null,
  "nelements": null,
  "composition": null,
  "composition_reduced": null,
  "formula_pretty": "Na3Fe",
  "formula_anonymous": "AB3",
  "chemsys": null,
  "volume": 224.60530836499785,
  "density": 1.845539945139227,
  "density_atomic": 28.07566354562473,
  "symmetry": null,
  "property_name": null,
  "material_id": "mp-1186048",
  "deprecated": null,
  "deprecation_reasons": null,
  "last_updated": null,
  "origins": null,
  "warnings": null,
  "structure": {
    "@module": "pymatgen.core.structure",
    "@class": "Structure",
    "charge": 0,
    "lattice": {
      "matrix": [
        [3.466416, -6.004008, 0.0],
        [3.466416, 6.004008, 0.0],
        [0.0, 0.0, 5.395952]
      ],
      "pbc": [true, true, true],
      "a": 6.932831452525007,
      "b": 6.932831452525007,
      "c": 5.395952,
      "alpha": 90.0,
      "beta": 90.0,
      "gamma": 119.99999477548897,
      "volume": 224.60530836499785
    },
    "properties": {},
    "sites": [
      {
        "species": [{ "element": "Na", "occu": 1 }],
        "abc": [0.174690999999999, 0.349383, 0.25],
        "properties": { "magmom": -0.012 },
        "label": "Na",
        "xyz": [1.8166584987839967, 1.0488521655360057, 1.348988]
      },
      {
        "species": [{ "element": "Na", "occu": 1 }],
        "abc": [0.650617, 0.825309, 0.25],
        "properties": { "magmom": -0.012 },
        "label": "Na",
        "xyz": [5.116173501216, 1.0488521655359997, 1.348988]
      },
      {
        "species": [{ "element": "Na", "occu": 1 }],
        "abc": [0.174690999999999, 0.825309, 0.25],
        "properties": { "magmom": -0.011 },
        "label": "Na",
        "xyz": [3.466415999999996, 3.906315676944006, 1.348988]
      },
      {
        "species": [{ "element": "Na", "occu": 1 }],
        "abc": [0.825309, 0.650617, 0.75],
        "properties": { "magmom": -0.012 },
        "label": "Na",
        "xyz": [5.116173501216, -1.0488521655359997, 4.046964]
      },
      {
        "species": [{ "element": "Na", "occu": 1 }],
        "abc": [0.349383, 0.174690999999999, 0.75],
        "properties": { "magmom": -0.012 },
        "label": "Na",
        "xyz": [1.8166584987839967, -1.0488521655360057, 4.046964]
      },
      {
        "species": [{ "element": "Na", "occu": 1 }],
        "abc": [0.825309, 0.174690999999999, 0.75],
        "properties": { "magmom": -0.012 },
        "label": "Na",
        "xyz": [3.466415999999996, -3.906315676944006, 4.046964]
      },
      {
        "species": [{ "element": "Fe", "occu": 1 }],
        "abc": [0.333333, 0.666667, 0.75],
        "properties": { "magmom": 2.993999999999999 },
        "label": "Fe",
        "xyz": [3.4664159999999997, 2.001340002672, 4.046964]
      },
      {
        "species": [{ "element": "Fe", "occu": 1 }],
        "abc": [0.666667, 0.333333, 0.25],
        "properties": { "magmom": 3.021 },
        "label": "Fe",
        "xyz": [3.4664159999999997, -2.001340002672, 1.348988]
      }
    ]
  },
  "task_ids": null,
  "uncorrected_energy_per_atom": null,
  "energy_per_atom": -2.43831861375,
  "formation_energy_per_atom": 0.6854772727155171,
  "energy_above_hull": 0.6854772727155171,
  "is_stable": false,
  "equilibrium_reaction_energy_per_atom": null,
  "decomposes_to": null,
  "xas": null,
  "grain_boundaries": null,
  "band_gap": 0.0,
  "cbm": null,
  "vbm": null,
  "efermi": 0.9956031,
  "is_gap_direct": null,
  "is_metal": null,
  "es_source_calc_id": null,
  "bandstructure": null,
  "dos": null,
  "dos_energy_up": null,
  "dos_energy_down": null,
  "is_magnetic": null,
  "ordering": null,
  "total_magnetization": 5.988594,
  "total_magnetization_normalized_vol": null,
  "total_magnetization_normalized_formula_units": null,
  "num_magnetic_sites": null,
  "num_unique_magnetic_sites": null,
  "types_of_magnetic_species": null,
  "bulk_modulus": null,
  "shear_modulus": null,
  "universal_anisotropy": null,
  "homogeneous_poisson": null,
  "e_total": null,
  "e_ionic": null,
  "e_electronic": null,
  "n": null,
  "e_ij_max": null,
  "weighted_surface_energy_EV_PER_ANG2": null,
  "weighted_surface_energy": null,
  "weighted_work_function": null,
  "surface_anisotropy": null,
  "shape_factor": null,
  "has_reconstructed": null,
  "possible_species": null,
  "has_props": null,
  "theoretical": null,
  "database_IDs": null,
  "fields_not_requested": [
    "builder_meta",
    "nsites",
    "elements",
    "nelements",
    "composition",
    "composition_reduced",
    "chemsys",
    "symmetry",
    "property_name",
    "deprecated",
    "deprecation_reasons",
    "last_updated",
    "origins",
    "warnings",
    "task_ids",
    "uncorrected_energy_per_atom",
    "equilibrium_reaction_energy_per_atom",
    "decomposes_to",
    "xas",
    "grain_boundaries",
    "cbm",
    "vbm",
    "is_gap_direct",
    "is_metal",
    "es_source_calc_id",
    "bandstructure",
    "dos",
    "dos_energy_up",
    "dos_energy_down",
    "is_magnetic",
    "ordering",
    "total_magnetization_normalized_vol",
    "total_magnetization_normalized_formula_units",
    "num_magnetic_sites",
    "num_unique_magnetic_sites",
    "types_of_magnetic_species",
    "bulk_modulus",
    "shear_modulus",
    "universal_anisotropy",
    "homogeneous_poisson",
    "e_total",
    "e_ionic",
    "e_electronic",
    "n",
    "e_ij_max",
    "weighted_surface_energy_EV_PER_ANG2",
    "weighted_surface_energy",
    "weighted_work_function",
    "surface_anisotropy",
    "shape_factor",
    "has_reconstructed",
    "possible_species",
    "has_props",
    "theoretical",
    "database_IDs"
  ]
}
