{"builder_meta": null, "nsites": null, "elements": null, "nelements": null, "composition": null, "composition_reduced": null, "formula_pretty": "Na3Hg2", "formula_anonymous": "A2B3", "chemsys": null, "volume": 545.8590593278755, "density": 5.72090014418417, "density_atomic": 27.292952966393774, "symmetry": null, "property_name": null, "material_id": "mp-17974", "deprecated": null, "deprecation_reasons": null, "last_updated": null, "origins": null, "warnings": null, "structure": {"@module": "pymatgen.core.structure", "@class": "Structure", "charge": 0, "lattice": {"matrix": [[7.7758974, 0.0, 0.0], [0.0, 8.37847543, 0.0], [0.0, 0.0, 8.37847543]], "pbc": [true, true, true], "a": 7.7758974, "b": 8.37847543, "c": 8.37847543, "alpha": 90.0, "beta": 90.0, "gamma": 90.0, "volume": 545.8590593278755}, "properties": {}, "sites": [{"species": [{"element": "Na", "occu": 1}], "abc": [0.75, 0.5, -0.0], "properties": {"magmom": -0.0}, "label": "Na", "xyz": [5.83192305, 4.189237715, 0.0]}, {"species": [{"element": "Na", "occu": 1}], "abc": [0.25, 0.5, -0.0], "properties": {"magmom": -0.0}, "label": "Na", "xyz": [1.94397435, 4.189237715, 0.0]}, {"species": [{"element": "Na", "occu": 1}], "abc": [0.75, -0.0, 0.5], "properties": {"magmom": -0.0}, "label": "Na", "xyz": [5.83192305, 0.0, 4.189237715]}, {"species": [{"element": "Na", "occu": 1}], "abc": [0.25, -0.0, 0.5], "properties": {"magmom": -0.0}, "label": "Na", "xyz": [1.94397435, 0.0, 4.189237715]}, {"species": [{"element": "Na", "occu": 1}], "abc": [-0.0, 0.8606031900000001, 0.8606031900000001], "properties": {"magmom": -0.0}, "label": "Na", "xyz": [0.0, 7.210542682394622, 7.210542682394622]}, {"species": [{"element": "Na", "occu": 1}], "abc": [0.5, 0.63939681, 0.36060319], "properties": {"magmom": -0.0}, "label": "Na", "xyz": [3.8879487, 5.357170462605379, 3.021304967394622]}, {"species": [{"element": "Na", "occu": 1}], "abc": [0.5, 0.36060319, 0.63939681], "properties": {"magmom": -0.0}, "label": "Na", "xyz": [3.8879487, 3.021304967394622, 5.357170462605379]}, {"species": [{"element": "Na", "occu": 1}], "abc": [-0.0, 0.13939681, 0.13939681], "properties": {"magmom": -0.0}, "label": "Na", "xyz": [0.0, 1.1679327476053785, 1.1679327476053785]}, {"species": [{"element": "Na", "occu": 1}], "abc": [-0.0, 0.29489179, 0.70510821], "properties": {"magmom": -0.0}, "label": "Na", "xyz": [0.0, 2.4707436170237194, 5.90773181297628]}, {"species": [{"element": "Na", "occu": 1}], "abc": [0.5, 0.79489179, 0.79489179], "properties": {"magmom": -0.0}, "label": "Na", "xyz": [3.8879487, 6.65998133202372, 6.65998133202372]}, {"species": [{"element": "Na", "occu": 1}], "abc": [0.5, 0.20510821, 0.20510821], "properties": {"magmom": -0.0}, "label": "Na", "xyz": [3.8879487, 1.7184940979762804, 1.7184940979762804]}, {"species": [{"element": "Na", "occu": 1}], "abc": [-0.0, 0.70510821, 0.29489179], "properties": {"magmom": -0.0}, "label": "Na", "xyz": [0.0, 5.90773181297628, 2.4707436170237194]}, {"species": [{"element": "Hg", "occu": 1}], "abc": [0.80860985, 0.62661289, 0.62661289], "properties": {"magmom": -0.0}, "label": "Hg", "xyz": [6.287667230229389, 5.250060702986293, 5.250060702986293]}, {"species": [{"element": "Hg", "occu": 1}], "abc": [0.80860985, 0.37338711, 0.37338711], "properties": {"magmom": -0.0}, "label": "Hg", "xyz": [6.287667230229389, 3.1284147270137073, 3.1284147270137073]}, {"species": [{"element": "Hg", "occu": 1}], "abc": [0.30860985, 0.12661289, 0.87338711], "properties": {"magmom": -0.0}, "label": "Hg", "xyz": [2.39971853022939, 1.0608229879862927, 7.317652442013707]}, {"species": [{"element": "Hg", "occu": 1}], "abc": [0.30860985, 0.87338711, 0.12661289], "properties": {"magmom": -0.0}, "label": "Hg", "xyz": [2.39971853022939, 7.317652442013707, 1.0608229879862927]}, {"species": [{"element": "Hg", "occu": 1}], "abc": [0.19139015, 0.62661289, 0.62661289], "properties": {"magmom": -0.0}, "label": "Hg", "xyz": [1.48823016977061, 5.250060702986293, 5.250060702986293]}, {"species": [{"element": "Hg", "occu": 1}], "abc": [0.69139015, 0.87338711, 0.12661289], "properties": {"magmom": -0.0}, "label": "Hg", "xyz": [5.3761788697706105, 7.317652442013707, 1.0608229879862927]}, {"species": [{"element": "Hg", "occu": 1}], "abc": [0.69139015, 0.12661289, 0.87338711], "properties": {"magmom": -0.0}, "label": "Hg", "xyz": [5.3761788697706105, 1.0608229879862927, 7.317652442013707]}, {"species": [{"element": "Hg", "occu": 1}], "abc": [0.19139015, 0.37338711, 0.37338711], "properties": {"magmom": -0.0}, "label": "Hg", "xyz": [1.48823016977061, 3.1284147270137073, 3.1284147270137073]}]}, "task_ids": null, "uncorrected_energy_per_atom": null, "energy_per_atom": -22.116894488, "formation_energy_per_atom": -0.23126353700000002, "energy_above_hull": 0.0, "is_stable": true, "equilibrium_reaction_energy_per_atom": null, "decomposes_to": null, "xas": null, "grain_boundaries": null, "band_gap": 0.0, "cbm": null, "vbm": null, "efermi": 1.42164224, "is_gap_direct": null, "is_metal": null, "es_source_calc_id": null, "bandstructure": null, "dos": null, "dos_energy_up": null, "dos_energy_down": null, "is_magnetic": null, "ordering": null, "total_magnetization": 4.63e-05, "total_magnetization_normalized_vol": null, "total_magnetization_normalized_formula_units": null, "num_magnetic_sites": null, "num_unique_magnetic_sites": null, "types_of_magnetic_species": null, "bulk_modulus": null, "shear_modulus": null, "universal_anisotropy": null, "homogeneous_poisson": null, "e_total": null, "e_ionic": null, "e_electronic": null, "n": null, "e_ij_max": null, "weighted_surface_energy_EV_PER_ANG2": null, "weighted_surface_energy": null, "weighted_work_function": null, "surface_anisotropy": null, "shape_factor": null, "has_reconstructed": null, "possible_species": null, "has_props": null, "theoretical": null, "database_IDs": null, "fields_not_requested": ["builder_meta", "nsites", "elements", "nelements", "composition", "composition_reduced", "chemsys", "symmetry", "property_name", "deprecated", "deprecation_reasons", "last_updated", "origins", "warnings", "task_ids", "uncorrected_energy_per_atom", "equilibrium_reaction_energy_per_atom", "decomposes_to", "xas", "grain_boundaries", "cbm", "vbm", "is_gap_direct", "is_metal", "es_source_calc_id", "bandstructure", "dos", "dos_energy_up", "dos_energy_down", "is_magnetic", "ordering", "total_magnetization_normalized_vol", "total_magnetization_normalized_formula_units", "num_magnetic_sites", "num_unique_magnetic_sites", "types_of_magnetic_species", "bulk_modulus", "shear_modulus", "universal_anisotropy", "homogeneous_poisson", "e_total", "e_ionic", "e_electronic", "n", "e_ij_max", "weighted_surface_energy_EV_PER_ANG2", "weighted_surface_energy", "weighted_work_function", "surface_anisotropy", "shape_factor", "has_reconstructed", "possible_species", "has_props", "theoretical", "database_IDs"]}