{
  "builder_meta": null,
  "nsites": null,
  "elements": null,
  "nelements": null,
  "composition": null,
  "composition_reduced": null,
  "formula_pretty": "Na3Mg",
  "formula_anonymous": "AB3",
  "chemsys": null,
  "volume": 260.7862494627652,
  "density": 1.187835880131472,
  "density_atomic": 32.59828118284565,
  "symmetry": null,
  "property_name": null,
  "material_id": "mp-1186056",
  "deprecated": null,
  "deprecation_reasons": null,
  "last_updated": null,
  "origins": null,
  "warnings": null,
  "structure": {
    "@module": "pymatgen.core.structure",
    "@class": "Structure",
    "charge": 0,
    "lattice": {
      "matrix": [
        [3.630293, -6.287852, 0.0],
        [3.630293, 6.287852, 0.0],
        [0.0, 0.0, 5.712296]
      ],
      "pbc": [true, true, true],
      "a": 7.26058606723679,
      "b": 7.26058606723679,
      "c": 5.712296,
      "alpha": 90.0,
      "beta": 90.0,
      "gamma": 120.00000061267096,
      "volume": 260.7862494627652
    },
    "properties": {},
    "sites": [
      {
        "species": [{ "element": "Na", "occu": 1 }],
        "abc": [0.171606999999999, 0.343215, 0.25],
        "properties": { "magmom": 0.0 },
        "label": "Na",
        "xyz": [1.8689547028459965, 1.0790457060160061, 1.428074]
      },
      {
        "species": [{ "element": "Na", "occu": 1 }],
        "abc": [0.171606999999999, 0.828392999999999, 0.25],
        "properties": { "magmom": 0.0 },
        "label": "Na",
        "xyz": [3.630292999999993, 4.129773163672, 1.428074]
      },
      {
        "species": [{ "element": "Na", "occu": 1 }],
        "abc": [0.656785, 0.828392999999999, 0.25],
        "properties": { "magmom": -0.0 },
        "label": "Na",
        "xyz": [5.391631297153996, 1.079045706015994, 1.428074]
      },
      {
        "species": [{ "element": "Na", "occu": 1 }],
        "abc": [0.343215, 0.171606999999999, 0.75],
        "properties": { "magmom": 0.0 },
        "label": "Na",
        "xyz": [1.8689547028459965, -1.0790457060160061, 4.284222]
      },
      {
        "species": [{ "element": "Na", "occu": 1 }],
        "abc": [0.828392999999999, 0.171606999999999, 0.75],
        "properties": { "magmom": 0.0 },
        "label": "Na",
        "xyz": [3.630292999999993, -4.129773163672, 4.284222]
      },
      {
        "species": [{ "element": "Na", "occu": 1 }],
        "abc": [0.828392999999999, 0.656785, 0.75],
        "properties": { "magmom": 0.0 },
        "label": "Na",
        "xyz": [5.391631297153996, -1.079045706015994, 4.284222]
      },
      {
        "species": [{ "element": "Mg", "occu": 1 }],
        "abc": [0.666667, 0.333333, 0.25],
        "properties": { "magmom": 0.0 },
        "label": "Mg",
        "xyz": [3.630293, -2.095954858568, 1.428074]
      },
      {
        "species": [{ "element": "Mg", "occu": 1 }],
        "abc": [0.333333, 0.666667, 0.75],
        "properties": { "magmom": 0.0 },
        "label": "Mg",
        "xyz": [3.630293, 2.095954858568, 4.284222]
      }
    ]
  },
  "task_ids": null,
  "uncorrected_energy_per_atom": null,
  "energy_per_atom": -3.6246299888541422,
  "formation_energy_per_atom": 0.09083133489585701,
  "energy_above_hull": 0.09083133489585701,
  "is_stable": false,
  "equilibrium_reaction_energy_per_atom": null,
  "decomposes_to": null,
  "xas": null,
  "grain_boundaries": null,
  "band_gap": 0.0,
  "cbm": null,
  "vbm": null,
  "efermi": 0.96232183,
  "is_gap_direct": null,
  "is_metal": null,
  "es_source_calc_id": null,
  "bandstructure": null,
  "dos": null,
  "dos_energy_up": null,
  "dos_energy_down": null,
  "is_magnetic": null,
  "ordering": null,
  "total_magnetization": 0.0015687,
  "total_magnetization_normalized_vol": null,
  "total_magnetization_normalized_formula_units": null,
  "num_magnetic_sites": null,
  "num_unique_magnetic_sites": null,
  "types_of_magnetic_species": null,
  "bulk_modulus": null,
  "shear_modulus": null,
  "universal_anisotropy": null,
  "homogeneous_poisson": null,
  "e_total": null,
  "e_ionic": null,
  "e_electronic": null,
  "n": null,
  "e_ij_max": null,
  "weighted_surface_energy_EV_PER_ANG2": null,
  "weighted_surface_energy": null,
  "weighted_work_function": null,
  "surface_anisotropy": null,
  "shape_factor": null,
  "has_reconstructed": null,
  "possible_species": null,
  "has_props": null,
  "theoretical": null,
  "database_IDs": null,
  "fields_not_requested": [
    "builder_meta",
    "nsites",
    "elements",
    "nelements",
    "composition",
    "composition_reduced",
    "chemsys",
    "symmetry",
    "property_name",
    "deprecated",
    "deprecation_reasons",
    "last_updated",
    "origins",
    "warnings",
    "task_ids",
    "uncorrected_energy_per_atom",
    "equilibrium_reaction_energy_per_atom",
    "decomposes_to",
    "xas",
    "grain_boundaries",
    "cbm",
    "vbm",
    "is_gap_direct",
    "is_metal",
    "es_source_calc_id",
    "bandstructure",
    "dos",
    "dos_energy_up",
    "dos_energy_down",
    "is_magnetic",
    "ordering",
    "total_magnetization_normalized_vol",
    "total_magnetization_normalized_formula_units",
    "num_magnetic_sites",
    "num_unique_magnetic_sites",
    "types_of_magnetic_species",
    "bulk_modulus",
    "shear_modulus",
    "universal_anisotropy",
    "homogeneous_poisson",
    "e_total",
    "e_ionic",
    "e_electronic",
    "n",
    "e_ij_max",
    "weighted_surface_energy_EV_PER_ANG2",
    "weighted_surface_energy",
    "weighted_work_function",
    "surface_anisotropy",
    "shape_factor",
    "has_reconstructed",
    "possible_species",
    "has_props",
    "theoretical",
    "database_IDs"
  ]
}
