{"builder_meta": null, "nsites": null, "elements": null, "nelements": null, "composition": null, "composition_reduced": null, "formula_pretty": "Na3Np", "formula_anonymous": "AB3", "chemsys": null, "volume": 276.2670595711, "density": 3.678136580145732, "density_atomic": 34.5333824463875, "symmetry": null, "property_name": null, "material_id": "mp-1186116", "deprecated": null, "deprecation_reasons": null, "last_updated": null, "origins": null, "warnings": null, "structure": {"@module": "pymatgen.core.structure", "@class": "Structure", "charge": 0, "lattice": {"matrix": [[3.6811100000000003, -6.375869, 0.0], [3.6811100000000003, 6.375869, 0.0], [0.0, 0.0, 5.885467]], "pbc": [true, true, true], "a": 7.36221952520169, "b": 7.36221952520169, "c": 5.885467, "alpha": 90.0, "beta": 90.0, "gamma": 119.99999573329704, "volume": 276.26705957110005}, "properties": {}, "sites": [{"species": [{"element": "Na", "occu": 1}], "abc": [0.159933, 0.319866, 0.25], "properties": {"magmom": -0.02}, "label": "Na", "xyz": [1.7661928968900003, 1.0197118567769998, 1.47136675]}, {"species": [{"element": "Na", "occu": 1}], "abc": [0.680134, 0.840067, 0.25], "properties": {"magmom": -0.009000000000000001}, "label": "Na", "xyz": [5.596027103110001, 1.0197118567770005, 1.47136675]}, {"species": [{"element": "Na", "occu": 1}], "abc": [0.159933, 0.840067, 0.25], "properties": {"magmom": -0.026000000000000002}, "label": "Na", "xyz": [3.6811100000000003, 4.336445286446001, 1.47136675]}, {"species": [{"element": "Na", "occu": 1}], "abc": [0.840067, 0.680134, 0.75], "properties": {"magmom": -0.02}, "label": "Na", "xyz": [5.596027103110001, -1.0197118567770005, 4.414100250000001]}, {"species": [{"element": "Na", "occu": 1}], "abc": [0.319866, 0.159933, 0.75], "properties": {"magmom": -0.009000000000000001}, "label": "Na", "xyz": [1.7661928968900003, -1.0197118567769998, 4.414100250000001]}, {"species": [{"element": "Na", "occu": 1}], "abc": [0.840067, 0.159933, 0.75], "properties": {"magmom": -0.026000000000000002}, "label": "Na", "xyz": [3.6811100000000003, -4.336445286446001, 4.414100250000001]}, {"species": [{"element": "Np", "occu": 1}], "abc": [0.333333, 0.666667, 0.75], "properties": {"magmom": -4.476}, "label": "Np", "xyz": [3.6811100000000003, 2.1252939172459997, 4.414100250000001]}, {"species": [{"element": "Np", "occu": 1}], "abc": [0.666667, 0.333333, 0.25], "properties": {"magmom": -4.477}, "label": "Np", "xyz": [3.6811100000000003, -2.1252939172459997, 1.47136675]}]}, "task_ids": null, "uncorrected_energy_per_atom": null, "energy_per_atom": -22.582338919913795, "formation_energy_per_atom": 0.8468493903987061, "energy_above_hull": 0.8468493903987061, "is_stable": false, "equilibrium_reaction_energy_per_atom": null, "decomposes_to": null, "xas": null, "grain_boundaries": null, "band_gap": 0.0, "cbm": null, "vbm": null, "efermi": 2.70547115, "is_gap_direct": null, "is_metal": null, "es_source_calc_id": null, "bandstructure": null, "dos": null, "dos_energy_up": null, "dos_energy_down": null, "is_magnetic": null, "ordering": null, "total_magnetization": 12.1231338, "total_magnetization_normalized_vol": null, "total_magnetization_normalized_formula_units": null, "num_magnetic_sites": null, "num_unique_magnetic_sites": null, "types_of_magnetic_species": null, "bulk_modulus": null, "shear_modulus": null, "universal_anisotropy": null, "homogeneous_poisson": null, "e_total": null, "e_ionic": null, "e_electronic": null, "n": null, "e_ij_max": null, "weighted_surface_energy_EV_PER_ANG2": null, "weighted_surface_energy": null, "weighted_work_function": null, "surface_anisotropy": null, "shape_factor": null, "has_reconstructed": null, "possible_species": null, "has_props": null, "theoretical": null, "database_IDs": null, "fields_not_requested": ["builder_meta", "nsites", "elements", "nelements", "composition", "composition_reduced", "chemsys", "symmetry", "property_name", "deprecated", "deprecation_reasons", "last_updated", "origins", "warnings", "task_ids", "uncorrected_energy_per_atom", "equilibrium_reaction_energy_per_atom", "decomposes_to", "xas", "grain_boundaries", "cbm", "vbm", "is_gap_direct", "is_metal", "es_source_calc_id", "bandstructure", "dos", "dos_energy_up", "dos_energy_down", "is_magnetic", "ordering", "total_magnetization_normalized_vol", "total_magnetization_normalized_formula_units", "num_magnetic_sites", "num_unique_magnetic_sites", "types_of_magnetic_species", "bulk_modulus", "shear_modulus", "universal_anisotropy", "homogeneous_poisson", "e_total", "e_ionic", "e_electronic", "n", "e_ij_max", "weighted_surface_energy_EV_PER_ANG2", "weighted_surface_energy", "weighted_work_function", "surface_anisotropy", "shape_factor", "has_reconstructed", "possible_species", "has_props", "theoretical", "database_IDs"]}