{"builder_meta": null, "nsites": null, "elements": null, "nelements": null, "composition": null, "composition_reduced": null, "formula_pretty": "Na3P", "formula_anonymous": "AB3", "chemsys": null, "volume": 183.7644767219801, "density": 1.806218207845844, "density_atomic": 22.97055959024751, "symmetry": null, "property_name": null, "material_id": "mp-1598", "deprecated": null, "deprecation_reasons": null, "last_updated": null, "origins": null, "warnings": null, "structure": {"@module": "pymatgen.core.structure", "@class": "Structure", "charge": 0, "lattice": {"matrix": [[4.92021676, -0.0, 0.0], [-2.46010838, 4.26103352, -0.0], [0.0, 0.0, 8.76521101]], "pbc": [true, true, true], "a": 4.92021676, "b": 4.9202174646970445, "c": 8.76521101, "alpha": 90.0, "beta": 90.0, "gamma": 119.99999526216267, "volume": 183.7644767219801}, "properties": {}, "sites": [{"species": [{"element": "Na", "occu": 1}], "abc": [-0.0, -0.0, 0.25], "properties": {"magmom": -0.0}, "label": "Na", "xyz": [0.0, 0.0, 2.1913027525]}, {"species": [{"element": "Na", "occu": 1}], "abc": [-0.0, -0.0, 0.75], "properties": {"magmom": -0.0}, "label": "Na", "xyz": [0.0, 0.0, 6.573908257499999]}, {"species": [{"element": "Na", "occu": 1}], "abc": [0.333333, 0.666667, 0.58021551], "properties": {"magmom": -0.0}, "label": "Na", "xyz": [-2.4601083801201185e-06, 2.84069043367784, 5.085711376424765]}, {"species": [{"element": "Na", "occu": 1}], "abc": [0.666667, 0.333333, 0.08021551], "properties": {"magmom": -0.0}, "label": "Na", "xyz": [2.46011084010838, 1.42034308632216, 0.7031058714247651]}, {"species": [{"element": "Na", "occu": 1}], "abc": [0.666667, 0.333333, 0.41978449], "properties": {"magmom": -0.0}, "label": "Na", "xyz": [2.46011084010838, 1.42034308632216, 3.679499633575235]}, {"species": [{"element": "Na", "occu": 1}], "abc": [0.333333, 0.666667, 0.9197844900000001], "properties": {"magmom": -0.0}, "label": "Na", "xyz": [-2.4601083801201185e-06, 2.84069043367784, 8.062105138575236]}, {"species": [{"element": "P", "occu": 1}], "abc": [0.333333, 0.666667, 0.25], "properties": {"magmom": -0.0}, "label": "P", "xyz": [-2.4601083801201185e-06, 2.84069043367784, 2.1913027525]}, {"species": [{"element": "P", "occu": 1}], "abc": [0.666667, 0.333333, 0.75], "properties": {"magmom": -0.0}, "label": "P", "xyz": [2.46011084010838, 1.42034308632216, 6.573908257499999]}]}, "task_ids": null, "uncorrected_energy_per_atom": null, "energy_per_atom": -5.38525872875, "formation_energy_per_atom": -0.46160422324404704, "energy_above_hull": 0.0, "is_stable": true, "equilibrium_reaction_energy_per_atom": null, "decomposes_to": null, "xas": null, "grain_boundaries": null, "band_gap": 0.4033, "cbm": null, "vbm": null, "efermi": 1.44909869, "is_gap_direct": null, "is_metal": null, "es_source_calc_id": null, "bandstructure": null, "dos": null, "dos_energy_up": null, "dos_energy_down": null, "is_magnetic": null, "ordering": null, "total_magnetization": 0.0, "total_magnetization_normalized_vol": null, "total_magnetization_normalized_formula_units": null, "num_magnetic_sites": null, "num_unique_magnetic_sites": null, "types_of_magnetic_species": null, "bulk_modulus": null, "shear_modulus": null, "universal_anisotropy": null, "homogeneous_poisson": null, "e_total": null, "e_ionic": null, "e_electronic": null, "n": null, "e_ij_max": null, "weighted_surface_energy_EV_PER_ANG2": null, "weighted_surface_energy": null, "weighted_work_function": null, "surface_anisotropy": null, "shape_factor": null, "has_reconstructed": null, "possible_species": null, "has_props": null, "theoretical": null, "database_IDs": null, "fields_not_requested": ["builder_meta", "nsites", "elements", "nelements", "composition", "composition_reduced", "chemsys", "symmetry", "property_name", "deprecated", "deprecation_reasons", "last_updated", "origins", "warnings", "task_ids", "uncorrected_energy_per_atom", "equilibrium_reaction_energy_per_atom", "decomposes_to", "xas", "grain_boundaries", "cbm", "vbm", "is_gap_direct", "is_metal", "es_source_calc_id", "bandstructure", "dos", "dos_energy_up", "dos_energy_down", "is_magnetic", "ordering", "total_magnetization_normalized_vol", "total_magnetization_normalized_formula_units", "num_magnetic_sites", "num_unique_magnetic_sites", "types_of_magnetic_species", "bulk_modulus", "shear_modulus", "universal_anisotropy", "homogeneous_poisson", "e_total", "e_ionic", "e_electronic", "n", "e_ij_max", "weighted_surface_energy_EV_PER_ANG2", "weighted_surface_energy", "weighted_work_function", "surface_anisotropy", "shape_factor", "has_reconstructed", "possible_species", "has_props", "theoretical", "database_IDs"]}