{
  "builder_meta": null,
  "nsites": null,
  "elements": null,
  "nelements": null,
  "composition": null,
  "composition_reduced": null,
  "formula_pretty": "Na3Pm",
  "formula_anonymous": "AB3",
  "chemsys": null,
  "volume": 277.09835431758785,
  "density": 2.564464127523906,
  "density_atomic": 34.63729428969848,
  "symmetry": null,
  "property_name": null,
  "material_id": "mp-1186078",
  "deprecated": null,
  "deprecation_reasons": null,
  "last_updated": null,
  "origins": null,
  "warnings": null,
  "structure": {
    "@module": "pymatgen.core.structure",
    "@class": "Structure",
    "charge": 0,
    "lattice": {
      "matrix": [
        [3.715596, -6.435602, 0.0],
        [3.715596, 6.435602, 0.0],
        [0.0, 0.0, 5.794104]
      ],
      "pbc": [true, true, true],
      "a": 7.431192820645956,
      "b": 7.431192820645956,
      "c": 5.794104,
      "alpha": 90.0,
      "beta": 90.0,
      "gamma": 120.00000730616199,
      "volume": 277.09835431758785
    },
    "properties": {},
    "sites": [
      {
        "species": [{ "element": "Na", "occu": 1 }],
        "abc": [0.675488, 0.837743999999999, 0.25],
        "properties": { "magmom": 0.0 },
        "label": "Na",
        "xyz": [5.622558766271997, 1.044215038111994, 1.448526]
      },
      {
        "species": [{ "element": "Na", "occu": 1 }],
        "abc": [0.162255999999999, 0.324511999999999, 0.25],
        "properties": { "magmom": 0.001 },
        "label": "Na",
        "xyz": [1.8086332337279927, 1.0442150381120003, 1.448526]
      },
      {
        "species": [{ "element": "Na", "occu": 1 }],
        "abc": [0.837743999999999, 0.162255999999999, 0.75],
        "properties": { "magmom": 0.001 },
        "label": "Na",
        "xyz": [3.715595999999993, -4.347171923776, 4.345578]
      },
      {
        "species": [{ "element": "Na", "occu": 1 }],
        "abc": [0.324511999999999, 0.162255999999999, 0.75],
        "properties": { "magmom": 0.0 },
        "label": "Na",
        "xyz": [1.8086332337279927, -1.0442150381120003, 4.345578]
      },
      {
        "species": [{ "element": "Na", "occu": 1 }],
        "abc": [0.837743999999999, 0.675488, 0.75],
        "properties": { "magmom": 0.001 },
        "label": "Na",
        "xyz": [5.622558766271997, -1.044215038111994, 4.345578]
      },
      {
        "species": [{ "element": "Na", "occu": 1 }],
        "abc": [0.162255999999999, 0.837743999999999, 0.25],
        "properties": { "magmom": 0.001 },
        "label": "Na",
        "xyz": [3.715595999999993, 4.347171923776, 1.448526]
      },
      {
        "species": [{ "element": "Pm", "occu": 1 }],
        "abc": [0.666667, 0.333333, 0.25],
        "properties": { "magmom": 0.034 },
        "label": "Pm",
        "xyz": [3.7155959999999997, -2.1452049570680005, 1.448526]
      },
      {
        "species": [{ "element": "Pm", "occu": 1 }],
        "abc": [0.333333, 0.666667, 0.75],
        "properties": { "magmom": 0.034 },
        "label": "Pm",
        "xyz": [3.7155959999999997, 2.1452049570680005, 4.345578]
      }
    ]
  },
  "task_ids": null,
  "uncorrected_energy_per_atom": null,
  "energy_per_atom": -9.728755092413794,
  "formation_energy_per_atom": 0.32953345071120604,
  "energy_above_hull": 0.32953345071120604,
  "is_stable": false,
  "equilibrium_reaction_energy_per_atom": null,
  "decomposes_to": null,
  "xas": null,
  "grain_boundaries": null,
  "band_gap": 0.0,
  "cbm": null,
  "vbm": null,
  "efermi": 1.14172028,
  "is_gap_direct": null,
  "is_metal": null,
  "es_source_calc_id": null,
  "bandstructure": null,
  "dos": null,
  "dos_energy_up": null,
  "dos_energy_down": null,
  "is_magnetic": null,
  "ordering": null,
  "total_magnetization": 0.215341099999999,
  "total_magnetization_normalized_vol": null,
  "total_magnetization_normalized_formula_units": null,
  "num_magnetic_sites": null,
  "num_unique_magnetic_sites": null,
  "types_of_magnetic_species": null,
  "bulk_modulus": null,
  "shear_modulus": null,
  "universal_anisotropy": null,
  "homogeneous_poisson": null,
  "e_total": null,
  "e_ionic": null,
  "e_electronic": null,
  "n": null,
  "e_ij_max": null,
  "weighted_surface_energy_EV_PER_ANG2": null,
  "weighted_surface_energy": null,
  "weighted_work_function": null,
  "surface_anisotropy": null,
  "shape_factor": null,
  "has_reconstructed": null,
  "possible_species": null,
  "has_props": null,
  "theoretical": null,
  "database_IDs": null,
  "fields_not_requested": [
    "builder_meta",
    "nsites",
    "elements",
    "nelements",
    "composition",
    "composition_reduced",
    "chemsys",
    "symmetry",
    "property_name",
    "deprecated",
    "deprecation_reasons",
    "last_updated",
    "origins",
    "warnings",
    "task_ids",
    "uncorrected_energy_per_atom",
    "equilibrium_reaction_energy_per_atom",
    "decomposes_to",
    "xas",
    "grain_boundaries",
    "cbm",
    "vbm",
    "is_gap_direct",
    "is_metal",
    "es_source_calc_id",
    "bandstructure",
    "dos",
    "dos_energy_up",
    "dos_energy_down",
    "is_magnetic",
    "ordering",
    "total_magnetization_normalized_vol",
    "total_magnetization_normalized_formula_units",
    "num_magnetic_sites",
    "num_unique_magnetic_sites",
    "types_of_magnetic_species",
    "bulk_modulus",
    "shear_modulus",
    "universal_anisotropy",
    "homogeneous_poisson",
    "e_total",
    "e_ionic",
    "e_electronic",
    "n",
    "e_ij_max",
    "weighted_surface_energy_EV_PER_ANG2",
    "weighted_surface_energy",
    "weighted_work_function",
    "surface_anisotropy",
    "shape_factor",
    "has_reconstructed",
    "possible_species",
    "has_props",
    "theoretical",
    "database_IDs"
  ]
}
