{"builder_meta": null, "nsites": null, "elements": null, "nelements": null, "composition": null, "composition_reduced": null, "formula_pretty": "Na3Pu", "formula_anonymous": "AB3", "chemsys": null, "volume": 297.60430806014017, "density": 3.492541930609825, "density_atomic": 37.20053850751752, "symmetry": null, "property_name": null, "material_id": "mp-1186128", "deprecated": null, "deprecation_reasons": null, "last_updated": null, "origins": null, "warnings": null, "structure": {"@module": "pymatgen.core.structure", "@class": "Structure", "charge": 0, "lattice": {"matrix": [[3.929235, -6.8056339999999995, 0.0], [3.929235, 6.8056339999999995, 0.0], [0.0, 0.0, 5.564583]], "pbc": [true, true, true], "a": 7.858469432859111, "b": 7.858469432859111, "c": 5.564583, "alpha": 90.0, "beta": 90.0, "gamma": 119.999995225312, "volume": 297.6043080601401}, "properties": {}, "sites": [{"species": [{"element": "Na", "occu": 1}], "abc": [0.160611, 0.321221, 0.25], "properties": {"magmom": 0.012}, "label": "Na", "xyz": [1.89323115852, 1.0930528767399996, 1.39114575]}, {"species": [{"element": "Na", "occu": 1}], "abc": [0.678779, 0.839388999999999, 0.25], "properties": {"magmom": 0.006}, "label": "Na", "xyz": [5.965238841479996, 1.0930528767399936, 1.39114575]}, {"species": [{"element": "Na", "occu": 1}], "abc": [0.160611, 0.839388999999999, 0.25], "properties": {"magmom": 0.012}, "label": "Na", "xyz": [3.929234999999996, 4.619514635251993, 1.39114575]}, {"species": [{"element": "Na", "occu": 1}], "abc": [0.839388999999999, 0.678779, 0.75], "properties": {"magmom": 0.012}, "label": "Na", "xyz": [5.965238841479996, -1.0930528767399936, 4.17343725]}, {"species": [{"element": "Na", "occu": 1}], "abc": [0.321221, 0.160611, 0.75], "properties": {"magmom": 0.006}, "label": "Na", "xyz": [1.89323115852, -1.0930528767399996, 4.17343725]}, {"species": [{"element": "Na", "occu": 1}], "abc": [0.839388999999999, 0.160611, 0.75], "properties": {"magmom": 0.012}, "label": "Na", "xyz": [3.929234999999996, -4.619514635251993, 4.17343725]}, {"species": [{"element": "Pu", "occu": 1}], "abc": [0.333333, 0.666667, 0.75], "properties": {"magmom": 5.563}, "label": "Pu", "xyz": [3.929235, 2.268549203756, 4.17343725]}, {"species": [{"element": "Pu", "occu": 1}], "abc": [0.666667, 0.333333, 0.25], "properties": {"magmom": 5.563}, "label": "Pu", "xyz": [3.929235, -2.268549203756, 1.39114575]}]}, "task_ids": null, "uncorrected_energy_per_atom": null, "energy_per_atom": -23.777843548976293, "formation_energy_per_atom": 0.48437891633620805, "energy_above_hull": 0.48437891633620805, "is_stable": false, "equilibrium_reaction_energy_per_atom": null, "decomposes_to": null, "xas": null, "grain_boundaries": null, "band_gap": 0.0, "cbm": null, "vbm": null, "efermi": 2.24476467, "is_gap_direct": null, "is_metal": null, "es_source_calc_id": null, "bandstructure": null, "dos": null, "dos_energy_up": null, "dos_energy_down": null, "is_magnetic": null, "ordering": null, "total_magnetization": 14.106408, "total_magnetization_normalized_vol": null, "total_magnetization_normalized_formula_units": null, "num_magnetic_sites": null, "num_unique_magnetic_sites": null, "types_of_magnetic_species": null, "bulk_modulus": null, "shear_modulus": null, "universal_anisotropy": null, "homogeneous_poisson": null, "e_total": null, "e_ionic": null, "e_electronic": null, "n": null, "e_ij_max": null, "weighted_surface_energy_EV_PER_ANG2": null, "weighted_surface_energy": null, "weighted_work_function": null, "surface_anisotropy": null, "shape_factor": null, "has_reconstructed": null, "possible_species": null, "has_props": null, "theoretical": null, "database_IDs": null, "fields_not_requested": ["builder_meta", "nsites", "elements", "nelements", "composition", "composition_reduced", "chemsys", "symmetry", "property_name", "deprecated", "deprecation_reasons", "last_updated", "origins", "warnings", "task_ids", "uncorrected_energy_per_atom", "equilibrium_reaction_energy_per_atom", "decomposes_to", "xas", "grain_boundaries", "cbm", "vbm", "is_gap_direct", "is_metal", "es_source_calc_id", "bandstructure", "dos", "dos_energy_up", "dos_energy_down", "is_magnetic", "ordering", "total_magnetization_normalized_vol", "total_magnetization_normalized_formula_units", "num_magnetic_sites", "num_unique_magnetic_sites", "types_of_magnetic_species", "bulk_modulus", "shear_modulus", "universal_anisotropy", "homogeneous_poisson", "e_total", "e_ionic", "e_electronic", "n", "e_ij_max", "weighted_surface_energy_EV_PER_ANG2", "weighted_surface_energy", "weighted_work_function", "surface_anisotropy", "shape_factor", "has_reconstructed", "possible_species", "has_props", "theoretical", "database_IDs"]}