{
  "builder_meta": null,
  "nsites": null,
  "elements": null,
  "nelements": null,
  "composition": null,
  "composition_reduced": null,
  "formula_pretty": "Na3Re",
  "formula_anonymous": "AB3",
  "chemsys": null,
  "volume": 207.64626044959394,
  "density": 4.081270012969274,
  "density_atomic": 25.955782556199242,
  "symmetry": null,
  "property_name": null,
  "material_id": "mp-984106",
  "deprecated": null,
  "deprecation_reasons": null,
  "last_updated": null,
  "origins": null,
  "warnings": null,
  "structure": {
    "@module": "pymatgen.core.structure",
    "@class": "Structure",
    "charge": 0,
    "lattice": {
      "matrix": [
        [3.309306, -5.731886, 0.0],
        [3.309306, 5.731886, 0.0],
        [0.0, 0.0, 5.473431]
      ],
      "pbc": [true, true, true],
      "a": 6.618611887596371,
      "b": 6.618611887596371,
      "c": 5.473431,
      "alpha": 90.0,
      "beta": 90.0,
      "gamma": 119.99999887641633,
      "volume": 207.64626044959394
    },
    "properties": {},
    "sites": [
      {
        "species": [{ "element": "Na", "occu": 1 }],
        "abc": [0.173947, 0.347894, 0.25],
        "properties": { "magmom": -0.016 },
        "label": "Na",
        "xyz": [1.726931552346, 0.997044374042, 1.36835775]
      },
      {
        "species": [{ "element": "Na", "occu": 1 }],
        "abc": [0.652106, 0.826052999999999, 0.25],
        "properties": { "magmom": -0.016 },
        "label": "Na",
        "xyz": [4.891680447653997, 0.997044374041995, 1.36835775]
      },
      {
        "species": [{ "element": "Na", "occu": 1 }],
        "abc": [0.173947, 0.826052999999999, 0.25],
        "properties": { "magmom": -0.016 },
        "label": "Na",
        "xyz": [3.3093059999999968, 3.737797251915995, 1.36835775]
      },
      {
        "species": [{ "element": "Na", "occu": 1 }],
        "abc": [0.826052999999999, 0.652106, 0.75],
        "properties": { "magmom": -0.016 },
        "label": "Na",
        "xyz": [4.891680447653997, -0.997044374041995, 4.10507325]
      },
      {
        "species": [{ "element": "Na", "occu": 1 }],
        "abc": [0.347894, 0.173947, 0.75],
        "properties": { "magmom": -0.016 },
        "label": "Na",
        "xyz": [1.726931552346, -0.997044374042, 4.10507325]
      },
      {
        "species": [{ "element": "Na", "occu": 1 }],
        "abc": [0.826052999999999, 0.173947, 0.75],
        "properties": { "magmom": -0.016 },
        "label": "Na",
        "xyz": [3.3093059999999968, -3.737797251915995, 4.10507325]
      },
      {
        "species": [{ "element": "Re", "occu": 1 }],
        "abc": [0.333333, 0.666667, 0.75],
        "properties": { "magmom": 2.852999999999999 },
        "label": "Re",
        "xyz": [3.309306, 1.9106324879240002, 4.10507325]
      },
      {
        "species": [{ "element": "Re", "occu": 1 }],
        "abc": [0.666667, 0.333333, 0.25],
        "properties": { "magmom": 2.852999999999999 },
        "label": "Re",
        "xyz": [3.309306, -1.9106324879240002, 1.36835775]
      }
    ]
  },
  "task_ids": null,
  "uncorrected_energy_per_atom": null,
  "energy_per_atom": -14.475810870538794,
  "formation_energy_per_atom": 1.299978233836206,
  "energy_above_hull": 1.299978233836206,
  "is_stable": false,
  "equilibrium_reaction_energy_per_atom": null,
  "decomposes_to": null,
  "xas": null,
  "grain_boundaries": null,
  "band_gap": 0.0,
  "cbm": null,
  "vbm": null,
  "efermi": 1.10161934,
  "is_gap_direct": null,
  "is_metal": null,
  "es_source_calc_id": null,
  "bandstructure": null,
  "dos": null,
  "dos_energy_up": null,
  "dos_energy_down": null,
  "is_magnetic": null,
  "ordering": null,
  "total_magnetization": 6.430759,
  "total_magnetization_normalized_vol": null,
  "total_magnetization_normalized_formula_units": null,
  "num_magnetic_sites": null,
  "num_unique_magnetic_sites": null,
  "types_of_magnetic_species": null,
  "bulk_modulus": null,
  "shear_modulus": null,
  "universal_anisotropy": null,
  "homogeneous_poisson": null,
  "e_total": null,
  "e_ionic": null,
  "e_electronic": null,
  "n": null,
  "e_ij_max": null,
  "weighted_surface_energy_EV_PER_ANG2": null,
  "weighted_surface_energy": null,
  "weighted_work_function": null,
  "surface_anisotropy": null,
  "shape_factor": null,
  "has_reconstructed": null,
  "possible_species": null,
  "has_props": null,
  "theoretical": null,
  "database_IDs": null,
  "fields_not_requested": [
    "builder_meta",
    "nsites",
    "elements",
    "nelements",
    "composition",
    "composition_reduced",
    "chemsys",
    "symmetry",
    "property_name",
    "deprecated",
    "deprecation_reasons",
    "last_updated",
    "origins",
    "warnings",
    "task_ids",
    "uncorrected_energy_per_atom",
    "equilibrium_reaction_energy_per_atom",
    "decomposes_to",
    "xas",
    "grain_boundaries",
    "cbm",
    "vbm",
    "is_gap_direct",
    "is_metal",
    "es_source_calc_id",
    "bandstructure",
    "dos",
    "dos_energy_up",
    "dos_energy_down",
    "is_magnetic",
    "ordering",
    "total_magnetization_normalized_vol",
    "total_magnetization_normalized_formula_units",
    "num_magnetic_sites",
    "num_unique_magnetic_sites",
    "types_of_magnetic_species",
    "bulk_modulus",
    "shear_modulus",
    "universal_anisotropy",
    "homogeneous_poisson",
    "e_total",
    "e_ionic",
    "e_electronic",
    "n",
    "e_ij_max",
    "weighted_surface_energy_EV_PER_ANG2",
    "weighted_surface_energy",
    "weighted_work_function",
    "surface_anisotropy",
    "shape_factor",
    "has_reconstructed",
    "possible_species",
    "has_props",
    "theoretical",
    "database_IDs"
  ]
}
