{"builder_meta": null, "nsites": null, "elements": null, "nelements": null, "composition": null, "composition_reduced": null, "formula_pretty": "Na3Ru", "formula_anonymous": "AB3", "chemsys": null, "volume": 193.82473762897672, "density": 2.9135281386675933, "density_atomic": 24.22809220362209, "symmetry": null, "property_name": null, "material_id": "mp-1186082", "deprecated": null, "deprecation_reasons": null, "last_updated": null, "origins": null, "warnings": null, "structure": {"@module": "pymatgen.core.structure", "@class": "Structure", "charge": 0, "lattice": {"matrix": [[6.477193, 0.0, 0.0], [-3.238597, 5.609414, 0.0], [0.0, 0.0, 5.334637]], "pbc": [true, true, true], "a": 6.477193, "b": 6.47719352434409, "c": 5.334637, "alpha": 90.0, "beta": 90.0, "gamma": 120.00000242922664, "volume": 193.82473762897672}, "properties": {}, "sites": [{"species": [{"element": "Na", "occu": 1}], "abc": [0.177848999999999, 0.355699, 0.25], "properties": {"magmom": -0.014}, "label": "Na", "xyz": [-3.416446006543339e-06, 1.995262950386, 1.33365925]}, {"species": [{"element": "Na", "occu": 1}], "abc": [0.6443, 0.822152, 0.25], "properties": {"magmom": -0.014}, "label": "Na", "xyz": [1.5106364491560003, 4.611790938928, 1.33365925]}, {"species": [{"element": "Na", "occu": 1}], "abc": [0.17785, 0.822152, 0.25], "properties": {"magmom": -0.014}, "label": "Na", "xyz": [-1.5106502256939998, 4.611790938928, 1.33365925]}, {"species": [{"element": "Na", "occu": 1}], "abc": [0.822151, 0.644301, 0.75], "properties": {"magmom": -0.014}, "label": "Na", "xyz": [3.2385994164459992, 3.614151049614, 4.00097775]}, {"species": [{"element": "Na", "occu": 1}], "abc": [0.355699, 0.17785, 0.75], "properties": {"magmom": -0.014}, "label": "Na", "xyz": [1.727946596457, 0.9976342799000001, 4.00097775]}, {"species": [{"element": "Na", "occu": 1}], "abc": [0.822151, 0.17785, 0.75], "properties": {"magmom": -0.014}, "label": "Na", "xyz": [4.749246225692999, 0.9976342799000001, 4.00097775]}, {"species": [{"element": "Ru", "occu": 1}], "abc": [0.333333999999999, 0.666667999999999, 0.75], "properties": {"magmom": 1.617999999999999}, "label": "Ru", "xyz": [-3.3333400306645444e-07, 3.739616812551995, 4.00097775]}, {"species": [{"element": "Ru", "occu": 1}], "abc": [0.666666, 0.333333999999999, 0.25], "properties": {"magmom": 1.619}, "label": "Ru", "xyz": [3.2385898561400026, 1.8698084062759945, 1.33365925]}]}, "task_ids": null, "uncorrected_energy_per_atom": null, "energy_per_atom": -8.195408773663793, "formation_energy_per_atom": 0.8338604775862061, "energy_above_hull": 0.8338604775862061, "is_stable": false, "equilibrium_reaction_energy_per_atom": null, "decomposes_to": null, "xas": null, "grain_boundaries": null, "band_gap": 0.0, "cbm": null, "vbm": null, "efermi": 1.6779254300000002, "is_gap_direct": null, "is_metal": null, "es_source_calc_id": null, "bandstructure": null, "dos": null, "dos_energy_up": null, "dos_energy_down": null, "is_magnetic": null, "ordering": null, "total_magnetization": 3.152635, "total_magnetization_normalized_vol": null, "total_magnetization_normalized_formula_units": null, "num_magnetic_sites": null, "num_unique_magnetic_sites": null, "types_of_magnetic_species": null, "bulk_modulus": null, "shear_modulus": null, "universal_anisotropy": null, "homogeneous_poisson": null, "e_total": null, "e_ionic": null, "e_electronic": null, "n": null, "e_ij_max": null, "weighted_surface_energy_EV_PER_ANG2": null, "weighted_surface_energy": null, "weighted_work_function": null, "surface_anisotropy": null, "shape_factor": null, "has_reconstructed": null, "possible_species": null, "has_props": null, "theoretical": null, "database_IDs": null, "fields_not_requested": ["builder_meta", "nsites", "elements", "nelements", "composition", "composition_reduced", "chemsys", "symmetry", "property_name", "deprecated", "deprecation_reasons", "last_updated", "origins", "warnings", "task_ids", "uncorrected_energy_per_atom", "equilibrium_reaction_energy_per_atom", "decomposes_to", "xas", "grain_boundaries", "cbm", "vbm", "is_gap_direct", "is_metal", "es_source_calc_id", "bandstructure", "dos", "dos_energy_up", "dos_energy_down", "is_magnetic", "ordering", "total_magnetization_normalized_vol", "total_magnetization_normalized_formula_units", "num_magnetic_sites", "num_unique_magnetic_sites", "types_of_magnetic_species", "bulk_modulus", "shear_modulus", "universal_anisotropy", "homogeneous_poisson", "e_total", "e_ionic", "e_electronic", "n", "e_ij_max", "weighted_surface_energy_EV_PER_ANG2", "weighted_surface_energy", "weighted_work_function", "surface_anisotropy", "shape_factor", "has_reconstructed", "possible_species", "has_props", "theoretical", "database_IDs"]}