{
  "builder_meta": null,
  "nsites": null,
  "elements": null,
  "nelements": null,
  "composition": null,
  "composition_reduced": null,
  "formula_pretty": "Na3Tl4",
  "formula_anonymous": "A3B4",
  "chemsys": null,
  "volume": 217.65726402348668,
  "density": 6.763257148855579,
  "density_atomic": 31.093894860498096,
  "symmetry": null,
  "property_name": null,
  "material_id": "mp-1221203",
  "deprecated": null,
  "deprecation_reasons": null,
  "last_updated": null,
  "origins": null,
  "warnings": null,
  "structure": {
    "@module": "pymatgen.core.structure",
    "@class": "Structure",
    "charge": 0,
    "lattice": {
      "matrix": [
        [-3.802389, -3.802389, 0.0],
        [0.0, 3.802389, -3.802389],
        [3.750631, -3.750631, -7.553021]
      ],
      "pbc": [true, true, true],
      "a": 5.3773900932182706,
      "b": 5.3773900932182706,
      "c": 9.22944158780817,
      "alpha": 73.06316430594498,
      "beta": 90.0,
      "gamma": 119.99999999999999,
      "volume": 217.65726402348668
    },
    "properties": {},
    "sites": [
      {
        "species": [{ "element": "Na", "occu": 1 }],
        "abc": [0.374946, 0.749892, 0.875162],
        "properties": { "magmom": 0.0 },
        "label": "Na",
        "xyz": [1.856719181228, -1.856719181228, -9.46149805639]
      },
      {
        "species": [{ "element": "Na", "occu": 1 }],
        "abc": [0.9947100000000001, 0.9894200000000001, 0.015870000000000002],
        "properties": { "magmom": -0.0 },
        "label": "Na",
        "xyz": [-3.72275184822, -0.07963715178000033, -3.88202616765]
      },
      {
        "species": [{ "element": "Na", "occu": 1 }],
        "abc": [0.505456, 0.010912999999999002, 0.483631],
        "properties": { "magmom": 0.0 },
        "label": "Na",
        "xyz": [-0.10801891322300028, -3.6943662843880034, -3.694370570407996]
      },
      {
        "species": [{ "element": "Tl", "occu": 1 }],
        "abc": [0.628498, 0.256995, 0.114507],
        "properties": { "magmom": 0.0 },
        "label": "Tl",
        "xyz": [-1.960320377805, -1.842072424584, -1.8420687367019997]
      },
      {
        "species": [{ "element": "Tl", "occu": 1 }],
        "abc": [0.124799, 0.249599, 0.625602],
        "properties": { "magmom": 0.0 },
        "label": "Tl",
        "xyz": [1.8718679100509998, -1.871864107662, -5.674257535653]
      },
      {
        "species": [{ "element": "Tl", "occu": 1 }],
        "abc": [0.24622000000000002, 0.492440999999999, 0.261339],
        "properties": { "magmom": 0.0 },
        "label": "Tl",
        "xyz": [0.043961935328999946, -0.043958132940003836, -3.846351196667996]
      },
      {
        "species": [{ "element": "Tl", "occu": 1 }],
        "abc": [0.7503700000000001, 0.5007400000000001, 0.7488900000000001],
        "properties": { "magmom": 0.0 },
        "label": "Tl",
        "xyz": [-0.04438858434000048, -3.75800041566, -7.56039016455]
      }
    ]
  },
  "task_ids": null,
  "uncorrected_energy_per_atom": null,
  "energy_per_atom": -32.037349008928565,
  "formation_energy_per_atom": -0.121669004642853,
  "energy_above_hull": 0.024782589642860002,
  "is_stable": false,
  "equilibrium_reaction_energy_per_atom": null,
  "decomposes_to": null,
  "xas": null,
  "grain_boundaries": null,
  "band_gap": 0.0,
  "cbm": null,
  "vbm": null,
  "efermi": 3.59147162,
  "is_gap_direct": null,
  "is_metal": null,
  "es_source_calc_id": null,
  "bandstructure": null,
  "dos": null,
  "dos_energy_up": null,
  "dos_energy_down": null,
  "is_magnetic": null,
  "ordering": null,
  "total_magnetization": 0.0011271,
  "total_magnetization_normalized_vol": null,
  "total_magnetization_normalized_formula_units": null,
  "num_magnetic_sites": null,
  "num_unique_magnetic_sites": null,
  "types_of_magnetic_species": null,
  "bulk_modulus": null,
  "shear_modulus": null,
  "universal_anisotropy": null,
  "homogeneous_poisson": null,
  "e_total": null,
  "e_ionic": null,
  "e_electronic": null,
  "n": null,
  "e_ij_max": null,
  "weighted_surface_energy_EV_PER_ANG2": null,
  "weighted_surface_energy": null,
  "weighted_work_function": null,
  "surface_anisotropy": null,
  "shape_factor": null,
  "has_reconstructed": null,
  "possible_species": null,
  "has_props": null,
  "theoretical": null,
  "database_IDs": null,
  "fields_not_requested": [
    "builder_meta",
    "nsites",
    "elements",
    "nelements",
    "composition",
    "composition_reduced",
    "chemsys",
    "symmetry",
    "property_name",
    "deprecated",
    "deprecation_reasons",
    "last_updated",
    "origins",
    "warnings",
    "task_ids",
    "uncorrected_energy_per_atom",
    "equilibrium_reaction_energy_per_atom",
    "decomposes_to",
    "xas",
    "grain_boundaries",
    "cbm",
    "vbm",
    "is_gap_direct",
    "is_metal",
    "es_source_calc_id",
    "bandstructure",
    "dos",
    "dos_energy_up",
    "dos_energy_down",
    "is_magnetic",
    "ordering",
    "total_magnetization_normalized_vol",
    "total_magnetization_normalized_formula_units",
    "num_magnetic_sites",
    "num_unique_magnetic_sites",
    "types_of_magnetic_species",
    "bulk_modulus",
    "shear_modulus",
    "universal_anisotropy",
    "homogeneous_poisson",
    "e_total",
    "e_ionic",
    "e_electronic",
    "n",
    "e_ij_max",
    "weighted_surface_energy_EV_PER_ANG2",
    "weighted_surface_energy",
    "weighted_work_function",
    "surface_anisotropy",
    "shape_factor",
    "has_reconstructed",
    "possible_species",
    "has_props",
    "theoretical",
    "database_IDs"
  ]
}
