{"builder_meta": null, "nsites": null, "elements": null, "nelements": null, "composition": null, "composition_reduced": null, "formula_pretty": "Na3Ti", "formula_anonymous": "AB3", "chemsys": null, "volume": 246.274789852656, "density": 1.575567305786345, "density_atomic": 30.784348731582, "symmetry": null, "property_name": null, "material_id": "mp-1186095", "deprecated": null, "deprecation_reasons": null, "last_updated": null, "origins": null, "warnings": null, "structure": {"@module": "pymatgen.core.structure", "@class": "Structure", "charge": 0, "lattice": {"matrix": [[3.509837, -6.079216, 0.0], [3.509837, 6.079216, 0.0], [0.0, 0.0, 5.771058]], "pbc": [true, true, true], "a": 7.01967399109282, "b": 7.01967399109282, "c": 5.771058, "alpha": 90.0, "beta": 90.0, "gamma": 119.99999991605102, "volume": 246.274789852656}, "properties": {}, "sites": [{"species": [{"element": "Na", "occu": 1}], "abc": [0.168733, 0.337466, 0.25], "properties": {"magmom": 0.015}, "label": "Na", "xyz": [1.776675979563, 1.0257643533279999, 1.4427645]}, {"species": [{"element": "Na", "occu": 1}], "abc": [0.662534, 0.831267, 0.25], "properties": {"magmom": 0.014}, "label": "Na", "xyz": [5.242998020437, 1.0257643533279994, 1.4427645]}, {"species": [{"element": "Na", "occu": 1}], "abc": [0.168733, 0.831267, 0.25], "properties": {"magmom": 0.014}, "label": "Na", "xyz": [3.509837, 4.027687293344, 1.4427645]}, {"species": [{"element": "Na", "occu": 1}], "abc": [0.831267, 0.662534, 0.75], "properties": {"magmom": 0.014}, "label": "Na", "xyz": [5.242998020437, -1.0257643533279994, 4.3282935]}, {"species": [{"element": "Na", "occu": 1}], "abc": [0.337466, 0.168733, 0.75], "properties": {"magmom": 0.015}, "label": "Na", "xyz": [1.776675979563, -1.0257643533279999, 4.3282935]}, {"species": [{"element": "Na", "occu": 1}], "abc": [0.831267, 0.168733, 0.75], "properties": {"magmom": 0.014}, "label": "Na", "xyz": [3.509837, -4.027687293344, 4.3282935]}, {"species": [{"element": "Ti", "occu": 1}], "abc": [0.333333, 0.666667, 0.75], "properties": {"magmom": 2.096}, "label": "Ti", "xyz": [3.509837, 2.0264093861440005, 4.3282935]}, {"species": [{"element": "Ti", "occu": 1}], "abc": [0.666667, 0.333333, 0.25], "properties": {"magmom": 1.975}, "label": "Ti", "xyz": [3.509837, -2.0264093861440005, 1.4427645]}]}, "task_ids": null, "uncorrected_energy_per_atom": null, "energy_per_atom": -5.19096148283046, "formation_energy_per_atom": 0.716613198002873, "energy_above_hull": 0.716613198002873, "is_stable": false, "equilibrium_reaction_energy_per_atom": null, "decomposes_to": null, "xas": null, "grain_boundaries": null, "band_gap": 0.0, "cbm": null, "vbm": null, "efermi": 1.12303291, "is_gap_direct": null, "is_metal": null, "es_source_calc_id": null, "bandstructure": null, "dos": null, "dos_energy_up": null, "dos_energy_down": null, "is_magnetic": null, "ordering": null, "total_magnetization": 6.2239016, "total_magnetization_normalized_vol": null, "total_magnetization_normalized_formula_units": null, "num_magnetic_sites": null, "num_unique_magnetic_sites": null, "types_of_magnetic_species": null, "bulk_modulus": null, "shear_modulus": null, "universal_anisotropy": null, "homogeneous_poisson": null, "e_total": null, "e_ionic": null, "e_electronic": null, "n": null, "e_ij_max": null, "weighted_surface_energy_EV_PER_ANG2": null, "weighted_surface_energy": null, "weighted_work_function": null, "surface_anisotropy": null, "shape_factor": null, "has_reconstructed": null, "possible_species": null, "has_props": null, "theoretical": null, "database_IDs": null, "fields_not_requested": ["builder_meta", "nsites", "elements", "nelements", "composition", "composition_reduced", "chemsys", "symmetry", "property_name", "deprecated", "deprecation_reasons", "last_updated", "origins", "warnings", "task_ids", "uncorrected_energy_per_atom", "equilibrium_reaction_energy_per_atom", "decomposes_to", "xas", "grain_boundaries", "cbm", "vbm", "is_gap_direct", "is_metal", "es_source_calc_id", "bandstructure", "dos", "dos_energy_up", "dos_energy_down", "is_magnetic", "ordering", "total_magnetization_normalized_vol", "total_magnetization_normalized_formula_units", "num_magnetic_sites", "num_unique_magnetic_sites", "types_of_magnetic_species", "bulk_modulus", "shear_modulus", "universal_anisotropy", "homogeneous_poisson", "e_total", "e_ionic", "e_electronic", "n", "e_ij_max", "weighted_surface_energy_EV_PER_ANG2", "weighted_surface_energy", "weighted_work_function", "surface_anisotropy", "shape_factor", "has_reconstructed", "possible_species", "has_props", "theoretical", "database_IDs"]}