{"builder_meta": null, "nsites": null, "elements": null, "nelements": null, "composition": null, "composition_reduced": null, "formula_pretty": "Na3Tc", "formula_anonymous": "AB3", "chemsys": null, "volume": 212.02554670856418, "density": 2.615336339375962, "density_atomic": 26.503193338570522, "symmetry": null, "property_name": null, "material_id": "mp-1186008", "deprecated": null, "deprecation_reasons": null, "last_updated": null, "origins": null, "warnings": null, "structure": {"@module": "pymatgen.core.structure", "@class": "Structure", "charge": 0, "lattice": {"matrix": [[3.341003, -5.786786, 0.0], [3.341003, 5.786786, 0.0], [0.0, 0.0, 5.483324]], "pbc": [true, true, true], "a": 6.682005182264153, "b": 6.682005182264153, "c": 5.483324, "alpha": 90.0, "beta": 90.0, "gamma": 119.99999190348291, "volume": 212.02554670856418}, "properties": {}, "sites": [{"species": [{"element": "Na", "occu": 1}], "abc": [0.175627, 0.351255, 0.25], "properties": {"magmom": -0.019}, "label": "Na", "xyz": [1.7603143426460002, 1.0163216516079998, 1.370831]}, {"species": [{"element": "Na", "occu": 1}], "abc": [0.648745, 0.824372999999999, 0.25], "properties": {"magmom": -0.019}, "label": "Na", "xyz": [4.921691657353997, 1.0163216516079943, 1.370831]}, {"species": [{"element": "Na", "occu": 1}], "abc": [0.175627, 0.824372999999999, 0.25], "properties": {"magmom": -0.019}, "label": "Na", "xyz": [3.341002999999997, 3.7541542703559942, 1.370831]}, {"species": [{"element": "Na", "occu": 1}], "abc": [0.824372999999999, 0.648745, 0.75], "properties": {"magmom": -0.019}, "label": "Na", "xyz": [4.921691657353997, -1.0163216516079943, 4.112493]}, {"species": [{"element": "Na", "occu": 1}], "abc": [0.351255, 0.175627, 0.75], "properties": {"magmom": -0.019}, "label": "Na", "xyz": [1.7603143426460002, -1.0163216516079998, 4.112493]}, {"species": [{"element": "Na", "occu": 1}], "abc": [0.824372999999999, 0.175627, 0.75], "properties": {"magmom": -0.019}, "label": "Na", "xyz": [3.341002999999997, -3.7541542703559942, 4.112493]}, {"species": [{"element": "Tc", "occu": 1}], "abc": [0.333333, 0.666667, 0.75], "properties": {"magmom": 2.860999999999999}, "label": "Tc", "xyz": [3.3410029999999997, 1.928932524524, 4.112493]}, {"species": [{"element": "Tc", "occu": 1}], "abc": [0.666667, 0.333333, 0.25], "properties": {"magmom": 2.860999999999999}, "label": "Tc", "xyz": [3.3410029999999997, -1.928932524524, 1.370831]}]}, "task_ids": null, "uncorrected_energy_per_atom": null, "energy_per_atom": -8.173973849913793, "formation_energy_per_atom": 0.9903270900862071, "energy_above_hull": 0.9903270900862071, "is_stable": false, "equilibrium_reaction_energy_per_atom": null, "decomposes_to": null, "xas": null, "grain_boundaries": null, "band_gap": 0.0, "cbm": null, "vbm": null, "efermi": 1.512299179999999, "is_gap_direct": null, "is_metal": null, "es_source_calc_id": null, "bandstructure": null, "dos": null, "dos_energy_up": null, "dos_energy_down": null, "is_magnetic": null, "ordering": null, "total_magnetization": 6.1027804, "total_magnetization_normalized_vol": null, "total_magnetization_normalized_formula_units": null, "num_magnetic_sites": null, "num_unique_magnetic_sites": null, "types_of_magnetic_species": null, "bulk_modulus": null, "shear_modulus": null, "universal_anisotropy": null, "homogeneous_poisson": null, "e_total": null, "e_ionic": null, "e_electronic": null, "n": null, "e_ij_max": null, "weighted_surface_energy_EV_PER_ANG2": null, "weighted_surface_energy": null, "weighted_work_function": null, "surface_anisotropy": null, "shape_factor": null, "has_reconstructed": null, "possible_species": null, "has_props": null, "theoretical": null, "database_IDs": null, "fields_not_requested": ["builder_meta", "nsites", "elements", "nelements", "composition", "composition_reduced", "chemsys", "symmetry", "property_name", "deprecated", "deprecation_reasons", "last_updated", "origins", "warnings", "task_ids", "uncorrected_energy_per_atom", "equilibrium_reaction_energy_per_atom", "decomposes_to", "xas", "grain_boundaries", "cbm", "vbm", "is_gap_direct", "is_metal", "es_source_calc_id", "bandstructure", "dos", "dos_energy_up", "dos_energy_down", "is_magnetic", "ordering", "total_magnetization_normalized_vol", "total_magnetization_normalized_formula_units", "num_magnetic_sites", "num_unique_magnetic_sites", "types_of_magnetic_species", "bulk_modulus", "shear_modulus", "universal_anisotropy", "homogeneous_poisson", "e_total", "e_ionic", "e_electronic", "n", "e_ij_max", "weighted_surface_energy_EV_PER_ANG2", "weighted_surface_energy", "weighted_work_function", "surface_anisotropy", "shape_factor", "has_reconstructed", "possible_species", "has_props", "theoretical", "database_IDs"]}