{
  "builder_meta": null,
  "nsites": null,
  "elements": null,
  "nelements": null,
  "composition": null,
  "composition_reduced": null,
  "formula_pretty": "Na3Zn",
  "formula_anonymous": "AB3",
  "chemsys": null,
  "volume": 234.1180262554694,
  "density": 1.906221690323242,
  "density_atomic": 29.264753281933675,
  "symmetry": null,
  "property_name": null,
  "material_id": "mp-1186099",
  "deprecated": null,
  "deprecation_reasons": null,
  "last_updated": null,
  "origins": null,
  "warnings": null,
  "structure": {
    "@module": "pymatgen.core.structure",
    "@class": "Structure",
    "charge": 0,
    "lattice": {
      "matrix": [
        [3.522897, -6.101836, 0.0],
        [3.522897, 6.101836, 0.0],
        [0.0, 0.0, 5.445583]
      ],
      "pbc": [true, true, true],
      "a": 7.0457934857264295,
      "b": 7.0457934857264295,
      "c": 5.445583,
      "alpha": 90.0,
      "beta": 90.0,
      "gamma": 119.99999517101004,
      "volume": 234.1180262554694
    },
    "properties": {},
    "sites": [
      {
        "species": [{ "element": "Na", "occu": 1 }],
        "abc": [0.173108999999999, 0.346217999999999, 0.25],
        "properties": { "magmom": 0.001 },
        "label": "Na",
        "xyz": [1.829535530318993, 1.0562827281240001, 1.36139575]
      },
      {
        "species": [{ "element": "Na", "occu": 1 }],
        "abc": [0.653782, 0.826890999999999, 0.25],
        "properties": { "magmom": 0.0 },
        "label": "Na",
        "xyz": [5.216258469680996, 1.056282728123994, 1.36139575]
      },
      {
        "species": [{ "element": "Na", "occu": 1 }],
        "abc": [0.173108999999999, 0.826890999999999, 0.25],
        "properties": { "magmom": 0.0 },
        "label": "Na",
        "xyz": [3.5228969999999933, 3.9892705437519997, 1.36139575]
      },
      {
        "species": [{ "element": "Na", "occu": 1 }],
        "abc": [0.826890999999999, 0.653782, 0.75],
        "properties": { "magmom": 0.001 },
        "label": "Na",
        "xyz": [5.216258469680996, -1.056282728123994, 4.08418725]
      },
      {
        "species": [{ "element": "Na", "occu": 1 }],
        "abc": [0.346217999999999, 0.173108999999999, 0.75],
        "properties": { "magmom": 0.0 },
        "label": "Na",
        "xyz": [1.829535530318993, -1.0562827281240001, 4.08418725]
      },
      {
        "species": [{ "element": "Na", "occu": 1 }],
        "abc": [0.826890999999999, 0.173108999999999, 0.75],
        "properties": { "magmom": 0.0 },
        "label": "Na",
        "xyz": [3.5228969999999933, -3.9892705437519997, 4.08418725]
      },
      {
        "species": [{ "element": "Zn", "occu": 1 }],
        "abc": [0.333333, 0.666667, 0.75],
        "properties": { "magmom": -0.0 },
        "label": "Zn",
        "xyz": [3.5228969999999995, 2.033949401224, 4.08418725]
      },
      {
        "species": [{ "element": "Zn", "occu": 1 }],
        "abc": [0.666667, 0.333333, 0.25],
        "properties": { "magmom": -0.0 },
        "label": "Zn",
        "xyz": [3.5228969999999995, -2.033949401224, 1.36139575]
      }
    ]
  },
  "task_ids": null,
  "uncorrected_energy_per_atom": null,
  "energy_per_atom": -4.841075610653183,
  "formation_energy_per_atom": 0.059710468096817,
  "energy_above_hull": 0.081515554058355,
  "is_stable": false,
  "equilibrium_reaction_energy_per_atom": null,
  "decomposes_to": null,
  "xas": null,
  "grain_boundaries": null,
  "band_gap": 0.0,
  "cbm": null,
  "vbm": null,
  "efermi": 0.8546361,
  "is_gap_direct": null,
  "is_metal": null,
  "es_source_calc_id": null,
  "bandstructure": null,
  "dos": null,
  "dos_energy_up": null,
  "dos_energy_down": null,
  "is_magnetic": null,
  "ordering": null,
  "total_magnetization": 0.0047609,
  "total_magnetization_normalized_vol": null,
  "total_magnetization_normalized_formula_units": null,
  "num_magnetic_sites": null,
  "num_unique_magnetic_sites": null,
  "types_of_magnetic_species": null,
  "bulk_modulus": null,
  "shear_modulus": null,
  "universal_anisotropy": null,
  "homogeneous_poisson": null,
  "e_total": null,
  "e_ionic": null,
  "e_electronic": null,
  "n": null,
  "e_ij_max": null,
  "weighted_surface_energy_EV_PER_ANG2": null,
  "weighted_surface_energy": null,
  "weighted_work_function": null,
  "surface_anisotropy": null,
  "shape_factor": null,
  "has_reconstructed": null,
  "possible_species": null,
  "has_props": null,
  "theoretical": null,
  "database_IDs": null,
  "fields_not_requested": [
    "builder_meta",
    "nsites",
    "elements",
    "nelements",
    "composition",
    "composition_reduced",
    "chemsys",
    "symmetry",
    "property_name",
    "deprecated",
    "deprecation_reasons",
    "last_updated",
    "origins",
    "warnings",
    "task_ids",
    "uncorrected_energy_per_atom",
    "equilibrium_reaction_energy_per_atom",
    "decomposes_to",
    "xas",
    "grain_boundaries",
    "cbm",
    "vbm",
    "is_gap_direct",
    "is_metal",
    "es_source_calc_id",
    "bandstructure",
    "dos",
    "dos_energy_up",
    "dos_energy_down",
    "is_magnetic",
    "ordering",
    "total_magnetization_normalized_vol",
    "total_magnetization_normalized_formula_units",
    "num_magnetic_sites",
    "num_unique_magnetic_sites",
    "types_of_magnetic_species",
    "bulk_modulus",
    "shear_modulus",
    "universal_anisotropy",
    "homogeneous_poisson",
    "e_total",
    "e_ionic",
    "e_electronic",
    "n",
    "e_ij_max",
    "weighted_surface_energy_EV_PER_ANG2",
    "weighted_surface_energy",
    "weighted_work_function",
    "surface_anisotropy",
    "shape_factor",
    "has_reconstructed",
    "possible_species",
    "has_props",
    "theoretical",
    "database_IDs"
  ]
}
