{
  "builder_meta": null,
  "nsites": null,
  "elements": null,
  "nelements": null,
  "composition": null,
  "composition_reduced": null,
  "formula_pretty": "Na4Au",
  "formula_anonymous": "AB4",
  "chemsys": null,
  "volume": 377.8372881390651,
  "density": 2.53957106821243,
  "density_atomic": 37.78372881390651,
  "symmetry": null,
  "property_name": null,
  "material_id": "mp-1210247",
  "deprecated": null,
  "deprecation_reasons": null,
  "last_updated": null,
  "origins": null,
  "warnings": null,
  "structure": {
    "@module": "pymatgen.core.structure",
    "@class": "Structure",
    "charge": 0,
    "lattice": {
      "matrix": [
        [-5.73797, -5.73797, 0.0],
        [-5.73797, 0.0, -5.73797],
        [0.0, -5.73797, -5.73797]
      ],
      "pbc": [true, true, true],
      "a": 8.114714994489947,
      "b": 8.114714994489947,
      "c": 8.114714994489947,
      "alpha": 59.99999999999999,
      "beta": 59.99999999999999,
      "gamma": 59.99999999999999,
      "volume": 377.8372881390651
    },
    "properties": {},
    "sites": [
      {
        "species": [{ "element": "Na", "occu": 1 }],
        "abc": [0.60931, 0.60931, 0.60931],
        "properties": { "magmom": 0.0 },
        "label": "Na",
        "xyz": [-6.9924050014, -6.9924050014, -6.9924050014]
      },
      {
        "species": [{ "element": "Na", "occu": 1 }],
        "abc": [0.172071, 0.60931, 0.60931],
        "properties": { "magmom": 0.0 },
        "label": "Na",
        "xyz": [-4.48354073657, -4.48354073657, -6.9924050014]
      },
      {
        "species": [{ "element": "Na", "occu": 1 }],
        "abc": [0.60931, 0.172071, 0.60931],
        "properties": { "magmom": -0.0 },
        "label": "Na",
        "xyz": [-4.48354073657, -6.9924050014, -4.48354073657]
      },
      {
        "species": [{ "element": "Na", "occu": 1 }],
        "abc": [0.577929, 0.14069, 0.14069],
        "properties": { "magmom": 0.0 },
        "label": "Na",
        "xyz": [-4.12341426343, -4.12341426343, -1.6145499986]
      },
      {
        "species": [{ "element": "Na", "occu": 1 }],
        "abc": [0.14069, 0.14069, 0.14069],
        "properties": { "magmom": 0.0 },
        "label": "Na",
        "xyz": [-1.6145499986, -1.6145499986, -1.6145499986]
      },
      {
        "species": [{ "element": "Na", "occu": 1 }],
        "abc": [0.60931, 0.60931, 0.172071],
        "properties": { "magmom": 0.0 },
        "label": "Na",
        "xyz": [-6.9924050014, -4.48354073657, -4.48354073657]
      },
      {
        "species": [{ "element": "Na", "occu": 1 }],
        "abc": [0.14069, 0.577929, 0.14069],
        "properties": { "magmom": -0.0 },
        "label": "Na",
        "xyz": [-4.12341426343, -1.6145499986, -4.12341426343]
      },
      {
        "species": [{ "element": "Na", "occu": 1 }],
        "abc": [0.14069, 0.14069, 0.577929],
        "properties": { "magmom": 0.0 },
        "label": "Na",
        "xyz": [-1.6145499986, -4.12341426343, -4.12341426343]
      },
      {
        "species": [{ "element": "Au", "occu": 1 }],
        "abc": [0.0, 0.0, 0.0],
        "properties": { "magmom": 0.0 },
        "label": "Au",
        "xyz": [0.0, 0.0, 0.0]
      },
      {
        "species": [{ "element": "Au", "occu": 1 }],
        "abc": [0.75, 0.75, 0.75],
        "properties": { "magmom": 0.0 },
        "label": "Au",
        "xyz": [-8.606955, -8.606955, -8.606955]
      }
    ]
  },
  "task_ids": null,
  "uncorrected_energy_per_atom": null,
  "energy_per_atom": -12.94051402362069,
  "formation_energy_per_atom": 0.027822462379310003,
  "energy_above_hull": 0.20621348837931203,
  "is_stable": false,
  "equilibrium_reaction_energy_per_atom": null,
  "decomposes_to": null,
  "xas": null,
  "grain_boundaries": null,
  "band_gap": 0.0,
  "cbm": null,
  "vbm": null,
  "efermi": 0.32940568000000003,
  "is_gap_direct": null,
  "is_metal": null,
  "es_source_calc_id": null,
  "bandstructure": null,
  "dos": null,
  "dos_energy_up": null,
  "dos_energy_down": null,
  "is_magnetic": null,
  "ordering": null,
  "total_magnetization": 0.0008964999999990001,
  "total_magnetization_normalized_vol": null,
  "total_magnetization_normalized_formula_units": null,
  "num_magnetic_sites": null,
  "num_unique_magnetic_sites": null,
  "types_of_magnetic_species": null,
  "bulk_modulus": null,
  "shear_modulus": null,
  "universal_anisotropy": null,
  "homogeneous_poisson": null,
  "e_total": null,
  "e_ionic": null,
  "e_electronic": null,
  "n": null,
  "e_ij_max": null,
  "weighted_surface_energy_EV_PER_ANG2": null,
  "weighted_surface_energy": null,
  "weighted_work_function": null,
  "surface_anisotropy": null,
  "shape_factor": null,
  "has_reconstructed": null,
  "possible_species": null,
  "has_props": null,
  "theoretical": null,
  "database_IDs": null,
  "fields_not_requested": [
    "builder_meta",
    "nsites",
    "elements",
    "nelements",
    "composition",
    "composition_reduced",
    "chemsys",
    "symmetry",
    "property_name",
    "deprecated",
    "deprecation_reasons",
    "last_updated",
    "origins",
    "warnings",
    "task_ids",
    "uncorrected_energy_per_atom",
    "equilibrium_reaction_energy_per_atom",
    "decomposes_to",
    "xas",
    "grain_boundaries",
    "cbm",
    "vbm",
    "is_gap_direct",
    "is_metal",
    "es_source_calc_id",
    "bandstructure",
    "dos",
    "dos_energy_up",
    "dos_energy_down",
    "is_magnetic",
    "ordering",
    "total_magnetization_normalized_vol",
    "total_magnetization_normalized_formula_units",
    "num_magnetic_sites",
    "num_unique_magnetic_sites",
    "types_of_magnetic_species",
    "bulk_modulus",
    "shear_modulus",
    "universal_anisotropy",
    "homogeneous_poisson",
    "e_total",
    "e_ionic",
    "e_electronic",
    "n",
    "e_ij_max",
    "weighted_surface_energy_EV_PER_ANG2",
    "weighted_surface_energy",
    "weighted_work_function",
    "surface_anisotropy",
    "shape_factor",
    "has_reconstructed",
    "possible_species",
    "has_props",
    "theoretical",
    "database_IDs"
  ]
}
