{
  "builder_meta": null,
  "nsites": null,
  "elements": null,
  "nelements": null,
  "composition": null,
  "composition_reduced": null,
  "formula_pretty": "Na5As4",
  "formula_anonymous": "A4B5",
  "chemsys": null,
  "volume": 214.2522266363484,
  "density": 3.213586322279594,
  "density_atomic": 23.805802959594267,
  "symmetry": null,
  "property_name": null,
  "material_id": "mp-1080834",
  "deprecated": null,
  "deprecation_reasons": null,
  "last_updated": null,
  "origins": null,
  "warnings": null,
  "structure": {
    "@module": "pymatgen.core.structure",
    "@class": "Structure",
    "charge": 0,
    "lattice": {
      "matrix": [
        [2.29425049, 5.19156744, 0.02632493],
        [-2.29425049, 5.19156744, 0.02632493],
        [0.0, 3.27453135, 9.01066906]
      ],
      "pbc": [true, true, true],
      "a": 5.675971352717779,
      "b": 5.675971352717779,
      "c": 9.58721609597771,
      "alpha": 71.53279127103593,
      "beta": 71.53279127103593,
      "gamma": 47.68251425043243,
      "volume": 214.25222663634838
    },
    "properties": {},
    "sites": [
      {
        "species": [{ "element": "Na", "occu": 1 }],
        "abc": [0.09960343, 0.09960343, 0.61364244],
        "properties": { "magmom": 0.0 },
        "label": "Na",
        "xyz": [0.0, 3.0435872556711328, 5.534573054655927]
      },
      {
        "species": [{ "element": "Na", "occu": 1 }],
        "abc": [0.9003965700000001, 0.9003965700000001, 0.38635756],
        "properties": { "magmom": 0.0 },
        "label": "Na",
        "xyz": [0.0, 10.61407897432887, 3.5287458653440735]
      },
      {
        "species": [{ "element": "Na", "occu": 1 }],
        "abc": [0.75494209, 0.75494209, 0.83515978],
        "properties": { "magmom": -0.0 },
        "label": "Na",
        "xyz": [0.0, 10.573422428928202, 7.565095985149014]
      },
      {
        "species": [{ "element": "Na", "occu": 1 }],
        "abc": [0.24505791000000002, 0.24505791000000002, 0.16484022],
        "properties": { "magmom": -0.0 },
        "label": "Na",
        "xyz": [0.0, 3.084243801071798, 1.4982229348509857]
      },
      {
        "species": [{ "element": "Na", "occu": 1 }],
        "abc": [-0.0, -0.0, 0.0],
        "properties": { "magmom": -0.0 },
        "label": "Na",
        "xyz": [0.0, 0.0, 0.0]
      },
      {
        "species": [{ "element": "As", "occu": 1 }],
        "abc": [0.45579341, 0.45579341, 0.82805549],
        "properties": { "magmom": 0.0 },
        "label": "As",
        "xyz": [0.0, 7.444058114989753, 7.485331442931562]
      },
      {
        "species": [{ "element": "As", "occu": 1 }],
        "abc": [0.54420659, 0.54420659, 0.17194451],
        "properties": { "magmom": 0.0 },
        "label": "As",
        "xyz": [0.0, 6.213608115010248, 1.577987477068438]
      },
      {
        "species": [{ "element": "As", "occu": 1 }],
        "abc": [0.39305731, 0.39305731, 0.60706556],
        "properties": { "magmom": -0.0 },
        "label": "As",
        "xyz": [0.0, 6.069022273025279, 5.49076127122705]
      },
      {
        "species": [{ "element": "As", "occu": 1 }],
        "abc": [0.60694269, 0.60694269, 0.39293444],
        "properties": { "magmom": -0.0 },
        "label": "As",
        "xyz": [0.0, 7.588643956974721, 3.57255764877295]
      }
    ]
  },
  "task_ids": null,
  "uncorrected_energy_per_atom": null,
  "energy_per_atom": -9.047225003333333,
  "formation_energy_per_atom": -0.530444247777778,
  "energy_above_hull": 0.0,
  "is_stable": true,
  "equilibrium_reaction_energy_per_atom": null,
  "decomposes_to": null,
  "xas": null,
  "grain_boundaries": null,
  "band_gap": 0.0,
  "cbm": null,
  "vbm": null,
  "efermi": 2.491682029999999,
  "is_gap_direct": null,
  "is_metal": null,
  "es_source_calc_id": null,
  "bandstructure": null,
  "dos": null,
  "dos_energy_up": null,
  "dos_energy_down": null,
  "is_magnetic": null,
  "ordering": null,
  "total_magnetization": 0.0,
  "total_magnetization_normalized_vol": null,
  "total_magnetization_normalized_formula_units": null,
  "num_magnetic_sites": null,
  "num_unique_magnetic_sites": null,
  "types_of_magnetic_species": null,
  "bulk_modulus": null,
  "shear_modulus": null,
  "universal_anisotropy": null,
  "homogeneous_poisson": null,
  "e_total": null,
  "e_ionic": null,
  "e_electronic": null,
  "n": null,
  "e_ij_max": null,
  "weighted_surface_energy_EV_PER_ANG2": null,
  "weighted_surface_energy": null,
  "weighted_work_function": null,
  "surface_anisotropy": null,
  "shape_factor": null,
  "has_reconstructed": null,
  "possible_species": null,
  "has_props": null,
  "theoretical": null,
  "database_IDs": null,
  "fields_not_requested": [
    "builder_meta",
    "nsites",
    "elements",
    "nelements",
    "composition",
    "composition_reduced",
    "chemsys",
    "symmetry",
    "property_name",
    "deprecated",
    "deprecation_reasons",
    "last_updated",
    "origins",
    "warnings",
    "task_ids",
    "uncorrected_energy_per_atom",
    "equilibrium_reaction_energy_per_atom",
    "decomposes_to",
    "xas",
    "grain_boundaries",
    "cbm",
    "vbm",
    "is_gap_direct",
    "is_metal",
    "es_source_calc_id",
    "bandstructure",
    "dos",
    "dos_energy_up",
    "dos_energy_down",
    "is_magnetic",
    "ordering",
    "total_magnetization_normalized_vol",
    "total_magnetization_normalized_formula_units",
    "num_magnetic_sites",
    "num_unique_magnetic_sites",
    "types_of_magnetic_species",
    "bulk_modulus",
    "shear_modulus",
    "universal_anisotropy",
    "homogeneous_poisson",
    "e_total",
    "e_ionic",
    "e_electronic",
    "n",
    "e_ij_max",
    "weighted_surface_energy_EV_PER_ANG2",
    "weighted_surface_energy",
    "weighted_work_function",
    "surface_anisotropy",
    "shape_factor",
    "has_reconstructed",
    "possible_species",
    "has_props",
    "theoretical",
    "database_IDs"
  ]
}
