{"builder_meta": null, "nsites": null, "elements": null, "nelements": null, "composition": null, "composition_reduced": null, "formula_pretty": "Na5Sn2", "formula_anonymous": "A2B5", "chemsys": null, "volume": 187.4179674536466, "density": 3.122017825984004, "density_atomic": 26.773995350520945, "symmetry": null, "property_name": null, "material_id": "mp-1077925", "deprecated": null, "deprecation_reasons": null, "last_updated": null, "origins": null, "warnings": null, "structure": {"@module": "pymatgen.core.structure", "@class": "Structure", "charge": 0, "lattice": {"matrix": [[7.574994549999999, -2.7016098900000003, -0.01435078], [7.574994549999999, 2.7016098900000003, -0.01435078], [6.62014785, 0.0, 4.56651745]], "pbc": [true, true, true], "a": 8.042353161554278, "b": 8.042353161554278, "c": 8.04235283838095, "alpha": 39.257326272882835, "beta": 39.257326272882835, "gamma": 39.257326874092506, "volume": 187.41796745364658}, "properties": {}, "sites": [{"species": [{"element": "Na", "occu": 1}], "abc": [0.5, 0.5, 0.5], "properties": {"magmom": -0.0}, "label": "Na", "xyz": [10.885068474999999, 0.0, 2.268907945]}, {"species": [{"element": "Na", "occu": 1}], "abc": [0.64549287, 0.64549287, 0.64549287], "properties": {"magmom": -0.0}, "label": "Na", "xyz": [14.052468180148544, 0.0, 2.9291278023677045]}, {"species": [{"element": "Na", "occu": 1}], "abc": [0.35450713, 0.35450713, 0.35450713], "properties": {"magmom": -0.0}, "label": "Na", "xyz": [7.717668769851453, 0.0, 1.6086880876322958]}, {"species": [{"element": "Na", "occu": 1}], "abc": [0.7874926600000001, 0.7874926600000001, 0.7874926600000001], "properties": {"magmom": 0.0}, "label": "Na", "xyz": [17.143823055319785, 0.0, 3.5734967058063676]}, {"species": [{"element": "Na", "occu": 1}], "abc": [0.21250734000000002, 0.21250734000000002, 0.21250734000000002], "properties": {"magmom": 0.0}, "label": "Na", "xyz": [4.626313894680212, 0.0, 0.9643191841936327]}, {"species": [{"element": "Sn", "occu": 1}], "abc": [0.93304697, 0.93304697, 0.93304697], "properties": {"magmom": -0.0}, "label": "Sn", "xyz": [20.31256031768254, 0.0, 4.233995366582353]}, {"species": [{"element": "Sn", "occu": 1}], "abc": [0.06695303, 0.06695303, 0.06695303], "properties": {"magmom": -0.0}, "label": "Sn", "xyz": [1.4575766323174584, 0.0, 0.3038205234176467]}]}, "task_ids": null, "uncorrected_energy_per_atom": null, "energy_per_atom": -9.856878704285714, "formation_energy_per_atom": -0.24069721714285602, "energy_above_hull": 0.0, "is_stable": true, "equilibrium_reaction_energy_per_atom": null, "decomposes_to": null, "xas": null, "grain_boundaries": null, "band_gap": 0.0, "cbm": null, "vbm": null, "efermi": 3.19300388, "is_gap_direct": null, "is_metal": null, "es_source_calc_id": null, "bandstructure": null, "dos": null, "dos_energy_up": null, "dos_energy_down": null, "is_magnetic": null, "ordering": null, "total_magnetization": 0.0, "total_magnetization_normalized_vol": null, "total_magnetization_normalized_formula_units": null, "num_magnetic_sites": null, "num_unique_magnetic_sites": null, "types_of_magnetic_species": null, "bulk_modulus": null, "shear_modulus": null, "universal_anisotropy": null, "homogeneous_poisson": null, "e_total": null, "e_ionic": null, "e_electronic": null, "n": null, "e_ij_max": null, "weighted_surface_energy_EV_PER_ANG2": null, "weighted_surface_energy": null, "weighted_work_function": null, "surface_anisotropy": null, "shape_factor": null, "has_reconstructed": null, "possible_species": null, "has_props": null, "theoretical": null, "database_IDs": null, "fields_not_requested": ["builder_meta", "nsites", "elements", "nelements", "composition", "composition_reduced", "chemsys", "symmetry", "property_name", "deprecated", "deprecation_reasons", "last_updated", "origins", "warnings", "task_ids", "uncorrected_energy_per_atom", "equilibrium_reaction_energy_per_atom", "decomposes_to", "xas", "grain_boundaries", "cbm", "vbm", "is_gap_direct", "is_metal", "es_source_calc_id", "bandstructure", "dos", "dos_energy_up", "dos_energy_down", "is_magnetic", "ordering", "total_magnetization_normalized_vol", "total_magnetization_normalized_formula_units", "num_magnetic_sites", "num_unique_magnetic_sites", "types_of_magnetic_species", "bulk_modulus", "shear_modulus", "universal_anisotropy", "homogeneous_poisson", "e_total", "e_ionic", "e_electronic", "n", "e_ij_max", "weighted_surface_energy_EV_PER_ANG2", "weighted_surface_energy", "weighted_work_function", "surface_anisotropy", "shape_factor", "has_reconstructed", "possible_species", "has_props", "theoretical", "database_IDs"]}