{
  "builder_meta": null,
  "nsites": null,
  "elements": null,
  "nelements": null,
  "composition": null,
  "composition_reduced": null,
  "formula_pretty": "Na6O",
  "formula_anonymous": "AB6",
  "chemsys": null,
  "volume": 744.3617193998176,
  "density": 1.030225287824974,
  "density_atomic": 35.44579616189608,
  "symmetry": null,
  "property_name": null,
  "material_id": "mp-1173794",
  "deprecated": null,
  "deprecation_reasons": null,
  "last_updated": null,
  "origins": null,
  "warnings": null,
  "structure": {
    "@module": "pymatgen.core.structure",
    "@class": "Structure",
    "charge": 0,
    "lattice": {
      "matrix": [
        [3.318478, -9.968007, 0.0],
        [3.318478, 9.968007, 0.0],
        [0.0, 0.0, 11.251405]
      ],
      "pbc": [true, true, true],
      "a": 10.505877392609007,
      "b": 10.505877392609007,
      "c": 11.251405,
      "alpha": 90.0,
      "beta": 90.0,
      "gamma": 143.1734693387664,
      "volume": 744.3617193998176
    },
    "properties": {},
    "sites": [
      {
        "species": [{ "element": "Na", "occu": 1 }],
        "abc": [0.6713300000000001, 0.32867, 0.011941],
        "properties": { "magmom": 0.0 },
        "label": "Na",
        "xyz": [3.318478, -3.4156372786200007, 0.134353027105]
      },
      {
        "species": [{ "element": "Na", "occu": 1 }],
        "abc": [0.821894999999999, 0.630186999999999, 0.256152999999999],
        "properties": { "magmom": 0.0 },
        "label": "Na",
        "xyz": [4.818702171195993, -1.9109466859559996, 2.882081144964989]
      },
      {
        "species": [{ "element": "Na", "occu": 1 }],
        "abc": [0.0, 0.5, 0.241844999999999],
        "properties": { "magmom": 0.0 },
        "label": "Na",
        "xyz": [1.659239, 4.9840035, 2.721096042224989]
      },
      {
        "species": [{ "element": "Na", "occu": 1 }],
        "abc": [0.167553999999999, 0.832445999999999, 0.505921],
        "properties": { "magmom": 0.0 },
        "label": "Na",
        "xyz": [3.3184779999999936, 6.627648110244001, 5.692322069005]
      },
      {
        "species": [{ "element": "Na", "occu": 1 }],
        "abc": [0.0, 0.5, 0.746656],
        "properties": { "magmom": 0.0 },
        "label": "Na",
        "xyz": [1.659239, 4.9840035, 8.40092905168]
      },
      {
        "species": [{ "element": "Na", "occu": 1 }],
        "abc": [0.154628, 0.308531, 0.7566700000000001],
        "properties": { "magmom": 0.0 },
        "label": "Na",
        "xyz": [1.536982952002, 1.5341061813210002, 8.513600621350001]
      },
      {
        "species": [{ "element": "Na", "occu": 1 }],
        "abc": [0.32867, 0.6713300000000001, 0.011941],
        "properties": { "magmom": 0.0 },
        "label": "Na",
        "xyz": [3.318478, 3.4156372786200007, 0.134353027105]
      },
      {
        "species": [{ "element": "Na", "occu": 1 }],
        "abc": [0.308531, 0.154628, 0.7566700000000001],
        "properties": { "magmom": 0.0 },
        "label": "Na",
        "xyz": [1.536982952002, -1.5341061813210002, 8.513600621350001]
      },
      {
        "species": [{ "element": "Na", "occu": 1 }],
        "abc": [0.5, 0.0, 0.746656],
        "properties": { "magmom": 0.0 },
        "label": "Na",
        "xyz": [1.659239, -4.9840035, 8.40092905168]
      },
      {
        "species": [{ "element": "Na", "occu": 1 }],
        "abc": [0.17810499999999901, 0.369813, 0.256152999999999],
        "properties": { "magmom": 0.0 },
        "label": "Na",
        "xyz": [1.8182538288039964, 1.91094668595601, 2.882081144964989]
      },
      {
        "species": [{ "element": "Na", "occu": 1 }],
        "abc": [0.369813, 0.17810499999999901, 0.256152999999999],
        "properties": { "magmom": 0.0 },
        "label": "Na",
        "xyz": [1.8182538288039964, -1.91094668595601, 2.882081144964989]
      },
      {
        "species": [{ "element": "Na", "occu": 1 }],
        "abc": [0.5, 0.0, 0.241844999999999],
        "properties": { "magmom": 0.0 },
        "label": "Na",
        "xyz": [1.659239, -4.9840035, 2.721096042224989]
      },
      {
        "species": [{ "element": "Na", "occu": 1 }],
        "abc": [0.5, 0.5, 0.501093],
        "properties": { "magmom": -0.0 },
        "label": "Na",
        "xyz": [3.318478, 0.0, 5.638000285665]
      },
      {
        "species": [{ "element": "Na", "occu": 1 }],
        "abc": [0.630186999999999, 0.821894999999999, 0.256152999999999],
        "properties": { "magmom": 0.0 },
        "label": "Na",
        "xyz": [4.818702171195993, 1.9109466859559996, 2.882081144964989]
      },
      {
        "species": [{ "element": "Na", "occu": 1 }],
        "abc": [0.832445999999999, 0.167553999999999, 0.505921],
        "properties": { "magmom": 0.0 },
        "label": "Na",
        "xyz": [3.3184779999999936, -6.627648110244001, 5.692322069005]
      },
      {
        "species": [{ "element": "Na", "occu": 1 }],
        "abc": [0.691469, 0.845372, 0.7566700000000001],
        "properties": { "magmom": 0.0 },
        "label": "Na",
        "xyz": [5.099973047998, 1.5341061813209995, 8.513600621350001]
      },
      {
        "species": [{ "element": "Na", "occu": 1 }],
        "abc": [0.845372, 0.691469, 0.7566700000000001],
        "properties": { "magmom": 0.0 },
        "label": "Na",
        "xyz": [5.099973047998, -1.5341061813209995, 8.513600621350001]
      },
      {
        "species": [{ "element": "Na", "occu": 1 }],
        "abc": [0.0, 0.0, 0.9988769999999991],
        "properties": { "magmom": -0.0 },
        "label": "Na",
        "xyz": [0.0, 0.0, 11.23876967218499]
      },
      {
        "species": [{ "element": "O", "occu": 1 }],
        "abc": [0.675574999999999, 0.324424999999999, 0.206788],
        "properties": { "magmom": 0.0 },
        "label": "O",
        "xyz": [3.3184779999999936, -3.5002656580500005, 2.32665553714]
      },
      {
        "species": [{ "element": "O", "occu": 1 }],
        "abc": [0.324424999999999, 0.675574999999999, 0.206788],
        "properties": { "magmom": 0.0 },
        "label": "O",
        "xyz": [3.3184779999999936, 3.5002656580500005, 2.32665553714]
      },
      {
        "species": [{ "element": "O", "occu": 1 }],
        "abc": [0.0, 0.0, 0.804437],
        "properties": { "magmom": 0.0 },
        "label": "O",
        "xyz": [0.0, 0.0, 9.051046483985]
      }
    ]
  },
  "task_ids": null,
  "uncorrected_energy_per_atom": null,
  "energy_per_atom": -2.312497198571428,
  "formation_energy_per_atom": -0.455599244753693,
  "energy_above_hull": 0.155431620640393,
  "is_stable": false,
  "equilibrium_reaction_energy_per_atom": null,
  "decomposes_to": null,
  "xas": null,
  "grain_boundaries": null,
  "band_gap": 0.0,
  "cbm": null,
  "vbm": null,
  "efermi": 0.20206204,
  "is_gap_direct": null,
  "is_metal": null,
  "es_source_calc_id": null,
  "bandstructure": null,
  "dos": null,
  "dos_energy_up": null,
  "dos_energy_down": null,
  "is_magnetic": null,
  "ordering": null,
  "total_magnetization": 0.0067434,
  "total_magnetization_normalized_vol": null,
  "total_magnetization_normalized_formula_units": null,
  "num_magnetic_sites": null,
  "num_unique_magnetic_sites": null,
  "types_of_magnetic_species": null,
  "bulk_modulus": null,
  "shear_modulus": null,
  "universal_anisotropy": null,
  "homogeneous_poisson": null,
  "e_total": null,
  "e_ionic": null,
  "e_electronic": null,
  "n": null,
  "e_ij_max": null,
  "weighted_surface_energy_EV_PER_ANG2": null,
  "weighted_surface_energy": null,
  "weighted_work_function": null,
  "surface_anisotropy": null,
  "shape_factor": null,
  "has_reconstructed": null,
  "possible_species": null,
  "has_props": null,
  "theoretical": null,
  "database_IDs": null,
  "fields_not_requested": [
    "builder_meta",
    "nsites",
    "elements",
    "nelements",
    "composition",
    "composition_reduced",
    "chemsys",
    "symmetry",
    "property_name",
    "deprecated",
    "deprecation_reasons",
    "last_updated",
    "origins",
    "warnings",
    "task_ids",
    "uncorrected_energy_per_atom",
    "equilibrium_reaction_energy_per_atom",
    "decomposes_to",
    "xas",
    "grain_boundaries",
    "cbm",
    "vbm",
    "is_gap_direct",
    "is_metal",
    "es_source_calc_id",
    "bandstructure",
    "dos",
    "dos_energy_up",
    "dos_energy_down",
    "is_magnetic",
    "ordering",
    "total_magnetization_normalized_vol",
    "total_magnetization_normalized_formula_units",
    "num_magnetic_sites",
    "num_unique_magnetic_sites",
    "types_of_magnetic_species",
    "bulk_modulus",
    "shear_modulus",
    "universal_anisotropy",
    "homogeneous_poisson",
    "e_total",
    "e_ionic",
    "e_electronic",
    "n",
    "e_ij_max",
    "weighted_surface_energy_EV_PER_ANG2",
    "weighted_surface_energy",
    "weighted_work_function",
    "surface_anisotropy",
    "shape_factor",
    "has_reconstructed",
    "possible_species",
    "has_props",
    "theoretical",
    "database_IDs"
  ]
}
