{
  "builder_meta": null,
  "nsites": null,
  "elements": null,
  "nelements": null,
  "composition": null,
  "composition_reduced": null,
  "formula_pretty": "Na8Hg3",
  "formula_anonymous": "A3B8",
  "chemsys": null,
  "volume": 1252.2304566208195,
  "density": 4.167494465199466,
  "density_atomic": 28.459783105018627,
  "symmetry": null,
  "property_name": null,
  "material_id": "mp-541787",
  "deprecated": null,
  "deprecation_reasons": null,
  "last_updated": null,
  "origins": null,
  "warnings": null,
  "structure": {
    "@module": "pymatgen.core.structure",
    "@class": "Structure",
    "charge": 0,
    "lattice": {
      "matrix": [
        [17.44669683, -4.578377, -0.00648385],
        [17.44669683, 4.578377, -0.00648385],
        [16.2481482, 0.0, 7.8323991]
      ],
      "pbc": [true, true, true],
      "a": 18.037427983844367,
      "b": 18.037427983844367,
      "c": 18.037427632310656,
      "alpha": 29.40812011280156,
      "beta": 29.40812011280156,
      "gamma": 29.40812038286735,
      "volume": 1252.2304566208195
    },
    "properties": {},
    "sites": [
      {
        "species": [{ "element": "Na", "occu": 1 }],
        "abc": [0.20928176, 0.85876237, 0.48606702],
        "properties": { "magmom": 0.0 },
        "label": "Na",
        "xyz": [26.531531113263473, 2.97356708676997, 3.8001458520553815]
      },
      {
        "species": [{ "element": "Na", "occu": 1 }],
        "abc": [0.85876237, 0.48606702, 0.20928176],
        "properties": { "magmom": 0.0 },
        "label": "Na",
        "xyz": [26.863271707440667, -1.70633981844695, 1.6304585966300646]
      },
      {
        "species": [{ "element": "Na", "occu": 1 }],
        "abc": [0.48606702, 0.20928176, 0.85876237],
        "properties": { "magmom": 0.0 },
        "label": "Na",
        "xyz": [26.084837612113603, -1.26722726832302, 6.721661076714664]
      },
      {
        "species": [{ "element": "Na", "occu": 1 }],
        "abc": [0.64123763, 0.29071824, 0.013932980000000001],
        "properties": { "magmom": 0.0 },
        "label": "Na",
        "xyz": [16.48593664673653, -1.6048099132300295, 0.10308599794461851]
      },
      {
        "species": [{ "element": "Na", "occu": 1 }],
        "abc": [0.29071824, 0.013932980000000001, 0.64123763],
        "properties": { "magmom": 0.0 },
        "label": "Na",
        "xyz": [15.734081517886398, -1.2672272683230201, 5.020453723285336]
      },
      {
        "species": [{ "element": "Na", "occu": 1 }],
        "abc": [0.013932980000000001, 0.64123763, 0.29071824],
        "properties": { "magmom": 0.0 },
        "label": "Na",
        "xyz": [16.154196052559335, 2.8720371815530497, 2.2727732533699356]
      },
      {
        "species": [{ "element": "Na", "occu": 1 }],
        "abc": [0.79071824, 0.14123763, 0.51393298],
        "properties": { "magmom": 0.0 },
        "label": "Na",
        "xyz": [24.610010746736528, -2.97356708676997, 4.019285547944619]
      },
      {
        "species": [{ "element": "Na", "occu": 1 }],
        "abc": [0.14123763, 0.51393298, 0.79071824],
        "properties": { "magmom": 0.0 },
        "label": "Na",
        "xyz": [24.278270152559333, 1.7063398184469498, 6.188972803369936]
      },
      {
        "species": [{ "element": "Na", "occu": 1 }],
        "abc": [0.51393298, 0.79071824, 0.14123763],
        "properties": { "magmom": 0.0 },
        "label": "Na",
        "xyz": [25.056704247886397, 1.26722726832302, 1.097770323285336]
      },
      {
        "species": [{ "element": "Na", "occu": 1 }],
        "abc": [0.35876237, 0.70928176, 0.98606702],
        "properties": { "magmom": 0.0 },
        "label": "Na",
        "xyz": [34.65560521326347, 1.60480991323003, 7.716345402055381]
      },
      {
        "species": [{ "element": "Na", "occu": 1 }],
        "abc": [0.70928176, 0.98606702, 0.35876237],
        "properties": { "magmom": 0.0 },
        "label": "Na",
        "xyz": [35.407460342113595, 1.26722726832302, 2.7989776767146637]
      },
      {
        "species": [{ "element": "Na", "occu": 1 }],
        "abc": [0.98606702, 0.35876237, 0.70928176],
        "properties": { "magmom": 0.0 },
        "label": "Na",
        "xyz": [34.98734580744067, -2.8720371815530497, 5.546658146630064]
      },
      {
        "species": [{ "element": "Na", "occu": 1 }],
        "abc": [0.63581946, 0.87951314, 0.14135167],
        "properties": { "magmom": -0.0 },
        "label": "Na",
        "xyz": [28.734251351293153, 1.1157215395573599, 1.097297503612987]
      },
      {
        "species": [{ "element": "Na", "occu": 1 }],
        "abc": [0.87951314, 0.14135167, 0.63581946],
        "properties": { "magmom": -0.0 },
        "label": "Na",
        "xyz": [28.141607659009523, -3.3795814965341897, 4.973372631968167]
      },
      {
        "species": [{ "element": "Na", "occu": 1 }],
        "abc": [0.14135167, 0.63581946, 0.87951314],
        "properties": { "magmom": -0.0 },
        "label": "Na",
        "xyz": [27.849528932705866, 2.26385995697683, 6.883658865142924]
      },
      {
        "species": [{ "element": "Na", "occu": 1 }],
        "abc": [0.62048686, 0.86418054, 0.35864833],
        "properties": { "magmom": -0.0 },
        "label": "Na",
        "xyz": [31.72991323870685, 1.1157215395573599, 2.799450496387013]
      },
      {
        "species": [{ "element": "Na", "occu": 1 }],
        "abc": [0.86418054, 0.35864833, 0.62048686],
        "properties": { "magmom": -0.0 },
        "label": "Na",
        "xyz": [31.416087027294132, -2.3145170430231694, 4.851972084857076]
      },
      {
        "species": [{ "element": "Na", "occu": 1 }],
        "abc": [0.35864833, 0.62048686, 0.86418054],
        "properties": { "magmom": -0.0 },
        "label": "Na",
        "xyz": [31.124008300990475, 1.1987955034658098, 6.762258318031833]
      },
      {
        "species": [{ "element": "Na", "occu": 1 }],
        "abc": [0.36418054, 0.12048686, 0.8586483300000001],
        "properties": { "magmom": -0.0 },
        "label": "Na",
        "xyz": [22.407290508706847, -1.1157215395573599, 6.722133896387013]
      },
      {
        "species": [{ "element": "Na", "occu": 1 }],
        "abc": [0.12048686, 0.8586483300000001, 0.36418054],
        "properties": { "magmom": -0.0 },
        "label": "Na",
        "xyz": [22.999934200990474, 3.37958149653419, 2.8460587680318326]
      },
      {
        "species": [{ "element": "Na", "occu": 1 }],
        "abc": [0.8586483300000001, 0.36418054, 0.12048686],
        "properties": { "magmom": -0.0 },
        "label": "Na",
        "xyz": [23.292012927294135, -2.2638599569768303, 0.9357725348570765]
      },
      {
        "species": [{ "element": "Na", "occu": 1 }],
        "abc": [0.37951314, 0.13581946, 0.64135167],
        "properties": { "magmom": -0.0 },
        "label": "Na",
        "xyz": [19.411628621293154, -1.1157215395573599, 5.019980903612987]
      },
      {
        "species": [{ "element": "Na", "occu": 1 }],
        "abc": [0.13581946, 0.64135167, 0.37951314],
        "properties": { "magmom": -0.0 },
        "label": "Na",
        "xyz": [19.725454832705868, 2.31451704302317, 2.967459315142924]
      },
      {
        "species": [{ "element": "Na", "occu": 1 }],
        "abc": [0.64135167, 0.37951314, 0.13581946],
        "properties": { "magmom": -0.0 },
        "label": "Na",
        "xyz": [20.01753355900953, -1.19879550346581, 1.0571730819681677]
      },
      {
        "species": [{ "element": "Na", "occu": 1 }],
        "abc": [0.56156333, 0.56156333, 0.56156333],
        "properties": { "magmom": -0.0 },
        "label": "Na",
        "xyz": [28.719214548235996, 0.0, 4.391105935690562]
      },
      {
        "species": [{ "element": "Na", "occu": 1 }],
        "abc": [0.93843667, 0.93843667, 0.93843667],
        "properties": { "magmom": -0.0 },
        "label": "Na",
        "xyz": [47.99309824176401, 0.0, 7.338041164309438]
      },
      {
        "species": [{ "element": "Na", "occu": 1 }],
        "abc": [0.43843667000000003, 0.43843667000000003, 0.43843667000000003],
        "properties": { "magmom": -0.0 },
        "label": "Na",
        "xyz": [22.422327311764008, 0.0, 3.4283254643094385]
      },
      {
        "species": [{ "element": "Na", "occu": 1 }],
        "abc": [0.06156333, 0.06156333, 0.06156333],
        "properties": { "magmom": -0.0 },
        "label": "Na",
        "xyz": [3.1484436182359934, 0.0, 0.48139023569056194]
      },
      {
        "species": [{ "element": "Na", "occu": 1 }],
        "abc": [0.21995473000000001, 0.21995473000000001, 0.21995473000000001],
        "properties": { "magmom": 0.0 },
        "label": "Na",
        "xyz": [11.248824031599998, 0.0, 1.719920922340522]
      },
      {
        "species": [{ "element": "Na", "occu": 1 }],
        "abc": [0.28004527, 0.28004527, 0.28004527],
        "properties": { "magmom": 0.0 },
        "label": "Na",
        "xyz": [14.321946898400002, 0.0, 2.189794777659478]
      },
      {
        "species": [{ "element": "Na", "occu": 1 }],
        "abc": [0.78004527, 0.78004527, 0.78004527],
        "properties": { "magmom": 0.0 },
        "label": "Na",
        "xyz": [39.8927178284, 0.0, 6.099510477659478]
      },
      {
        "species": [{ "element": "Na", "occu": 1 }],
        "abc": [0.71995473, 0.71995473, 0.71995473],
        "properties": { "magmom": 0.0 },
        "label": "Na",
        "xyz": [36.8195949616, 0.0, 5.629636622340522]
      },
      {
        "species": [{ "element": "Hg", "occu": 1 }],
        "abc": [0.0660233, 0.4339767, 0.75],
        "properties": { "magmom": -0.0 },
        "label": "Hg",
        "xyz": [20.909459565, 1.6846293836317998, 5.8710574]
      },
      {
        "species": [{ "element": "Hg", "occu": 1 }],
        "abc": [0.4339767, 0.75, 0.0660233],
        "properties": { "magmom": -0.0 },
        "label": "Hg",
        "xyz": [21.72923890173692, 1.4468738081841, 0.509444108172735]
      },
      {
        "species": [{ "element": "Hg", "occu": 1 }],
        "abc": [0.75, 0.0660233, 0.4339767],
        "properties": { "magmom": -0.0 },
        "label": "Hg",
        "xyz": [21.28822885826308, -3.1315031918159, 3.3937877418272646]
      },
      {
        "species": [{ "element": "Hg", "occu": 1 }],
        "abc": [0.9339767, 0.5660233, 0.25],
        "properties": { "magmom": -0.0 },
        "label": "Hg",
        "xyz": [30.232082295000005, -1.6846293836317998, 1.948374]
      },
      {
        "species": [{ "element": "Hg", "occu": 1 }],
        "abc": [0.5660233, 0.25, 0.9339767],
        "properties": { "magmom": -0.0 },
        "label": "Hg",
        "xyz": [29.41230295826308, -1.4468738081840997, 7.309987291827265]
      },
      {
        "species": [{ "element": "Hg", "occu": 1 }],
        "abc": [0.25, 0.9339767, 0.5660233],
        "properties": { "magmom": -0.0 },
        "label": "Hg",
        "xyz": [29.85331300173692, 3.1315031918158995, 4.425643658172735]
      },
      {
        "species": [{ "element": "Hg", "occu": 1 }],
        "abc": [0.5, 0.5, 0.5],
        "properties": { "magmom": 0.0 },
        "label": "Hg",
        "xyz": [25.570770930000002, 0.0, 3.9097157]
      },
      {
        "species": [{ "element": "Hg", "occu": 1 }],
        "abc": [-0.0, 0.0, -0.0],
        "properties": { "magmom": 0.0 },
        "label": "Hg",
        "xyz": [0.0, 0.0, 0.0]
      },
      {
        "species": [{ "element": "Hg", "occu": 1 }],
        "abc": [0.84197154, 0.84197154, 0.84197154],
        "properties": { "magmom": -0.0 },
        "label": "Hg",
        "xyz": [43.059722757838664, 0.0, 6.583738697782356]
      },
      {
        "species": [{ "element": "Hg", "occu": 1 }],
        "abc": [0.65802846, 0.65802846, 0.65802846],
        "properties": { "magmom": -0.0 },
        "label": "Hg",
        "xyz": [33.65259003216134, 0.0, 5.145408402217644]
      },
      {
        "species": [{ "element": "Hg", "occu": 1 }],
        "abc": [0.15802846, 0.15802846, 0.15802846],
        "properties": { "magmom": -0.0 },
        "label": "Hg",
        "xyz": [8.081819102161337, 0.0, 1.235692702217644]
      },
      {
        "species": [{ "element": "Hg", "occu": 1 }],
        "abc": [0.34197154, 0.34197154, 0.34197154],
        "properties": { "magmom": -0.0 },
        "label": "Hg",
        "xyz": [17.488951827838665, 0.0, 2.674022997782356]
      }
    ]
  },
  "task_ids": null,
  "uncorrected_energy_per_atom": null,
  "energy_per_atom": -16.221502157954546,
  "formation_energy_per_atom": -0.165423600909091,
  "energy_above_hull": 0.0,
  "is_stable": true,
  "equilibrium_reaction_energy_per_atom": null,
  "decomposes_to": null,
  "xas": null,
  "grain_boundaries": null,
  "band_gap": 0.0,
  "cbm": null,
  "vbm": null,
  "efermi": 1.24721113,
  "is_gap_direct": null,
  "is_metal": null,
  "es_source_calc_id": null,
  "bandstructure": null,
  "dos": null,
  "dos_energy_up": null,
  "dos_energy_down": null,
  "is_magnetic": null,
  "ordering": null,
  "total_magnetization": 2.1e-6,
  "total_magnetization_normalized_vol": null,
  "total_magnetization_normalized_formula_units": null,
  "num_magnetic_sites": null,
  "num_unique_magnetic_sites": null,
  "types_of_magnetic_species": null,
  "bulk_modulus": null,
  "shear_modulus": null,
  "universal_anisotropy": null,
  "homogeneous_poisson": null,
  "e_total": null,
  "e_ionic": null,
  "e_electronic": null,
  "n": null,
  "e_ij_max": null,
  "weighted_surface_energy_EV_PER_ANG2": null,
  "weighted_surface_energy": null,
  "weighted_work_function": null,
  "surface_anisotropy": null,
  "shape_factor": null,
  "has_reconstructed": null,
  "possible_species": null,
  "has_props": null,
  "theoretical": null,
  "database_IDs": null,
  "fields_not_requested": [
    "builder_meta",
    "nsites",
    "elements",
    "nelements",
    "composition",
    "composition_reduced",
    "chemsys",
    "symmetry",
    "property_name",
    "deprecated",
    "deprecation_reasons",
    "last_updated",
    "origins",
    "warnings",
    "task_ids",
    "uncorrected_energy_per_atom",
    "equilibrium_reaction_energy_per_atom",
    "decomposes_to",
    "xas",
    "grain_boundaries",
    "cbm",
    "vbm",
    "is_gap_direct",
    "is_metal",
    "es_source_calc_id",
    "bandstructure",
    "dos",
    "dos_energy_up",
    "dos_energy_down",
    "is_magnetic",
    "ordering",
    "total_magnetization_normalized_vol",
    "total_magnetization_normalized_formula_units",
    "num_magnetic_sites",
    "num_unique_magnetic_sites",
    "types_of_magnetic_species",
    "bulk_modulus",
    "shear_modulus",
    "universal_anisotropy",
    "homogeneous_poisson",
    "e_total",
    "e_ionic",
    "e_electronic",
    "n",
    "e_ij_max",
    "weighted_surface_energy_EV_PER_ANG2",
    "weighted_surface_energy",
    "weighted_work_function",
    "surface_anisotropy",
    "shape_factor",
    "has_reconstructed",
    "possible_species",
    "has_props",
    "theoretical",
    "database_IDs"
  ]
}
