{"builder_meta": null, "nsites": null, "elements": null, "nelements": null, "composition": null, "composition_reduced": null, "formula_pretty": "NaAg2", "formula_anonymous": "AB2", "chemsys": null, "volume": 123.85199469709946, "density": 6.401416969968083, "density_atomic": 20.641999116183243, "symmetry": null, "property_name": null, "material_id": "mp-30352", "deprecated": null, "deprecation_reasons": null, "last_updated": null, "origins": null, "warnings": null, "structure": {"@module": "pymatgen.core.structure", "@class": "Structure", "charge": 0, "lattice": {"matrix": [[4.84547879, 0.0, 2.7975382], [1.615159939999999, 4.56836048, 2.7975382], [0.0, 0.0, 5.59507539]], "pbc": [true, true, true], "a": 5.595076825638688, "b": 5.595076325437024, "c": 5.59507539, "alpha": 59.99999955916179, "beta": 60.00000251650062, "gamma": 59.99999520445971, "volume": 123.85199469709946}, "properties": {}, "sites": [{"species": [{"element": "Na", "occu": 1}], "abc": [0.125, 0.125, 0.125], "properties": {"magmom": 0.0}, "label": "Na", "xyz": [0.8075798412499998, 0.57104506, 1.39876897375]}, {"species": [{"element": "Na", "occu": 1}], "abc": [0.875, 0.875, 0.875], "properties": {"magmom": 0.0}, "label": "Na", "xyz": [5.653058888749999, 3.99731542, 9.79138281625]}, {"species": [{"element": "Ag", "occu": 1}], "abc": [-0.0, 0.5, 0.5], "properties": {"magmom": 0.0}, "label": "Ag", "xyz": [0.8075799699999995, 2.28418024, 4.196306795]}, {"species": [{"element": "Ag", "occu": 1}], "abc": [0.5, 0.0, 0.5], "properties": {"magmom": 0.0}, "label": "Ag", "xyz": [2.422739395, 0.0, 4.196306795]}, {"species": [{"element": "Ag", "occu": 1}], "abc": [0.5, 0.5, 0.0], "properties": {"magmom": 0.0}, "label": "Ag", "xyz": [3.2303193649999993, 2.28418024, 2.7975382]}, {"species": [{"element": "Ag", "occu": 1}], "abc": [0.5, 0.5, 0.5], "properties": {"magmom": 0.0}, "label": "Ag", "xyz": [3.2303193649999993, 2.28418024, 5.595075895]}]}, "task_ids": null, "uncorrected_energy_per_atom": null, "energy_per_atom": -15.503894198333334, "formation_energy_per_atom": -0.078582578333334, "energy_above_hull": 0.0, "is_stable": true, "equilibrium_reaction_energy_per_atom": null, "decomposes_to": null, "xas": null, "grain_boundaries": null, "band_gap": 0.0, "cbm": null, "vbm": null, "efermi": 2.40128421, "is_gap_direct": null, "is_metal": null, "es_source_calc_id": null, "bandstructure": null, "dos": null, "dos_energy_up": null, "dos_energy_down": null, "is_magnetic": null, "ordering": null, "total_magnetization": 0.0, "total_magnetization_normalized_vol": null, "total_magnetization_normalized_formula_units": null, "num_magnetic_sites": null, "num_unique_magnetic_sites": null, "types_of_magnetic_species": null, "bulk_modulus": null, "shear_modulus": null, "universal_anisotropy": null, "homogeneous_poisson": null, "e_total": null, "e_ionic": null, "e_electronic": null, "n": null, "e_ij_max": null, "weighted_surface_energy_EV_PER_ANG2": null, "weighted_surface_energy": null, "weighted_work_function": null, "surface_anisotropy": null, "shape_factor": null, "has_reconstructed": null, "possible_species": null, "has_props": null, "theoretical": null, "database_IDs": null, "fields_not_requested": ["builder_meta", "nsites", "elements", "nelements", "composition", "composition_reduced", "chemsys", "symmetry", "property_name", "deprecated", "deprecation_reasons", "last_updated", "origins", "warnings", "task_ids", "uncorrected_energy_per_atom", "equilibrium_reaction_energy_per_atom", "decomposes_to", "xas", "grain_boundaries", "cbm", "vbm", "is_gap_direct", "is_metal", "es_source_calc_id", "bandstructure", "dos", "dos_energy_up", "dos_energy_down", "is_magnetic", "ordering", "total_magnetization_normalized_vol", "total_magnetization_normalized_formula_units", "num_magnetic_sites", "num_unique_magnetic_sites", "types_of_magnetic_species", "bulk_modulus", "shear_modulus", "universal_anisotropy", "homogeneous_poisson", "e_total", "e_ionic", "e_electronic", "n", "e_ij_max", "weighted_surface_energy_EV_PER_ANG2", "weighted_surface_energy", "weighted_work_function", "surface_anisotropy", "shape_factor", "has_reconstructed", "possible_species", "has_props", "theoretical", "database_IDs"]}