{"builder_meta": null, "nsites": null, "elements": null, "nelements": null, "composition": null, "composition_reduced": null, "formula_pretty": "NaAs", "formula_anonymous": "AB", "chemsys": null, "volume": 372.1273917629648, "density": 3.495268713941957, "density_atomic": 23.2579619851853, "symmetry": null, "property_name": null, "material_id": "mp-1106381", "deprecated": null, "deprecation_reasons": null, "last_updated": null, "origins": null, "warnings": null, "structure": {"@module": "pymatgen.core.structure", "@class": "Structure", "charge": 0, "lattice": {"matrix": [[0.0, -5.85064447, 0.0], [-5.53914283, 0.0, 2.79497016], [-5.53944009, 0.0, -8.68761551]], "pbc": [true, true, true], "a": 5.85064447, "b": 6.2043502066236424, "c": 10.303400397941049, "alpha": 84.25224186043906, "beta": 90.0, "gamma": 90.0, "volume": 372.12739176296486}, "properties": {}, "sites": [{"species": [{"element": "Na", "occu": 1}], "abc": [0.89065178, 0.61104563, 0.17024013000000002], "properties": {"magmom": -0.0}, "label": "Na", "xyz": [-4.327704021266145, -5.210886911352657, 0.2288735084359843]}, {"species": [{"element": "Na", "occu": 1}], "abc": [0.39065178, 0.88895437, 0.32975987], "properties": {"magmom": -0.0}, "label": "Na", "xyz": [-6.7507302687338555, -2.2855646763526565, -0.38022602343598466]}, {"species": [{"element": "Na", "occu": 1}], "abc": [0.10934822, 0.38895437, 0.8297598700000001], "properties": {"magmom": -0.0}, "label": "Na", "xyz": [-6.7508788987338555, -0.6397575586473434, -6.121518858435985]}, {"species": [{"element": "Na", "occu": 1}], "abc": [0.60934822, 0.11104563, 0.67024013], "properties": {"magmom": -0.0}, "label": "Na", "xyz": [-4.327852651266145, -3.5650797936473433, -5.512419326564016]}, {"species": [{"element": "Na", "occu": 1}], "abc": [0.16332524, 0.29770564, 0.46740013], "properties": {"magmom": 0.0}, "label": "Na", "xyz": [-4.238169079449773, -0.9555579122174228, -3.2285142385003143]}, {"species": [{"element": "Na", "occu": 1}], "abc": [0.66332524, 0.20229436, 0.03259987], "properties": {"magmom": 0.0}, "label": "Na", "xyz": [-1.3011223805502272, -3.880880147217423, 0.2821915635003139]}, {"species": [{"element": "Na", "occu": 1}], "abc": [0.8366747600000001, 0.70229436, 0.53259987], "properties": {"magmom": 0.0}, "label": "Na", "xyz": [-6.8404138405502275, -4.8950865577825775, -2.664131111499686]}, {"species": [{"element": "Na", "occu": 1}], "abc": [0.33667476, 0.79770564, 0.96740013], "properties": {"magmom": 0.0}, "label": "Na", "xyz": [-9.777460539449773, -1.9697643227825772, -6.174836913500315]}, {"species": [{"element": "As", "occu": 1}], "abc": [0.3936106, 0.47033183, 0.21052013], "properties": {"magmom": 0.0}, "label": "As", "xyz": [-3.771398831739291, -2.302875680223382, -0.5143545164070236]}, {"species": [{"element": "As", "occu": 1}], "abc": [0.893610599999999, 0.02966817, 0.28947987000000003], "properties": {"magmom": 0.0}, "label": "As", "xyz": [-1.7678926282607097, -5.228197915223376, -2.431968158592977]}, {"species": [{"element": "As", "occu": 1}], "abc": [0.6063894, 0.52966817, 0.78947987], "properties": {"magmom": 0.0}, "label": "As", "xyz": [-7.307184088260709, -3.5477687897766175, -5.378290833592976]}, {"species": [{"element": "As", "occu": 1}], "abc": [0.1063894, 0.97033183, 0.71052013], "properties": {"magmom": 0.0}, "label": "As", "xyz": [-9.310690291739292, -0.6224465547766179, -3.4606771914070245]}, {"species": [{"element": "As", "occu": 1}], "abc": [0.66108328, 0.30670557, 0.38156975], "properties": {"magmom": -0.0}, "label": "As", "xyz": [-3.8125687292678405, -3.8677632363414616, -2.4576983621910315]}, {"species": [{"element": "As", "occu": 1}], "abc": [0.16108328, 0.19329443000000002, 0.11843025], "properties": {"magmom": -0.0}, "label": "As", "xyz": [-1.7267227307321598, -0.9424410013414616, -0.4886243128089687]}, {"species": [{"element": "As", "occu": 1}], "abc": [0.33891672, 0.69329443, 0.61843025], "properties": {"magmom": -0.0}, "label": "As", "xyz": [-7.266014190732159, -1.9828812336585384, -3.434946987808968]}, {"species": [{"element": "As", "occu": 1}], "abc": [0.8389167200000001, 0.80670557, 0.88156975], "properties": {"magmom": -0.0}, "label": "As", "xyz": [-9.351860189267843, -4.908203468658539, -5.404021037191033]}]}, "task_ids": null, "uncorrected_energy_per_atom": null, "energy_per_atom": -9.655195674375, "formation_energy_per_atom": -0.519339895624998, "energy_above_hull": 0.0, "is_stable": true, "equilibrium_reaction_energy_per_atom": null, "decomposes_to": null, "xas": null, "grain_boundaries": null, "band_gap": 0.5734, "cbm": null, "vbm": null, "efermi": 2.36050273, "is_gap_direct": null, "is_metal": null, "es_source_calc_id": null, "bandstructure": null, "dos": null, "dos_energy_up": null, "dos_energy_down": null, "is_magnetic": null, "ordering": null, "total_magnetization": 0.0, "total_magnetization_normalized_vol": null, "total_magnetization_normalized_formula_units": null, "num_magnetic_sites": null, "num_unique_magnetic_sites": null, "types_of_magnetic_species": null, "bulk_modulus": null, "shear_modulus": null, "universal_anisotropy": null, "homogeneous_poisson": null, "e_total": null, "e_ionic": null, "e_electronic": null, "n": null, "e_ij_max": null, "weighted_surface_energy_EV_PER_ANG2": null, "weighted_surface_energy": null, "weighted_work_function": null, "surface_anisotropy": null, "shape_factor": null, "has_reconstructed": null, "possible_species": null, "has_props": null, "theoretical": null, "database_IDs": null, "fields_not_requested": ["builder_meta", "nsites", "elements", "nelements", "composition", "composition_reduced", "chemsys", "symmetry", "property_name", "deprecated", "deprecation_reasons", "last_updated", "origins", "warnings", "task_ids", "uncorrected_energy_per_atom", "equilibrium_reaction_energy_per_atom", "decomposes_to", "xas", "grain_boundaries", "cbm", "vbm", "is_gap_direct", "is_metal", "es_source_calc_id", "bandstructure", "dos", "dos_energy_up", "dos_energy_down", "is_magnetic", "ordering", "total_magnetization_normalized_vol", "total_magnetization_normalized_formula_units", "num_magnetic_sites", "num_unique_magnetic_sites", "types_of_magnetic_species", "bulk_modulus", "shear_modulus", "universal_anisotropy", "homogeneous_poisson", "e_total", "e_ionic", "e_electronic", "n", "e_ij_max", "weighted_surface_energy_EV_PER_ANG2", "weighted_surface_energy", "weighted_work_function", "surface_anisotropy", "shape_factor", "has_reconstructed", "possible_species", "has_props", "theoretical", "database_IDs"]}