{
  "builder_meta": null,
  "nsites": null,
  "elements": null,
  "nelements": null,
  "composition": null,
  "composition_reduced": null,
  "formula_pretty": "NaBi3",
  "formula_anonymous": "AB3",
  "chemsys": null,
  "volume": 240.9929071295778,
  "density": 8.956577004171809,
  "density_atomic": 30.124113391197223,
  "symmetry": null,
  "property_name": null,
  "material_id": "mp-972941",
  "deprecated": null,
  "deprecation_reasons": null,
  "last_updated": null,
  "origins": null,
  "warnings": null,
  "structure": {
    "@module": "pymatgen.core.structure",
    "@class": "Structure",
    "charge": 0,
    "lattice": {
      "matrix": [
        [3.4663292, -6.00385804, 0.0],
        [3.4663292, 6.00385804, 0.0],
        [-0.0, 0.0, 5.78993975]
      ],
      "pbc": [true, true, true],
      "a": 6.93265818335545,
      "b": 6.93265818335545,
      "c": 5.78993975,
      "alpha": 90.0,
      "beta": 90.0,
      "gamma": 119.99999793252636,
      "volume": 240.9929071295778
    },
    "properties": {},
    "sites": [
      {
        "species": [{ "element": "Na", "occu": 1 }],
        "abc": [0.333333, 0.666667, 0.75],
        "properties": { "magmom": -0.0 },
        "label": "Na",
        "xyz": [3.4663292000000006, 2.00129001590536, 4.3424548125]
      },
      {
        "species": [{ "element": "Na", "occu": 1 }],
        "abc": [0.666667, 0.333333, 0.25],
        "properties": { "magmom": -0.0 },
        "label": "Na",
        "xyz": [3.4663292000000006, -2.00129001590536, 1.4474849375]
      },
      {
        "species": [{ "element": "Bi", "occu": 1 }],
        "abc": [0.33027796, 0.16513848, 0.75],
        "properties": { "magmom": 0.0 },
        "label": "Bi",
        "xyz": [1.7172764721320481, -0.991473994719419, 4.3424548125]
      },
      {
        "species": [{ "element": "Bi", "occu": 1 }],
        "abc": [0.83486152, 0.66972204, 0.75],
        "properties": { "magmom": 0.0 },
        "label": "Bi",
        "xyz": [5.215381927867952, -0.9914739947194198, 4.3424548125]
      },
      {
        "species": [{ "element": "Bi", "occu": 1 }],
        "abc": [0.16513848, 0.83486152, 0.25],
        "properties": { "magmom": 0.0 },
        "label": "Bi",
        "xyz": [3.4663292, 4.020922058277242, 1.4474849375]
      },
      {
        "species": [{ "element": "Bi", "occu": 1 }],
        "abc": [0.66972204, 0.83486152, 0.25],
        "properties": { "magmom": 0.0 },
        "label": "Bi",
        "xyz": [5.215381927867952, 0.9914739947194198, 1.4474849375]
      },
      {
        "species": [{ "element": "Bi", "occu": 1 }],
        "abc": [0.16513848, 0.33027796, 0.25],
        "properties": { "magmom": 0.0 },
        "label": "Bi",
        "xyz": [1.7172764721320481, 0.991473994719419, 1.4474849375]
      },
      {
        "species": [{ "element": "Bi", "occu": 1 }],
        "abc": [0.83486152, 0.16513848, 0.75],
        "properties": { "magmom": 0.0 },
        "label": "Bi",
        "xyz": [3.4663292, -4.020922058277242, 4.3424548125]
      }
    ]
  },
  "task_ids": null,
  "uncorrected_energy_per_atom": null,
  "energy_per_atom": -44.86282709125,
  "formation_energy_per_atom": -0.095076640000002,
  "energy_above_hull": 0.09552020124999601,
  "is_stable": false,
  "equilibrium_reaction_energy_per_atom": null,
  "decomposes_to": null,
  "xas": null,
  "grain_boundaries": null,
  "band_gap": 0.0,
  "cbm": null,
  "vbm": null,
  "efermi": 5.2369587,
  "is_gap_direct": null,
  "is_metal": null,
  "es_source_calc_id": null,
  "bandstructure": null,
  "dos": null,
  "dos_energy_up": null,
  "dos_energy_down": null,
  "is_magnetic": null,
  "ordering": null,
  "total_magnetization": 0.0,
  "total_magnetization_normalized_vol": null,
  "total_magnetization_normalized_formula_units": null,
  "num_magnetic_sites": null,
  "num_unique_magnetic_sites": null,
  "types_of_magnetic_species": null,
  "bulk_modulus": null,
  "shear_modulus": null,
  "universal_anisotropy": null,
  "homogeneous_poisson": null,
  "e_total": null,
  "e_ionic": null,
  "e_electronic": null,
  "n": null,
  "e_ij_max": null,
  "weighted_surface_energy_EV_PER_ANG2": null,
  "weighted_surface_energy": null,
  "weighted_work_function": null,
  "surface_anisotropy": null,
  "shape_factor": null,
  "has_reconstructed": null,
  "possible_species": null,
  "has_props": null,
  "theoretical": null,
  "database_IDs": null,
  "fields_not_requested": [
    "builder_meta",
    "nsites",
    "elements",
    "nelements",
    "composition",
    "composition_reduced",
    "chemsys",
    "symmetry",
    "property_name",
    "deprecated",
    "deprecation_reasons",
    "last_updated",
    "origins",
    "warnings",
    "task_ids",
    "uncorrected_energy_per_atom",
    "equilibrium_reaction_energy_per_atom",
    "decomposes_to",
    "xas",
    "grain_boundaries",
    "cbm",
    "vbm",
    "is_gap_direct",
    "is_metal",
    "es_source_calc_id",
    "bandstructure",
    "dos",
    "dos_energy_up",
    "dos_energy_down",
    "is_magnetic",
    "ordering",
    "total_magnetization_normalized_vol",
    "total_magnetization_normalized_formula_units",
    "num_magnetic_sites",
    "num_unique_magnetic_sites",
    "types_of_magnetic_species",
    "bulk_modulus",
    "shear_modulus",
    "universal_anisotropy",
    "homogeneous_poisson",
    "e_total",
    "e_ionic",
    "e_electronic",
    "n",
    "e_ij_max",
    "weighted_surface_energy_EV_PER_ANG2",
    "weighted_surface_energy",
    "weighted_work_function",
    "surface_anisotropy",
    "shape_factor",
    "has_reconstructed",
    "possible_species",
    "has_props",
    "theoretical",
    "database_IDs"
  ]
}
