{
  "builder_meta": null,
  "nsites": null,
  "elements": null,
  "nelements": null,
  "composition": null,
  "composition_reduced": null,
  "formula_pretty": "NaC",
  "formula_anonymous": "AB",
  "chemsys": null,
  "volume": 290.8752203110946,
  "density": 1.598476392086297,
  "density_atomic": 18.179701269443413,
  "symmetry": null,
  "property_name": null,
  "material_id": "mp-1267",
  "deprecated": null,
  "deprecation_reasons": null,
  "last_updated": null,
  "origins": null,
  "warnings": null,
  "structure": {
    "@module": "pymatgen.core.structure",
    "@class": "Structure",
    "charge": 0,
    "lattice": {
      "matrix": [
        [-3.393488, 3.393488, 6.31472],
        [3.393488, -3.393488, 6.31472],
        [3.393488, 3.393488, -6.31472]
      ],
      "pbc": [true, true, true],
      "a": 7.931406577063616,
      "b": 7.931406577063616,
      "c": 7.931406577063616,
      "alpha": 129.33704355326006,
      "beta": 129.33704355326006,
      "gamma": 74.46885762868618,
      "volume": 290.8752203110946
    },
    "properties": {},
    "sites": [
      {
        "species": [{ "element": "Na", "occu": 1 }],
        "abc": [0.125, 0.063819, 0.438818999999999],
        "properties": { "magmom": 0.0 },
        "label": "Na",
        "xyz": [1.2815100213439967, 1.6967439999999967, -1.5786799999999939]
      },
      {
        "species": [{ "element": "Na", "occu": 1 }],
        "abc": [0.813819, 0.875, 0.438818999999999],
        "properties": { "magmom": 0.0 },
        "label": "Na",
        "xyz": [1.6967439999999965, 1.281510021343997, 7.893400000000007]
      },
      {
        "species": [{ "element": "Na", "occu": 1 }],
        "abc": [0.436181, 0.375, 0.561180999999999],
        "properties": { "magmom": -0.0 },
        "label": "Na",
        "xyz": [1.6967439999999967, 2.1119779786559967, 1.578680000000006]
      },
      {
        "species": [{ "element": "Na", "occu": 1 }],
        "abc": [0.625, 0.686180999999999, 0.561180999999999],
        "properties": { "magmom": -0.0 },
        "label": "Na",
        "xyz": [2.111977978655993, 1.696744, 4.736040000000001]
      },
      {
        "species": [{ "element": "Na", "occu": 1 }],
        "abc": [0.625, 0.18618099999999901, 0.061181],
        "properties": { "magmom": 0.0 },
        "label": "Na",
        "xyz": [-1.2815100213440034, 1.6967440000000034, 4.736039999999994]
      },
      {
        "species": [{ "element": "Na", "occu": 1 }],
        "abc": [0.936180999999999, 0.375, 0.061181],
        "properties": { "magmom": 0.0 },
        "label": "Na",
        "xyz": [-1.696743999999997, 2.1119779786559967, 7.8933999999999935]
      },
      {
        "species": [{ "element": "Na", "occu": 1 }],
        "abc": [0.313818999999999, 0.875, 0.938819],
        "properties": { "magmom": -0.0 },
        "label": "Na",
        "xyz": [5.090232000000003, 1.2815100213439967, 1.578679999999994]
      },
      {
        "species": [{ "element": "Na", "occu": 1 }],
        "abc": [0.125, 0.563819, 0.938819],
        "properties": { "magmom": 0.0 },
        "label": "Na",
        "xyz": [4.674998021344, 1.6967439999999998, -1.5786800000000003]
      },
      {
        "species": [{ "element": "C", "occu": 1 }],
        "abc": [0.565834, 0.065834, 0.631667],
        "properties": { "magmom": 0.0 },
        "label": "C",
        "xyz": [0.4468103844960001, 3.8402983844959997, 6.3147199997892756e-6]
      },
      {
        "species": [{ "element": "C", "occu": 1 }],
        "abc": [0.815834, 0.684165999999999, 0.0],
        "properties": { "magmom": 0.0 },
        "label": "C",
        "xyz": [-0.4468137779840031, 0.4468137779840031, 9.472079999999995]
      },
      {
        "species": [{ "element": "C", "occu": 1 }],
        "abc": [0.684165999999999, 0.815834, 0.0],
        "properties": { "magmom": 0.0 },
        "label": "C",
        "xyz": [0.4468137779840031, -0.4468137779840031, 9.472079999999995]
      },
      {
        "species": [{ "element": "C", "occu": 1 }],
        "abc": [0.434166, 0.934165999999999, 0.368332999999999],
        "properties": { "magmom": 0.0 },
        "label": "C",
        "xyz": [2.9466776155039933, -0.4468103844960001, 6.314713685280001]
      },
      {
        "species": [{ "element": "C", "occu": 1 }],
        "abc": [0.184166, 0.184166, 0.868332999999999],
        "properties": { "magmom": 0.0 },
        "label": "C",
        "xyz": [2.946677615503997, 2.946677615503997, -3.157366314719994]
      },
      {
        "species": [{ "element": "C", "occu": 1 }],
        "abc": [0.934165999999999, 0.565834, 0.5],
        "properties": { "magmom": 0.0 },
        "label": "C",
        "xyz": [0.4468137779840031, 2.946674222015997, 6.314719999999994]
      },
      {
        "species": [{ "element": "C", "occu": 1 }],
        "abc": [0.065834, 0.434166, 0.5],
        "properties": { "magmom": 0.0 },
        "label": "C",
        "xyz": [2.946674222016, 0.446813777984, 0.0]
      },
      {
        "species": [{ "element": "C", "occu": 1 }],
        "abc": [0.315834, 0.315834, 0.131667],
        "properties": { "magmom": 0.0 },
        "label": "C",
        "xyz": [0.446810384496, 0.446810384496, 3.15736631472]
      }
    ]
  },
  "task_ids": null,
  "uncorrected_energy_per_atom": null,
  "energy_per_atom": -5.044131179375,
  "formation_energy_per_atom": 0.241061956185344,
  "energy_above_hull": 0.241061956185344,
  "is_stable": false,
  "equilibrium_reaction_energy_per_atom": null,
  "decomposes_to": null,
  "xas": null,
  "grain_boundaries": null,
  "band_gap": 3.165899999999999,
  "cbm": null,
  "vbm": null,
  "efermi": -0.34393421,
  "is_gap_direct": null,
  "is_metal": null,
  "es_source_calc_id": null,
  "bandstructure": null,
  "dos": null,
  "dos_energy_up": null,
  "dos_energy_down": null,
  "is_magnetic": null,
  "ordering": null,
  "total_magnetization": 0.0001311,
  "total_magnetization_normalized_vol": null,
  "total_magnetization_normalized_formula_units": null,
  "num_magnetic_sites": null,
  "num_unique_magnetic_sites": null,
  "types_of_magnetic_species": null,
  "bulk_modulus": null,
  "shear_modulus": null,
  "universal_anisotropy": null,
  "homogeneous_poisson": null,
  "e_total": null,
  "e_ionic": null,
  "e_electronic": null,
  "n": null,
  "e_ij_max": null,
  "weighted_surface_energy_EV_PER_ANG2": null,
  "weighted_surface_energy": null,
  "weighted_work_function": null,
  "surface_anisotropy": null,
  "shape_factor": null,
  "has_reconstructed": null,
  "possible_species": null,
  "has_props": null,
  "theoretical": null,
  "database_IDs": null,
  "fields_not_requested": [
    "builder_meta",
    "nsites",
    "elements",
    "nelements",
    "composition",
    "composition_reduced",
    "chemsys",
    "symmetry",
    "property_name",
    "deprecated",
    "deprecation_reasons",
    "last_updated",
    "origins",
    "warnings",
    "task_ids",
    "uncorrected_energy_per_atom",
    "equilibrium_reaction_energy_per_atom",
    "decomposes_to",
    "xas",
    "grain_boundaries",
    "cbm",
    "vbm",
    "is_gap_direct",
    "is_metal",
    "es_source_calc_id",
    "bandstructure",
    "dos",
    "dos_energy_up",
    "dos_energy_down",
    "is_magnetic",
    "ordering",
    "total_magnetization_normalized_vol",
    "total_magnetization_normalized_formula_units",
    "num_magnetic_sites",
    "num_unique_magnetic_sites",
    "types_of_magnetic_species",
    "bulk_modulus",
    "shear_modulus",
    "universal_anisotropy",
    "homogeneous_poisson",
    "e_total",
    "e_ionic",
    "e_electronic",
    "n",
    "e_ij_max",
    "weighted_surface_energy_EV_PER_ANG2",
    "weighted_surface_energy",
    "weighted_work_function",
    "surface_anisotropy",
    "shape_factor",
    "has_reconstructed",
    "possible_species",
    "has_props",
    "theoretical",
    "database_IDs"
  ]
}
