{
  "builder_meta": null,
  "nsites": null,
  "elements": null,
  "nelements": null,
  "composition": null,
  "composition_reduced": null,
  "formula_pretty": "NaC2",
  "formula_anonymous": "AB2",
  "chemsys": null,
  "volume": 98.74585112626148,
  "density": 3.162214200014108,
  "density_atomic": 8.228820927188456,
  "symmetry": null,
  "property_name": null,
  "material_id": "mp-1102647",
  "deprecated": null,
  "deprecation_reasons": null,
  "last_updated": null,
  "origins": null,
  "warnings": null,
  "structure": {
    "@module": "pymatgen.core.structure",
    "@class": "Structure",
    "charge": 0,
    "lattice": {
      "matrix": [
        [4.622103, 0.0, 0.0],
        [0.0, 4.622103, 0.0],
        [0.0, 0.0, 4.622103]
      ],
      "pbc": [true, true, true],
      "a": 4.622103,
      "b": 4.622103,
      "c": 4.622103,
      "alpha": 90.0,
      "beta": 90.0,
      "gamma": 90.0,
      "volume": 98.74585112626148
    },
    "properties": {},
    "sites": [
      {
        "species": [{ "element": "Na", "occu": 1 }],
        "abc": [0.375, 0.875, 0.625],
        "properties": { "magmom": -0.0 },
        "label": "Na",
        "xyz": [1.7332886250000001, 4.044340125, 2.888814375]
      },
      {
        "species": [{ "element": "Na", "occu": 1 }],
        "abc": [0.625, 0.375, 0.875],
        "properties": { "magmom": -0.0 },
        "label": "Na",
        "xyz": [2.888814375, 1.7332886250000001, 4.044340125]
      },
      {
        "species": [{ "element": "Na", "occu": 1 }],
        "abc": [0.875, 0.625, 0.375],
        "properties": { "magmom": -0.0 },
        "label": "Na",
        "xyz": [4.044340125, 2.888814375, 1.7332886250000001]
      },
      {
        "species": [{ "element": "Na", "occu": 1 }],
        "abc": [0.125, 0.125, 0.125],
        "properties": { "magmom": -0.0 },
        "label": "Na",
        "xyz": [0.577762875, 0.577762875, 0.577762875]
      },
      {
        "species": [{ "element": "C", "occu": 1 }],
        "abc": [0.648525999999999, 0.148526, 0.351474],
        "properties": { "magmom": -0.0 },
        "label": "C",
        "xyz": [2.9975539701779956, 0.6865024701779999, 1.624549029822]
      },
      {
        "species": [{ "element": "C", "occu": 1 }],
        "abc": [0.351474, 0.648525999999999, 0.148526],
        "properties": { "magmom": -0.0 },
        "label": "C",
        "xyz": [1.624549029822, 2.9975539701779956, 0.6865024701779999]
      },
      {
        "species": [{ "element": "C", "occu": 1 }],
        "abc": [0.148526, 0.351474, 0.648525999999999],
        "properties": { "magmom": -0.0 },
        "label": "C",
        "xyz": [0.6865024701779999, 1.624549029822, 2.9975539701779956]
      },
      {
        "species": [{ "element": "C", "occu": 1 }],
        "abc": [0.851474, 0.851474, 0.851474],
        "properties": { "magmom": -0.0 },
        "label": "C",
        "xyz": [3.935600529822, 3.935600529822, 3.935600529822]
      },
      {
        "species": [{ "element": "C", "occu": 1 }],
        "abc": [0.101474, 0.601474, 0.898525999999999],
        "properties": { "magmom": -0.0 },
        "label": "C",
        "xyz": [0.469023279822, 2.780074779822, 4.153079720177995]
      },
      {
        "species": [{ "element": "C", "occu": 1 }],
        "abc": [0.601474, 0.898525999999999, 0.101474],
        "properties": { "magmom": -0.0 },
        "label": "C",
        "xyz": [2.780074779822, 4.153079720177995, 0.469023279822]
      },
      {
        "species": [{ "element": "C", "occu": 1 }],
        "abc": [0.898525999999999, 0.101474, 0.601474],
        "properties": { "magmom": -0.0 },
        "label": "C",
        "xyz": [4.153079720177995, 0.469023279822, 2.780074779822]
      },
      {
        "species": [{ "element": "C", "occu": 1 }],
        "abc": [0.398526, 0.398526, 0.398526],
        "properties": { "magmom": -0.0 },
        "label": "C",
        "xyz": [1.842028220178, 1.842028220178, 1.842028220178]
      }
    ]
  },
  "task_ids": null,
  "uncorrected_energy_per_atom": null,
  "energy_per_atom": -5.45254297,
  "formation_energy_per_atom": 1.147140951206896,
  "energy_above_hull": 1.147140951206896,
  "is_stable": false,
  "equilibrium_reaction_energy_per_atom": null,
  "decomposes_to": null,
  "xas": null,
  "grain_boundaries": null,
  "band_gap": 0.0,
  "cbm": null,
  "vbm": null,
  "efermi": 6.35120717,
  "is_gap_direct": null,
  "is_metal": null,
  "es_source_calc_id": null,
  "bandstructure": null,
  "dos": null,
  "dos_energy_up": null,
  "dos_energy_down": null,
  "is_magnetic": null,
  "ordering": null,
  "total_magnetization": 0.0002036,
  "total_magnetization_normalized_vol": null,
  "total_magnetization_normalized_formula_units": null,
  "num_magnetic_sites": null,
  "num_unique_magnetic_sites": null,
  "types_of_magnetic_species": null,
  "bulk_modulus": null,
  "shear_modulus": null,
  "universal_anisotropy": null,
  "homogeneous_poisson": null,
  "e_total": null,
  "e_ionic": null,
  "e_electronic": null,
  "n": null,
  "e_ij_max": null,
  "weighted_surface_energy_EV_PER_ANG2": null,
  "weighted_surface_energy": null,
  "weighted_work_function": null,
  "surface_anisotropy": null,
  "shape_factor": null,
  "has_reconstructed": null,
  "possible_species": null,
  "has_props": null,
  "theoretical": null,
  "database_IDs": null,
  "fields_not_requested": [
    "builder_meta",
    "nsites",
    "elements",
    "nelements",
    "composition",
    "composition_reduced",
    "chemsys",
    "symmetry",
    "property_name",
    "deprecated",
    "deprecation_reasons",
    "last_updated",
    "origins",
    "warnings",
    "task_ids",
    "uncorrected_energy_per_atom",
    "equilibrium_reaction_energy_per_atom",
    "decomposes_to",
    "xas",
    "grain_boundaries",
    "cbm",
    "vbm",
    "is_gap_direct",
    "is_metal",
    "es_source_calc_id",
    "bandstructure",
    "dos",
    "dos_energy_up",
    "dos_energy_down",
    "is_magnetic",
    "ordering",
    "total_magnetization_normalized_vol",
    "total_magnetization_normalized_formula_units",
    "num_magnetic_sites",
    "num_unique_magnetic_sites",
    "types_of_magnetic_species",
    "bulk_modulus",
    "shear_modulus",
    "universal_anisotropy",
    "homogeneous_poisson",
    "e_total",
    "e_ionic",
    "e_electronic",
    "n",
    "e_ij_max",
    "weighted_surface_energy_EV_PER_ANG2",
    "weighted_surface_energy",
    "weighted_work_function",
    "surface_anisotropy",
    "shape_factor",
    "has_reconstructed",
    "possible_species",
    "has_props",
    "theoretical",
    "database_IDs"
  ]
}
