{
  "builder_meta": null,
  "nsites": null,
  "elements": null,
  "nelements": null,
  "composition": null,
  "composition_reduced": null,
  "formula_pretty": "NaCl3",
  "formula_anonymous": "AB3",
  "chemsys": null,
  "volume": 379.1519782722983,
  "density": 2.265990388179523,
  "density_atomic": 23.696998642018645,
  "symmetry": null,
  "property_name": null,
  "material_id": "mp-1189265",
  "deprecated": null,
  "deprecation_reasons": null,
  "last_updated": null,
  "origins": null,
  "warnings": null,
  "structure": {
    "@module": "pymatgen.core.structure",
    "@class": "Structure",
    "charge": 0,
    "lattice": {
      "matrix": [
        [0.0, 5.63130285, -0.0],
        [0.0, 0.0, 8.00036699],
        [8.41578308, 0.0, 0.0]
      ],
      "pbc": [true, true, true],
      "a": 5.63130285,
      "b": 8.00036699,
      "c": 8.41578308,
      "alpha": 90.0,
      "beta": 90.0,
      "gamma": 90.0,
      "volume": 379.1519782722983
    },
    "properties": {},
    "sites": [
      {
        "species": [{ "element": "Na", "occu": 1 }],
        "abc": [0.25, 0.05084515, 0.82062723],
        "properties": { "magmom": -0.0 },
        "label": "Na",
        "xyz": [6.906220757221269, 1.4078257125, 0.40677985966159846]
      },
      {
        "species": [{ "element": "Na", "occu": 1 }],
        "abc": [0.25, 0.44915485, 0.32062723],
        "properties": { "magmom": -0.0 },
        "label": "Na",
        "xyz": [2.6983292172212683, 1.4078257125, 3.5934036353384013]
      },
      {
        "species": [{ "element": "Na", "occu": 1 }],
        "abc": [0.75, 0.94915485, 0.17937277000000001],
        "properties": { "magmom": -0.0 },
        "label": "Na",
        "xyz": [1.5095623227787318, 4.2234771375, 7.593587130338402]
      },
      {
        "species": [{ "element": "Na", "occu": 1 }],
        "abc": [0.75, 0.55084515, 0.67937277],
        "properties": { "magmom": -0.0 },
        "label": "Na",
        "xyz": [5.717453862778732, 4.2234771375, 4.406963354661598]
      },
      {
        "species": [{ "element": "Cl", "occu": 1 }],
        "abc": [0.25, 0.35775917, 0.6424871],
        "properties": { "magmom": 0.0 },
        "label": "Cl",
        "xyz": [5.407032065298268, 1.4078257125, 2.8622046540377983]
      },
      {
        "species": [{ "element": "Cl", "occu": 1 }],
        "abc": [0.25, 0.14224083, 0.1424871],
        "properties": { "magmom": 0.0 },
        "label": "Cl",
        "xyz": [1.199140525298268, 1.4078257125, 1.1379788409622018]
      },
      {
        "species": [{ "element": "Cl", "occu": 1 }],
        "abc": [0.75, 0.64224083, 0.357512899999999],
        "properties": { "magmom": 0.0 },
        "label": "Cl",
        "xyz": [3.008751014701724, 4.2234771375, 5.1381623359622015]
      },
      {
        "species": [{ "element": "Cl", "occu": 1 }],
        "abc": [0.75, 0.85775917, 0.857512899999999],
        "properties": { "magmom": 0.0 },
        "label": "Cl",
        "xyz": [7.216642554701724, 4.2234771375, 6.862388149037798]
      },
      {
        "species": [{ "element": "Cl", "occu": 1 }],
        "abc": [0.25, 0.78840453, 0.58103751],
        "properties": { "magmom": 0.0 },
        "label": "Cl",
        "xyz": [4.889885645503331, 1.4078257125, 6.307525576578464]
      },
      {
        "species": [{ "element": "Cl", "occu": 1 }],
        "abc": [0.25, 0.71159547, 0.08103751000000001],
        "properties": { "magmom": 0.0 },
        "label": "Cl",
        "xyz": [0.681994105503331, 1.4078257125, 5.693024908421536]
      },
      {
        "species": [{ "element": "Cl", "occu": 1 }],
        "abc": [0.75, 0.21159547, 0.41896249],
        "properties": { "magmom": 0.0 },
        "label": "Cl",
        "xyz": [3.52589743449667, 4.2234771375, 1.6928414134215353]
      },
      {
        "species": [{ "element": "Cl", "occu": 1 }],
        "abc": [0.75, 0.28840453, 0.91896249],
        "properties": { "magmom": 0.0 },
        "label": "Cl",
        "xyz": [7.73378897449667, 4.2234771375, 2.3073420815784647]
      },
      {
        "species": [{ "element": "Cl", "occu": 1 }],
        "abc": [0.25, 0.55114007, 0.87982486],
        "properties": { "magmom": 0.0 },
        "label": "Cl",
        "xyz": [7.40441517015137, 1.4078257125, 4.409322822894289]
      },
      {
        "species": [{ "element": "Cl", "occu": 1 }],
        "abc": [0.25, 0.94885993, 0.37982486],
        "properties": { "magmom": 0.0 },
        "label": "Cl",
        "xyz": [3.196523630151369, 1.4078257125, 7.591227662105711]
      },
      {
        "species": [{ "element": "Cl", "occu": 1 }],
        "abc": [0.75, 0.44885993, 0.12017514],
        "properties": { "magmom": 0.0 },
        "label": "Cl",
        "xyz": [1.0113679098486312, 4.2234771375, 3.5910441671057107]
      },
      {
        "species": [{ "element": "Cl", "occu": 1 }],
        "abc": [0.75, 0.05114007, 0.62017514],
        "properties": { "magmom": 0.0 },
        "label": "Cl",
        "xyz": [5.219259449848631, 4.2234771375, 0.4091393278942893]
      }
    ]
  },
  "task_ids": null,
  "uncorrected_energy_per_atom": null,
  "energy_per_atom": -6.44463249875,
  "formation_energy_per_atom": -0.9392581831249991,
  "energy_above_hull": 0.07994240250000001,
  "is_stable": false,
  "equilibrium_reaction_energy_per_atom": null,
  "decomposes_to": null,
  "xas": null,
  "grain_boundaries": null,
  "band_gap": 2.7105,
  "cbm": null,
  "vbm": null,
  "efermi": 2.47975572,
  "is_gap_direct": null,
  "is_metal": null,
  "es_source_calc_id": null,
  "bandstructure": null,
  "dos": null,
  "dos_energy_up": null,
  "dos_energy_down": null,
  "is_magnetic": null,
  "ordering": null,
  "total_magnetization": 0.0,
  "total_magnetization_normalized_vol": null,
  "total_magnetization_normalized_formula_units": null,
  "num_magnetic_sites": null,
  "num_unique_magnetic_sites": null,
  "types_of_magnetic_species": null,
  "bulk_modulus": null,
  "shear_modulus": null,
  "universal_anisotropy": null,
  "homogeneous_poisson": null,
  "e_total": null,
  "e_ionic": null,
  "e_electronic": null,
  "n": null,
  "e_ij_max": null,
  "weighted_surface_energy_EV_PER_ANG2": null,
  "weighted_surface_energy": null,
  "weighted_work_function": null,
  "surface_anisotropy": null,
  "shape_factor": null,
  "has_reconstructed": null,
  "possible_species": null,
  "has_props": null,
  "theoretical": null,
  "database_IDs": null,
  "fields_not_requested": [
    "builder_meta",
    "nsites",
    "elements",
    "nelements",
    "composition",
    "composition_reduced",
    "chemsys",
    "symmetry",
    "property_name",
    "deprecated",
    "deprecation_reasons",
    "last_updated",
    "origins",
    "warnings",
    "task_ids",
    "uncorrected_energy_per_atom",
    "equilibrium_reaction_energy_per_atom",
    "decomposes_to",
    "xas",
    "grain_boundaries",
    "cbm",
    "vbm",
    "is_gap_direct",
    "is_metal",
    "es_source_calc_id",
    "bandstructure",
    "dos",
    "dos_energy_up",
    "dos_energy_down",
    "is_magnetic",
    "ordering",
    "total_magnetization_normalized_vol",
    "total_magnetization_normalized_formula_units",
    "num_magnetic_sites",
    "num_unique_magnetic_sites",
    "types_of_magnetic_species",
    "bulk_modulus",
    "shear_modulus",
    "universal_anisotropy",
    "homogeneous_poisson",
    "e_total",
    "e_ionic",
    "e_electronic",
    "n",
    "e_ij_max",
    "weighted_surface_energy_EV_PER_ANG2",
    "weighted_surface_energy",
    "weighted_work_function",
    "surface_anisotropy",
    "shape_factor",
    "has_reconstructed",
    "possible_species",
    "has_props",
    "theoretical",
    "database_IDs"
  ]
}
