{"builder_meta": null, "nsites": null, "elements": null, "nelements": null, "composition": null, "composition_reduced": null, "formula_pretty": "NaCo3", "formula_anonymous": "AB3", "chemsys": null, "volume": 125.65550936105757, "density": 5.280437436602272, "density_atomic": 15.706938670132196, "symmetry": null, "property_name": null, "material_id": "mp-973352", "deprecated": null, "deprecation_reasons": null, "last_updated": null, "origins": null, "warnings": null, "structure": {"@module": "pymatgen.core.structure", "@class": "Structure", "charge": 0, "lattice": {"matrix": [[3.00534, -5.205402, 0.0], [3.00534, 5.205402, 0.0], [0.0, 0.0, 4.016092]], "pbc": [true, true, true], "a": 6.010680368910329, "b": 6.010680368910329, "c": 4.016092, "alpha": 90.0, "beta": 90.0, "gamma": 120.00000406059034, "volume": 125.65550936105757}, "properties": {}, "sites": [{"species": [{"element": "Na", "occu": 1}], "abc": [0.666667, 0.333333, 0.25], "properties": {"magmom": -0.018000000000000002}, "label": "Na", "xyz": [3.00534, -1.7351374702680002, 1.004023]}, {"species": [{"element": "Na", "occu": 1}], "abc": [0.333333, 0.666667, 0.75], "properties": {"magmom": -0.018000000000000002}, "label": "Na", "xyz": [3.00534, 1.7351374702680002, 3.0120690000000003]}, {"species": [{"element": "Co", "occu": 1}], "abc": [0.131494, 0.868506, 0.25], "properties": {"magmom": 1.824}, "label": "Co", "xyz": [3.00534, 3.836443738824, 1.004023]}, {"species": [{"element": "Co", "occu": 1}], "abc": [0.737012, 0.868506, 0.25], "properties": {"magmom": 1.8250000000000002}, "label": "Co", "xyz": [4.82512746612, 0.6844791305879996, 1.004023]}, {"species": [{"element": "Co", "occu": 1}], "abc": [0.131494, 0.262988, 0.25], "properties": {"magmom": 1.824}, "label": "Co", "xyz": [1.18555253388, 0.684479130588, 1.004023]}, {"species": [{"element": "Co", "occu": 1}], "abc": [0.868506, 0.131494, 0.75], "properties": {"magmom": 1.823}, "label": "Co", "xyz": [3.00534, -3.836443738824, 3.0120690000000003]}, {"species": [{"element": "Co", "occu": 1}], "abc": [0.262988, 0.131494, 0.75], "properties": {"magmom": 1.8250000000000002}, "label": "Co", "xyz": [1.18555253388, -0.684479130588, 3.0120690000000003]}, {"species": [{"element": "Co", "occu": 1}], "abc": [0.868506, 0.737012, 0.75], "properties": {"magmom": 1.8250000000000002}, "label": "Co", "xyz": [4.82512746612, -0.6844791305879996, 3.0120690000000003]}]}, "task_ids": null, "uncorrected_energy_per_atom": null, "energy_per_atom": -10.174994589137931, "formation_energy_per_atom": 0.6417239008620681, "energy_above_hull": 0.6417239008620681, "is_stable": false, "equilibrium_reaction_energy_per_atom": null, "decomposes_to": null, "xas": null, "grain_boundaries": null, "band_gap": 0.0, "cbm": null, "vbm": null, "efermi": 2.90353384, "is_gap_direct": null, "is_metal": null, "es_source_calc_id": null, "bandstructure": null, "dos": null, "dos_energy_up": null, "dos_energy_down": null, "is_magnetic": null, "ordering": null, "total_magnetization": 10.7973445, "total_magnetization_normalized_vol": null, "total_magnetization_normalized_formula_units": null, "num_magnetic_sites": null, "num_unique_magnetic_sites": null, "types_of_magnetic_species": null, "bulk_modulus": null, "shear_modulus": null, "universal_anisotropy": null, "homogeneous_poisson": null, "e_total": null, "e_ionic": null, "e_electronic": null, "n": null, "e_ij_max": null, "weighted_surface_energy_EV_PER_ANG2": null, "weighted_surface_energy": null, "weighted_work_function": null, "surface_anisotropy": null, "shape_factor": null, "has_reconstructed": null, "possible_species": null, "has_props": null, "theoretical": null, "database_IDs": null, "fields_not_requested": ["builder_meta", "nsites", "elements", "nelements", "composition", "composition_reduced", "chemsys", "symmetry", "property_name", "deprecated", "deprecation_reasons", "last_updated", "origins", "warnings", "task_ids", "uncorrected_energy_per_atom", "equilibrium_reaction_energy_per_atom", "decomposes_to", "xas", "grain_boundaries", "cbm", "vbm", "is_gap_direct", "is_metal", "es_source_calc_id", "bandstructure", "dos", "dos_energy_up", "dos_energy_down", "is_magnetic", "ordering", "total_magnetization_normalized_vol", "total_magnetization_normalized_formula_units", "num_magnetic_sites", "num_unique_magnetic_sites", "types_of_magnetic_species", "bulk_modulus", "shear_modulus", "universal_anisotropy", "homogeneous_poisson", "e_total", "e_ionic", "e_electronic", "n", "e_ij_max", "weighted_surface_energy_EV_PER_ANG2", "weighted_surface_energy", "weighted_work_function", "surface_anisotropy", "shape_factor", "has_reconstructed", "possible_species", "has_props", "theoretical", "database_IDs"]}