{
  "builder_meta": null,
  "nsites": null,
  "elements": null,
  "nelements": null,
  "composition": null,
  "composition_reduced": null,
  "formula_pretty": "NaDy3",
  "formula_anonymous": "AB3",
  "chemsys": null,
  "volume": 258.40751389439384,
  "density": 6.560863437860359,
  "density_atomic": 32.30093923679923,
  "symmetry": null,
  "property_name": null,
  "material_id": "mp-976829",
  "deprecated": null,
  "deprecation_reasons": null,
  "last_updated": null,
  "origins": null,
  "warnings": null,
  "structure": {
    "@module": "pymatgen.core.structure",
    "@class": "Structure",
    "charge": 0,
    "lattice": {
      "matrix": [
        [3.593694, -6.224461, 0.0],
        [3.593694, 6.224461, 0.0],
        [0.0, 0.0, 5.776068]
      ],
      "pbc": [true, true, true],
      "a": 7.187388350865493,
      "b": 7.187388350865493,
      "c": 5.776068,
      "alpha": 90.0,
      "beta": 90.0,
      "gamma": 120.00000322969527,
      "volume": 258.40751389439384
    },
    "properties": {},
    "sites": [
      {
        "species": [{ "element": "Na", "occu": 1 }],
        "abc": [0.333333, 0.666667, 0.75],
        "properties": { "magmom": 0.009000000000000001 },
        "label": "Na",
        "xyz": [3.593694, 2.074824482974, 4.332051]
      },
      {
        "species": [{ "element": "Na", "occu": 1 }],
        "abc": [0.666667, 0.333333, 0.25],
        "properties": { "magmom": 0.009000000000000001 },
        "label": "Na",
        "xyz": [3.593694, -2.074824482974, 1.444017]
      },
      {
        "species": [{ "element": "Dy", "occu": 1 }],
        "abc": [0.164424, 0.835576, 0.25],
        "properties": { "magmom": 0.32 },
        "label": "Dy",
        "xyz": [3.593694, 4.177559449072, 1.444017]
      },
      {
        "species": [{ "element": "Dy", "occu": 1 }],
        "abc": [0.835576, 0.671152, 0.75],
        "properties": { "magmom": 0.32 },
        "label": "Dy",
        "xyz": [5.414719373232, -1.023450775464, 4.332051]
      },
      {
        "species": [{ "element": "Dy", "occu": 1 }],
        "abc": [0.328848, 0.164424, 0.75],
        "properties": { "magmom": 0.318 },
        "label": "Dy",
        "xyz": [1.772668626768, -1.0234507754639999, 4.332051]
      },
      {
        "species": [{ "element": "Dy", "occu": 1 }],
        "abc": [0.835576, 0.164424, 0.75],
        "properties": { "magmom": 0.32 },
        "label": "Dy",
        "xyz": [3.593694, -4.177559449072, 4.332051]
      },
      {
        "species": [{ "element": "Dy", "occu": 1 }],
        "abc": [0.164424, 0.328848, 0.25],
        "properties": { "magmom": 0.32 },
        "label": "Dy",
        "xyz": [1.772668626768, 1.0234507754639999, 1.444017]
      },
      {
        "species": [{ "element": "Dy", "occu": 1 }],
        "abc": [0.671152, 0.835576, 0.25],
        "properties": { "magmom": 0.318 },
        "label": "Dy",
        "xyz": [5.414719373232, 1.023450775464, 1.444017]
      }
    ]
  },
  "task_ids": null,
  "uncorrected_energy_per_atom": null,
  "energy_per_atom": -24.570934740387933,
  "formation_energy_per_atom": 0.306462820862069,
  "energy_above_hull": 0.306462820862069,
  "is_stable": false,
  "equilibrium_reaction_energy_per_atom": null,
  "decomposes_to": null,
  "xas": null,
  "grain_boundaries": null,
  "band_gap": 0.0,
  "cbm": null,
  "vbm": null,
  "efermi": 2.4782144,
  "is_gap_direct": null,
  "is_metal": null,
  "es_source_calc_id": null,
  "bandstructure": null,
  "dos": null,
  "dos_energy_up": null,
  "dos_energy_down": null,
  "is_magnetic": null,
  "ordering": null,
  "total_magnetization": 2.9010138,
  "total_magnetization_normalized_vol": null,
  "total_magnetization_normalized_formula_units": null,
  "num_magnetic_sites": null,
  "num_unique_magnetic_sites": null,
  "types_of_magnetic_species": null,
  "bulk_modulus": null,
  "shear_modulus": null,
  "universal_anisotropy": null,
  "homogeneous_poisson": null,
  "e_total": null,
  "e_ionic": null,
  "e_electronic": null,
  "n": null,
  "e_ij_max": null,
  "weighted_surface_energy_EV_PER_ANG2": null,
  "weighted_surface_energy": null,
  "weighted_work_function": null,
  "surface_anisotropy": null,
  "shape_factor": null,
  "has_reconstructed": null,
  "possible_species": null,
  "has_props": null,
  "theoretical": null,
  "database_IDs": null,
  "fields_not_requested": [
    "builder_meta",
    "nsites",
    "elements",
    "nelements",
    "composition",
    "composition_reduced",
    "chemsys",
    "symmetry",
    "property_name",
    "deprecated",
    "deprecation_reasons",
    "last_updated",
    "origins",
    "warnings",
    "task_ids",
    "uncorrected_energy_per_atom",
    "equilibrium_reaction_energy_per_atom",
    "decomposes_to",
    "xas",
    "grain_boundaries",
    "cbm",
    "vbm",
    "is_gap_direct",
    "is_metal",
    "es_source_calc_id",
    "bandstructure",
    "dos",
    "dos_energy_up",
    "dos_energy_down",
    "is_magnetic",
    "ordering",
    "total_magnetization_normalized_vol",
    "total_magnetization_normalized_formula_units",
    "num_magnetic_sites",
    "num_unique_magnetic_sites",
    "types_of_magnetic_species",
    "bulk_modulus",
    "shear_modulus",
    "universal_anisotropy",
    "homogeneous_poisson",
    "e_total",
    "e_ionic",
    "e_electronic",
    "n",
    "e_ij_max",
    "weighted_surface_energy_EV_PER_ANG2",
    "weighted_surface_energy",
    "weighted_work_function",
    "surface_anisotropy",
    "shape_factor",
    "has_reconstructed",
    "possible_species",
    "has_props",
    "theoretical",
    "database_IDs"
  ]
}
