{
  "builder_meta": null,
  "nsites": null,
  "elements": null,
  "nelements": null,
  "composition": null,
  "composition_reduced": null,
  "formula_pretty": "NaEu3",
  "formula_anonymous": "AB3",
  "chemsys": null,
  "volume": 177.5177868092662,
  "density": 4.479561741192569,
  "density_atomic": 44.37944670231655,
  "symmetry": null,
  "property_name": null,
  "material_id": "mp-1186172",
  "deprecated": null,
  "deprecation_reasons": null,
  "last_updated": null,
  "origins": null,
  "warnings": null,
  "structure": {
    "@module": "pymatgen.core.structure",
    "@class": "Structure",
    "charge": 0,
    "lattice": {
      "matrix": [
        [-2.733647, 2.733647, 5.938777],
        [2.733647, -2.733647, 5.938777],
        [2.733647, 2.733647, -5.938777]
      ],
      "pbc": [true, true, true],
      "a": 7.086234832190294,
      "b": 7.086234832190294,
      "c": 7.086234832190294,
      "alpha": 134.61706972196302,
      "beta": 134.61706972196302,
      "gamma": 66.12577245989219,
      "volume": 177.5177868092662
    },
    "properties": {},
    "sites": [
      {
        "species": [{ "element": "Na", "occu": 1 }],
        "abc": [0.0, 0.0, 0.0],
        "properties": { "magmom": -0.004 },
        "label": "Na",
        "xyz": [0.0, 0.0, 0.0]
      },
      {
        "species": [{ "element": "Eu", "occu": 1 }],
        "abc": [0.75, 0.25, 0.5],
        "properties": { "magmom": 6.961 },
        "label": "Eu",
        "xyz": [-2.220446049250313e-16, 2.7336470000000004, 2.9693885]
      },
      {
        "species": [{ "element": "Eu", "occu": 1 }],
        "abc": [0.25, 0.75, 0.5],
        "properties": { "magmom": 6.961 },
        "label": "Eu",
        "xyz": [2.7336470000000004, -2.220446049250313e-16, 2.9693885]
      },
      {
        "species": [{ "element": "Eu", "occu": 1 }],
        "abc": [0.5, 0.5, 0.0],
        "properties": { "magmom": 6.978 },
        "label": "Eu",
        "xyz": [0.0, 0.0, 5.938777]
      }
    ]
  },
  "task_ids": null,
  "uncorrected_energy_per_atom": null,
  "energy_per_atom": -29.682404612887932,
  "formation_energy_per_atom": 0.09930256586206801,
  "energy_above_hull": 0.09930256586206801,
  "is_stable": false,
  "equilibrium_reaction_energy_per_atom": null,
  "decomposes_to": null,
  "xas": null,
  "grain_boundaries": null,
  "band_gap": 0.0,
  "cbm": null,
  "vbm": null,
  "efermi": 1.47451741,
  "is_gap_direct": null,
  "is_metal": null,
  "es_source_calc_id": null,
  "bandstructure": null,
  "dos": null,
  "dos_energy_up": null,
  "dos_energy_down": null,
  "is_magnetic": null,
  "ordering": null,
  "total_magnetization": 22.0664165,
  "total_magnetization_normalized_vol": null,
  "total_magnetization_normalized_formula_units": null,
  "num_magnetic_sites": null,
  "num_unique_magnetic_sites": null,
  "types_of_magnetic_species": null,
  "bulk_modulus": null,
  "shear_modulus": null,
  "universal_anisotropy": null,
  "homogeneous_poisson": null,
  "e_total": null,
  "e_ionic": null,
  "e_electronic": null,
  "n": null,
  "e_ij_max": null,
  "weighted_surface_energy_EV_PER_ANG2": null,
  "weighted_surface_energy": null,
  "weighted_work_function": null,
  "surface_anisotropy": null,
  "shape_factor": null,
  "has_reconstructed": null,
  "possible_species": null,
  "has_props": null,
  "theoretical": null,
  "database_IDs": null,
  "fields_not_requested": [
    "builder_meta",
    "nsites",
    "elements",
    "nelements",
    "composition",
    "composition_reduced",
    "chemsys",
    "symmetry",
    "property_name",
    "deprecated",
    "deprecation_reasons",
    "last_updated",
    "origins",
    "warnings",
    "task_ids",
    "uncorrected_energy_per_atom",
    "equilibrium_reaction_energy_per_atom",
    "decomposes_to",
    "xas",
    "grain_boundaries",
    "cbm",
    "vbm",
    "is_gap_direct",
    "is_metal",
    "es_source_calc_id",
    "bandstructure",
    "dos",
    "dos_energy_up",
    "dos_energy_down",
    "is_magnetic",
    "ordering",
    "total_magnetization_normalized_vol",
    "total_magnetization_normalized_formula_units",
    "num_magnetic_sites",
    "num_unique_magnetic_sites",
    "types_of_magnetic_species",
    "bulk_modulus",
    "shear_modulus",
    "universal_anisotropy",
    "homogeneous_poisson",
    "e_total",
    "e_ionic",
    "e_electronic",
    "n",
    "e_ij_max",
    "weighted_surface_energy_EV_PER_ANG2",
    "weighted_surface_energy",
    "weighted_work_function",
    "surface_anisotropy",
    "shape_factor",
    "has_reconstructed",
    "possible_species",
    "has_props",
    "theoretical",
    "database_IDs"
  ]
}
