{"builder_meta": null, "nsites": null, "elements": null, "nelements": null, "composition": null, "composition_reduced": null, "formula_pretty": "NaF3", "formula_anonymous": "AB3", "chemsys": null, "volume": 42.535675169052155, "density": 3.122512611908672, "density_atomic": 10.633918792263039, "symmetry": null, "property_name": null, "material_id": "mp-976404", "deprecated": null, "deprecation_reasons": null, "last_updated": null, "origins": null, "warnings": null, "structure": {"@module": "pymatgen.core.structure", "@class": "Structure", "charge": 0, "lattice": {"matrix": [[-1.62965878, 1.62969904, 4.01539022], [1.62969441, -1.62965213, 4.01538549], [1.62502452, 1.62501787, -4.01537047]], "pbc": [true, true, true], "a": 4.629801866071555, "b": 4.629793793259191, "c": 4.626509243454355, "alpha": 138.82687487417218, "beta": 138.82693921970295, "gamma": 59.70901613684721, "volume": 42.53567516905215}, "properties": {}, "sites": [{"species": [{"element": "Na", "occu": 1}], "abc": [-1.1e-06, -1.209999999999999e-06, -2.17e-06], "properties": {"magmom": -0.005}, "label": "Na", "xyz": [-3.7056087864999985e-06, -3.3470786446000014e-06, -5.621917649999966e-07]}, {"species": [{"element": "F", "occu": 1}], "abc": [0.75018293, 0.2498186, 0.50000192], "properties": {"magmom": 0.6990000000000001}, "label": "F", "xyz": [-0.0028988424995211037, 1.6279670422760797, 2.0077022373937568]}, {"species": [{"element": "F", "occu": 1}], "abc": [0.24981825, 0.7501831, 0.50000076], "properties": {"magmom": 0.6990000000000001}, "label": "F", "xyz": [1.6279641950483712, -0.0028987545919416657, 2.0077038057291765]}, {"species": [{"element": "F", "occu": 1}], "abc": [0.50000092, 0.50000051, 1.49e-06], "properties": {"magmom": 0.503}, "label": "F", "xyz": [1.956814460632616e-05, 2.6544477156768126e-05, 4.015387614103601]}]}, "task_ids": null, "uncorrected_energy_per_atom": null, "energy_per_atom": -4.4778923375, "formation_energy_per_atom": -1.2423262325, "energy_above_hull": 0.237959994999999, "is_stable": false, "equilibrium_reaction_energy_per_atom": null, "decomposes_to": null, "xas": null, "grain_boundaries": null, "band_gap": 0.0, "cbm": null, "vbm": null, "efermi": -3.07315826, "is_gap_direct": null, "is_metal": null, "es_source_calc_id": null, "bandstructure": null, "dos": null, "dos_energy_up": null, "dos_energy_down": null, "is_magnetic": null, "ordering": null, "total_magnetization": 2.0, "total_magnetization_normalized_vol": null, "total_magnetization_normalized_formula_units": null, "num_magnetic_sites": null, "num_unique_magnetic_sites": null, "types_of_magnetic_species": null, "bulk_modulus": null, "shear_modulus": null, "universal_anisotropy": null, "homogeneous_poisson": null, "e_total": null, "e_ionic": null, "e_electronic": null, "n": null, "e_ij_max": null, "weighted_surface_energy_EV_PER_ANG2": null, "weighted_surface_energy": null, "weighted_work_function": null, "surface_anisotropy": null, "shape_factor": null, "has_reconstructed": null, "possible_species": null, "has_props": null, "theoretical": null, "database_IDs": null, "fields_not_requested": ["builder_meta", "nsites", "elements", "nelements", "composition", "composition_reduced", "chemsys", "symmetry", "property_name", "deprecated", "deprecation_reasons", "last_updated", "origins", "warnings", "task_ids", "uncorrected_energy_per_atom", "equilibrium_reaction_energy_per_atom", "decomposes_to", "xas", "grain_boundaries", "cbm", "vbm", "is_gap_direct", "is_metal", "es_source_calc_id", "bandstructure", "dos", "dos_energy_up", "dos_energy_down", "is_magnetic", "ordering", "total_magnetization_normalized_vol", "total_magnetization_normalized_formula_units", "num_magnetic_sites", "num_unique_magnetic_sites", "types_of_magnetic_species", "bulk_modulus", "shear_modulus", "universal_anisotropy", "homogeneous_poisson", "e_total", "e_ionic", "e_electronic", "n", "e_ij_max", "weighted_surface_energy_EV_PER_ANG2", "weighted_surface_energy", "weighted_work_function", "surface_anisotropy", "shape_factor", "has_reconstructed", "possible_species", "has_props", "theoretical", "database_IDs"]}