{"builder_meta": null, "nsites": null, "elements": null, "nelements": null, "composition": null, "composition_reduced": null, "formula_pretty": "NaGa4", "formula_anonymous": "AB4", "chemsys": null, "volume": 97.82731658601685, "density": 5.124197298645112, "density_atomic": 19.56546331720337, "symmetry": null, "property_name": null, "material_id": "mp-454", "deprecated": null, "deprecation_reasons": null, "last_updated": null, "origins": null, "warnings": null, "structure": {"@module": "pymatgen.core.structure", "@class": "Structure", "charge": 0, "lattice": {"matrix": [[3.956182, 0.0, -1.389973], [-0.488355, 3.925925, -1.389973], [-0.00727, -0.008231, 6.304397]], "pbc": [true, true, true], "a": 4.19325660529534, "b": 4.193256807349032, "c": 6.304406564925045, "alpha": 109.42457752346957, "beta": 109.42457274089665, "gamma": 89.99998800827684, "volume": 97.82731658601683}, "properties": {}, "sites": [{"species": [{"element": "Na", "occu": 1}], "abc": [0.0, 0.0, 0.0], "properties": {"magmom": -0.0}, "label": "Na", "xyz": [0.0, 0.0, 0.0]}, {"species": [{"element": "Ga", "occu": 1}], "abc": [0.25, 0.75, 0.5], "properties": {"magmom": -0.0}, "label": "Ga", "xyz": [0.61914425, 2.94032825, 1.7622255]}, {"species": [{"element": "Ga", "occu": 1}], "abc": [0.389333999999999, 0.389333999999999, 0.778667], "properties": {"magmom": -0.0}, "label": "Ga", "xyz": [1.3444820481279967, 1.5220868758729962, 3.826698402835002]}, {"species": [{"element": "Ga", "occu": 1}], "abc": [0.610667, 0.610667, 0.221333], "properties": {"magmom": -0.0}, "label": "Ga", "xyz": [2.116078419699, 2.3956110500519996, -0.3022501827809998]}, {"species": [{"element": "Ga", "occu": 1}], "abc": [0.75, 0.25, 0.5], "properties": {"magmom": -0.0}, "label": "Ga", "xyz": [2.84141275, 0.9773657499999999, 1.7622255]}]}, "task_ids": null, "uncorrected_energy_per_atom": null, "energy_per_atom": -2.829589079999999, "formation_energy_per_atom": -0.138768106275861, "energy_above_hull": 0.0, "is_stable": true, "equilibrium_reaction_energy_per_atom": null, "decomposes_to": null, "xas": null, "grain_boundaries": null, "band_gap": 0.0, "cbm": null, "vbm": null, "efermi": 2.6794806700000002, "is_gap_direct": null, "is_metal": null, "es_source_calc_id": null, "bandstructure": null, "dos": null, "dos_energy_up": null, "dos_energy_down": null, "is_magnetic": null, "ordering": null, "total_magnetization": 1.18e-05, "total_magnetization_normalized_vol": null, "total_magnetization_normalized_formula_units": null, "num_magnetic_sites": null, "num_unique_magnetic_sites": null, "types_of_magnetic_species": null, "bulk_modulus": null, "shear_modulus": null, "universal_anisotropy": null, "homogeneous_poisson": null, "e_total": null, "e_ionic": null, "e_electronic": null, "n": null, "e_ij_max": null, "weighted_surface_energy_EV_PER_ANG2": null, "weighted_surface_energy": null, "weighted_work_function": null, "surface_anisotropy": null, "shape_factor": null, "has_reconstructed": null, "possible_species": null, "has_props": null, "theoretical": null, "database_IDs": null, "fields_not_requested": ["builder_meta", "nsites", "elements", "nelements", "composition", "composition_reduced", "chemsys", "symmetry", "property_name", "deprecated", "deprecation_reasons", "last_updated", "origins", "warnings", "task_ids", "uncorrected_energy_per_atom", "equilibrium_reaction_energy_per_atom", "decomposes_to", "xas", "grain_boundaries", "cbm", "vbm", "is_gap_direct", "is_metal", "es_source_calc_id", "bandstructure", "dos", "dos_energy_up", "dos_energy_down", "is_magnetic", "ordering", "total_magnetization_normalized_vol", "total_magnetization_normalized_formula_units", "num_magnetic_sites", "num_unique_magnetic_sites", "types_of_magnetic_species", "bulk_modulus", "shear_modulus", "universal_anisotropy", "homogeneous_poisson", "e_total", "e_ionic", "e_electronic", "n", "e_ij_max", "weighted_surface_energy_EV_PER_ANG2", "weighted_surface_energy", "weighted_work_function", "surface_anisotropy", "shape_factor", "has_reconstructed", "possible_species", "has_props", "theoretical", "database_IDs"]}