{"builder_meta": null, "nsites": null, "elements": null, "nelements": null, "composition": null, "composition_reduced": null, "formula_pretty": "NaGd3", "formula_anonymous": "AB3", "chemsys": null, "volume": 265.06127920564654, "density": 6.198828566376356, "density_atomic": 33.13265990070582, "symmetry": null, "property_name": null, "material_id": "mp-1186226", "deprecated": null, "deprecation_reasons": null, "last_updated": null, "origins": null, "warnings": null, "structure": {"@module": "pymatgen.core.structure", "@class": "Structure", "charge": 0, "lattice": {"matrix": [[3.616044999999999, -6.263174, 0.0], [3.616044999999999, 6.263174, 0.0], [0.0, 0.0, 5.85178]], "pbc": [true, true, true], "a": 7.2320902923222, "b": 7.2320902923222, "c": 5.85178, "alpha": 90.0, "beta": 90.0, "gamma": 120.00000267417585, "volume": 265.06127920564643}, "properties": {}, "sites": [{"species": [{"element": "Na", "occu": 1}], "abc": [0.333333, 0.666667, 0.75], "properties": {"magmom": 0.005}, "label": "Na", "xyz": [3.616044999999999, 2.087728842116, 4.388835]}, {"species": [{"element": "Na", "occu": 1}], "abc": [0.666667, 0.333333, 0.25], "properties": {"magmom": 0.005}, "label": "Na", "xyz": [3.616044999999999, -2.087728842116, 1.462945]}, {"species": [{"element": "Gd", "occu": 1}], "abc": [0.834573999999999, 0.669149, 0.75], "properties": {"magmom": 7.405}, "label": "Gd", "xyz": [5.437530035534994, -1.0360855589499938, 4.388835]}, {"species": [{"element": "Gd", "occu": 1}], "abc": [0.330851, 0.165426, 0.75], "properties": {"magmom": 7.416}, "label": "Gd", "xyz": [1.7945599644649994, -1.0360855589500002, 4.388835]}, {"species": [{"element": "Gd", "occu": 1}], "abc": [0.834573999999999, 0.165426, 0.75], "properties": {"magmom": 7.401}, "label": "Gd", "xyz": [3.6160449999999953, -4.190990355751994, 4.388835]}, {"species": [{"element": "Gd", "occu": 1}], "abc": [0.165426, 0.834573999999999, 0.25], "properties": {"magmom": 7.402}, "label": "Gd", "xyz": [3.6160449999999953, 4.190990355751994, 1.462945]}, {"species": [{"element": "Gd", "occu": 1}], "abc": [0.669149, 0.834573999999999, 0.25], "properties": {"magmom": 7.404}, "label": "Gd", "xyz": [5.437530035534994, 1.0360855589499938, 1.462945]}, {"species": [{"element": "Gd", "occu": 1}], "abc": [0.165426, 0.330851, 0.25], "properties": {"magmom": 7.408}, "label": "Gd", "xyz": [1.7945599644649994, 1.0360855589500002, 1.462945]}]}, "task_ids": null, "uncorrected_energy_per_atom": null, "energy_per_atom": -33.198236635387936, "formation_energy_per_atom": 0.24056248211206802, "energy_above_hull": 0.24056248211206802, "is_stable": false, "equilibrium_reaction_energy_per_atom": null, "decomposes_to": null, "xas": null, "grain_boundaries": null, "band_gap": 0.0, "cbm": null, "vbm": null, "efermi": 2.2473864900000002, "is_gap_direct": null, "is_metal": null, "es_source_calc_id": null, "bandstructure": null, "dos": null, "dos_energy_up": null, "dos_energy_down": null, "is_magnetic": null, "ordering": null, "total_magnetization": 47.5528107, "total_magnetization_normalized_vol": null, "total_magnetization_normalized_formula_units": null, "num_magnetic_sites": null, "num_unique_magnetic_sites": null, "types_of_magnetic_species": null, "bulk_modulus": null, "shear_modulus": null, "universal_anisotropy": null, "homogeneous_poisson": null, "e_total": null, "e_ionic": null, "e_electronic": null, "n": null, "e_ij_max": null, "weighted_surface_energy_EV_PER_ANG2": null, "weighted_surface_energy": null, "weighted_work_function": null, "surface_anisotropy": null, "shape_factor": null, "has_reconstructed": null, "possible_species": null, "has_props": null, "theoretical": null, "database_IDs": null, "fields_not_requested": ["builder_meta", "nsites", "elements", "nelements", "composition", "composition_reduced", "chemsys", "symmetry", "property_name", "deprecated", "deprecation_reasons", "last_updated", "origins", "warnings", "task_ids", "uncorrected_energy_per_atom", "equilibrium_reaction_energy_per_atom", "decomposes_to", "xas", "grain_boundaries", "cbm", "vbm", "is_gap_direct", "is_metal", "es_source_calc_id", "bandstructure", "dos", "dos_energy_up", "dos_energy_down", "is_magnetic", "ordering", "total_magnetization_normalized_vol", "total_magnetization_normalized_formula_units", "num_magnetic_sites", "num_unique_magnetic_sites", "types_of_magnetic_species", "bulk_modulus", "shear_modulus", "universal_anisotropy", "homogeneous_poisson", "e_total", "e_ionic", "e_electronic", "n", "e_ij_max", "weighted_surface_energy_EV_PER_ANG2", "weighted_surface_energy", "weighted_work_function", "surface_anisotropy", "shape_factor", "has_reconstructed", "possible_species", "has_props", "theoretical", "database_IDs"]}