{"builder_meta": null, "nsites": null, "elements": null, "nelements": null, "composition": null, "composition_reduced": null, "formula_pretty": "NaGe", "formula_anonymous": "AB", "chemsys": null, "volume": 796.9375432905721, "density": 3.188143796839254, "density_atomic": 24.904298227830377, "symmetry": null, "property_name": null, "material_id": "mp-29657", "deprecated": null, "deprecation_reasons": null, "last_updated": null, "origins": null, "warnings": null, "structure": {"@module": "pymatgen.core.structure", "@class": "Structure", "charge": 0, "lattice": {"matrix": [[6.67806269, 0.0, 0.0], [0.0, 10.20674872, -4.9420993200000005], [0.0, 0.01745861, 11.68348101]], "pbc": [true, true, true], "a": 6.67806269, "b": 11.340285054705024, "c": 11.68349405418147, "alpha": 115.75061047002086, "beta": 90.0, "gamma": 90.0, "volume": 796.9375432905721}, "properties": {}, "sites": [{"species": [{"element": "Na", "occu": 1}], "abc": [0.13899192, 0.45139751, 0.8576297900000001], "properties": {"magmom": 0.0}, "label": "Na", "xyz": [0.9281967551634648, 4.622273981431679, 7.789250037854594]}, {"species": [{"element": "Na", "occu": 1}], "abc": [0.63899192, 0.04860249, 0.14237021], "properties": {"magmom": 0.0}, "label": "Na", "xyz": [4.267228100163465, 0.49855898856832087, 1.423181312145405]}, {"species": [{"element": "Na", "occu": 1}], "abc": [0.8610080800000001, 0.54860249, 0.14237021], "properties": {"magmom": 0.0}, "label": "Na", "xyz": [5.749865934836536, 5.601933348568322, -1.0478683478545954]}, {"species": [{"element": "Na", "occu": 1}], "abc": [0.36100808, 0.9513975100000001, 0.8576297900000001], "properties": {"magmom": 0.0}, "label": "Na", "xyz": [2.410834589836535, 9.725648341431679, 5.318200377854594]}, {"species": [{"element": "Na", "occu": 1}], "abc": [0.18543996000000001, 0.60173957, 0.60672737], "properties": {"magmom": 0.0}, "label": "Na", "xyz": [1.2383796781110925, 6.152397202400007, 4.114830985928151]}, {"species": [{"element": "Na", "occu": 1}], "abc": [0.68543996, 0.89826043, 0.39327263], "properties": {"magmom": 0.0}, "label": "Na", "xyz": [4.577411023111092, 9.175184487599994, 0.15550104407184762]}, {"species": [{"element": "Na", "occu": 1}], "abc": [0.81456004, 0.39826043, 0.39327263], "properties": {"magmom": 0.0}, "label": "Na", "xyz": [5.439683011888908, 4.071810127599994, 2.6265507040718483]}, {"species": [{"element": "Na", "occu": 1}], "abc": [0.31456004, 0.10173957, 0.60672737], "properties": {"magmom": 0.0}, "label": "Na", "xyz": [2.1006516668889077, 1.049022842400006, 6.585880645928151]}, {"species": [{"element": "Na", "occu": 1}], "abc": [0.83865882, 0.23438111, 0.60140077], "properties": {"magmom": 0.0}, "label": "Na", "xyz": [5.600616175481426, 2.402768715981809, 5.868119751342532]}, {"species": [{"element": "Na", "occu": 1}], "abc": [0.33865882, 0.26561889, 0.39859923], "properties": {"magmom": 0.0}, "label": "Na", "xyz": [2.261584830481426, 2.718064254018191, 3.344311598657467]}, {"species": [{"element": "Na", "occu": 1}], "abc": [0.16134118, 0.76561889, 0.39859923], "properties": {"magmom": 0.0}, "label": "Na", "xyz": [1.077446514518574, 7.821438614018192, 0.8732619386574667]}, {"species": [{"element": "Na", "occu": 1}], "abc": [0.66134118, 0.7343811100000001, 0.60140077], "properties": {"magmom": 0.0}, "label": "Na", "xyz": [4.416477859518574, 7.50614307598181, 3.3970700913425316]}, {"species": [{"element": "Na", "occu": 1}], "abc": [0.92826559, 0.77001226, 0.90544243], "properties": {"magmom": -0.0}, "label": "Na", "xyz": [6.199015802989837, 7.87512941540213, 6.7732423700155895]}, {"species": [{"element": "Na", "occu": 1}], "abc": [0.42826559000000003, 0.72998774, 0.09455757000000001], "properties": {"magmom": -0.0}, "label": "Na", "xyz": [2.8599844579898375, 7.452452274597871, -2.5029103400155917]}, {"species": [{"element": "Na", "occu": 1}], "abc": [0.07173441, 0.22998774, 0.09455757000000001], "properties": {"magmom": -0.0}, "label": "Na", "xyz": [0.4790468870101629, 2.3490779145978706, -0.03186068001559117]}, {"species": [{"element": "Na", "occu": 1}], "abc": [0.57173441, 0.27001226, 0.90544243], "properties": {"magmom": -0.0}, "label": "Na", "xyz": [3.818078232010163, 2.7717550554021293, 9.24429203001559]}, {"species": [{"element": "Ge", "occu": 1}], "abc": [0.68691279, 0.51111188, 0.87889322], "properties": {"magmom": 0.0}, "label": "Ge", "xyz": [4.587246674182805, 5.232134780926417, 7.74256657109583]}, {"species": [{"element": "Ge", "occu": 1}], "abc": [0.18691279, 0.98888812, 0.12110678], "properties": {"magmom": 0.0}, "label": "Ge", "xyz": [1.248215329182805, 10.095446909073583, -3.4722345410958306]}, {"species": [{"element": "Ge", "occu": 1}], "abc": [0.31308721, 0.48888812000000004, 0.12110678], "properties": {"magmom": 0.0}, "label": "Ge", "xyz": [2.090816015817195, 4.992072549073582, -1.001184881095831]}, {"species": [{"element": "Ge", "occu": 1}], "abc": [0.8130872100000001, 0.011111880000000001, 0.87889322], "properties": {"magmom": 0.0}, "label": "Ge", "xyz": [5.429847360817195, 0.12876042092641782, 10.21361623109583]}, {"species": [{"element": "Ge", "occu": 1}], "abc": [0.79103438, 0.52379792, 0.67595864], "properties": {"magmom": -0.0}, "label": "Ge", "xyz": [5.2825771795852825, 5.358075047770553, 5.308888589736012]}, {"species": [{"element": "Ge", "occu": 1}], "abc": [0.29103438, 0.97620208, 0.32404136], "properties": {"magmom": -0.0}, "label": "Ge", "xyz": [1.943545834585282, 9.969506642229447, -1.0385565597360125]}, {"species": [{"element": "Ge", "occu": 1}], "abc": [0.20896562, 0.47620208, 0.32404136], "properties": {"magmom": -0.0}, "label": "Ge", "xyz": [1.3954855104147177, 4.866132282229447, 1.4324931002639874]}, {"species": [{"element": "Ge", "occu": 1}], "abc": [0.70896562, 0.02379792, 0.67595864], "properties": {"magmom": -0.0}, "label": "Ge", "xyz": [4.734516855414718, 0.2547006877705528, 7.779938249736012]}, {"species": [{"element": "Ge", "occu": 1}], "abc": [0.47002141000000003, 0.40359545, 0.67869321], "properties": {"magmom": 0.0}, "label": "Ge", "xyz": [3.138832441622193, 4.131246382748363, 5.934890431650849]}, {"species": [{"element": "Ge", "occu": 1}], "abc": [0.97002141, 0.09640455, 0.32130679], "properties": {"magmom": 0.0}, "label": "Ge", "xyz": [6.477863786622192, 0.9895865872516381, 3.2775409183491515]}, {"species": [{"element": "Ge", "occu": 1}], "abc": [0.52997859, 0.59640455, 0.32130679], "properties": {"magmom": 0.0}, "label": "Ge", "xyz": [3.539230248377807, 6.092960947251639, 0.8064912583491513]}, {"species": [{"element": "Ge", "occu": 1}], "abc": [0.02997859, 0.90359545, 0.67869321], "properties": {"magmom": 0.0}, "label": "Ge", "xyz": [0.2001989033778071, 9.234620742748362, 3.4638407716508484]}, {"species": [{"element": "Ge", "occu": 1}], "abc": [0.48617213000000004, 0.65520833, 0.80526582], "properties": {"magmom": -0.0}, "label": "Ge", "xyz": [3.24668796227083, 6.701605605458548, 6.170203273820741]}, {"species": [{"element": "Ge", "occu": 1}], "abc": [0.98617213, 0.84479167, 0.19473418], "properties": {"magmom": -0.0}, "label": "Ge", "xyz": [6.58571930727083, 8.62597608454145, -1.8998712438207437]}, {"species": [{"element": "Ge", "occu": 1}], "abc": [0.51382787, 0.34479167, 0.19473418], "properties": {"magmom": -0.0}, "label": "Ge", "xyz": [3.43137472772917, 3.522601724541452, 0.571178416179257]}, {"species": [{"element": "Ge", "occu": 1}], "abc": [0.01382787, 0.15520833, 0.80526582], "properties": {"magmom": -0.0}, "label": "Ge", "xyz": [0.09234338272917031, 1.5982312454585479, 8.641252933820741]}]}, "task_ids": null, "uncorrected_energy_per_atom": null, "energy_per_atom": -8.932604649375, "formation_energy_per_atom": -0.21452557437499903, "energy_above_hull": 0.0, "is_stable": true, "equilibrium_reaction_energy_per_atom": null, "decomposes_to": null, "xas": null, "grain_boundaries": null, "band_gap": 0.665199999999999, "cbm": null, "vbm": null, "efermi": 1.2760732, "is_gap_direct": null, "is_metal": null, "es_source_calc_id": null, "bandstructure": null, "dos": null, "dos_energy_up": null, "dos_energy_down": null, "is_magnetic": null, "ordering": null, "total_magnetization": 0.0, "total_magnetization_normalized_vol": null, "total_magnetization_normalized_formula_units": null, "num_magnetic_sites": null, "num_unique_magnetic_sites": null, "types_of_magnetic_species": null, "bulk_modulus": null, "shear_modulus": null, "universal_anisotropy": null, "homogeneous_poisson": null, "e_total": null, "e_ionic": null, "e_electronic": null, "n": null, "e_ij_max": null, "weighted_surface_energy_EV_PER_ANG2": null, "weighted_surface_energy": null, "weighted_work_function": null, "surface_anisotropy": null, "shape_factor": null, "has_reconstructed": null, "possible_species": null, "has_props": null, "theoretical": null, "database_IDs": null, "fields_not_requested": ["builder_meta", "nsites", "elements", "nelements", "composition", "composition_reduced", "chemsys", "symmetry", "property_name", "deprecated", "deprecation_reasons", "last_updated", "origins", "warnings", "task_ids", "uncorrected_energy_per_atom", "equilibrium_reaction_energy_per_atom", "decomposes_to", "xas", "grain_boundaries", "cbm", "vbm", "is_gap_direct", "is_metal", "es_source_calc_id", "bandstructure", "dos", "dos_energy_up", "dos_energy_down", "is_magnetic", "ordering", "total_magnetization_normalized_vol", "total_magnetization_normalized_formula_units", "num_magnetic_sites", "num_unique_magnetic_sites", "types_of_magnetic_species", "bulk_modulus", "shear_modulus", "universal_anisotropy", "homogeneous_poisson", "e_total", "e_ionic", "e_electronic", "n", "e_ij_max", "weighted_surface_energy_EV_PER_ANG2", "weighted_surface_energy", "weighted_work_function", "surface_anisotropy", "shape_factor", "has_reconstructed", "possible_species", "has_props", "theoretical", "database_IDs"]}