{
  "builder_meta": null,
  "nsites": null,
  "elements": null,
  "nelements": null,
  "composition": null,
  "composition_reduced": null,
  "formula_pretty": "NaHg3",
  "formula_anonymous": "AB3",
  "chemsys": null,
  "volume": 196.40778371527065,
  "density": 10.564123116764053,
  "density_atomic": 24.55097296440883,
  "symmetry": null,
  "property_name": null,
  "material_id": "mp-1186152",
  "deprecated": null,
  "deprecation_reasons": null,
  "last_updated": null,
  "origins": null,
  "warnings": null,
  "structure": {
    "@module": "pymatgen.core.structure",
    "@class": "Structure",
    "charge": 0,
    "lattice": {
      "matrix": [
        [6.5946198, -0.0, 1.056e-5],
        [-3.2973099, 5.71111226, -1.057e-5],
        [8.419999999999996e-6, -5.26e-6, 5.21492703]
      ],
      "pbc": [true, true, true],
      "a": 6.594619800008456,
      "b": 6.59462325103353,
      "c": 5.21492703000945,
      "alpha": 90.00018813809025,
      "beta": 89.99981574242857,
      "gamma": 119.99998268916724,
      "volume": 196.40778371527065
    },
    "properties": {},
    "sites": [
      {
        "species": [{ "element": "Na", "occu": 1 }],
        "abc": [0.666666, 0.333333, 0.250001],
        "properties": { "magmom": 0.0 },
        "label": "Na",
        "xyz": [3.29730870769852, 1.90370086795732, 1.3037404890901798]
      },
      {
        "species": [{ "element": "Na", "occu": 1 }],
        "abc": [0.333333, 0.666666, 0.750000999999999],
        "properties": { "magmom": 0.0 },
        "label": "Na",
        "xyz": [6.315008419999988e-6, 3.8074004209199, 3.911196960763885]
      },
      {
        "species": [{ "element": "Hg", "occu": 1 }],
        "abc": [0.83369372, 0.16630628, 0.750000999999999],
        "properties": { "magmom": 0.0 },
        "label": "Hg",
        "xyz": [4.949536084579904, 0.9497898896177328, 3.9112075333753284]
      },
      {
        "species": [{ "element": "Hg", "occu": 1 }],
        "abc": [0.33261555, 0.16630728, 0.75],
        "properties": { "magmom": 0.0 },
        "label": "Hg",
        "xyz": [1.6451127660318183, 0.9497956007352528, 3.9111970270522587]
      },
      {
        "species": [{ "element": "Hg", "occu": 1 }],
        "abc": [0.83369272, 0.66738545, 0.75],
        "properties": { "magmom": 0.0 },
        "label": "Hg",
        "xyz": [3.297316182026901, 3.8115092806406174, 3.9111970220309167]
      },
      {
        "species": [{ "element": "Hg", "occu": 1 }],
        "abc": [0.16630628, 0.83369372, 0.250001],
        "properties": { "magmom": 0.0 },
        "label": "Hg",
        "xyz": [-1.652217764563064, 4.761317110371747, 1.3037299164787262]
      },
      {
        "species": [{ "element": "Hg", "occu": 1 }],
        "abc": [0.66738445, 0.83369272, 0.250001],
        "properties": { "magmom": 0.0 },
        "label": "Hg",
        "xyz": [1.6522055539766018, 4.761311399259488, 1.3037352078747715]
      },
      {
        "species": [{ "element": "Hg", "occu": 1 }],
        "abc": [0.16630828, 0.33261555, 0.250001],
        "properties": { "magmom": 0.0 },
        "label": "Hg",
        "xyz": [5.435291418925681e-6, 1.899603430466383, 1.303735212896103]
      }
    ]
  },
  "task_ids": null,
  "uncorrected_energy_per_atom": null,
  "energy_per_atom": -38.12964271375,
  "formation_energy_per_atom": -0.21274267937500402,
  "energy_above_hull": 0.0,
  "is_stable": true,
  "equilibrium_reaction_energy_per_atom": null,
  "decomposes_to": null,
  "xas": null,
  "grain_boundaries": null,
  "band_gap": 0.0,
  "cbm": null,
  "vbm": null,
  "efermi": 1.71850269,
  "is_gap_direct": null,
  "is_metal": null,
  "es_source_calc_id": null,
  "bandstructure": null,
  "dos": null,
  "dos_energy_up": null,
  "dos_energy_down": null,
  "is_magnetic": null,
  "ordering": null,
  "total_magnetization": 0.0,
  "total_magnetization_normalized_vol": null,
  "total_magnetization_normalized_formula_units": null,
  "num_magnetic_sites": null,
  "num_unique_magnetic_sites": null,
  "types_of_magnetic_species": null,
  "bulk_modulus": null,
  "shear_modulus": null,
  "universal_anisotropy": null,
  "homogeneous_poisson": null,
  "e_total": null,
  "e_ionic": null,
  "e_electronic": null,
  "n": null,
  "e_ij_max": null,
  "weighted_surface_energy_EV_PER_ANG2": null,
  "weighted_surface_energy": null,
  "weighted_work_function": null,
  "surface_anisotropy": null,
  "shape_factor": null,
  "has_reconstructed": null,
  "possible_species": null,
  "has_props": null,
  "theoretical": null,
  "database_IDs": null,
  "fields_not_requested": [
    "builder_meta",
    "nsites",
    "elements",
    "nelements",
    "composition",
    "composition_reduced",
    "chemsys",
    "symmetry",
    "property_name",
    "deprecated",
    "deprecation_reasons",
    "last_updated",
    "origins",
    "warnings",
    "task_ids",
    "uncorrected_energy_per_atom",
    "equilibrium_reaction_energy_per_atom",
    "decomposes_to",
    "xas",
    "grain_boundaries",
    "cbm",
    "vbm",
    "is_gap_direct",
    "is_metal",
    "es_source_calc_id",
    "bandstructure",
    "dos",
    "dos_energy_up",
    "dos_energy_down",
    "is_magnetic",
    "ordering",
    "total_magnetization_normalized_vol",
    "total_magnetization_normalized_formula_units",
    "num_magnetic_sites",
    "num_unique_magnetic_sites",
    "types_of_magnetic_species",
    "bulk_modulus",
    "shear_modulus",
    "universal_anisotropy",
    "homogeneous_poisson",
    "e_total",
    "e_ionic",
    "e_electronic",
    "n",
    "e_ij_max",
    "weighted_surface_energy_EV_PER_ANG2",
    "weighted_surface_energy",
    "weighted_work_function",
    "surface_anisotropy",
    "shape_factor",
    "has_reconstructed",
    "possible_species",
    "has_props",
    "theoretical",
    "database_IDs"
  ]
}
