{"builder_meta": null, "nsites": null, "elements": null, "nelements": null, "composition": null, "composition_reduced": null, "formula_pretty": "NaHg", "formula_anonymous": "AB", "chemsys": null, "volume": 199.71708096347228, "density": 7.435777442766801, "density_atomic": 24.964635120434036, "symmetry": null, "property_name": null, "material_id": "mp-255", "deprecated": null, "deprecation_reasons": null, "last_updated": null, "origins": null, "warnings": null, "structure": {"@module": "pymatgen.core.structure", "@class": "Structure", "charge": 0, "lattice": {"matrix": [[5.20572686, -0.0, 0.0], [-0.0, 5.95043674, -2.50023665], [0.0, -0.01651985, 6.45434683]], "pbc": [true, true, true], "a": 5.20572686, "b": 6.454369117330139, "c": 6.454367971178516, "alpha": 112.9376735639055, "beta": 90.0, "gamma": 90.0, "volume": 199.71708096347228}, "properties": {}, "sites": [{"species": [{"element": "Na", "occu": 1}], "abc": [0.25, 0.17805521, 0.82194479], "properties": {"magmom": 0.0}, "label": "Na", "xyz": [1.301431715, 1.0459278586933338, 4.85993658800607]}, {"species": [{"element": "Na", "occu": 1}], "abc": [0.75, 0.82194479, 0.17805521], "properties": {"magmom": 0.0}, "label": "Na", "xyz": [3.9042951450000003, 4.887989031306666, -0.9058264080060694]}, {"species": [{"element": "Na", "occu": 1}], "abc": [0.25, 0.62656537, 0.37343463], "properties": {"magmom": 0.0}, "label": "Na", "xyz": [1.301431715, 3.722168513587288, 0.8437149186579125]}, {"species": [{"element": "Na", "occu": 1}], "abc": [0.75, 0.37343463, 0.62656537], "properties": {"magmom": 0.0}, "label": "Na", "xyz": [3.9042951450000003, 2.2117483764127117, 3.1103952613420884]}, {"species": [{"element": "Hg", "occu": 1}], "abc": [0.75, 0.87770851, 0.6958589], "properties": {"magmom": 0.0}, "label": "Hg", "xyz": [3.9042951450000003, 5.211253480265492, 2.296835700623395]}, {"species": [{"element": "Hg", "occu": 1}], "abc": [0.25, 0.12229149, 0.304140099999999], "properties": {"magmom": 0.0}, "label": "Hg", "xyz": [1.301431715, 0.7226634262543575, 1.6572680250297684]}, {"species": [{"element": "Hg", "occu": 1}], "abc": [0.25, 0.6958589, 0.87770851], "properties": {"magmom": 0.0}, "label": "Hg", "xyz": [1.301431715, 4.126164751487062, 3.9252232141738386]}, {"species": [{"element": "Hg", "occu": 1}], "abc": [0.75, 0.304140099999999, 0.12229149], "properties": {"magmom": 0.0}, "label": "Hg", "xyz": [3.9042951450000003, 1.8077461880761916, 0.028889466062814173]}]}, "task_ids": null, "uncorrected_energy_per_atom": null, "energy_per_atom": -26.736930545, "formation_energy_per_atom": -0.27093699875000204, "energy_above_hull": 0.0, "is_stable": true, "equilibrium_reaction_energy_per_atom": null, "decomposes_to": null, "xas": null, "grain_boundaries": null, "band_gap": 0.0, "cbm": null, "vbm": null, "efermi": 1.67232566, "is_gap_direct": null, "is_metal": null, "es_source_calc_id": null, "bandstructure": null, "dos": null, "dos_energy_up": null, "dos_energy_down": null, "is_magnetic": null, "ordering": null, "total_magnetization": 0.0, "total_magnetization_normalized_vol": null, "total_magnetization_normalized_formula_units": null, "num_magnetic_sites": null, "num_unique_magnetic_sites": null, "types_of_magnetic_species": null, "bulk_modulus": null, "shear_modulus": null, "universal_anisotropy": null, "homogeneous_poisson": null, "e_total": null, "e_ionic": null, "e_electronic": null, "n": null, "e_ij_max": null, "weighted_surface_energy_EV_PER_ANG2": null, "weighted_surface_energy": null, "weighted_work_function": null, "surface_anisotropy": null, "shape_factor": null, "has_reconstructed": null, "possible_species": null, "has_props": null, "theoretical": null, "database_IDs": null, "fields_not_requested": ["builder_meta", "nsites", "elements", "nelements", "composition", "composition_reduced", "chemsys", "symmetry", "property_name", "deprecated", "deprecation_reasons", "last_updated", "origins", "warnings", "task_ids", "uncorrected_energy_per_atom", "equilibrium_reaction_energy_per_atom", "decomposes_to", "xas", "grain_boundaries", "cbm", "vbm", "is_gap_direct", "is_metal", "es_source_calc_id", "bandstructure", "dos", "dos_energy_up", "dos_energy_down", "is_magnetic", "ordering", "total_magnetization_normalized_vol", "total_magnetization_normalized_formula_units", "num_magnetic_sites", "num_unique_magnetic_sites", "types_of_magnetic_species", "bulk_modulus", "shear_modulus", "universal_anisotropy", "homogeneous_poisson", "e_total", "e_ionic", "e_electronic", "n", "e_ij_max", "weighted_surface_energy_EV_PER_ANG2", "weighted_surface_energy", "weighted_work_function", "surface_anisotropy", "shape_factor", "has_reconstructed", "possible_species", "has_props", "theoretical", "database_IDs"]}