{"builder_meta": null, "nsites": null, "elements": null, "nelements": null, "composition": null, "composition_reduced": null, "formula_pretty": "NaIn", "formula_anonymous": "AB", "chemsys": null, "volume": 97.89220359485657, "density": 4.675248409311787, "density_atomic": 24.473050898714142, "symmetry": null, "property_name": null, "material_id": "mp-20628", "deprecated": null, "deprecation_reasons": null, "last_updated": null, "origins": null, "warnings": null, "structure": {"@module": "pymatgen.core.structure", "@class": "Structure", "charge": 0, "lattice": {"matrix": [[4.480072, 0.0, 2.58657], [1.493357, 4.223853, 2.58657], [0.0, 0.0, 5.173141]], "pbc": [true, true, true], "a": 5.173141162783401, "b": 5.17314156581453, "c": 5.173141, "alpha": 60.000010012624706, "beta": 60.000007435436736, "gamma": 60.00001122602072, "volume": 97.89220359485657}, "properties": {}, "sites": [{"species": [{"element": "Na", "occu": 1}], "abc": [0.625, 0.625, 0.625], "properties": {"magmom": 0.0}, "label": "Na", "xyz": [3.733393125, 2.639908125, 6.466425625]}, {"species": [{"element": "Na", "occu": 1}], "abc": [0.375, 0.375, 0.375], "properties": {"magmom": 0.0}, "label": "Na", "xyz": [2.2400358750000002, 1.583944875, 3.879855375]}, {"species": [{"element": "In", "occu": 1}], "abc": [0.125, 0.125, 0.125], "properties": {"magmom": 0.0}, "label": "In", "xyz": [0.7466786249999999, 0.527981625, 1.2932851250000001]}, {"species": [{"element": "In", "occu": 1}], "abc": [0.875, 0.875, 0.875], "properties": {"magmom": 0.0}, "label": "In", "xyz": [5.226750375, 3.6958713750000003, 9.052995875]}]}, "task_ids": null, "uncorrected_energy_per_atom": null, "energy_per_atom": -13.321346755, "formation_energy_per_atom": -0.249961279999999, "energy_above_hull": 0.0, "is_stable": true, "equilibrium_reaction_energy_per_atom": null, "decomposes_to": null, "xas": null, "grain_boundaries": null, "band_gap": 0.0, "cbm": null, "vbm": null, "efermi": 4.58793898, "is_gap_direct": null, "is_metal": null, "es_source_calc_id": null, "bandstructure": null, "dos": null, "dos_energy_up": null, "dos_energy_down": null, "is_magnetic": null, "ordering": null, "total_magnetization": 2.4e-06, "total_magnetization_normalized_vol": null, "total_magnetization_normalized_formula_units": null, "num_magnetic_sites": null, "num_unique_magnetic_sites": null, "types_of_magnetic_species": null, "bulk_modulus": null, "shear_modulus": null, "universal_anisotropy": null, "homogeneous_poisson": null, "e_total": null, "e_ionic": null, "e_electronic": null, "n": null, "e_ij_max": null, "weighted_surface_energy_EV_PER_ANG2": null, "weighted_surface_energy": null, "weighted_work_function": null, "surface_anisotropy": null, "shape_factor": null, "has_reconstructed": null, "possible_species": null, "has_props": null, "theoretical": null, "database_IDs": null, "fields_not_requested": ["builder_meta", "nsites", "elements", "nelements", "composition", "composition_reduced", "chemsys", "symmetry", "property_name", "deprecated", "deprecation_reasons", "last_updated", "origins", "warnings", "task_ids", "uncorrected_energy_per_atom", "equilibrium_reaction_energy_per_atom", "decomposes_to", "xas", "grain_boundaries", "cbm", "vbm", "is_gap_direct", "is_metal", "es_source_calc_id", "bandstructure", "dos", "dos_energy_up", "dos_energy_down", "is_magnetic", "ordering", "total_magnetization_normalized_vol", "total_magnetization_normalized_formula_units", "num_magnetic_sites", "num_unique_magnetic_sites", "types_of_magnetic_species", "bulk_modulus", "shear_modulus", "universal_anisotropy", "homogeneous_poisson", "e_total", "e_ionic", "e_electronic", "n", "e_ij_max", "weighted_surface_energy_EV_PER_ANG2", "weighted_surface_energy", "weighted_work_function", "surface_anisotropy", "shape_factor", "has_reconstructed", "possible_species", "has_props", "theoretical", "database_IDs"]}