{
  "builder_meta": null,
  "nsites": null,
  "elements": null,
  "nelements": null,
  "composition": null,
  "composition_reduced": null,
  "formula_pretty": "NaIn2",
  "formula_anonymous": "AB2",
  "chemsys": null,
  "volume": 370.25521065763786,
  "density": 4.531954684707576,
  "density_atomic": 30.85460088813649,
  "symmetry": null,
  "property_name": null,
  "material_id": "mp-1210348",
  "deprecated": null,
  "deprecation_reasons": null,
  "last_updated": null,
  "origins": null,
  "warnings": null,
  "structure": {
    "@module": "pymatgen.core.structure",
    "@class": "Structure",
    "charge": 0,
    "lattice": {
      "matrix": [
        [0.0, 5.699329, 5.699329],
        [5.699329, 0.0, 5.699329],
        [5.699329, 5.699329, 0.0]
      ],
      "pbc": [true, true, true],
      "a": 8.060068368226288,
      "b": 8.060068368226288,
      "c": 8.060068368226288,
      "alpha": 59.99999999999999,
      "beta": 59.99999999999999,
      "gamma": 59.99999999999999,
      "volume": 370.25521065763786
    },
    "properties": {},
    "sites": [
      {
        "species": [{ "element": "Na", "occu": 1 }],
        "abc": [0.125, 0.125, 0.125],
        "properties": { "magmom": 0.0 },
        "label": "Na",
        "xyz": [1.42483225, 1.42483225, 1.42483225]
      },
      {
        "species": [{ "element": "Na", "occu": 1 }],
        "abc": [0.125, 0.125, 0.625],
        "properties": { "magmom": -0.0 },
        "label": "Na",
        "xyz": [4.27449675, 4.27449675, 1.42483225]
      },
      {
        "species": [{ "element": "Na", "occu": 1 }],
        "abc": [0.125, 0.625, 0.125],
        "properties": { "magmom": -0.0 },
        "label": "Na",
        "xyz": [4.27449675, 1.42483225, 4.27449675]
      },
      {
        "species": [{ "element": "Na", "occu": 1 }],
        "abc": [0.625, 0.125, 0.125],
        "properties": { "magmom": 0.0 },
        "label": "Na",
        "xyz": [1.42483225, 4.27449675, 4.27449675]
      },
      {
        "species": [{ "element": "In", "occu": 1 }],
        "abc": [0.402636, 0.402636, 0.402636],
        "properties": { "magmom": 0.0 },
        "label": "In",
        "xyz": [4.589510062487999, 4.589510062487999, 4.589510062487999]
      },
      {
        "species": [{ "element": "In", "occu": 1 }],
        "abc": [0.402636, 0.402636, 0.792092],
        "properties": { "magmom": 0.0 },
        "label": "In",
        "xyz": [6.809147937512, 6.809147937512, 4.589510062487999]
      },
      {
        "species": [{ "element": "In", "occu": 1 }],
        "abc": [0.402636, 0.792092, 0.402636],
        "properties": { "magmom": 0.0 },
        "label": "In",
        "xyz": [6.809147937512, 4.589510062487999, 6.809147937512]
      },
      {
        "species": [{ "element": "In", "occu": 1 }],
        "abc": [0.847364, 0.847364, 0.457908],
        "properties": { "magmom": 0.0 },
        "label": "In",
        "xyz": [7.439174562487999, 7.439174562487999, 9.658812437512]
      },
      {
        "species": [{ "element": "In", "occu": 1 }],
        "abc": [0.847364, 0.847364, 0.847364],
        "properties": { "magmom": 0.0 },
        "label": "In",
        "xyz": [9.658812437512, 9.658812437512, 9.658812437512]
      },
      {
        "species": [{ "element": "In", "occu": 1 }],
        "abc": [0.792092, 0.402636, 0.402636],
        "properties": { "magmom": 0.0 },
        "label": "In",
        "xyz": [4.589510062487999, 6.809147937512, 6.809147937512]
      },
      {
        "species": [{ "element": "In", "occu": 1 }],
        "abc": [0.847364, 0.457908, 0.847364],
        "properties": { "magmom": 0.0 },
        "label": "In",
        "xyz": [7.439174562487999, 9.658812437512, 7.439174562487999]
      },
      {
        "species": [{ "element": "In", "occu": 1 }],
        "abc": [0.457908, 0.847364, 0.847364],
        "properties": { "magmom": 0.0 },
        "label": "In",
        "xyz": [9.658812437512, 7.439174562487999, 7.439174562487999]
      }
    ]
  },
  "task_ids": null,
  "uncorrected_energy_per_atom": null,
  "energy_per_atom": -16.24916197583333,
  "formation_energy_per_atom": -0.008708199166664,
  "energy_above_hull": 0.1784494875,
  "is_stable": false,
  "equilibrium_reaction_energy_per_atom": null,
  "decomposes_to": null,
  "xas": null,
  "grain_boundaries": null,
  "band_gap": 0.0,
  "cbm": null,
  "vbm": null,
  "efermi": 3.97161022,
  "is_gap_direct": null,
  "is_metal": null,
  "es_source_calc_id": null,
  "bandstructure": null,
  "dos": null,
  "dos_energy_up": null,
  "dos_energy_down": null,
  "is_magnetic": null,
  "ordering": null,
  "total_magnetization": 0.0023584,
  "total_magnetization_normalized_vol": null,
  "total_magnetization_normalized_formula_units": null,
  "num_magnetic_sites": null,
  "num_unique_magnetic_sites": null,
  "types_of_magnetic_species": null,
  "bulk_modulus": null,
  "shear_modulus": null,
  "universal_anisotropy": null,
  "homogeneous_poisson": null,
  "e_total": null,
  "e_ionic": null,
  "e_electronic": null,
  "n": null,
  "e_ij_max": null,
  "weighted_surface_energy_EV_PER_ANG2": null,
  "weighted_surface_energy": null,
  "weighted_work_function": null,
  "surface_anisotropy": null,
  "shape_factor": null,
  "has_reconstructed": null,
  "possible_species": null,
  "has_props": null,
  "theoretical": null,
  "database_IDs": null,
  "fields_not_requested": [
    "builder_meta",
    "nsites",
    "elements",
    "nelements",
    "composition",
    "composition_reduced",
    "chemsys",
    "symmetry",
    "property_name",
    "deprecated",
    "deprecation_reasons",
    "last_updated",
    "origins",
    "warnings",
    "task_ids",
    "uncorrected_energy_per_atom",
    "equilibrium_reaction_energy_per_atom",
    "decomposes_to",
    "xas",
    "grain_boundaries",
    "cbm",
    "vbm",
    "is_gap_direct",
    "is_metal",
    "es_source_calc_id",
    "bandstructure",
    "dos",
    "dos_energy_up",
    "dos_energy_down",
    "is_magnetic",
    "ordering",
    "total_magnetization_normalized_vol",
    "total_magnetization_normalized_formula_units",
    "num_magnetic_sites",
    "num_unique_magnetic_sites",
    "types_of_magnetic_species",
    "bulk_modulus",
    "shear_modulus",
    "universal_anisotropy",
    "homogeneous_poisson",
    "e_total",
    "e_ionic",
    "e_electronic",
    "n",
    "e_ij_max",
    "weighted_surface_energy_EV_PER_ANG2",
    "weighted_surface_energy",
    "weighted_work_function",
    "surface_anisotropy",
    "shape_factor",
    "has_reconstructed",
    "possible_species",
    "has_props",
    "theoretical",
    "database_IDs"
  ]
}
