{"builder_meta": null, "nsites": null, "elements": null, "nelements": null, "composition": null, "composition_reduced": null, "formula_pretty": "NaLi3", "formula_anonymous": "AB3", "chemsys": null, "volume": 200.1158216829825, "density": 0.7271070762273371, "density_atomic": 25.014477710372812, "symmetry": null, "property_name": null, "material_id": "mp-973316", "deprecated": null, "deprecation_reasons": null, "last_updated": null, "origins": null, "warnings": null, "structure": {"@module": "pymatgen.core.structure", "@class": "Structure", "charge": 0, "lattice": {"matrix": [[3.27258709, -5.66828808, 0.0], [3.27258709, 5.66828808, -0.0], [0.0, -0.0, 5.39396723]], "pbc": [true, true, true], "a": 6.545175018248538, "b": 6.545175018248538, "c": 5.39396723, "alpha": 90.0, "beta": 90.0, "gamma": 120.00000847312342, "volume": 200.1158216829825}, "properties": {}, "sites": [{"species": [{"element": "Na", "occu": 1}], "abc": [0.666667, 0.333333, 0.25], "properties": {"magmom": 0.0}, "label": "Na", "xyz": [3.27258709, -1.8894331388587202, 1.3484918075]}, {"species": [{"element": "Na", "occu": 1}], "abc": [0.333333, 0.666667, 0.75], "properties": {"magmom": 0.0}, "label": "Na", "xyz": [3.27258709, 1.8894331388587202, 4.0454754225]}, {"species": [{"element": "Li", "occu": 1}], "abc": [0.8401613, 0.1598387, 0.75], "properties": {"magmom": 0.0}, "label": "Li", "xyz": [3.27258709, -3.8562644841346074, 4.0454754225]}, {"species": [{"element": "Li", "occu": 1}], "abc": [0.31967639000000003, 0.1598387, 0.75], "properties": {"magmom": 0.0}, "label": "Li", "xyz": [1.5692548929941883, -0.9060060729617354, 4.0454754225]}, {"species": [{"element": "Li", "occu": 1}], "abc": [0.8401613, 0.68032361, 0.75], "properties": {"magmom": 0.0}, "label": "Li", "xyz": [4.975919287005812, -0.906006072961735, 4.0454754225]}, {"species": [{"element": "Li", "occu": 1}], "abc": [0.1598387, 0.8401613, 0.25], "properties": {"magmom": 0.0}, "label": "Li", "xyz": [3.27258709, 3.8562644841346074, 1.3484918075]}, {"species": [{"element": "Li", "occu": 1}], "abc": [0.68032361, 0.8401613, 0.25], "properties": {"magmom": 0.0}, "label": "Li", "xyz": [4.975919287005812, 0.906006072961735, 1.3484918075]}, {"species": [{"element": "Li", "occu": 1}], "abc": [0.1598387, 0.31967639000000003, 0.25], "properties": {"magmom": 0.0}, "label": "Li", "xyz": [1.5692548929941883, 0.9060060729617354, 1.3484918075]}]}, "task_ids": null, "uncorrected_energy_per_atom": null, "energy_per_atom": -2.640415093749999, "formation_energy_per_atom": 0.040659858749999, "energy_above_hull": 0.040659858749999, "is_stable": false, "equilibrium_reaction_energy_per_atom": null, "decomposes_to": null, "xas": null, "grain_boundaries": null, "band_gap": 0.0, "cbm": null, "vbm": null, "efermi": 0.10105697, "is_gap_direct": null, "is_metal": null, "es_source_calc_id": null, "bandstructure": null, "dos": null, "dos_energy_up": null, "dos_energy_down": null, "is_magnetic": null, "ordering": null, "total_magnetization": 1e-07, "total_magnetization_normalized_vol": null, "total_magnetization_normalized_formula_units": null, "num_magnetic_sites": null, "num_unique_magnetic_sites": null, "types_of_magnetic_species": null, "bulk_modulus": null, "shear_modulus": null, "universal_anisotropy": null, "homogeneous_poisson": null, "e_total": null, "e_ionic": null, "e_electronic": null, "n": null, "e_ij_max": null, "weighted_surface_energy_EV_PER_ANG2": null, "weighted_surface_energy": null, "weighted_work_function": null, "surface_anisotropy": null, "shape_factor": null, "has_reconstructed": null, "possible_species": null, "has_props": null, "theoretical": null, "database_IDs": null, "fields_not_requested": ["builder_meta", "nsites", "elements", "nelements", "composition", "composition_reduced", "chemsys", "symmetry", "property_name", "deprecated", "deprecation_reasons", "last_updated", "origins", "warnings", "task_ids", "uncorrected_energy_per_atom", "equilibrium_reaction_energy_per_atom", "decomposes_to", "xas", "grain_boundaries", "cbm", "vbm", "is_gap_direct", "is_metal", "es_source_calc_id", "bandstructure", "dos", "dos_energy_up", "dos_energy_down", "is_magnetic", "ordering", "total_magnetization_normalized_vol", "total_magnetization_normalized_formula_units", "num_magnetic_sites", "num_unique_magnetic_sites", "types_of_magnetic_species", "bulk_modulus", "shear_modulus", "universal_anisotropy", "homogeneous_poisson", "e_total", "e_ionic", "e_electronic", "n", "e_ij_max", "weighted_surface_energy_EV_PER_ANG2", "weighted_surface_energy", "weighted_work_function", "surface_anisotropy", "shape_factor", "has_reconstructed", "possible_species", "has_props", "theoretical", "database_IDs"]}