{
  "builder_meta": null,
  "nsites": null,
  "elements": null,
  "nelements": null,
  "composition": null,
  "composition_reduced": null,
  "formula_pretty": "NaMg7",
  "formula_anonymous": "AB7",
  "chemsys": null,
  "volume": 191.16627022053495,
  "density": 1.6775512947320301,
  "density_atomic": 23.89578377756687,
  "symmetry": null,
  "property_name": null,
  "material_id": "mp-1016323",
  "deprecated": null,
  "deprecation_reasons": null,
  "last_updated": null,
  "origins": null,
  "warnings": null,
  "structure": {
    "@module": "pymatgen.core.structure",
    "@class": "Structure",
    "charge": 0,
    "lattice": {
      "matrix": [
        [3.226928, -5.589202, 0.0],
        [3.226928, 5.589202, 0.0],
        [0.0, 0.0, 5.299589]
      ],
      "pbc": [true, true, true],
      "a": 6.453854918882822,
      "b": 6.453854918882822,
      "c": 5.299589,
      "alpha": 90.0,
      "beta": 90.0,
      "gamma": 119.99998891729987,
      "volume": 191.16627022053495
    },
    "properties": {},
    "sites": [
      {
        "species": [{ "element": "Na", "occu": 1 }],
        "abc": [0.0, 0.0, 0.0],
        "properties": { "magmom": 0.0 },
        "label": "Na",
        "xyz": [0.0, 0.0, 0.0]
      },
      {
        "species": [{ "element": "Mg", "occu": 1 }],
        "abc": [0.0007109999999990001, 0.500356, 0.0],
        "properties": { "magmom": 0.0 },
        "label": "Mg",
        "xyz": [1.6169071321759967, 2.7926168332900057, 0.0]
      },
      {
        "species": [{ "element": "Mg", "occu": 1 }],
        "abc": [0.499644, 0.500356, 0.0],
        "properties": { "magmom": 0.0 },
        "label": "Mg",
        "xyz": [3.226928, 0.003979511824000248, 0.0]
      },
      {
        "species": [{ "element": "Mg", "occu": 1 }],
        "abc": [0.499644, 0.999289, 0.0],
        "properties": { "magmom": 0.0 },
        "label": "Mg",
        "xyz": [4.836948867824, 2.79261683329, 0.0]
      },
      {
        "species": [{ "element": "Mg", "occu": 1 }],
        "abc": [0.16737000000000002, 0.33474000000000004, 0.5],
        "properties": { "magmom": 0.0 },
        "label": "Mg",
        "xyz": [1.6202728180800001, 0.9354647387400001, 2.6497945]
      },
      {
        "species": [{ "element": "Mg", "occu": 1 }],
        "abc": [0.16737000000000002, 0.8326300000000001, 0.5],
        "properties": { "magmom": 0.0 },
        "label": "Mg",
        "xyz": [3.2269280000000005, 3.7182725225200004, 2.6497945]
      },
      {
        "species": [{ "element": "Mg", "occu": 1 }],
        "abc": [0.6652600000000001, 0.8326300000000001, 0.5],
        "properties": { "magmom": 0.0 },
        "label": "Mg",
        "xyz": [4.83358318192, 0.9354647387400004, 2.6497945]
      },
      {
        "species": [{ "element": "Mg", "occu": 1 }],
        "abc": [0.666667, 0.333333, 0.5],
        "properties": { "magmom": 0.0 },
        "label": "Mg",
        "xyz": [3.226928, -1.863071059468, 2.6497945]
      }
    ]
  },
  "task_ids": null,
  "uncorrected_energy_per_atom": null,
  "energy_per_atom": -4.019056507110188,
  "formation_energy_per_atom": 0.07460670101481101,
  "energy_above_hull": 0.07460670101481101,
  "is_stable": false,
  "equilibrium_reaction_energy_per_atom": null,
  "decomposes_to": null,
  "xas": null,
  "grain_boundaries": null,
  "band_gap": 0.0,
  "cbm": null,
  "vbm": null,
  "efermi": 3.00060585,
  "is_gap_direct": null,
  "is_metal": null,
  "es_source_calc_id": null,
  "bandstructure": null,
  "dos": null,
  "dos_energy_up": null,
  "dos_energy_down": null,
  "is_magnetic": null,
  "ordering": null,
  "total_magnetization": 0.0014992,
  "total_magnetization_normalized_vol": null,
  "total_magnetization_normalized_formula_units": null,
  "num_magnetic_sites": null,
  "num_unique_magnetic_sites": null,
  "types_of_magnetic_species": null,
  "bulk_modulus": null,
  "shear_modulus": null,
  "universal_anisotropy": null,
  "homogeneous_poisson": null,
  "e_total": null,
  "e_ionic": null,
  "e_electronic": null,
  "n": null,
  "e_ij_max": null,
  "weighted_surface_energy_EV_PER_ANG2": null,
  "weighted_surface_energy": null,
  "weighted_work_function": null,
  "surface_anisotropy": null,
  "shape_factor": null,
  "has_reconstructed": null,
  "possible_species": null,
  "has_props": null,
  "theoretical": null,
  "database_IDs": null,
  "fields_not_requested": [
    "builder_meta",
    "nsites",
    "elements",
    "nelements",
    "composition",
    "composition_reduced",
    "chemsys",
    "symmetry",
    "property_name",
    "deprecated",
    "deprecation_reasons",
    "last_updated",
    "origins",
    "warnings",
    "task_ids",
    "uncorrected_energy_per_atom",
    "equilibrium_reaction_energy_per_atom",
    "decomposes_to",
    "xas",
    "grain_boundaries",
    "cbm",
    "vbm",
    "is_gap_direct",
    "is_metal",
    "es_source_calc_id",
    "bandstructure",
    "dos",
    "dos_energy_up",
    "dos_energy_down",
    "is_magnetic",
    "ordering",
    "total_magnetization_normalized_vol",
    "total_magnetization_normalized_formula_units",
    "num_magnetic_sites",
    "num_unique_magnetic_sites",
    "types_of_magnetic_species",
    "bulk_modulus",
    "shear_modulus",
    "universal_anisotropy",
    "homogeneous_poisson",
    "e_total",
    "e_ionic",
    "e_electronic",
    "n",
    "e_ij_max",
    "weighted_surface_energy_EV_PER_ANG2",
    "weighted_surface_energy",
    "weighted_work_function",
    "surface_anisotropy",
    "shape_factor",
    "has_reconstructed",
    "possible_species",
    "has_props",
    "theoretical",
    "database_IDs"
  ]
}
