{
  "builder_meta": null,
  "nsites": null,
  "elements": null,
  "nelements": null,
  "composition": null,
  "composition_reduced": null,
  "formula_pretty": "NaN",
  "formula_anonymous": "AB",
  "chemsys": null,
  "volume": 170.8691371804408,
  "density": 1.438155153808292,
  "density_atomic": 21.3586421475551,
  "symmetry": null,
  "property_name": null,
  "material_id": "mp-1080032",
  "deprecated": null,
  "deprecation_reasons": null,
  "last_updated": null,
  "origins": null,
  "warnings": null,
  "structure": {
    "@module": "pymatgen.core.structure",
    "@class": "Structure",
    "charge": 0,
    "lattice": {
      "matrix": [
        [0.0, 4.366545, 4.96685],
        [3.93926, 0.0, 4.96685],
        [3.93926, 4.366545, 0.0]
      ],
      "pbc": [true, true, true],
      "a": 6.6133436444452975,
      "b": 6.339350776704189,
      "c": 5.880857470184514,
      "alpha": 65.4025679596947,
      "beta": 60.64324253216742,
      "gamma": 53.95418950813789,
      "volume": 170.86913718044082
    },
    "properties": {},
    "sites": [
      {
        "species": [{ "element": "Na", "occu": 1 }],
        "abc": [0.24863000000000002, 0.24863000000000002, 0.7513700000000001],
        "properties": { "magmom": 0.008 },
        "label": "Na",
        "xyz": [3.93926, 4.366545, 2.469815831]
      },
      {
        "species": [{ "element": "Na", "occu": 1 }],
        "abc": [0.7513700000000001, 0.7513700000000001, 0.24863000000000002],
        "properties": { "magmom": 0.008 },
        "label": "Na",
        "xyz": [3.93926, 4.366545, 7.463884169000001]
      },
      {
        "species": [{ "element": "Na", "occu": 1 }],
        "abc": [0.0013700000000000001, 0.0013700000000000001, 0.49863],
        "properties": { "magmom": 0.008 },
        "label": "Na",
        "xyz": [1.96963, 2.1832725, 0.013609169]
      },
      {
        "species": [{ "element": "Na", "occu": 1 }],
        "abc": [0.49863, 0.49863, 0.0013700000000000001],
        "properties": { "magmom": 0.008 },
        "label": "Na",
        "xyz": [1.96963, 2.1832725, 4.9532408310000005]
      },
      {
        "species": [{ "element": "N", "occu": 1 }],
        "abc": [0.568715, 0.431285, 0.568715],
        "properties": { "magmom": 0.245 },
        "label": "N",
        "xyz": [3.93926, 4.96663927935, 4.96685]
      },
      {
        "species": [{ "element": "N", "occu": 1 }],
        "abc": [0.431285, 0.568715, 0.431285],
        "properties": { "magmom": 0.245 },
        "label": "N",
        "xyz": [3.93926, 3.76645072065, 4.96685]
      },
      {
        "species": [{ "element": "N", "occu": 1 }],
        "abc": [0.681284999999999, 0.818715, 0.681284999999999],
        "properties": { "magmom": 0.245 },
        "label": "N",
        "xyz": [5.908889999999996, 5.949723220649992, 7.450274999999995]
      },
      {
        "species": [{ "element": "N", "occu": 1 }],
        "abc": [0.818715, 0.681284999999999, 0.818715],
        "properties": { "magmom": 0.245 },
        "label": "N",
        "xyz": [5.908889999999996, 7.14991177935, 7.450274999999995]
      }
    ]
  },
  "task_ids": null,
  "uncorrected_energy_per_atom": null,
  "energy_per_atom": -4.899708571250001,
  "formation_energy_per_atom": -0.059709309439655,
  "energy_above_hull": 0.0034205016235620005,
  "is_stable": false,
  "equilibrium_reaction_energy_per_atom": null,
  "decomposes_to": null,
  "xas": null,
  "grain_boundaries": null,
  "band_gap": 0.0,
  "cbm": null,
  "vbm": null,
  "efermi": 1.50304986,
  "is_gap_direct": null,
  "is_metal": null,
  "es_source_calc_id": null,
  "bandstructure": null,
  "dos": null,
  "dos_energy_up": null,
  "dos_energy_down": null,
  "is_magnetic": null,
  "ordering": null,
  "total_magnetization": 1.6616461,
  "total_magnetization_normalized_vol": null,
  "total_magnetization_normalized_formula_units": null,
  "num_magnetic_sites": null,
  "num_unique_magnetic_sites": null,
  "types_of_magnetic_species": null,
  "bulk_modulus": null,
  "shear_modulus": null,
  "universal_anisotropy": null,
  "homogeneous_poisson": null,
  "e_total": null,
  "e_ionic": null,
  "e_electronic": null,
  "n": null,
  "e_ij_max": null,
  "weighted_surface_energy_EV_PER_ANG2": null,
  "weighted_surface_energy": null,
  "weighted_work_function": null,
  "surface_anisotropy": null,
  "shape_factor": null,
  "has_reconstructed": null,
  "possible_species": null,
  "has_props": null,
  "theoretical": null,
  "database_IDs": null,
  "fields_not_requested": [
    "builder_meta",
    "nsites",
    "elements",
    "nelements",
    "composition",
    "composition_reduced",
    "chemsys",
    "symmetry",
    "property_name",
    "deprecated",
    "deprecation_reasons",
    "last_updated",
    "origins",
    "warnings",
    "task_ids",
    "uncorrected_energy_per_atom",
    "equilibrium_reaction_energy_per_atom",
    "decomposes_to",
    "xas",
    "grain_boundaries",
    "cbm",
    "vbm",
    "is_gap_direct",
    "is_metal",
    "es_source_calc_id",
    "bandstructure",
    "dos",
    "dos_energy_up",
    "dos_energy_down",
    "is_magnetic",
    "ordering",
    "total_magnetization_normalized_vol",
    "total_magnetization_normalized_formula_units",
    "num_magnetic_sites",
    "num_unique_magnetic_sites",
    "types_of_magnetic_species",
    "bulk_modulus",
    "shear_modulus",
    "universal_anisotropy",
    "homogeneous_poisson",
    "e_total",
    "e_ionic",
    "e_electronic",
    "n",
    "e_ij_max",
    "weighted_surface_energy_EV_PER_ANG2",
    "weighted_surface_energy",
    "weighted_work_function",
    "surface_anisotropy",
    "shape_factor",
    "has_reconstructed",
    "possible_species",
    "has_props",
    "theoretical",
    "database_IDs"
  ]
}
