{"builder_meta": null, "nsites": null, "elements": null, "nelements": null, "composition": null, "composition_reduced": null, "formula_pretty": "NaNp3", "formula_anonymous": "AB3", "chemsys": null, "volume": 94.05977667793304, "density": 12.95791601278703, "density_atomic": 23.51494416948326, "symmetry": null, "property_name": null, "material_id": "mp-1186195", "deprecated": null, "deprecation_reasons": null, "last_updated": null, "origins": null, "warnings": null, "structure": {"@module": "pymatgen.core.structure", "@class": "Structure", "charge": 0, "lattice": {"matrix": [[-2.332097, 2.332097, 4.323652], [2.332097, -2.332097, 4.323652], [2.332097, 2.332097, -4.323652]], "pbc": [true, true, true], "a": 5.4379517699150295, "b": 5.4379517699150295, "c": 5.4379517699150295, "alpha": 129.21006719180812, "beta": 129.21006719180812, "gamma": 74.67280083607913, "volume": 94.05977667793304}, "properties": {}, "sites": [{"species": [{"element": "Na", "occu": 1}], "abc": [0.0, 0.0, 0.0], "properties": {"magmom": -0.009000000000000001}, "label": "Na", "xyz": [0.0, 0.0, 0.0]}, {"species": [{"element": "Np", "occu": 1}], "abc": [0.75, 0.25, 0.5], "properties": {"magmom": -3.931}, "label": "Np", "xyz": [0.0, 2.332097, 2.161826]}, {"species": [{"element": "Np", "occu": 1}], "abc": [0.25, 0.75, 0.5], "properties": {"magmom": -3.931}, "label": "Np", "xyz": [2.332097, 0.0, 2.161826]}, {"species": [{"element": "Np", "occu": 1}], "abc": [0.5, 0.5, 0.0], "properties": {"magmom": -3.8890000000000002}, "label": "Np", "xyz": [0.0, 0.0, 4.323652]}]}, "task_ids": null, "uncorrected_energy_per_atom": null, "energy_per_atom": -62.06852087413794, "formation_energy_per_atom": 1.090682916799565, "energy_above_hull": 1.090682916799565, "is_stable": false, "equilibrium_reaction_energy_per_atom": null, "decomposes_to": null, "xas": null, "grain_boundaries": null, "band_gap": 0.0, "cbm": null, "vbm": null, "efermi": 10.90224104, "is_gap_direct": null, "is_metal": null, "es_source_calc_id": null, "bandstructure": null, "dos": null, "dos_energy_up": null, "dos_energy_down": null, "is_magnetic": null, "ordering": null, "total_magnetization": 12.6314594, "total_magnetization_normalized_vol": null, "total_magnetization_normalized_formula_units": null, "num_magnetic_sites": null, "num_unique_magnetic_sites": null, "types_of_magnetic_species": null, "bulk_modulus": null, "shear_modulus": null, "universal_anisotropy": null, "homogeneous_poisson": null, "e_total": null, "e_ionic": null, "e_electronic": null, "n": null, "e_ij_max": null, "weighted_surface_energy_EV_PER_ANG2": null, "weighted_surface_energy": null, "weighted_work_function": null, "surface_anisotropy": null, "shape_factor": null, "has_reconstructed": null, "possible_species": null, "has_props": null, "theoretical": null, "database_IDs": null, "fields_not_requested": ["builder_meta", "nsites", "elements", "nelements", "composition", "composition_reduced", "chemsys", "symmetry", "property_name", "deprecated", "deprecation_reasons", "last_updated", "origins", "warnings", "task_ids", "uncorrected_energy_per_atom", "equilibrium_reaction_energy_per_atom", "decomposes_to", "xas", "grain_boundaries", "cbm", "vbm", "is_gap_direct", "is_metal", "es_source_calc_id", "bandstructure", "dos", "dos_energy_up", "dos_energy_down", "is_magnetic", "ordering", "total_magnetization_normalized_vol", "total_magnetization_normalized_formula_units", "num_magnetic_sites", "num_unique_magnetic_sites", "types_of_magnetic_species", "bulk_modulus", "shear_modulus", "universal_anisotropy", "homogeneous_poisson", "e_total", "e_ionic", "e_electronic", "n", "e_ij_max", "weighted_surface_energy_EV_PER_ANG2", "weighted_surface_energy", "weighted_work_function", "surface_anisotropy", "shape_factor", "has_reconstructed", "possible_species", "has_props", "theoretical", "database_IDs"]}