{"builder_meta": null, "nsites": null, "elements": null, "nelements": null, "composition": null, "composition_reduced": null, "formula_pretty": "NaO2", "formula_anonymous": "AB2", "chemsys": null, "volume": 157.12869280799592, "density": 2.324481057510179, "density_atomic": 13.09405773399966, "symmetry": null, "property_name": null, "material_id": "mp-1545216", "deprecated": null, "deprecation_reasons": null, "last_updated": null, "origins": null, "warnings": null, "structure": {"@module": "pymatgen.core.structure", "@class": "Structure", "charge": 0, "lattice": {"matrix": [[5.35435923, 0.00072857, -0.01352885], [-0.0027313800000000003, 5.41053156, 0.25335887], [-0.00626632, 0.25268774, 5.43570262]], "pbc": [true, true, true], "a": 5.35437637120167, "b": 5.416461016124866, "c": 5.441576364785072, "alpha": 84.65736665385472, "beta": 90.2102303665219, "gamma": 90.02787663292358, "volume": 157.12869280799592}, "properties": {}, "sites": [{"species": [{"element": "Na", "occu": 1}], "abc": [-0.0, 0.5, 0.5], "properties": {"magmom": -0.001}, "label": "Na", "xyz": [-0.00449885, 2.83160965, 2.844530745]}, {"species": [{"element": "Na", "occu": 1}], "abc": [0.5, 0.5, 0.0], "properties": {"magmom": -0.003}, "label": "Na", "xyz": [2.675813925, 2.705630065, 0.11991501]}, {"species": [{"element": "Na", "occu": 1}], "abc": [0.5, 0.0, 0.5], "properties": {"magmom": -0.001}, "label": "Na", "xyz": [2.674046455, 0.126708155, 2.711086885]}, {"species": [{"element": "Na", "occu": 1}], "abc": [-0.0, 0.0, 0.0], "properties": {"magmom": -0.003}, "label": "Na", "xyz": [0.0, 0.0, 0.0]}, {"species": [{"element": "O", "occu": 1}], "abc": [0.44137435, 0.0830504, 0.92001305], "properties": {"magmom": -0.42}, "label": "O", "xyz": [2.3572848864307225, 0.6821444007558105, 5.015987614441241]}, {"species": [{"element": "O", "occu": 1}], "abc": [0.07403002, 0.93645712, 0.42866611], "properties": {"magmom": -0.41100000000000003}, "label": "O", "xyz": [0.39113934161724384, 5.175103408948869, 2.566359673922786]}, {"species": [{"element": "O", "occu": 1}], "abc": [0.9412778900000001, 0.41635344, 0.078794499999999], "properties": {"magmom": -0.42}, "label": "O", "xyz": [5.038308987306237, 2.273289618196314, 0.5210558997884709]}, {"species": [{"element": "O", "occu": 1}], "abc": [0.57472567, 0.56310498, 0.57162724], "properties": {"magmom": -0.41100000000000003}, "label": "O", "xyz": [3.072167642995605, 3.1915591891625983, 3.2420879501749615]}, {"species": [{"element": "O", "occu": 1}], "abc": [0.42527433000000003, 0.43689502, 0.42837276], "properties": {"magmom": -0.41100000000000003}, "label": "O", "xyz": [2.2731938870043953, 2.4723886808374016, 2.433444689825038]}, {"species": [{"element": "O", "occu": 1}], "abc": [0.05872211, 0.58364656, 0.9212055], "properties": {"magmom": -0.42}, "label": "O", "xyz": [0.3070525426937625, 3.3906582518036865, 5.154476740211523]}, {"species": [{"element": "O", "occu": 1}], "abc": [0.92596998, 0.06354288, 0.57133389], "properties": {"magmom": -0.41100000000000003}, "label": "O", "xyz": [4.954222188382756, 0.48884446105113, 3.1091729660772143]}, {"species": [{"element": "O", "occu": 1}], "abc": [0.55862565, 0.916949599999999, 0.07998695], "properties": {"magmom": -0.42}, "label": "O", "xyz": [2.9880766435692774, 4.981803469244184, 0.6595450255587583]}]}, "task_ids": null, "uncorrected_energy_per_atom": null, "energy_per_atom": -4.65469398, "formation_energy_per_atom": -0.90881305045977, "energy_above_hull": 0.0, "is_stable": true, "equilibrium_reaction_energy_per_atom": null, "decomposes_to": null, "xas": null, "grain_boundaries": null, "band_gap": 0.7083, "cbm": null, "vbm": null, "efermi": 0.59711582, "is_gap_direct": null, "is_metal": null, "es_source_calc_id": null, "bandstructure": null, "dos": null, "dos_energy_up": null, "dos_energy_down": null, "is_magnetic": null, "ordering": null, "total_magnetization": 3.999999899999999, "total_magnetization_normalized_vol": null, "total_magnetization_normalized_formula_units": null, "num_magnetic_sites": null, "num_unique_magnetic_sites": null, "types_of_magnetic_species": null, "bulk_modulus": null, "shear_modulus": null, "universal_anisotropy": null, "homogeneous_poisson": null, "e_total": null, "e_ionic": null, "e_electronic": null, "n": null, "e_ij_max": null, "weighted_surface_energy_EV_PER_ANG2": null, "weighted_surface_energy": null, "weighted_work_function": null, "surface_anisotropy": null, "shape_factor": null, "has_reconstructed": null, "possible_species": null, "has_props": null, "theoretical": null, "database_IDs": null, "fields_not_requested": ["builder_meta", "nsites", "elements", "nelements", "composition", "composition_reduced", "chemsys", "symmetry", "property_name", "deprecated", "deprecation_reasons", "last_updated", "origins", "warnings", "task_ids", "uncorrected_energy_per_atom", "equilibrium_reaction_energy_per_atom", "decomposes_to", "xas", "grain_boundaries", "cbm", "vbm", "is_gap_direct", "is_metal", "es_source_calc_id", "bandstructure", "dos", "dos_energy_up", "dos_energy_down", "is_magnetic", "ordering", "total_magnetization_normalized_vol", "total_magnetization_normalized_formula_units", "num_magnetic_sites", "num_unique_magnetic_sites", "types_of_magnetic_species", "bulk_modulus", "shear_modulus", "universal_anisotropy", "homogeneous_poisson", "e_total", "e_ionic", "e_electronic", "n", "e_ij_max", "weighted_surface_energy_EV_PER_ANG2", "weighted_surface_energy", "weighted_work_function", "surface_anisotropy", "shape_factor", "has_reconstructed", "possible_species", "has_props", "theoretical", "database_IDs"]}