{"builder_meta": null, "nsites": null, "elements": null, "nelements": null, "composition": null, "composition_reduced": null, "formula_pretty": "NaO5", "formula_anonymous": "AB5", "chemsys": null, "volume": 169.44550815155264, "density": 2.018507962800709, "density_atomic": 14.120459012629388, "symmetry": null, "property_name": null, "material_id": "mp-1180210", "deprecated": null, "deprecation_reasons": null, "last_updated": null, "origins": null, "warnings": null, "structure": {"@module": "pymatgen.core.structure", "@class": "Structure", "charge": 0, "lattice": {"matrix": [[1.540846, 7.402746, 0.0], [-1.540846, 7.402746, 0.0], [0.0, 6.234504, 7.427591]], "pbc": [true, true, true], "a": 7.561405605853451, "b": 7.561405605853451, "c": 9.69732685791796, "alpha": 50.99269342456303, "beta": 50.99269342456303, "gamma": 23.51591467883535, "volume": 169.44550815155264}, "properties": {}, "sites": [{"species": [{"element": "Na", "occu": 1}], "abc": [0.424518, 0.424518, 0.24481000000000003], "properties": {"magmom": 0.0}, "label": "Na", "xyz": [0.0, 7.811466777096, 1.81834855271]}, {"species": [{"element": "Na", "occu": 1}], "abc": [0.575481999999999, 0.575481999999999, 0.75519], "properties": {"magmom": 0.0}, "label": "Na", "xyz": [0.0, 13.228529222903987, 5.60924244729]}, {"species": [{"element": "O", "occu": 1}], "abc": [0.157864, 0.157864, 0.907273999999999], "properties": {"magmom": 0.243}, "label": "O", "xyz": [0.0, 7.993657571183994, 6.7388601969339925]}, {"species": [{"element": "O", "occu": 1}], "abc": [0.842136, 0.842136, 0.092725999999999], "properties": {"magmom": 0.243}, "label": "O", "xyz": [0.0, 13.046338428815993, 0.6887308030659925]}, {"species": [{"element": "O", "occu": 1}], "abc": [0.226863999999999, 0.226863999999999, 0.532386999999999], "properties": {"magmom": -0.23700000000000002}, "label": "O", "xyz": [0.0, 6.678002018135979, 3.9543528897169926]}, {"species": [{"element": "O", "occu": 1}], "abc": [0.773135999999999, 0.773135999999999, 0.467613], "properties": {"magmom": -0.23700000000000002}, "label": "O", "xyz": [0.0, 14.361993981863986, 3.473238110283]}, {"species": [{"element": "O", "occu": 1}], "abc": [0.613283999999999, 0.613283999999999, 0.966986999999999], "properties": {"magmom": 0.209}, "label": "O", "xyz": [0.0, 15.108655675175982, 7.182383938316993]}, {"species": [{"element": "O", "occu": 1}], "abc": [0.386716, 0.386716, 0.033013], "properties": {"magmom": 0.209}, "label": "O", "xyz": [0.0, 5.931340324823999, 0.245207061683]}, {"species": [{"element": "O", "occu": 1}], "abc": [0.007695, 0.007695, 0.366515], "properties": {"magmom": 0.308}, "label": "O", "xyz": [0.0, 2.3989674945, 2.722323515365]}, {"species": [{"element": "O", "occu": 1}], "abc": [0.992305, 0.992305, 0.633485], "properties": {"magmom": 0.308}, "label": "O", "xyz": [0.0, 18.6410285055, 4.705267484635]}, {"species": [{"element": "O", "occu": 1}], "abc": [0.901281999999999, 0.901281999999999, 0.6522500000000001], "properties": {"magmom": 0.371}, "label": "O", "xyz": [0.0, 17.41037867474399, 4.84464622975]}, {"species": [{"element": "O", "occu": 1}], "abc": [0.098718, 0.098718, 0.34775], "properties": {"magmom": 0.371}, "label": "O", "xyz": [0.0, 3.629617325256, 2.5829447702499997]}]}, "task_ids": null, "uncorrected_energy_per_atom": null, "energy_per_atom": -4.445372444999999, "formation_energy_per_atom": -0.09845147772988401, "energy_above_hull": 0.355955047500001, "is_stable": false, "equilibrium_reaction_energy_per_atom": null, "decomposes_to": null, "xas": null, "grain_boundaries": null, "band_gap": 0.0, "cbm": null, "vbm": null, "efermi": -0.6268261900000001, "is_gap_direct": null, "is_metal": null, "es_source_calc_id": null, "bandstructure": null, "dos": null, "dos_energy_up": null, "dos_energy_down": null, "is_magnetic": null, "ordering": null, "total_magnetization": 2.1607766, "total_magnetization_normalized_vol": null, "total_magnetization_normalized_formula_units": null, "num_magnetic_sites": null, "num_unique_magnetic_sites": null, "types_of_magnetic_species": null, "bulk_modulus": null, "shear_modulus": null, "universal_anisotropy": null, "homogeneous_poisson": null, "e_total": null, "e_ionic": null, "e_electronic": null, "n": null, "e_ij_max": null, "weighted_surface_energy_EV_PER_ANG2": null, "weighted_surface_energy": null, "weighted_work_function": null, "surface_anisotropy": null, "shape_factor": null, "has_reconstructed": null, "possible_species": null, "has_props": null, "theoretical": null, "database_IDs": null, "fields_not_requested": ["builder_meta", "nsites", "elements", "nelements", "composition", "composition_reduced", "chemsys", "symmetry", "property_name", "deprecated", "deprecation_reasons", "last_updated", "origins", "warnings", "task_ids", "uncorrected_energy_per_atom", "equilibrium_reaction_energy_per_atom", "decomposes_to", "xas", "grain_boundaries", "cbm", "vbm", "is_gap_direct", "is_metal", "es_source_calc_id", "bandstructure", "dos", "dos_energy_up", "dos_energy_down", "is_magnetic", "ordering", "total_magnetization_normalized_vol", "total_magnetization_normalized_formula_units", "num_magnetic_sites", "num_unique_magnetic_sites", "types_of_magnetic_species", "bulk_modulus", "shear_modulus", "universal_anisotropy", "homogeneous_poisson", "e_total", "e_ionic", "e_electronic", "n", "e_ij_max", "weighted_surface_energy_EV_PER_ANG2", "weighted_surface_energy", "weighted_work_function", "surface_anisotropy", "shape_factor", "has_reconstructed", "possible_species", "has_props", "theoretical", "database_IDs"]}