{
  "builder_meta": null,
  "nsites": null,
  "elements": null,
  "nelements": null,
  "composition": null,
  "composition_reduced": null,
  "formula_pretty": "NaO8",
  "formula_anonymous": "AB8",
  "chemsys": null,
  "volume": 621.1333939124977,
  "density": 1.614573889705634,
  "density_atomic": 17.253705386458268,
  "symmetry": null,
  "property_name": null,
  "material_id": "mp-1201981",
  "deprecated": null,
  "deprecation_reasons": null,
  "last_updated": null,
  "origins": null,
  "warnings": null,
  "structure": {
    "@module": "pymatgen.core.structure",
    "@class": "Structure",
    "charge": 0,
    "lattice": {
      "matrix": [
        [0.228827999999999, 0.0, 7.263806],
        [4.643569, 0.0, -0.22583000000000003],
        [0.0, 18.386704, 0.0]
      ],
      "pbc": [true, true, true],
      "a": 7.267409432474546,
      "b": 4.649057135233014,
      "c": 18.386704,
      "alpha": 90.0,
      "beta": 90.0,
      "gamma": 90.97990024704306,
      "volume": 621.1333939124977
    },
    "properties": {},
    "sites": [
      {
        "species": [{ "element": "Na", "occu": 1 }],
        "abc": [0.958985, 0.463615, 0.183451],
        "properties": { "magmom": 0.0 },
        "label": "Na",
        "xyz": [2.372270861514999, 3.3730592355040003, 6.861182821459999]
      },
      {
        "species": [{ "element": "Na", "occu": 1 }],
        "abc": [0.541015, 0.536385, 0.683450999999999],
        "properties": { "magmom": 0.0 },
        "label": "Na",
        "xyz": [2.6145401384849998, 12.566411235503983, 3.80869617854]
      },
      {
        "species": [{ "element": "Na", "occu": 1 }],
        "abc": [0.041014999999999004, 0.536385, 0.816549],
        "properties": { "magmom": 0.0 },
        "label": "Na",
        "xyz": [2.500126138485, 15.013644764496, 0.17679317853999274]
      },
      {
        "species": [{ "element": "Na", "occu": 1 }],
        "abc": [0.458985, 0.463615, 0.316548999999999],
        "properties": { "magmom": 0.0 },
        "label": "Na",
        "xyz": [2.2578568615149996, 5.820292764495982, 3.22927982146]
      },
      {
        "species": [{ "element": "O", "occu": 1 }],
        "abc": [0.643614999999999, 0.08821000000000001, 0.430886999999999],
        "properties": { "magmom": 0.812 },
        "label": "O",
        "xyz": [0.5568863547099991, 7.922591726447982, 4.655174034389993]
      },
      {
        "species": [{ "element": "O", "occu": 1 }],
        "abc": [0.856385, 0.9117900000000001, 0.930886999999999],
        "properties": { "magmom": 0.812 },
        "label": "O",
        "xyz": [4.42992464529, 17.115943726447984, 6.014704965609999]
      },
      {
        "species": [{ "element": "O", "occu": 1 }],
        "abc": [0.356385, 0.9117900000000001, 0.569113],
        "properties": { "magmom": 0.812 },
        "label": "O",
        "xyz": [4.315510645290001, 10.464112273552, 2.38280196561]
      },
      {
        "species": [{ "element": "O", "occu": 1 }],
        "abc": [0.143615, 0.08821000000000001, 0.069113],
        "properties": { "magmom": 0.812 },
        "label": "O",
        "xyz": [0.4424723547099999, 1.270760273552, 1.02327103439]
      },
      {
        "species": [{ "element": "O", "occu": 1 }],
        "abc": [0.736988, 0.017960999999999002, 0.252959],
        "properties": { "magmom": 0.243 },
        "label": "O",
        "xyz": [0.2520466328729946, 4.651082257136, 5.349281723698]
      },
      {
        "species": [{ "element": "O", "occu": 1 }],
        "abc": [0.763011999999999, 0.982039, 0.752958999999999],
        "properties": { "magmom": 0.243 },
        "label": "O",
        "xyz": [4.734764367126999, 13.844434257135983, 5.320597276301993]
      },
      {
        "species": [{ "element": "O", "occu": 1 }],
        "abc": [0.263011999999999, 0.982039, 0.747041],
        "properties": { "magmom": 0.243 },
        "label": "O",
        "xyz": [4.620350367127, 13.735621742864, 1.6886942763019928]
      },
      {
        "species": [{ "element": "O", "occu": 1 }],
        "abc": [0.236987999999999, 0.017960999999999002, 0.247040999999999],
        "properties": { "magmom": 0.243 },
        "label": "O",
        "xyz": [0.1376326328729949, 4.542269742863982, 1.717378723697993]
      },
      {
        "species": [{ "element": "O", "occu": 1 }],
        "abc": [0.738014, 0.300261, 0.269297],
        "properties": { "magmom": 0.188 },
        "label": "O",
        "xyz": [1.5631609391009993, 4.951484227088001, 5.292982579654]
      },
      {
        "species": [{ "element": "O", "occu": 1 }],
        "abc": [0.761985999999999, 0.699739, 0.769297],
        "properties": { "magmom": 0.188 },
        "label": "O",
        "xyz": [3.4236500608989995, 14.144836227088001, 5.376896420345993]
      },
      {
        "species": [{ "element": "O", "occu": 1 }],
        "abc": [0.261986, 0.699739, 0.730703],
        "properties": { "magmom": 0.188 },
        "label": "O",
        "xyz": [3.309236060899, 13.435219772912001, 1.7449934203459998]
      },
      {
        "species": [{ "element": "O", "occu": 1 }],
        "abc": [0.23801399999999903, 0.300261, 0.230703],
        "properties": { "magmom": 0.188 },
        "label": "O",
        "xyz": [1.4487469391009995, 4.241867772912, 1.661079579653993]
      },
      {
        "species": [{ "element": "O", "occu": 1 }],
        "abc": [0.346601, 0.561531, 0.434295999999999],
        "properties": { "magmom": 0.041 },
        "label": "O",
        "xyz": [2.686819957767, 7.985272000383983, 2.390831877676]
      },
      {
        "species": [{ "element": "O", "occu": 1 }],
        "abc": [0.153398999999999, 0.438469, 0.9342959999999991],
        "properties": { "magmom": 0.041 },
        "label": "O",
        "xyz": [2.0711630422329996, 17.178624000383987, 1.0152411223239928]
      },
      {
        "species": [{ "element": "O", "occu": 1 }],
        "abc": [0.653399, 0.438469, 0.565704],
        "properties": { "magmom": 0.041 },
        "label": "O",
        "xyz": [2.185577042232999, 10.401431999616001, 4.647144122324]
      },
      {
        "species": [{ "element": "O", "occu": 1 }],
        "abc": [0.846600999999999, 0.561531, 0.065704],
        "properties": { "magmom": 0.041 },
        "label": "O",
        "xyz": [2.8012339577669993, 1.208079999616, 6.022734877675993]
      },
      {
        "species": [{ "element": "O", "occu": 1 }],
        "abc": [0.189967, 0.442637, 0.455864],
        "properties": { "magmom": 0.099 },
        "label": "O",
        "xyz": [2.098885220129, 8.381836432256002, 1.2799227206919999]
      },
      {
        "species": [{ "element": "O", "occu": 1 }],
        "abc": [0.310033, 0.557362999999999, 0.955863999999999],
        "properties": { "magmom": 0.099 },
        "label": "O",
        "xyz": [2.659097779870996, 17.575188432255985, 2.126150279308]
      },
      {
        "species": [{ "element": "O", "occu": 1 }],
        "abc": [0.810033, 0.557362999999999, 0.544136],
        "properties": { "magmom": 0.099 },
        "label": "O",
        "xyz": [2.7735117798709954, 10.004867567744, 5.758053279308]
      },
      {
        "species": [{ "element": "O", "occu": 1 }],
        "abc": [0.689967, 0.442637, 0.044135999999999],
        "properties": { "magmom": 0.099 },
        "label": "O",
        "xyz": [2.2132992201289996, 0.8115155677439817, 4.911825720692]
      },
      {
        "species": [{ "element": "O", "occu": 1 }],
        "abc": [0.094276, 0.304461, 0.407153999999999],
        "properties": { "magmom": 0.107 },
        "label": "O",
        "xyz": [1.435358649837, 7.486220080415983, 0.616046146826]
      },
      {
        "species": [{ "element": "O", "occu": 1 }],
        "abc": [0.405724, 0.695539, 0.907153999999999],
        "properties": { "magmom": 0.107 },
        "label": "O",
        "xyz": [3.322624350163, 16.679572080415983, 2.790026853174]
      },
      {
        "species": [{ "element": "O", "occu": 1 }],
        "abc": [0.905724, 0.695539, 0.592846],
        "properties": { "magmom": 0.107 },
        "label": "O",
        "xyz": [3.4370383501629993, 10.900483919584001, 6.4219298531739994]
      },
      {
        "species": [{ "element": "O", "occu": 1 }],
        "abc": [0.594276, 0.304461, 0.092846],
        "properties": { "magmom": 0.107 },
        "label": "O",
        "xyz": [1.5497726498369995, 1.707131919584, 4.2479491468259996]
      },
      {
        "species": [{ "element": "O", "occu": 1 }],
        "abc": [0.717371, 0.867655, 0.409361],
        "properties": { "magmom": 0.795 },
        "label": "O",
        "xyz": [4.193170431882999, 7.526799536144, 5.014901245376]
      },
      {
        "species": [{ "element": "O", "occu": 1 }],
        "abc": [0.782629, 0.132345, 0.909361],
        "properties": { "magmom": 0.795 },
        "label": "O",
        "xyz": [0.7936405681169992, 16.720151536144, 5.654977754623999]
      },
      {
        "species": [{ "element": "O", "occu": 1 }],
        "abc": [0.282628999999999, 0.132345, 0.590639],
        "properties": { "magmom": 0.795 },
        "label": "O",
        "xyz": [0.6792265681169996, 10.859904463856001, 2.023074754623993]
      },
      {
        "species": [{ "element": "O", "occu": 1 }],
        "abc": [0.217370999999999, 0.867655, 0.090639],
        "properties": { "magmom": 0.795 },
        "label": "O",
        "xyz": [4.078756431883, 1.666552463856, 1.3829982453759926]
      },
      {
        "species": [{ "element": "O", "occu": 1 }],
        "abc": [0.359386, 0.9465800000000001, 0.297614999999999],
        "properties": { "magmom": 0.158 },
        "label": "O",
        "xyz": [4.477747123628, 5.472158910959982, 2.3967440217159997]
      },
      {
        "species": [{ "element": "O", "occu": 1 }],
        "abc": [0.140614, 0.05342, 0.797615],
        "properties": { "magmom": 0.158 },
        "label": "O",
        "xyz": [0.28023587637199987, 14.66551091096, 1.0093289782839998]
      },
      {
        "species": [{ "element": "O", "occu": 1 }],
        "abc": [0.640614, 0.05342, 0.702384999999999],
        "properties": { "magmom": 0.158 },
        "label": "O",
        "xyz": [0.39464987637199944, 12.914545089039983, 4.641231978284001]
      },
      {
        "species": [{ "element": "O", "occu": 1 }],
        "abc": [0.859386, 0.9465800000000001, 0.202384999999999],
        "properties": { "magmom": 0.158 },
        "label": "O",
        "xyz": [4.592161123627999, 3.721193089039982, 6.028647021716]
      }
    ]
  },
  "task_ids": null,
  "uncorrected_energy_per_atom": null,
  "energy_per_atom": -4.665267763333333,
  "formation_energy_per_atom": -0.118000116819923,
  "energy_above_hull": 0.18493756666666603,
  "is_stable": false,
  "equilibrium_reaction_energy_per_atom": null,
  "decomposes_to": null,
  "xas": null,
  "grain_boundaries": null,
  "band_gap": 0.055400000000000005,
  "cbm": null,
  "vbm": null,
  "efermi": -1.42358003,
  "is_gap_direct": null,
  "is_metal": null,
  "es_source_calc_id": null,
  "bandstructure": null,
  "dos": null,
  "dos_energy_up": null,
  "dos_energy_down": null,
  "is_magnetic": null,
  "ordering": null,
  "total_magnetization": 12.0012447,
  "total_magnetization_normalized_vol": null,
  "total_magnetization_normalized_formula_units": null,
  "num_magnetic_sites": null,
  "num_unique_magnetic_sites": null,
  "types_of_magnetic_species": null,
  "bulk_modulus": null,
  "shear_modulus": null,
  "universal_anisotropy": null,
  "homogeneous_poisson": null,
  "e_total": null,
  "e_ionic": null,
  "e_electronic": null,
  "n": null,
  "e_ij_max": null,
  "weighted_surface_energy_EV_PER_ANG2": null,
  "weighted_surface_energy": null,
  "weighted_work_function": null,
  "surface_anisotropy": null,
  "shape_factor": null,
  "has_reconstructed": null,
  "possible_species": null,
  "has_props": null,
  "theoretical": null,
  "database_IDs": null,
  "fields_not_requested": [
    "builder_meta",
    "nsites",
    "elements",
    "nelements",
    "composition",
    "composition_reduced",
    "chemsys",
    "symmetry",
    "property_name",
    "deprecated",
    "deprecation_reasons",
    "last_updated",
    "origins",
    "warnings",
    "task_ids",
    "uncorrected_energy_per_atom",
    "equilibrium_reaction_energy_per_atom",
    "decomposes_to",
    "xas",
    "grain_boundaries",
    "cbm",
    "vbm",
    "is_gap_direct",
    "is_metal",
    "es_source_calc_id",
    "bandstructure",
    "dos",
    "dos_energy_up",
    "dos_energy_down",
    "is_magnetic",
    "ordering",
    "total_magnetization_normalized_vol",
    "total_magnetization_normalized_formula_units",
    "num_magnetic_sites",
    "num_unique_magnetic_sites",
    "types_of_magnetic_species",
    "bulk_modulus",
    "shear_modulus",
    "universal_anisotropy",
    "homogeneous_poisson",
    "e_total",
    "e_ionic",
    "e_electronic",
    "n",
    "e_ij_max",
    "weighted_surface_energy_EV_PER_ANG2",
    "weighted_surface_energy",
    "weighted_work_function",
    "surface_anisotropy",
    "shape_factor",
    "has_reconstructed",
    "possible_species",
    "has_props",
    "theoretical",
    "database_IDs"
  ]
}
