{"builder_meta": null, "nsites": null, "elements": null, "nelements": null, "composition": null, "composition_reduced": null, "formula_pretty": "NaP", "formula_anonymous": "AB", "chemsys": null, "volume": 336.7894842546889, "density": 2.128535623620998, "density_atomic": 21.049342765918055, "symmetry": null, "property_name": null, "material_id": "mp-7440", "deprecated": null, "deprecation_reasons": null, "last_updated": null, "origins": null, "warnings": null, "structure": {"@module": "pymatgen.core.structure", "@class": "Structure", "charge": 0, "lattice": {"matrix": [[5.58246188, 0.0, 0.0], [0.0, 6.0007586, 0.0], [0.0, 0.0, 10.05371571]], "pbc": [true, true, true], "a": 5.58246188, "b": 6.0007586, "c": 10.05371571, "alpha": 90.0, "beta": 90.0, "gamma": 90.0, "volume": 336.7894842546889}, "properties": {}, "sites": [{"species": [{"element": "Na", "occu": 1}], "abc": [0.09574138, 0.586284, 0.9657618], "properties": {"magmom": -0.0}, "label": "Na", "xyz": [0.5344726041885944, 3.5181487550424, 9.709494580777879]}, {"species": [{"element": "Na", "occu": 1}], "abc": [0.59574138, 0.413716, 0.5342382], "properties": {"magmom": -0.0}, "label": "Na", "xyz": [3.3257035441885945, 2.4826098449576, 5.371078984222122]}, {"species": [{"element": "Na", "occu": 1}], "abc": [0.40425862, 0.086284, 0.034238199999999004], "properties": {"magmom": -0.0}, "label": "Na", "xyz": [2.256758335811406, 0.5177694550424, 0.344221129222112]}, {"species": [{"element": "Na", "occu": 1}], "abc": [0.90425862, 0.913716, 0.4657618], "properties": {"magmom": -0.0}, "label": "Na", "xyz": [5.047989275811406, 5.4829891449576, 4.682636725777878]}, {"species": [{"element": "Na", "occu": 1}], "abc": [0.3666657, 0.8632187100000001, 0.66764315], "properties": {"magmom": 0.0}, "label": "Na", "xyz": [2.046897292953516, 5.179967097713407, 6.712294425828887]}, {"species": [{"element": "Na", "occu": 1}], "abc": [0.8666657, 0.13678129, 0.83235685], "properties": {"magmom": 0.0}, "label": "Na", "xyz": [4.838128232953516, 0.820791502286594, 8.368279139171115]}, {"species": [{"element": "Na", "occu": 1}], "abc": [0.1333343, 0.36321871, 0.33235685], "properties": {"magmom": 0.0}, "label": "Na", "xyz": [0.744333647046484, 2.179587797713406, 3.3414212841711133]}, {"species": [{"element": "Na", "occu": 1}], "abc": [0.6333343, 0.63678129, 0.16764315], "properties": {"magmom": 0.0}, "label": "Na", "xyz": [3.5355645870464842, 3.8211708022865944, 1.6854365708288865]}, {"species": [{"element": "P", "occu": 1}], "abc": [0.86339102, 0.69318543, 0.71598322], "properties": {"magmom": -0.0}, "label": "P", "xyz": [4.819847456684318, 4.159638430467198, 7.198291747010387]}, {"species": [{"element": "P", "occu": 1}], "abc": [0.36339102, 0.30681357, 0.78401678], "properties": {"magmom": -0.0}, "label": "P", "xyz": [2.028616516684318, 1.8411141687742019, 7.882281817989614]}, {"species": [{"element": "P", "occu": 1}], "abc": [0.63660898, 0.19318643, 0.28401678], "properties": {"magmom": -0.0}, "label": "P", "xyz": [3.5538453633156823, 1.159265131225798, 2.8554239629896143]}, {"species": [{"element": "P", "occu": 1}], "abc": [0.13660898, 0.80681457, 0.21598322], "properties": {"magmom": -0.0}, "label": "P", "xyz": [0.7626144233156824, 4.841499469532802, 2.1714338920103864]}, {"species": [{"element": "P", "occu": 1}], "abc": [0.59688937, 0.57063115, 0.86658965], "properties": {"magmom": 0.0}, "label": "P", "xyz": [3.3321121546022154, 3.42421978079039, 8.712445978328402]}, {"species": [{"element": "P", "occu": 1}], "abc": [0.09688937, 0.42936885, 0.63341035], "properties": {"magmom": 0.0}, "label": "P", "xyz": [0.5408812146022156, 2.57653881920961, 6.368127586671599]}, {"species": [{"element": "P", "occu": 1}], "abc": [0.90311063, 0.07063115, 0.13341035], "properties": {"magmom": 0.0}, "label": "P", "xyz": [5.041580665397785, 0.42384048079039005, 1.3412697316715987]}, {"species": [{"element": "P", "occu": 1}], "abc": [0.40311063, 0.92936885, 0.36658965], "properties": {"magmom": 0.0}, "label": "P", "xyz": [2.250349725397785, 5.57691811920961, 3.685588123328402]}]}, "task_ids": null, "uncorrected_energy_per_atom": null, "energy_per_atom": -6.782991560625, "formation_energy_per_atom": -0.49986311961309404, "energy_above_hull": 0.0, "is_stable": true, "equilibrium_reaction_energy_per_atom": null, "decomposes_to": null, "xas": null, "grain_boundaries": null, "band_gap": 0.8684000000000001, "cbm": null, "vbm": null, "efermi": 3.32965515, "is_gap_direct": null, "is_metal": null, "es_source_calc_id": null, "bandstructure": null, "dos": null, "dos_energy_up": null, "dos_energy_down": null, "is_magnetic": null, "ordering": null, "total_magnetization": 0.0, "total_magnetization_normalized_vol": null, "total_magnetization_normalized_formula_units": null, "num_magnetic_sites": null, "num_unique_magnetic_sites": null, "types_of_magnetic_species": null, "bulk_modulus": null, "shear_modulus": null, "universal_anisotropy": null, "homogeneous_poisson": null, "e_total": null, "e_ionic": null, "e_electronic": null, "n": null, "e_ij_max": null, "weighted_surface_energy_EV_PER_ANG2": null, "weighted_surface_energy": null, "weighted_work_function": null, "surface_anisotropy": null, "shape_factor": null, "has_reconstructed": null, "possible_species": null, "has_props": null, "theoretical": null, "database_IDs": null, "fields_not_requested": ["builder_meta", "nsites", "elements", "nelements", "composition", "composition_reduced", "chemsys", "symmetry", "property_name", "deprecated", "deprecation_reasons", "last_updated", "origins", "warnings", "task_ids", "uncorrected_energy_per_atom", "equilibrium_reaction_energy_per_atom", "decomposes_to", "xas", "grain_boundaries", "cbm", "vbm", "is_gap_direct", "is_metal", "es_source_calc_id", "bandstructure", "dos", "dos_energy_up", "dos_energy_down", "is_magnetic", "ordering", "total_magnetization_normalized_vol", "total_magnetization_normalized_formula_units", "num_magnetic_sites", "num_unique_magnetic_sites", "types_of_magnetic_species", "bulk_modulus", "shear_modulus", "universal_anisotropy", "homogeneous_poisson", "e_total", "e_ionic", "e_electronic", "n", "e_ij_max", "weighted_surface_energy_EV_PER_ANG2", "weighted_surface_energy", "weighted_work_function", "surface_anisotropy", "shape_factor", "has_reconstructed", "possible_species", "has_props", "theoretical", "database_IDs"]}