{
  "builder_meta": null,
  "nsites": null,
  "elements": null,
  "nelements": null,
  "composition": null,
  "composition_reduced": null,
  "formula_pretty": "NaP5",
  "formula_anonymous": "AB5",
  "chemsys": null,
  "volume": 502.91735626293973,
  "density": 2.349023079410289,
  "density_atomic": 20.954889844289156,
  "symmetry": null,
  "property_name": null,
  "material_id": "mp-31086",
  "deprecated": null,
  "deprecation_reasons": null,
  "last_updated": null,
  "origins": null,
  "warnings": null,
  "structure": {
    "@module": "pymatgen.core.structure",
    "@class": "Structure",
    "charge": 0,
    "lattice": {
      "matrix": [
        [6.52865109, 0.0, 0.0],
        [-0.0, 7.00711307, 0.0],
        [0.0, 0.0, 10.99345085]
      ],
      "pbc": [true, true, true],
      "a": 6.52865109,
      "b": 7.00711307,
      "c": 10.99345085,
      "alpha": 90.0,
      "beta": 90.0,
      "gamma": 90.0,
      "volume": 502.91735626293973
    },
    "properties": {},
    "sites": [
      {
        "species": [{ "element": "Na", "occu": 1 }],
        "abc": [0.25, 0.09297248, 0.42581468],
        "properties": { "magmom": 0.0 },
        "label": "Na",
        "xyz": [1.6321627725, 0.6514686797583136, 4.681172755788478]
      },
      {
        "species": [{ "element": "Na", "occu": 1 }],
        "abc": [0.75, 0.90702752, 0.57418532],
        "properties": { "magmom": 0.0 },
        "label": "Na",
        "xyz": [4.8964883175, 6.355644390241686, 6.312278094211522]
      },
      {
        "species": [{ "element": "Na", "occu": 1 }],
        "abc": [0.75, 0.59297248, 0.07418532],
        "properties": { "magmom": 0.0 },
        "label": "Na",
        "xyz": [4.8964883175, 4.1550252147583135, 0.815552669211522]
      },
      {
        "species": [{ "element": "Na", "occu": 1 }],
        "abc": [0.25, 0.40702752000000003, 0.92581468],
        "properties": { "magmom": 0.0 },
        "label": "Na",
        "xyz": [1.6321627725, 2.8520878552416864, 10.177898180788478]
      },
      {
        "species": [{ "element": "P", "occu": 1 }],
        "abc": [0.01272769, 0.09224748, 0.08230042],
        "properties": { "magmom": -0.0 },
        "label": "P",
        "xyz": [0.08309464719168211, 0.6463885227825636, 0.904765622204357]
      },
      {
        "species": [{ "element": "P", "occu": 1 }],
        "abc": [0.51272769, 0.9077525200000001, 0.9176995800000001],
        "properties": { "magmom": -0.0 },
        "label": "P",
        "xyz": [3.347420192191682, 6.360724547217437, 10.088685227795644]
      },
      {
        "species": [{ "element": "P", "occu": 1 }],
        "abc": [0.98727231, 0.59224748, 0.41769958],
        "properties": { "magmom": -0.0 },
        "label": "P",
        "xyz": [6.445556442808319, 4.149945057782564, 4.591959802795643]
      },
      {
        "species": [{ "element": "P", "occu": 1 }],
        "abc": [0.48727231, 0.40775252, 0.58230042],
        "properties": { "magmom": -0.0 },
        "label": "P",
        "xyz": [3.181230897808318, 2.8571680122174365, 6.401491047204358]
      },
      {
        "species": [{ "element": "P", "occu": 1 }],
        "abc": [0.98727231, 0.9077525200000001, 0.9176995800000001],
        "properties": { "magmom": -0.0 },
        "label": "P",
        "xyz": [6.445556442808319, 6.360724547217437, 10.088685227795644]
      },
      {
        "species": [{ "element": "P", "occu": 1 }],
        "abc": [0.48727231, 0.09224748, 0.08230042],
        "properties": { "magmom": -0.0 },
        "label": "P",
        "xyz": [3.181230897808318, 0.6463885227825636, 0.904765622204357]
      },
      {
        "species": [{ "element": "P", "occu": 1 }],
        "abc": [0.01272769, 0.40775252, 0.58230042],
        "properties": { "magmom": -0.0 },
        "label": "P",
        "xyz": [0.08309464719168211, 2.8571680122174365, 6.401491047204358]
      },
      {
        "species": [{ "element": "P", "occu": 1 }],
        "abc": [0.51272769, 0.59224748, 0.41769958],
        "properties": { "magmom": -0.0 },
        "label": "P",
        "xyz": [3.347420192191682, 4.149945057782564, 4.591959802795643]
      },
      {
        "species": [{ "element": "P", "occu": 1 }],
        "abc": [0.25, 0.63310432, 0.1408544],
        "properties": { "magmom": -0.0 },
        "label": "P",
        "xyz": [1.6321627725, 4.436233555345463, 1.54847592340624]
      },
      {
        "species": [{ "element": "P", "occu": 1 }],
        "abc": [0.75, 0.36689568, 0.8591456],
        "properties": { "magmom": -0.0 },
        "label": "P",
        "xyz": [4.8964883175, 2.570879514654538, 9.44497492659376]
      },
      {
        "species": [{ "element": "P", "occu": 1 }],
        "abc": [0.75, 0.13310432, 0.3591456],
        "properties": { "magmom": -0.0 },
        "label": "P",
        "xyz": [4.8964883175, 0.9326770203454624, 3.9482495015937604]
      },
      {
        "species": [{ "element": "P", "occu": 1 }],
        "abc": [0.25, 0.8668956800000001, 0.640854399999999],
        "properties": { "magmom": -0.0 },
        "label": "P",
        "xyz": [1.6321627725, 6.074436049654538, 7.04520134840623]
      },
      {
        "species": [{ "element": "P", "occu": 1 }],
        "abc": [0.25, 0.47970436, 0.31075075],
        "properties": { "magmom": -0.0 },
        "label": "P",
        "xyz": [1.6321627725, 3.361342690691985, 3.4162230967256377]
      },
      {
        "species": [{ "element": "P", "occu": 1 }],
        "abc": [0.75, 0.5202956400000001, 0.68924925],
        "properties": { "magmom": -0.0 },
        "label": "P",
        "xyz": [4.8964883175, 3.6457703793080154, 7.5772277532743635]
      },
      {
        "species": [{ "element": "P", "occu": 1 }],
        "abc": [0.75, 0.97970436, 0.18924925],
        "properties": { "magmom": -0.0 },
        "label": "P",
        "xyz": [4.8964883175, 6.864899225691985, 2.0805023282743624]
      },
      {
        "species": [{ "element": "P", "occu": 1 }],
        "abc": [0.25, 0.02029564, 0.81075075],
        "properties": { "magmom": -0.0 },
        "label": "P",
        "xyz": [1.6321627725, 0.14221384430801481, 8.912948521725637]
      },
      {
        "species": [{ "element": "P", "occu": 1 }],
        "abc": [0.25, 0.5650914, 0.68577858],
        "properties": { "magmom": 0.0 },
        "label": "P",
        "xyz": [1.6321627725, 3.959659334684598, 7.539073113212794]
      },
      {
        "species": [{ "element": "P", "occu": 1 }],
        "abc": [0.75, 0.4349086, 0.31422142000000003],
        "properties": { "magmom": 0.0 },
        "label": "P",
        "xyz": [4.8964883175, 3.047453735315402, 3.4543777367872073]
      },
      {
        "species": [{ "element": "P", "occu": 1 }],
        "abc": [0.75, 0.0650914, 0.81422142],
        "properties": { "magmom": 0.0 },
        "label": "P",
        "xyz": [4.8964883175, 0.45610279968459794, 8.951103161787207]
      },
      {
        "species": [{ "element": "P", "occu": 1 }],
        "abc": [0.25, 0.9349086, 0.18577858],
        "properties": { "magmom": 0.0 },
        "label": "P",
        "xyz": [1.6321627725, 6.551010270315402, 2.042347688212793]
      }
    ]
  },
  "task_ids": null,
  "uncorrected_energy_per_atom": null,
  "energy_per_atom": -8.3269533525,
  "formation_energy_per_atom": -0.231192997480158,
  "energy_above_hull": 0.009960415,
  "is_stable": false,
  "equilibrium_reaction_energy_per_atom": null,
  "decomposes_to": null,
  "xas": null,
  "grain_boundaries": null,
  "band_gap": 1.3958,
  "cbm": null,
  "vbm": null,
  "efermi": 3.96003033,
  "is_gap_direct": null,
  "is_metal": null,
  "es_source_calc_id": null,
  "bandstructure": null,
  "dos": null,
  "dos_energy_up": null,
  "dos_energy_down": null,
  "is_magnetic": null,
  "ordering": null,
  "total_magnetization": 0.0,
  "total_magnetization_normalized_vol": null,
  "total_magnetization_normalized_formula_units": null,
  "num_magnetic_sites": null,
  "num_unique_magnetic_sites": null,
  "types_of_magnetic_species": null,
  "bulk_modulus": null,
  "shear_modulus": null,
  "universal_anisotropy": null,
  "homogeneous_poisson": null,
  "e_total": null,
  "e_ionic": null,
  "e_electronic": null,
  "n": null,
  "e_ij_max": null,
  "weighted_surface_energy_EV_PER_ANG2": null,
  "weighted_surface_energy": null,
  "weighted_work_function": null,
  "surface_anisotropy": null,
  "shape_factor": null,
  "has_reconstructed": null,
  "possible_species": null,
  "has_props": null,
  "theoretical": null,
  "database_IDs": null,
  "fields_not_requested": [
    "builder_meta",
    "nsites",
    "elements",
    "nelements",
    "composition",
    "composition_reduced",
    "chemsys",
    "symmetry",
    "property_name",
    "deprecated",
    "deprecation_reasons",
    "last_updated",
    "origins",
    "warnings",
    "task_ids",
    "uncorrected_energy_per_atom",
    "equilibrium_reaction_energy_per_atom",
    "decomposes_to",
    "xas",
    "grain_boundaries",
    "cbm",
    "vbm",
    "is_gap_direct",
    "is_metal",
    "es_source_calc_id",
    "bandstructure",
    "dos",
    "dos_energy_up",
    "dos_energy_down",
    "is_magnetic",
    "ordering",
    "total_magnetization_normalized_vol",
    "total_magnetization_normalized_formula_units",
    "num_magnetic_sites",
    "num_unique_magnetic_sites",
    "types_of_magnetic_species",
    "bulk_modulus",
    "shear_modulus",
    "universal_anisotropy",
    "homogeneous_poisson",
    "e_total",
    "e_ionic",
    "e_electronic",
    "n",
    "e_ij_max",
    "weighted_surface_energy_EV_PER_ANG2",
    "weighted_surface_energy",
    "weighted_work_function",
    "surface_anisotropy",
    "shape_factor",
    "has_reconstructed",
    "possible_species",
    "has_props",
    "theoretical",
    "database_IDs"
  ]
}
