{
  "builder_meta": null,
  "nsites": null,
  "elements": null,
  "nelements": null,
  "composition": null,
  "composition_reduced": null,
  "formula_pretty": "NaP7",
  "formula_anonymous": "AB7",
  "chemsys": null,
  "volume": 1522.9261067283921,
  "density": 2.091801571441959,
  "density_atomic": 23.795720417631127,
  "symmetry": null,
  "property_name": null,
  "material_id": "mp-1195785",
  "deprecated": null,
  "deprecation_reasons": null,
  "last_updated": null,
  "origins": null,
  "warnings": null,
  "structure": {
    "@module": "pymatgen.core.structure",
    "@class": "Structure",
    "charge": 0,
    "lattice": {
      "matrix": [
        [-7.16105423, -7.16105423, 7.42446074],
        [-7.16105423, 7.16105423, -7.42446074],
        [7.16105423, -7.16105423, -7.42446074]
      ],
      "pbc": [true, true, true],
      "a": 12.557229497377323,
      "b": 12.557229497377323,
      "c": 12.557229497377323,
      "alpha": 107.50848907244007,
      "beta": 110.46141106662867,
      "gamma": 110.46141106662867,
      "volume": 1522.9261067283924
    },
    "properties": {},
    "sites": [
      {
        "species": [{ "element": "Na", "occu": 1 }],
        "abc": [-0.0, 0.13415291000000001, 0.36584709],
        "properties": { "magmom": -0.0 },
        "label": "Na",
        "xyz": [1.6591745877553812, -1.6591745877553812, -3.71223037]
      },
      {
        "species": [{ "element": "Na", "occu": 1 }],
        "abc": [0.23169618, 0.86584709, 0.86584709],
        "properties": { "magmom": -0.0 },
        "label": "Na",
        "xyz": [-1.6591889098638415, -1.6591889098638415, -11.13667626107852]
      },
      {
        "species": [{ "element": "Na", "occu": 1 }],
        "abc": [0.5, 0.38415291, 0.11584709],
        "properties": { "magmom": -0.0 },
        "label": "Na",
        "xyz": [-5.501879642244619, -1.6591745877553814, 1.1102230246251565e-16]
      },
      {
        "species": [{ "element": "Na", "occu": 1 }],
        "abc": [0.73169618, 0.11584709, 0.61584709],
        "properties": { "magmom": -0.0 },
        "label": "Na",
        "xyz": [-1.6591889098638415, -8.820243139863843, 1.4848921480847821e-5]
      },
      {
        "species": [{ "element": "Na", "occu": 1 }],
        "abc": [-0.0, 0.36584709, 0.13415291000000001],
        "properties": { "magmom": -0.0 },
        "label": "Na",
        "xyz": [-1.6591745877553812, 1.6591745877553812, -3.71223037]
      },
      {
        "species": [{ "element": "Na", "occu": 1 }],
        "abc": [0.76830382, 0.63415291, 0.63415291],
        "properties": { "magmom": -0.0 },
        "label": "Na",
        "xyz": [-5.501865320136159, -5.501865320136159, -3.7122452189214785]
      },
      {
        "species": [{ "element": "Na", "occu": 1 }],
        "abc": [0.5, 0.61584709, 0.8841529100000001],
        "properties": { "magmom": -0.0 },
        "label": "Na",
        "xyz": [-1.6591745877553814, -5.501879642244619, -7.424460740000001]
      },
      {
        "species": [{ "element": "Na", "occu": 1 }],
        "abc": [0.26830382, 0.8841529100000001, 0.38415291],
        "properties": { "magmom": -0.0 },
        "label": "Na",
        "xyz": [-5.501865320136159, 1.6591889098638415, -7.42447558892148]
      },
      {
        "species": [{ "element": "P", "occu": 1 }],
        "abc": [0.22566706, 0.10066706, 0.375],
        "properties": { "magmom": 0.0 },
        "label": "P",
        "xyz": [0.3484990058306723, -3.580527115, -1.8561151849999997]
      },
      {
        "species": [{ "element": "P", "occu": 1 }],
        "abc": [0.27433294, 0.64933294, 0.875],
        "properties": { "magmom": 0.0 },
        "label": "P",
        "xyz": [-0.3484990058306714, -3.580527115000001, -9.280575924999999]
      },
      {
        "species": [{ "element": "P", "occu": 1 }],
        "abc": [0.72566706, 0.60066706, 0.375],
        "properties": { "magmom": 0.0 },
        "label": "P",
        "xyz": [-6.81255522416933, -3.5805271149999998, -1.8561151849999997]
      },
      {
        "species": [{ "element": "P", "occu": 1 }],
        "abc": [0.77433294, 0.14933294, 0.875],
        "properties": { "magmom": 0.0 },
        "label": "P",
        "xyz": [-0.3484990058306723, -10.741581345, -1.8561151850000002]
      },
      {
        "species": [{ "element": "P", "occu": 1 }],
        "abc": [0.27433294, 0.125, 0.89933294],
        "properties": { "magmom": 0.0 },
        "label": "P",
        "xyz": [3.5805271149999998, -7.509553235830673, -5.568345555]
      },
      {
        "species": [{ "element": "P", "occu": 1 }],
        "abc": [0.22566706, 0.625, 0.35066706000000003],
        "properties": { "magmom": 0.0 },
        "label": "P",
        "xyz": [-3.5805271149999998, 0.3484990058306723, -5.568345555]
      },
      {
        "species": [{ "element": "P", "occu": 1 }],
        "abc": [0.77433294, 0.125, 0.39933294],
        "properties": { "magmom": 0.0 },
        "label": "P",
        "xyz": [-3.5805271149999998, -7.509553235830674, 1.8561151849999993]
      },
      {
        "species": [{ "element": "P", "occu": 1 }],
        "abc": [0.72566706, 0.625, 0.85066706],
        "properties": { "magmom": 0.0 },
        "label": "P",
        "xyz": [-3.5805271149999998, -6.812555224169328, -5.568345554999999]
      },
      {
        "species": [{ "element": "P", "occu": 1 }],
        "abc": [0.37842081, 0.29599047, 0.53535159],
        "properties": { "magmom": 0.0 },
        "label": "P",
        "xyz": [-0.9958139812969891, -4.423969903044064, -3.3626960389367246]
      },
      {
        "species": [{ "element": "P", "occu": 1 }],
        "abc": [0.23936211000000002, 0.65693178, 0.03535159],
        "properties": { "magmom": 0.0 },
        "label": "P",
        "xyz": [-6.1652544992009295, 2.7370843985664775, -3.362696113181332]
      },
      {
        "species": [{ "element": "P", "occu": 1 }],
        "abc": [0.87842081, 0.59306822, 0.33243034],
        "properties": { "magmom": 0.0 },
        "label": "P",
        "xyz": [-8.156861050242759, -4.4239770640982945, -0.3495269066025348]
      },
      {
        "species": [{ "element": "P", "occu": 1 }],
        "abc": [0.73936211, 0.95400953, 0.83243034],
        "properties": { "magmom": 0.0 },
        "label": "P",
        "xyz": [-6.165247338146699, -4.423976992487752, -7.773987720847143]
      },
      {
        "species": [{ "element": "P", "occu": 1 }],
        "abc": [0.6215791900000001, 0.15693178, 0.9175696600000001],
        "properties": { "magmom": 0.0 },
        "label": "P",
        "xyz": [0.995806820242759, -9.898131395901707, -3.362703463397465]
      },
      {
        "species": [{ "element": "P", "occu": 1 }],
        "abc": [0.76063789, 0.79599047, 0.41756966],
        "properties": { "magmom": 0.0 },
        "label": "P",
        "xyz": [-8.156861121853302, -2.737077237512249, -3.3627033891528573]
      },
      {
        "species": [{ "element": "P", "occu": 1 }],
        "abc": [0.12157919, 0.45400953, 0.71464841],
        "properties": { "magmom": 0.0 },
        "label": "P",
        "xyz": [0.9958139812969886, -2.7370843269559364, -7.773995071063275]
      },
      {
        "species": [{ "element": "P", "occu": 1 }],
        "abc": [0.26063789, 0.09306822000000001, 0.21464841],
        "properties": { "magmom": 0.0 },
        "label": "P",
        "xyz": [-0.9957997307990709, -2.7370843985664783, -0.3495342568186679]
      },
      {
        "species": [{ "element": "P", "occu": 1 }],
        "abc": [0.23936211000000002, 0.08243034, 0.70400953],
        "properties": { "magmom": 0.0 },
        "label": "P",
        "xyz": [2.7370772375122483, -6.165247338146699, -4.061757350847142]
      },
      {
        "species": [{ "element": "P", "occu": 1 }],
        "abc": [0.37842081, 0.58243034, 0.34306822000000003],
        "properties": { "magmom": 0.0 },
        "label": "P",
        "xyz": [-4.423977064098294, -0.9958068202427586, -4.061757276602535]
      },
      {
        "species": [{ "element": "P", "occu": 1 }],
        "abc": [0.73936211, 0.28535159, 0.40693178],
        "properties": { "magmom": 0.0 },
        "label": "P",
        "xyz": [-4.423969831433522, -6.1652544992009295, 0.349534256818667]
      },
      {
        "species": [{ "element": "P", "occu": 1 }],
        "abc": [0.87842081, 0.78535159, 0.04599047],
        "properties": { "magmom": 0.0 },
        "label": "P",
        "xyz": [-11.585024133044065, -0.9958139812969895, 0.34953433106327486]
      },
      {
        "species": [{ "element": "P", "occu": 1 }],
        "abc": [0.76063789, 0.46464841, 0.84306822],
        "properties": { "magmom": 0.0 },
        "label": "P",
        "xyz": [-2.7370843985664797, -8.156853960799072, -4.061764626818667]
      },
      {
        "species": [{ "element": "P", "occu": 1 }],
        "abc": [0.6215791900000001, 0.96464841, 0.20400953],
        "properties": { "magmom": 0.0 },
        "label": "P",
        "xyz": [-9.898138556955937, 0.9958139812969888, -4.061764701063275]
      },
      {
        "species": [{ "element": "P", "occu": 1 }],
        "abc": [0.26063789, 0.6675696600000001, 0.54599047],
        "properties": { "magmom": 0.0 },
        "label": "P",
        "xyz": [-2.7370772375122487, -0.995806891853301, -7.074933759152858]
      },
      {
        "species": [{ "element": "P", "occu": 1 }],
        "abc": [0.12157919, 0.16756966, 0.90693178],
        "properties": { "magmom": 0.0 },
        "label": "P",
        "xyz": [4.423977064098294, -6.165247409757241, -7.0749338333974645]
      },
      {
        "species": [{ "element": "P", "occu": 1 }],
        "abc": [0.58796347, 0.22313255, 0.46078427],
        "properties": { "magmom": 0.0 },
        "label": "P",
        "xyz": [-2.5086014391562035, -5.912275148701754, -0.7124018799464786]
      },
      {
        "species": [{ "element": "P", "occu": 1 }],
        "abc": [0.23765272, 0.37282081, 0.96078527],
        "properties": { "magmom": 0.0 },
        "label": "P",
        "xyz": [2.50860136754566, -5.912289399199672, -8.136862694191086]
      },
      {
        "species": [{ "element": "P", "occu": 1 }],
        "abc": [0.08796347, 0.87717919, 0.6148309200000001],
        "properties": { "magmom": 0.0 },
        "label": "P",
        "xyz": [-2.50860136754566, 1.2487790096877038, -10.424289155808914]
      },
      {
        "species": [{ "element": "P", "occu": 1 }],
        "abc": [0.73765272, 0.02686745, 0.11483092],
        "properties": { "magmom": 0.0 },
        "label": "P",
        "xyz": [-4.652459951898028, -5.912282309755985, 4.424639674407219]
      },
      {
        "species": [{ "element": "P", "occu": 1 }],
        "abc": [0.41203653, 0.87282081, 0.63516908],
        "properties": { "magmom": 0.0 },
        "label": "P",
        "xyz": [-4.65245286245434, -1.2487790096877043, -8.136862694191088]
      },
      {
        "species": [{ "element": "P", "occu": 1 }],
        "abc": [0.76234728, 0.72313255, 0.13516908],
        "properties": { "magmom": 0.0 },
        "label": "P",
        "xyz": [-9.669648508101973, -1.2487719202440164, -0.7124093044072193]
      },
      {
        "species": [{ "element": "P", "occu": 1 }],
        "abc": [0.9120365300000001, 0.52686745, 0.78921473],
        "properties": { "magmom": 0.0 },
        "label": "P",
        "xyz": [-4.652459951898029, -8.409826150244017, -2.9998210655927795]
      },
      {
        "species": [{ "element": "P", "occu": 1 }],
        "abc": [0.26234728, 0.37717919, 0.28921573],
        "properties": { "magmom": 0.0 },
        "label": "P",
        "xyz": [-2.5085942064914306, -1.2487719918545588, -2.999835840269653]
      },
      {
        "species": [{ "element": "P", "occu": 1 }],
        "abc": [0.23765272, 0.36483092, 0.77686745],
        "properties": { "magmom": 0.0 },
        "label": "P",
        "xyz": [1.2487719202440157, -4.652459951898027, -6.71205143559278]
      },
      {
        "species": [{ "element": "P", "occu": 1 }],
        "abc": [0.58796347, 0.8648309200000001, 0.62717919],
        "properties": { "magmom": 0.0 },
        "label": "P",
        "xyz": [-5.912275220312298, -2.50860136754566, -6.712058785808914]
      },
      {
        "species": [{ "element": "P", "occu": 1 }],
        "abc": [0.73765272, 0.21078427, 0.12282081],
        "properties": { "magmom": 0.0 },
        "label": "P",
        "xyz": [-5.912282238145442, -4.652460023508571, 2.9998358402696534]
      },
      {
        "species": [{ "element": "P", "occu": 1 }],
        "abc": [0.08796347, 0.71078527, 0.97313255],
        "properties": { "magmom": 0.0 },
        "label": "P",
        "xyz": [1.2487719202440157, -2.508594278101972, -11.849100414407218]
      },
      {
        "species": [{ "element": "P", "occu": 1 }],
        "abc": [0.76234728, 0.53921473, 0.12717919],
        "properties": { "magmom": 0.0 },
        "label": "P",
        "xyz": [-8.409819060800327, -2.5086013675456607, 0.7124019541910857]
      },
      {
        "species": [{ "element": "P", "occu": 1 }],
        "abc": [0.41203653, 0.039215730000000004, 0.27686745],
        "properties": { "magmom": 0.0 },
        "label": "P",
        "xyz": [-1.2487790812982462, -4.652452790843798, 0.7124018799464786]
      },
      {
        "species": [{ "element": "P", "occu": 1 }],
        "abc": [0.26234728, 0.38516908, 0.47313255],
        "properties": { "magmom": 0.0 },
        "label": "P",
        "xyz": [-1.2487719202440162, -2.508594278101973, -4.424639674407219]
      },
      {
        "species": [{ "element": "P", "occu": 1 }],
        "abc": [0.9120365300000001, 0.88516908, 0.62282081],
        "properties": { "magmom": 0.0 },
        "label": "P",
        "xyz": [-8.409833239687707, -4.652452862454341, -4.424632324191086]
      },
      {
        "species": [{ "element": "P", "occu": 1 }],
        "abc": [0.52416283, 0.36704178, 0.47805503],
        "properties": { "magmom": -0.0 },
        "label": "P",
        "xyz": [-2.958586547481723, -4.548530354478819, -2.382761734641945]
      },
      {
        "species": [{ "element": "P", "occu": 1 }],
        "abc": [0.11101325000000001, 0.453892199999999, 0.97805503],
        "properties": { "magmom": -0.0 },
        "label": "P",
        "xyz": [2.9585865474817306, -4.548530354478825, -9.807222474641938]
      },
      {
        "species": [{ "element": "P", "occu": 1 }],
        "abc": [0.02416283, 0.796107799999999, 0.40712105],
        "properties": { "magmom": -0.0 },
        "label": "P",
        "xyz": [-2.958586547481717, 2.6125238755211746, -8.753929375358048]
      },
      {
        "species": [{ "element": "P", "occu": 1 }],
        "abc": [0.6110132500000001, 0.88295822, 0.90712105],
        "properties": { "magmom": -0.0 },
        "label": "P",
        "xyz": [-4.202467682518279, -4.548530354478818, -8.753929375358053]
      },
      {
        "species": [{ "element": "P", "occu": 1 }],
        "abc": [0.47583717000000003, 0.9538922, 0.84287895],
        "properties": { "magmom": -0.0 },
        "label": "P",
        "xyz": [-4.202467682518276, -2.612523875521182, -9.807222474641945]
      },
      {
        "species": [{ "element": "P", "occu": 1 }],
        "abc": [0.88898675, 0.86704178, 0.34287895],
        "properties": { "magmom": -0.0 },
        "label": "P",
        "xyz": [-10.119640777481724, -2.6125238755211817, -2.3827617346419445]
      },
      {
        "species": [{ "element": "P", "occu": 1 }],
        "abc": [0.97583717, 0.38295822, 0.7719449700000001],
        "properties": { "magmom": -0.0 },
        "label": "P",
        "xyz": [-4.202467682518276, -9.773578105521182, -1.3294686353580554]
      },
      {
        "species": [{ "element": "P", "occu": 1 }],
        "abc": [0.38898675, 0.2961078, 0.27194497],
        "properties": { "magmom": -0.0 },
        "label": "P",
        "xyz": [-2.9585865474817234, -2.612523875521182, -1.3294686353580545]
      },
      {
        "species": [{ "element": "P", "occu": 1 }],
        "abc": [0.11101325000000001, 0.15712105, 0.63295822],
        "properties": { "magmom": -0.0 },
        "label": "P",
        "xyz": [2.612523875521182, -4.202467682518277, -5.041699005358055]
      },
      {
        "species": [{ "element": "P", "occu": 1 }],
        "abc": [0.52416283, 0.65712105, 0.546107799999999],
        "properties": { "magmom": -0.0 },
        "label": "P",
        "xyz": [-4.5485303544788245, -2.958586547481717, -5.041699005358048]
      },
      {
        "species": [{ "element": "P", "occu": 1 }],
        "abc": [0.6110132500000001, 0.22805503, 0.2038922],
        "properties": { "magmom": -0.0 },
        "label": "P",
        "xyz": [-4.548530354478819, -4.202467682518277, 1.329468635358056]
      },
      {
        "species": [{ "element": "P", "occu": 1 }],
        "abc": [0.02416283, 0.72805503, 0.11704178],
        "properties": { "magmom": -0.0 },
        "label": "P",
        "xyz": [-4.548530354478819, 4.202467682518277, -6.094992104641945]
      },
      {
        "species": [{ "element": "P", "occu": 1 }],
        "abc": [0.88898675, 0.5219449700000001, 0.0461078],
        "properties": { "magmom": -0.0 },
        "label": "P",
        "xyz": [-9.773578105521183, -2.9585865474817234, 2.382761734641945]
      },
      {
        "species": [{ "element": "P", "occu": 1 }],
        "abc": [0.47583717000000003, 0.02194497, 0.13295822000000002],
        "properties": { "magmom": -0.0 },
        "label": "P",
        "xyz": [-2.612523875521182, -4.202467682518277, 2.382761734641945]
      },
      {
        "species": [{ "element": "P", "occu": 1 }],
        "abc": [0.38898675, 0.59287895, 0.61704178],
        "properties": { "magmom": -0.0 },
        "label": "P",
        "xyz": [-2.612523875521182, -2.958586547481724, -6.094992104641944]
      },
      {
        "species": [{ "element": "P", "occu": 1 }],
        "abc": [0.97583717, 0.09287895, 0.7038922],
        "properties": { "magmom": -0.0 },
        "label": "P",
        "xyz": [-2.612523875521182, -11.363521912518276, 1.3294686353580545]
      }
    ]
  },
  "task_ids": null,
  "uncorrected_energy_per_atom": null,
  "energy_per_atom": -8.51324551984375,
  "formation_energy_per_atom": -0.190906175572916,
  "energy_above_hull": 0.0,
  "is_stable": true,
  "equilibrium_reaction_energy_per_atom": null,
  "decomposes_to": null,
  "xas": null,
  "grain_boundaries": null,
  "band_gap": 1.7429000000000001,
  "cbm": null,
  "vbm": null,
  "efermi": 3.02766051,
  "is_gap_direct": null,
  "is_metal": null,
  "es_source_calc_id": null,
  "bandstructure": null,
  "dos": null,
  "dos_energy_up": null,
  "dos_energy_down": null,
  "is_magnetic": null,
  "ordering": null,
  "total_magnetization": 0.0,
  "total_magnetization_normalized_vol": null,
  "total_magnetization_normalized_formula_units": null,
  "num_magnetic_sites": null,
  "num_unique_magnetic_sites": null,
  "types_of_magnetic_species": null,
  "bulk_modulus": null,
  "shear_modulus": null,
  "universal_anisotropy": null,
  "homogeneous_poisson": null,
  "e_total": null,
  "e_ionic": null,
  "e_electronic": null,
  "n": null,
  "e_ij_max": null,
  "weighted_surface_energy_EV_PER_ANG2": null,
  "weighted_surface_energy": null,
  "weighted_work_function": null,
  "surface_anisotropy": null,
  "shape_factor": null,
  "has_reconstructed": null,
  "possible_species": null,
  "has_props": null,
  "theoretical": null,
  "database_IDs": null,
  "fields_not_requested": [
    "builder_meta",
    "nsites",
    "elements",
    "nelements",
    "composition",
    "composition_reduced",
    "chemsys",
    "symmetry",
    "property_name",
    "deprecated",
    "deprecation_reasons",
    "last_updated",
    "origins",
    "warnings",
    "task_ids",
    "uncorrected_energy_per_atom",
    "equilibrium_reaction_energy_per_atom",
    "decomposes_to",
    "xas",
    "grain_boundaries",
    "cbm",
    "vbm",
    "is_gap_direct",
    "is_metal",
    "es_source_calc_id",
    "bandstructure",
    "dos",
    "dos_energy_up",
    "dos_energy_down",
    "is_magnetic",
    "ordering",
    "total_magnetization_normalized_vol",
    "total_magnetization_normalized_formula_units",
    "num_magnetic_sites",
    "num_unique_magnetic_sites",
    "types_of_magnetic_species",
    "bulk_modulus",
    "shear_modulus",
    "universal_anisotropy",
    "homogeneous_poisson",
    "e_total",
    "e_ionic",
    "e_electronic",
    "n",
    "e_ij_max",
    "weighted_surface_energy_EV_PER_ANG2",
    "weighted_surface_energy",
    "weighted_work_function",
    "surface_anisotropy",
    "shape_factor",
    "has_reconstructed",
    "possible_species",
    "has_props",
    "theoretical",
    "database_IDs"
  ]
}
