{
  "builder_meta": null,
  "nsites": null,
  "elements": null,
  "nelements": null,
  "composition": null,
  "composition_reduced": null,
  "formula_pretty": "NaPb",
  "formula_anonymous": "AB",
  "chemsys": null,
  "volume": 996.5809211118294,
  "density": 6.136807904283582,
  "density_atomic": 31.14315378474467,
  "symmetry": null,
  "property_name": null,
  "material_id": "mp-30792",
  "deprecated": null,
  "deprecation_reasons": null,
  "last_updated": null,
  "origins": null,
  "warnings": null,
  "structure": {
    "@module": "pymatgen.core.structure",
    "@class": "Structure",
    "charge": 0,
    "lattice": {
      "matrix": [
        [9.41096625, 0.0, -4.81924212],
        [-2.46787565, 9.0816238, -4.81924212],
        [0.01855668, 0.024272850000000002, 11.63467651]
      ],
      "pbc": [true, true, true],
      "a": 10.573144299110892,
      "b": 10.573145023112634,
      "c": 11.634716628004549,
      "alpha": 117.02498558636353,
      "beta": 117.0249902145567,
      "gamma": 89.99999991808056,
      "volume": 996.5809211118294
    },
    "properties": {},
    "sites": [
      {
        "species": [{ "element": "Na", "occu": 1 }],
        "abc": [0.25, 0.36756043, 0.0],
        "properties": { "magmom": 0.0 },
        "label": "Na",
        "xyz": [1.4456481273994704, 3.3380455490262335, -2.976173235901312]
      },
      {
        "species": [{ "element": "Na", "occu": 1 }],
        "abc": [0.13243957, 0.25, 0.5],
        "properties": { "magmom": 0.0 },
        "label": "Na",
        "xyz": [0.6386937509345125, 2.282542375, 3.9742693709013115]
      },
      {
        "species": [{ "element": "Na", "occu": 1 }],
        "abc": [0.36756043, 0.75, 0.5],
        "properties": { "magmom": 0.0 },
        "label": "Na",
        "xyz": [1.6174704040654875, 6.823354274999999, 0.43154395909868803]
      },
      {
        "species": [{ "element": "Na", "occu": 1 }],
        "abc": [0.75, 0.13243957, -0.0],
        "properties": { "magmom": 0.0 },
        "label": "Na",
        "xyz": [6.731380297600529, 1.202766350973766, -4.252689944098688]
      },
      {
        "species": [{ "element": "Na", "occu": 1 }],
        "abc": [0.75, 0.6324395700000001, -0.0],
        "properties": { "magmom": 0.0 },
        "label": "Na",
        "xyz": [5.497442472600529, 5.743578250973766, -6.662311004098688]
      },
      {
        "species": [{ "element": "Na", "occu": 1 }],
        "abc": [0.86756043, 0.75, 0.5],
        "properties": { "magmom": 0.0 },
        "label": "Na",
        "xyz": [6.3229535290654875, 6.823354274999999, -1.978077100901312]
      },
      {
        "species": [{ "element": "Na", "occu": 1 }],
        "abc": [0.6324395700000001, 0.25, 0.5],
        "properties": { "magmom": 0.0 },
        "label": "Na",
        "xyz": [5.3441768759345125, 2.282542375, 1.564648310901311]
      },
      {
        "species": [{ "element": "Na", "occu": 1 }],
        "abc": [0.25, 0.86756043, 0.0],
        "properties": { "magmom": 0.0 },
        "label": "Na",
        "xyz": [0.21171030239947042, 7.878857449026234, -5.385794295901311]
      },
      {
        "species": [{ "element": "Na", "occu": 1 }],
        "abc": [0.7511596700000001, 0.00115967, 0.25],
        "properties": { "magmom": -0.0 },
        "label": "Na",
        "xyz": [7.070915551376102, 0.016599899172146, -0.7169399235186011]
      },
      {
        "species": [{ "element": "Na", "occu": 1 }],
        "abc": [0.74884033, 0.7511596700000001, 0.75],
        "properties": { "magmom": -0.0 },
        "label": "Na",
        "xyz": [5.207459923413826, 6.839954174172146, 1.4971442024999995]
      },
      {
        "species": [{ "element": "Na", "occu": 1 }],
        "abc": [0.00115967, 0.49884033, 0.75],
        "properties": { "magmom": -0.0 },
        "label": "Na",
        "xyz": [-1.2062447784138268, 4.548484850827854, 6.3163863225000005]
      },
      {
        "species": [{ "element": "Na", "occu": 1 }],
        "abc": [0.49884033, 0.74884033, 0.25],
        "properties": { "magmom": -0.0 },
        "label": "Na",
        "xyz": [2.8511638636238974, 6.806754375827854, -3.1042060614813995]
      },
      {
        "species": [{ "element": "Na", "occu": 1 }],
        "abc": [0.24884033, 0.99884033, 0.75],
        "properties": { "magmom": -0.0 },
        "label": "Na",
        "xyz": [-0.10926827137610237, 9.089296750827854, 2.713132193518601]
      },
      {
        "species": [{ "element": "Na", "occu": 1 }],
        "abc": [0.25115967, 0.24884033, 0.25],
        "properties": { "magmom": -0.0 },
        "label": "Na",
        "xyz": [1.754187356586173, 2.2659424758278535, 0.49904806749999997]
      },
      {
        "species": [{ "element": "Na", "occu": 1 }],
        "abc": [0.99884033, 0.5011596700000001, 0.25],
        "properties": { "magmom": -0.0 },
        "label": "Na",
        "xyz": [8.167892058413827, 4.5574117991721455, -4.3201940525]
      },
      {
        "species": [{ "element": "Na", "occu": 1 }],
        "abc": [0.5011596700000001, 0.25115967, 0.75],
        "properties": { "magmom": -0.0 },
        "label": "Na",
        "xyz": [4.110483416376103, 2.2991422741721457, 5.1003983314814]
      },
      {
        "species": [{ "element": "Pb", "occu": 1 }],
        "abc": [0.008284950000000001, 0.05750427, 0.876315899999999],
        "properties": { "magmom": 0.0 },
        "label": "Pb",
        "xyz": [-0.04768248913587603, 0.543502831426941, 9.878597837003552]
      },
      {
        "species": [{ "element": "Pb", "occu": 1 }],
        "abc": [0.31881063, 0.008284950000000001, 0.3763159],
        "properties": { "magmom": 0.0 },
        "label": "Pb",
        "xyz": [2.9868530264399817, 0.084375058495125, 2.8019609656676794]
      },
      {
        "species": [{ "element": "Pb", "occu": 1 }],
        "abc": [0.05750427, 0.86803195, 0.3763159],
        "properties": { "magmom": 0.0 },
        "label": "Pb",
        "xyz": [-1.594040994890918, 7.892273875673724, -0.08206937294007677]
      },
      {
        "species": [{ "element": "Pb", "occu": 1 }],
        "abc": [0.63196805, 0.44249573000000003, 0.123684099999999],
        "properties": { "magmom": 0.0 },
        "label": "Pb",
        "xyz": [4.857700718597125, 4.021581918573059, -3.739076612059935]
      },
      {
        "species": [{ "element": "Pb", "occu": 1 }],
        "abc": [0.49171505, 0.18118937000000002, 0.123684099999999],
        "properties": { "magmom": 0.0 },
        "label": "Pb",
        "xyz": [4.182656072170009, 1.648495860505691, -1.803864830667691]
      },
      {
        "species": [{ "element": "Pb", "occu": 1 }],
        "abc": [0.18118937000000002, 0.63196805, 0.6236841],
        "properties": { "magmom": 0.0 },
        "label": "Pb",
        "xyz": [0.15712199002056834, 5.754434674326275, 3.3375602592759606]
      },
      {
        "species": [{ "element": "Pb", "occu": 1 }],
        "abc": [0.44249573000000003, 0.49171505, 0.6236841],
        "properties": { "magmom": 0.0 },
        "label": "Pb",
        "xyz": [2.9623942884303687, 4.480709691504874, 2.7541748079964377]
      },
      {
        "species": [{ "element": "Pb", "occu": 1 }],
        "abc": [0.86803195, 0.31881063, 0.876315899999999],
        "properties": { "magmom": 0.0 },
        "label": "Pb",
        "xyz": [7.39849590836874, 2.9165888894943084, 4.47597026572403]
      },
      {
        "species": [{ "element": "Pb", "occu": 1 }],
        "abc": [0.99171505, 0.94249573, 0.123684099999999],
        "properties": { "magmom": 0.0 },
        "label": "Pb",
        "xyz": [7.009329769135877, 8.562393818573057, -7.882405567003576]
      },
      {
        "species": [{ "element": "Pb", "occu": 1 }],
        "abc": [0.68118937, 0.99171505, 0.6236841],
        "properties": { "magmom": 0.0 },
        "label": "Pb",
        "xyz": [3.974794253560018, 9.021521591504875, -0.8057686956676795]
      },
      {
        "species": [{ "element": "Pb", "occu": 1 }],
        "abc": [0.94249573, 0.13196805, 0.6236841],
        "properties": { "magmom": 0.0 },
        "label": "Pb",
        "xyz": [8.555688274890919, 1.2136227743262749, 2.0782616429400766]
      },
      {
        "species": [{ "element": "Pb", "occu": 1 }],
        "abc": [0.36803195, 0.55750427, 0.876315899999999],
        "properties": { "magmom": 0.0 },
        "label": "Pb",
        "xyz": [2.1039465614028736, 5.08431473142694, 5.735268882059912]
      },
      {
        "species": [{ "element": "Pb", "occu": 1 }],
        "abc": [0.50828495, 0.81881063, 0.876315899999999],
        "properties": { "magmom": 0.0 },
        "label": "Pb",
        "xyz": [2.7789912078299897, 7.457400789494308, 3.8000571006676687]
      },
      {
        "species": [{ "element": "Pb", "occu": 1 }],
        "abc": [0.81881063, 0.36803195, 0.3763159],
        "properties": { "magmom": 0.0 },
        "label": "Pb",
        "xyz": [6.8045252899794315, 3.3514619756737245, -1.3413679892759607]
      },
      {
        "species": [{ "element": "Pb", "occu": 1 }],
        "abc": [0.55750427, 0.50828495, 0.3763159],
        "properties": { "magmom": 0.0 },
        "label": "Pb",
        "xyz": [3.999252991569632, 4.625186958495124, -0.7579825379964378]
      },
      {
        "species": [{ "element": "Pb", "occu": 1 }],
        "abc": [0.13196805, 0.68118937, 0.123684099999999],
        "properties": { "magmom": 0.0 },
        "label": "Pb",
        "xyz": [-0.43684862836873994, 6.189307760505691, -2.479777995724051]
      }
    ]
  },
  "task_ids": null,
  "uncorrected_energy_per_atom": null,
  "energy_per_atom": -30.194608295,
  "formation_energy_per_atom": -0.269950954999998,
  "energy_above_hull": 0.0,
  "is_stable": true,
  "equilibrium_reaction_energy_per_atom": null,
  "decomposes_to": null,
  "xas": null,
  "grain_boundaries": null,
  "band_gap": 0.15660000000000002,
  "cbm": null,
  "vbm": null,
  "efermi": 3.77746994,
  "is_gap_direct": null,
  "is_metal": null,
  "es_source_calc_id": null,
  "bandstructure": null,
  "dos": null,
  "dos_energy_up": null,
  "dos_energy_down": null,
  "is_magnetic": null,
  "ordering": null,
  "total_magnetization": 0.0,
  "total_magnetization_normalized_vol": null,
  "total_magnetization_normalized_formula_units": null,
  "num_magnetic_sites": null,
  "num_unique_magnetic_sites": null,
  "types_of_magnetic_species": null,
  "bulk_modulus": null,
  "shear_modulus": null,
  "universal_anisotropy": null,
  "homogeneous_poisson": null,
  "e_total": null,
  "e_ionic": null,
  "e_electronic": null,
  "n": null,
  "e_ij_max": null,
  "weighted_surface_energy_EV_PER_ANG2": null,
  "weighted_surface_energy": null,
  "weighted_work_function": null,
  "surface_anisotropy": null,
  "shape_factor": null,
  "has_reconstructed": null,
  "possible_species": null,
  "has_props": null,
  "theoretical": null,
  "database_IDs": null,
  "fields_not_requested": [
    "builder_meta",
    "nsites",
    "elements",
    "nelements",
    "composition",
    "composition_reduced",
    "chemsys",
    "symmetry",
    "property_name",
    "deprecated",
    "deprecation_reasons",
    "last_updated",
    "origins",
    "warnings",
    "task_ids",
    "uncorrected_energy_per_atom",
    "equilibrium_reaction_energy_per_atom",
    "decomposes_to",
    "xas",
    "grain_boundaries",
    "cbm",
    "vbm",
    "is_gap_direct",
    "is_metal",
    "es_source_calc_id",
    "bandstructure",
    "dos",
    "dos_energy_up",
    "dos_energy_down",
    "is_magnetic",
    "ordering",
    "total_magnetization_normalized_vol",
    "total_magnetization_normalized_formula_units",
    "num_magnetic_sites",
    "num_unique_magnetic_sites",
    "types_of_magnetic_species",
    "bulk_modulus",
    "shear_modulus",
    "universal_anisotropy",
    "homogeneous_poisson",
    "e_total",
    "e_ionic",
    "e_electronic",
    "n",
    "e_ij_max",
    "weighted_surface_energy_EV_PER_ANG2",
    "weighted_surface_energy",
    "weighted_work_function",
    "surface_anisotropy",
    "shape_factor",
    "has_reconstructed",
    "possible_species",
    "has_props",
    "theoretical",
    "database_IDs"
  ]
}
