{"builder_meta": null, "nsites": null, "elements": null, "nelements": null, "composition": null, "composition_reduced": null, "formula_pretty": "NaPt", "formula_anonymous": "AB", "chemsys": null, "volume": 34.420417654605224, "density": 10.520500271782891, "density_atomic": 17.210208827302612, "symmetry": null, "property_name": null, "material_id": "mp-1186175", "deprecated": null, "deprecation_reasons": null, "last_updated": null, "origins": null, "warnings": null, "structure": {"@module": "pymatgen.core.structure", "@class": "Structure", "charge": 0, "lattice": {"matrix": [[2.850972999999999, 3.9e-05, -4.7000000000000004e-05], [-1.425452, 2.469026, 4.6e-05], [-7.500000000000002e-05, 4.2000000000000004e-05, 4.889832]], "pbc": [true, true, true], "a": 2.8509730006541614, "b": 2.8509652391946134, "c": 4.889832000755548, "alpha": 89.99820995032958, "beta": 90.00182334837677, "gamma": 119.99850567769033, "volume": 34.42041765460521}, "properties": {}, "sites": [{"species": [{"element": "Na", "occu": 1}], "abc": [0.666667999999999, 0.333333, 0.750002], "properties": {"magmom": 0.0}, "label": "Na", "xyz": [1.4254460262979964, 0.823065343794, 3.6673677795860002]}, {"species": [{"element": "Pt", "occu": 1}], "abc": [0.333333, 0.666663999999999, 0.250001], "properties": {"magmom": -0.0}, "label": "Pt", "xyz": [7.100806000932798e-06, 1.6460342492929976, 1.222477889725]}]}, "task_ids": null, "uncorrected_energy_per_atom": null, "energy_per_atom": -27.768216714137935, "formation_energy_per_atom": -0.24226797913793502, "energy_above_hull": 0.10369739586206701, "is_stable": false, "equilibrium_reaction_energy_per_atom": null, "decomposes_to": null, "xas": null, "grain_boundaries": null, "band_gap": 0.0, "cbm": null, "vbm": null, "efermi": 4.60929122, "is_gap_direct": null, "is_metal": null, "es_source_calc_id": null, "bandstructure": null, "dos": null, "dos_energy_up": null, "dos_energy_down": null, "is_magnetic": null, "ordering": null, "total_magnetization": 0.0006433999999990001, "total_magnetization_normalized_vol": null, "total_magnetization_normalized_formula_units": null, "num_magnetic_sites": null, "num_unique_magnetic_sites": null, "types_of_magnetic_species": null, "bulk_modulus": null, "shear_modulus": null, "universal_anisotropy": null, "homogeneous_poisson": null, "e_total": null, "e_ionic": null, "e_electronic": null, "n": null, "e_ij_max": null, "weighted_surface_energy_EV_PER_ANG2": null, "weighted_surface_energy": null, "weighted_work_function": null, "surface_anisotropy": null, "shape_factor": null, "has_reconstructed": null, "possible_species": null, "has_props": null, "theoretical": null, "database_IDs": null, "fields_not_requested": ["builder_meta", "nsites", "elements", "nelements", "composition", "composition_reduced", "chemsys", "symmetry", "property_name", "deprecated", "deprecation_reasons", "last_updated", "origins", "warnings", "task_ids", "uncorrected_energy_per_atom", "equilibrium_reaction_energy_per_atom", "decomposes_to", "xas", "grain_boundaries", "cbm", "vbm", "is_gap_direct", "is_metal", "es_source_calc_id", "bandstructure", "dos", "dos_energy_up", "dos_energy_down", "is_magnetic", "ordering", "total_magnetization_normalized_vol", "total_magnetization_normalized_formula_units", "num_magnetic_sites", "num_unique_magnetic_sites", "types_of_magnetic_species", "bulk_modulus", "shear_modulus", "universal_anisotropy", "homogeneous_poisson", "e_total", "e_ionic", "e_electronic", "n", "e_ij_max", "weighted_surface_energy_EV_PER_ANG2", "weighted_surface_energy", "weighted_work_function", "surface_anisotropy", "shape_factor", "has_reconstructed", "possible_species", "has_props", "theoretical", "database_IDs"]}