{"builder_meta": null, "nsites": null, "elements": null, "nelements": null, "composition": null, "composition_reduced": null, "formula_pretty": "NaPu", "formula_anonymous": "AB", "chemsys": null, "volume": 331.6761172070215, "density": 8.020118168386018, "density_atomic": 27.639676433918456, "symmetry": null, "property_name": null, "material_id": "mp-1181184", "deprecated": null, "deprecation_reasons": null, "last_updated": null, "origins": null, "warnings": null, "structure": {"@module": "pymatgen.core.structure", "@class": "Structure", "charge": 0, "lattice": {"matrix": [[4.100586, 3.610003, -0.588004], [-5.680125, 4.637277, 5.451782], [-1.785794999999999, -6.024608, 6.506199]], "pbc": [true, true, true], "a": 5.494786247655226, "b": 9.137290898613111, "c": 9.04519711025083, "alpha": 77.65069795900664, "beta": 131.44487288516086, "gamma": 101.20571587955446, "volume": 331.6761172070215}, "properties": {}, "sites": [{"species": [{"element": "Na", "occu": 1}], "abc": [0.344186, 0.872317, 0.196525999999999], "properties": {"magmom": -0.0}, "label": "Na", "xyz": [-3.894460454798999, 4.103695941559007, 5.8319366388239935]}, {"species": [{"element": "Na", "occu": 1}], "abc": [0.388092, 0.266530999999999, 0.967703], "properties": {"magmom": 0.0}, "label": "Na", "xyz": [-1.6506439533479935, -3.193039875061004, 7.520937550770994]}, {"species": [{"element": "Na", "occu": 1}], "abc": [0.940635999999999, 0.935182, 0.671102], "properties": {"magmom": 0.002}, "label": "Na", "xyz": [-2.6532424411440028, 3.689270283305996, 8.911633825077999]}, {"species": [{"element": "Na", "occu": 1}], "abc": [0.655814, 0.127683, 0.803473999999999], "properties": {"magmom": -0.0}, "label": "Na", "xyz": [0.5291264547990027, -1.8810239415589942, 5.538040361175994]}, {"species": [{"element": "Na", "occu": 1}], "abc": [0.611908, 0.733468999999999, 0.032297], "properties": {"magmom": 0.0}, "label": "Na", "xyz": [-1.7146900466519945, 5.415711875060995, 3.8490394492289943]}, {"species": [{"element": "Na", "occu": 1}], "abc": [0.059364, 0.064818, 0.328897999999999], "properties": {"magmom": 0.002}, "label": "Na", "xyz": [-0.712091558855998, -1.466598283305994, 2.4583431749219935]}, {"species": [{"element": "Pu", "occu": 1}], "abc": [0.24477000000000002, 0.464910999999999, 0.179373], "properties": {"magmom": 0.47700000000000004}, "label": "Pu", "xyz": [-1.9573755651899942, 1.9588895108729956, 3.5577041155489946]}, {"species": [{"element": "Pu", "occu": 1}], "abc": [0.729713, 0.343317, 0.450476], "properties": {"magmom": 3.045}, "label": "Pu", "xyz": [0.23770964877300016, 1.5123808335400004, 4.373501778765999]}, {"species": [{"element": "Pu", "occu": 1}], "abc": [0.078785, 0.437193, 0.370145], "properties": {"magmom": 0.539}, "label": "Pu", "xyz": [-2.82124931139, 0.08182060165600014, 4.745392061641]}, {"species": [{"element": "Pu", "occu": 1}], "abc": [0.7552300000000001, 0.535088999999999, 0.820627], "properties": {"magmom": 0.47700000000000004}, "label": "Pu", "xyz": [-1.4079584348099938, 0.26378248912699664, 7.812272884450994]}, {"species": [{"element": "Pu", "occu": 1}], "abc": [0.270287, 0.656683, 0.549524], "properties": {"magmom": 3.045}, "label": "Pu", "xyz": [-3.603043648773, 0.7102911664599998, 6.996475221234]}, {"species": [{"element": "Pu", "occu": 1}], "abc": [0.921215, 0.562807, 0.629854999999999], "properties": {"magmom": 0.539}, "label": "Pu", "xyz": [-0.5440846886099973, 2.1408513983440054, 6.624584938358993]}]}, "task_ids": null, "uncorrected_energy_per_atom": null, "energy_per_atom": -44.49057292223421, "formation_energy_per_atom": 0.469691438390791, "energy_above_hull": 0.469691438390796, "is_stable": false, "equilibrium_reaction_energy_per_atom": null, "decomposes_to": null, "xas": null, "grain_boundaries": null, "band_gap": 0.0, "cbm": null, "vbm": null, "efermi": 5.8205322299999995, "is_gap_direct": null, "is_metal": null, "es_source_calc_id": null, "bandstructure": null, "dos": null, "dos_energy_up": null, "dos_energy_down": null, "is_magnetic": null, "ordering": null, "total_magnetization": 8.4788338, "total_magnetization_normalized_vol": null, "total_magnetization_normalized_formula_units": null, "num_magnetic_sites": null, "num_unique_magnetic_sites": null, "types_of_magnetic_species": null, "bulk_modulus": null, "shear_modulus": null, "universal_anisotropy": null, "homogeneous_poisson": null, "e_total": null, "e_ionic": null, "e_electronic": null, "n": null, "e_ij_max": null, "weighted_surface_energy_EV_PER_ANG2": null, "weighted_surface_energy": null, "weighted_work_function": null, "surface_anisotropy": null, "shape_factor": null, "has_reconstructed": null, "possible_species": null, "has_props": null, "theoretical": null, "database_IDs": null, "fields_not_requested": ["builder_meta", "nsites", "elements", "nelements", "composition", "composition_reduced", "chemsys", "symmetry", "property_name", "deprecated", "deprecation_reasons", "last_updated", "origins", "warnings", "task_ids", "uncorrected_energy_per_atom", "equilibrium_reaction_energy_per_atom", "decomposes_to", "xas", "grain_boundaries", "cbm", "vbm", "is_gap_direct", "is_metal", "es_source_calc_id", "bandstructure", "dos", "dos_energy_up", "dos_energy_down", "is_magnetic", "ordering", "total_magnetization_normalized_vol", "total_magnetization_normalized_formula_units", "num_magnetic_sites", "num_unique_magnetic_sites", "types_of_magnetic_species", "bulk_modulus", "shear_modulus", "universal_anisotropy", "homogeneous_poisson", "e_total", "e_ionic", "e_electronic", "n", "e_ij_max", "weighted_surface_energy_EV_PER_ANG2", "weighted_surface_energy", "weighted_work_function", "surface_anisotropy", "shape_factor", "has_reconstructed", "possible_species", "has_props", "theoretical", "database_IDs"]}