{"builder_meta": null, "nsites": null, "elements": null, "nelements": null, "composition": null, "composition_reduced": null, "formula_pretty": "NaS", "formula_anonymous": "AB", "chemsys": null, "volume": 174.63099763463234, "density": 2.094029042503947, "density_atomic": 21.828874704329042, "symmetry": null, "property_name": null, "material_id": "mp-2400", "deprecated": null, "deprecation_reasons": null, "last_updated": null, "origins": null, "warnings": null, "structure": {"@module": "pymatgen.core.structure", "@class": "Structure", "charge": 0, "lattice": {"matrix": [[4.4515464, 0.0, 0.0], [-2.2257732, 3.85515416, 0.0], [-0.0, 0.0, 10.17580278]], "pbc": [true, true, true], "a": 4.4515464, "b": 4.451548038065359, "c": 10.17580278, "alpha": 90.0, "beta": 90.0, "gamma": 119.99998782743393, "volume": 174.63099763463234}, "properties": {}, "sites": [{"species": [{"element": "Na", "occu": 1}], "abc": [0.0, -0.0, 0.0], "properties": {"magmom": 0.0}, "label": "Na", "xyz": [0.0, 0.0, 0.0]}, {"species": [{"element": "Na", "occu": 1}], "abc": [0.0, -0.0, 0.5], "properties": {"magmom": 0.0}, "label": "Na", "xyz": [0.0, 0.0, 5.08790139]}, {"species": [{"element": "Na", "occu": 1}], "abc": [0.333333, 0.666667, 0.25], "properties": {"magmom": 0.0}, "label": "Na", "xyz": [-2.2257732001929043e-06, 2.57010405838472, 2.543950695]}, {"species": [{"element": "Na", "occu": 1}], "abc": [0.666667, 0.333333, 0.75], "properties": {"magmom": 0.0}, "label": "Na", "xyz": [2.2257754257732003, 1.28505010161528, 7.631852085]}, {"species": [{"element": "S", "occu": 1}], "abc": [0.333333, 0.666667, 0.6441891200000001], "properties": {"magmom": 0.0}, "label": "S", "xyz": [-2.2257732001929043e-06, 2.57010405838472, 6.555141438141754]}, {"species": [{"element": "S", "occu": 1}], "abc": [0.666667, 0.333333, 0.14418912], "properties": {"magmom": 0.0}, "label": "S", "xyz": [2.2257754257732003, 1.28505010161528, 1.4672400481417536]}, {"species": [{"element": "S", "occu": 1}], "abc": [0.666667, 0.333333, 0.35581088], "properties": {"magmom": 0.0}, "label": "S", "xyz": [2.2257754257732003, 1.28505010161528, 3.6206613418582463]}, {"species": [{"element": "S", "occu": 1}], "abc": [0.333333, 0.666667, 0.85581088], "properties": {"magmom": 0.0}, "label": "S", "xyz": [-2.2257732001929043e-06, 2.57010405838472, 8.708562731858247]}]}, "task_ids": null, "uncorrected_energy_per_atom": null, "energy_per_atom": -6.80337951, "formation_energy_per_atom": -1.00378968390625, "energy_above_hull": 0.0, "is_stable": true, "equilibrium_reaction_energy_per_atom": null, "decomposes_to": null, "xas": null, "grain_boundaries": null, "band_gap": 1.2348, "cbm": null, "vbm": null, "efermi": 2.01368961, "is_gap_direct": null, "is_metal": null, "es_source_calc_id": null, "bandstructure": null, "dos": null, "dos_energy_up": null, "dos_energy_down": null, "is_magnetic": null, "ordering": null, "total_magnetization": 0.0, "total_magnetization_normalized_vol": null, "total_magnetization_normalized_formula_units": null, "num_magnetic_sites": null, "num_unique_magnetic_sites": null, "types_of_magnetic_species": null, "bulk_modulus": null, "shear_modulus": null, "universal_anisotropy": null, "homogeneous_poisson": null, "e_total": null, "e_ionic": null, "e_electronic": null, "n": null, "e_ij_max": null, "weighted_surface_energy_EV_PER_ANG2": null, "weighted_surface_energy": null, "weighted_work_function": null, "surface_anisotropy": null, "shape_factor": null, "has_reconstructed": null, "possible_species": null, "has_props": null, "theoretical": null, "database_IDs": null, "fields_not_requested": ["builder_meta", "nsites", "elements", "nelements", "composition", "composition_reduced", "chemsys", "symmetry", "property_name", "deprecated", "deprecation_reasons", "last_updated", "origins", "warnings", "task_ids", "uncorrected_energy_per_atom", "equilibrium_reaction_energy_per_atom", "decomposes_to", "xas", "grain_boundaries", "cbm", "vbm", "is_gap_direct", "is_metal", "es_source_calc_id", "bandstructure", "dos", "dos_energy_up", "dos_energy_down", "is_magnetic", "ordering", "total_magnetization_normalized_vol", "total_magnetization_normalized_formula_units", "num_magnetic_sites", "num_unique_magnetic_sites", "types_of_magnetic_species", "bulk_modulus", "shear_modulus", "universal_anisotropy", "homogeneous_poisson", "e_total", "e_ionic", "e_electronic", "n", "e_ij_max", "weighted_surface_energy_EV_PER_ANG2", "weighted_surface_energy", "weighted_work_function", "surface_anisotropy", "shape_factor", "has_reconstructed", "possible_species", "has_props", "theoretical", "database_IDs"]}