{
  "builder_meta": null,
  "nsites": null,
  "elements": null,
  "nelements": null,
  "composition": null,
  "composition_reduced": null,
  "formula_pretty": "NaS2",
  "formula_anonymous": "AB2",
  "chemsys": null,
  "volume": 535.223051008419,
  "density": 2.162325110475751,
  "density_atomic": 22.300960458684127,
  "symmetry": null,
  "property_name": null,
  "material_id": "mp-12180",
  "deprecated": null,
  "deprecation_reasons": null,
  "last_updated": null,
  "origins": null,
  "warnings": null,
  "structure": {
    "@module": "pymatgen.core.structure",
    "@class": "Structure",
    "charge": 0,
    "lattice": {
      "matrix": [
        [8.07914159, 0.03381377, -3.82379726],
        [-4.85024725, 7.39623104, -1.29071907],
        [0.02217411, -0.03381377, 8.9383136]
      ],
      "pbc": [true, true, true],
      "a": 8.93840576880983,
      "b": 8.938405210150952,
      "c": 8.938405063216864,
      "alpha": 98.56182034563727,
      "beta": 115.1862253327156,
      "gamma": 115.186222616394,
      "volume": 535.2230510084191
    },
    "properties": {},
    "sites": [
      {
        "species": [{ "element": "Na", "occu": 1 }],
        "abc": [-0.0, 0.17197833, 0.17197833],
        "properties": { "magmom": 0.0 },
        "label": "Na",
        "xyz": [-0.8303239557350562, 1.2661762268577592, 1.3152205357865352]
      },
      {
        "species": [{ "element": "Na", "occu": 1 }],
        "abc": [0.0, 0.82802167, 0.82802167],
        "properties": { "magmom": 0.0 },
        "label": "Na",
        "xyz": [-3.997749184264944, 6.096241043142242, 6.332373994213466]
      },
      {
        "species": [{ "element": "Na", "occu": 1 }],
        "abc": [0.5, 0.57802167, 0.07802167],
        "properties": { "magmom": 0.0 },
        "label": "Na",
        "xyz": [1.2377528407350566, 4.2894504956422415, -1.9605800682865353]
      },
      {
        "species": [{ "element": "Na", "occu": 1 }],
        "abc": [0.5, 0.9219783300000001, 0.42197833],
        "properties": { "magmom": 0.0 },
        "label": "Na",
        "xyz": [-0.42289507073505633, 6.821802949357759, 0.6698610032865351]
      },
      {
        "species": [{ "element": "Na", "occu": 1 }],
        "abc": [0.5225939, 0.375, 0.3975939],
        "properties": { "magmom": 0.0 },
        "label": "Na",
        "xyz": [2.41208368429423, 2.77781336125, 1.0715061894843263]
      },
      {
        "species": [{ "element": "Na", "occu": 1 }],
        "abc": [0.9774060999999991, 0.6024060999999991, 0.125],
        "properties": { "magmom": 0.0 },
        "label": "Na",
        "xyz": [4.977555506671472, 4.484357759317334, -3.397650608241608]
      },
      {
        "species": [{ "element": "Na", "occu": 1 }],
        "abc": [0.0225939, 0.1475939, 0.625],
        "properties": { "magmom": 0.0 },
        "label": "Na",
        "xyz": [-0.519468771671474, 1.0712689631826589, 5.309549245741613]
      },
      {
        "species": [{ "element": "Na", "occu": 1 }],
        "abc": [0.4774061, 0.875, 0.8524060999999991],
        "properties": { "magmom": 0.0 },
        "label": "Na",
        "xyz": [-0.36803351929422906, 6.45902199625, 4.664189713015666]
      },
      {
        "species": [{ "element": "S", "occu": 1 }],
        "abc": [0.28417086, 0.54783382, 0.32813719],
        "properties": { "magmom": -0.0 },
        "label": "S",
        "xyz": [-0.35399671507377595, 4.050418836875409, 1.139281793537993]
      },
      {
        "species": [{ "element": "S", "occu": 1 }],
        "abc": [0.21969364, 0.67186281, 0.95603368],
        "properties": { "magmom": -0.0 },
        "label": "S",
        "xyz": [-1.46256552661326, 4.944354137189272, 6.838078764039835]
      },
      {
        "species": [{ "element": "S", "occu": 1 }],
        "abc": [0.78030636, 0.7363390400000001, 0.45216618000000003],
        "properties": { "magmom": -0.0 },
        "label": "S",
        "xyz": [2.7428055448034723, 5.45722932018608, 0.10746295391198224]
      },
      {
        "species": [{ "element": "S", "occu": 1 }],
        "abc": [0.71969364, 0.70603368, 0.92186281],
        "properties": { "magmom": -0.0 },
        "label": "S",
        "xyz": [2.410510391508958, 5.215152117485956, 4.576645188447513]
      },
      {
        "species": [{ "element": "S", "occu": 1 }],
        "abc": [0.28030636000000003, 0.20216618, 0.9863390400000001],
        "properties": { "magmom": -0.0 },
        "label": "S",
        "xyz": [1.3059500027997626, 1.4713941491002236, 7.483433220279318]
      },
      {
        "species": [{ "element": "S", "occu": 1 }],
        "abc": [0.71582914, 0.04396632, 0.26366096],
        "properties": { "magmom": -0.0 },
        "label": "S",
        "xyz": [5.575883900765059, 0.34047457153841143, -0.4372493272648228]
      },
      {
        "species": [{ "element": "S", "occu": 1 }],
        "abc": [0.78417086, 0.07813719, 0.79783382],
        "properties": { "magmom": -0.0 },
        "label": "S",
        "xyz": [5.97413397265824, 0.5774587138694184, 4.0319253367968955]
      },
      {
        "species": [{ "element": "S", "occu": 1 }],
        "abc": [0.21582914, 0.01366096, 0.29396632],
        "properties": { "magmom": -0.0 },
        "label": "S",
        "xyz": [1.683973589151548, 0.09839750375522979, 1.7846438202512886]
      },
      {
        "species": [{ "element": "S", "occu": 1 }],
        "abc": [0.26270558, 0.51409617, 0.54438756],
        "properties": { "magmom": -0.0 },
        "label": "S",
        "xyz": [-0.3589866478368881, 3.792849320414252, 3.1978201237951436]
      },
      {
        "species": [{ "element": "S", "occu": 1 }],
        "abc": [0.96970661, 0.45561244, 0.7183200200000001],
        "properties": { "magmom": -0.0 },
        "label": "S",
        "xyz": [5.640492125911804, 3.378315199273482, 2.124540460759153]
      },
      {
        "species": [{ "element": "S", "occu": 1 }],
        "abc": [0.03029339, 0.74861141, 0.48590383000000004],
        "properties": { "magmom": -0.0 },
        "label": "S",
        "xyz": [-3.375431360644191, 5.521497040912407, 3.2610780073963888]
      },
      {
        "species": [{ "element": "S", "occu": 1 }],
        "abc": [0.46970661, 0.46832002, 0.70561244],
        "properties": { "magmom": -0.0 },
        "label": "S",
        "xyz": [1.5390046466858938, 3.455826203100141, 3.906452839782515]
      },
      {
        "species": [{ "element": "S", "occu": 1 }],
        "abc": [0.53029339, 0.23590383, 0.99861141],
        "properties": { "magmom": -0.0 },
        "label": "S",
        "xyz": [3.1622667985817183, 1.7289636320857478, 6.593681963373028]
      },
      {
        "species": [{ "element": "S", "occu": 1 }],
        "abc": [0.73729442, 0.28167998, 0.25138859],
        "properties": { "magmom": -0.0 },
        "label": "S",
        "xyz": [4.596062782569279, 2.0998005193998583, -0.9358440519506832]
      },
      {
        "species": [{ "element": "S", "occu": 1 }],
        "abc": [0.76270558, 0.29438756, 0.76409617],
        "properties": { "magmom": -0.0 },
        "label": "S",
        "xyz": [4.751097071503022, 2.1773113879714385, 3.533328043365432]
      },
      {
        "species": [{ "element": "S", "occu": 1 }],
        "abc": [0.23729442, 0.00138859, 0.53167998],
        "properties": { "magmom": -0.0 },
        "label": "S",
        "xyz": [1.9221897432293684, 0.000316046842672401, 3.843164363479028]
      }
    ]
  },
  "task_ids": null,
  "uncorrected_energy_per_atom": null,
  "energy_per_atom": -7.249936484583333,
  "formation_energy_per_atom": -0.7052102397916661,
  "energy_above_hull": 0.0,
  "is_stable": true,
  "equilibrium_reaction_energy_per_atom": null,
  "decomposes_to": null,
  "xas": null,
  "grain_boundaries": null,
  "band_gap": 2.0185,
  "cbm": null,
  "vbm": null,
  "efermi": 2.02308006,
  "is_gap_direct": null,
  "is_metal": null,
  "es_source_calc_id": null,
  "bandstructure": null,
  "dos": null,
  "dos_energy_up": null,
  "dos_energy_down": null,
  "is_magnetic": null,
  "ordering": null,
  "total_magnetization": 0.0,
  "total_magnetization_normalized_vol": null,
  "total_magnetization_normalized_formula_units": null,
  "num_magnetic_sites": null,
  "num_unique_magnetic_sites": null,
  "types_of_magnetic_species": null,
  "bulk_modulus": null,
  "shear_modulus": null,
  "universal_anisotropy": null,
  "homogeneous_poisson": null,
  "e_total": null,
  "e_ionic": null,
  "e_electronic": null,
  "n": null,
  "e_ij_max": null,
  "weighted_surface_energy_EV_PER_ANG2": null,
  "weighted_surface_energy": null,
  "weighted_work_function": null,
  "surface_anisotropy": null,
  "shape_factor": null,
  "has_reconstructed": null,
  "possible_species": null,
  "has_props": null,
  "theoretical": null,
  "database_IDs": null,
  "fields_not_requested": [
    "builder_meta",
    "nsites",
    "elements",
    "nelements",
    "composition",
    "composition_reduced",
    "chemsys",
    "symmetry",
    "property_name",
    "deprecated",
    "deprecation_reasons",
    "last_updated",
    "origins",
    "warnings",
    "task_ids",
    "uncorrected_energy_per_atom",
    "equilibrium_reaction_energy_per_atom",
    "decomposes_to",
    "xas",
    "grain_boundaries",
    "cbm",
    "vbm",
    "is_gap_direct",
    "is_metal",
    "es_source_calc_id",
    "bandstructure",
    "dos",
    "dos_energy_up",
    "dos_energy_down",
    "is_magnetic",
    "ordering",
    "total_magnetization_normalized_vol",
    "total_magnetization_normalized_formula_units",
    "num_magnetic_sites",
    "num_unique_magnetic_sites",
    "types_of_magnetic_species",
    "bulk_modulus",
    "shear_modulus",
    "universal_anisotropy",
    "homogeneous_poisson",
    "e_total",
    "e_ionic",
    "e_electronic",
    "n",
    "e_ij_max",
    "weighted_surface_energy_EV_PER_ANG2",
    "weighted_surface_energy",
    "weighted_work_function",
    "surface_anisotropy",
    "shape_factor",
    "has_reconstructed",
    "possible_species",
    "has_props",
    "theoretical",
    "database_IDs"
  ]
}
