{
  "builder_meta": null,
  "nsites": null,
  "elements": null,
  "nelements": null,
  "composition": null,
  "composition_reduced": null,
  "formula_pretty": "NaSb",
  "formula_anonymous": "AB",
  "chemsys": null,
  "volume": 477.14458751880505,
  "density": 4.030017785940886,
  "density_atomic": 29.821536719925316,
  "symmetry": null,
  "property_name": null,
  "material_id": "mp-7944",
  "deprecated": null,
  "deprecation_reasons": null,
  "last_updated": null,
  "origins": null,
  "warnings": null,
  "structure": {
    "@module": "pymatgen.core.structure",
    "@class": "Structure",
    "charge": 0,
    "lattice": {
      "matrix": [
        [6.34242564, 0.0, 0.0],
        [0.0, 6.75489298, -0.64107328],
        [0.0, -0.02475954, 11.13955304]
      ],
      "pbc": [true, true, true],
      "a": 6.34242564,
      "b": 6.785245325084661,
      "c": 11.139580556097892,
      "alpha": 95.54876874274407,
      "beta": 90.0,
      "gamma": 90.0,
      "volume": 477.144587518805
    },
    "properties": {},
    "sites": [
      {
        "species": [{ "element": "Na", "occu": 1 }],
        "abc": [0.83593754, 0.31029528, 0.54187681],
        "properties": { "magmom": 0.0 },
        "label": "Na",
        "xyz": [5.3018716871345255, 2.082594788046867, 5.837343453222883]
      },
      {
        "species": [{ "element": "Na", "occu": 1 }],
        "abc": [0.33593754000000003, 0.18970472, 0.95812319],
        "properties": { "magmom": 0.0 },
        "label": "Na",
        "xyz": [2.130658867134526, 1.2577123919531328, 10.551449466777116]
      },
      {
        "species": [{ "element": "Na", "occu": 1 }],
        "abc": [0.16406246, 0.68970472, 0.45812319],
        "properties": { "magmom": 0.0 },
        "label": "Na",
        "xyz": [1.0405539528654744, 4.647538651953133, 4.661136306777116]
      },
      {
        "species": [{ "element": "Na", "occu": 1 }],
        "abc": [0.66406246, 0.8102952800000001, 0.04187681],
        "properties": { "magmom": 0.0 },
        "label": "Na",
        "xyz": [4.211766772865475, 5.472421048046868, -0.052969706777116043]
      },
      {
        "species": [{ "element": "Na", "occu": 1 }],
        "abc": [0.09739988000000001, 0.59680211, 0.82703572],
        "properties": { "magmom": 0.0 },
        "label": "Na",
        "xyz": [0.6177514962449233, 4.010857359297419, 8.830214382745968]
      },
      {
        "species": [{ "element": "Na", "occu": 1 }],
        "abc": [0.59739988, 0.9031978900000001, 0.67296428],
        "properties": { "magmom": 0.0 },
        "label": "Na",
        "xyz": [3.788964316244923, 6.084342800702581, 6.917505257254032]
      },
      {
        "species": [{ "element": "Na", "occu": 1 }],
        "abc": [0.90260012, 0.40319789, 0.17296428],
        "properties": { "magmom": 0.0 },
        "label": "Na",
        "xyz": [5.7246741437550765, 2.719276080702581, 1.668265377254032]
      },
      {
        "species": [{ "element": "Na", "occu": 1 }],
        "abc": [0.40260012, 0.09680211, 0.32703572000000003],
        "properties": { "magmom": 0.0 },
        "label": "Na",
        "xyz": [2.553461323755077, 0.645790639297419, 3.580974502745968]
      },
      {
        "species": [{ "element": "Sb", "occu": 1 }],
        "abc": [0.33676133, 0.3137347, 0.6047557100000001],
        "properties": { "magmom": 0.0 },
        "label": "Sb",
        "xyz": [2.1358836939525014, 2.1042708494204323, 6.535581374609042]
      },
      {
        "species": [{ "element": "Sb", "occu": 1 }],
        "abc": [0.83676133, 0.1862653, 0.89524429],
        "properties": { "magmom": 0.0 },
        "label": "Sb",
        "xyz": [5.3070965139525015, 1.2360363305795674, 9.853211545390957]
      },
      {
        "species": [{ "element": "Sb", "occu": 1 }],
        "abc": [0.66323867, 0.6862653, 0.39524429],
        "properties": { "magmom": 0.0 },
        "label": "Sb",
        "xyz": [4.206541946047499, 4.625862590579567, 3.9628983853909574]
      },
      {
        "species": [{ "element": "Sb", "occu": 1 }],
        "abc": [0.16323867, 0.813734699999999, 0.10475571],
        "properties": { "magmom": 0.0 },
        "label": "Sb",
        "xyz": [1.0353291260474988, 5.4940971094204265, 0.6452682146090428]
      },
      {
        "species": [{ "element": "Sb", "occu": 1 }],
        "abc": [0.59518072, 0.49004782, 0.79770876],
        "properties": { "magmom": -0.0 },
        "label": "Sb",
        "xyz": [3.7748894589616606, 3.290469677230733, 8.57196247916838]
      },
      {
        "species": [{ "element": "Sb", "occu": 1 }],
        "abc": [0.09518072, 0.00995218, 0.70229124],
        "properties": { "magmom": -0.0 },
        "label": "Sb",
        "xyz": [0.6036766389616608, 0.049837502769266795, 7.816830440831619]
      },
      {
        "species": [{ "element": "Sb", "occu": 1 }],
        "abc": [0.40481928, 0.50995218, 0.20229124],
        "properties": { "magmom": -0.0 },
        "label": "Sb",
        "xyz": [2.5675361810383395, 3.4396637627692668, 1.9265172808316189]
      },
      {
        "species": [{ "element": "Sb", "occu": 1 }],
        "abc": [0.90481928, 0.99004782, 0.29770876],
        "properties": { "magmom": -0.0 },
        "label": "Sb",
        "xyz": [5.7387490010383395, 6.680295937230733, 2.681649319168381]
      }
    ]
  },
  "task_ids": null,
  "uncorrected_energy_per_atom": null,
  "energy_per_atom": -15.0839714725,
  "formation_energy_per_atom": -0.448723322499999,
  "energy_above_hull": 0.0,
  "is_stable": true,
  "equilibrium_reaction_energy_per_atom": null,
  "decomposes_to": null,
  "xas": null,
  "grain_boundaries": null,
  "band_gap": 0.6041000000000001,
  "cbm": null,
  "vbm": null,
  "efermi": 3.48942018,
  "is_gap_direct": null,
  "is_metal": null,
  "es_source_calc_id": null,
  "bandstructure": null,
  "dos": null,
  "dos_energy_up": null,
  "dos_energy_down": null,
  "is_magnetic": null,
  "ordering": null,
  "total_magnetization": 0.0,
  "total_magnetization_normalized_vol": null,
  "total_magnetization_normalized_formula_units": null,
  "num_magnetic_sites": null,
  "num_unique_magnetic_sites": null,
  "types_of_magnetic_species": null,
  "bulk_modulus": null,
  "shear_modulus": null,
  "universal_anisotropy": null,
  "homogeneous_poisson": null,
  "e_total": null,
  "e_ionic": null,
  "e_electronic": null,
  "n": null,
  "e_ij_max": null,
  "weighted_surface_energy_EV_PER_ANG2": null,
  "weighted_surface_energy": null,
  "weighted_work_function": null,
  "surface_anisotropy": null,
  "shape_factor": null,
  "has_reconstructed": null,
  "possible_species": null,
  "has_props": null,
  "theoretical": null,
  "database_IDs": null,
  "fields_not_requested": [
    "builder_meta",
    "nsites",
    "elements",
    "nelements",
    "composition",
    "composition_reduced",
    "chemsys",
    "symmetry",
    "property_name",
    "deprecated",
    "deprecation_reasons",
    "last_updated",
    "origins",
    "warnings",
    "task_ids",
    "uncorrected_energy_per_atom",
    "equilibrium_reaction_energy_per_atom",
    "decomposes_to",
    "xas",
    "grain_boundaries",
    "cbm",
    "vbm",
    "is_gap_direct",
    "is_metal",
    "es_source_calc_id",
    "bandstructure",
    "dos",
    "dos_energy_up",
    "dos_energy_down",
    "is_magnetic",
    "ordering",
    "total_magnetization_normalized_vol",
    "total_magnetization_normalized_formula_units",
    "num_magnetic_sites",
    "num_unique_magnetic_sites",
    "types_of_magnetic_species",
    "bulk_modulus",
    "shear_modulus",
    "universal_anisotropy",
    "homogeneous_poisson",
    "e_total",
    "e_ionic",
    "e_electronic",
    "n",
    "e_ij_max",
    "weighted_surface_energy_EV_PER_ANG2",
    "weighted_surface_energy",
    "weighted_work_function",
    "surface_anisotropy",
    "shape_factor",
    "has_reconstructed",
    "possible_species",
    "has_props",
    "theoretical",
    "database_IDs"
  ]
}
