{"builder_meta": null, "nsites": null, "elements": null, "nelements": null, "composition": null, "composition_reduced": null, "formula_pretty": "NaSe2", "formula_anonymous": "AB2", "chemsys": null, "volume": 636.4851691485202, "density": 3.775833329419609, "density_atomic": 26.52021538118834, "symmetry": null, "property_name": null, "material_id": "mp-15514", "deprecated": null, "deprecation_reasons": null, "last_updated": null, "origins": null, "warnings": null, "structure": {"@module": "pymatgen.core.structure", "@class": "Structure", "charge": 0, "lattice": {"matrix": [[8.60138808, 0.11447862, -3.87704684], [-5.04128488, 7.79680279, -1.6804119100000001], [0.07401909, -0.11447862, 9.43450456]], "pbc": [true, true, true], "a": 9.435490154557801, "b": 9.435489980638962, "c": 9.435489413527119, "alpha": 101.08664555369691, "beta": 113.81929891192839, "gamma": 113.8192905242471, "volume": 636.4851691485202}, "properties": {}, "sites": [{"species": [{"element": "Na", "occu": 1}], "abc": [0.51053766, 0.875, 0.88553766], "properties": {"magmom": -0.0}, "label": "Na", "xyz": [0.045754964869021905, 6.77927295875, 4.904870248667736]}, {"species": [{"element": "Na", "occu": 1}], "abc": [0.98946234, 0.11446234, 0.625], "properties": {"magmom": -0.0}, "label": "Na", "xyz": [7.979974244163487, 0.9341634375870992, 1.8680296320215248]}, {"species": [{"element": "Na", "occu": 1}], "abc": [0.01053766, 0.63553766, 0.125], "properties": {"magmom": -0.0}, "label": "Na", "xyz": [-3.104035506663488, 4.942058309912901, 0.07049301547847509]}, {"species": [{"element": "Na", "occu": 1}], "abc": [0.48946234, 0.375, 0.36446234], "properties": {"magmom": -0.0}, "label": "Na", "xyz": [2.3465508776309774, 2.93811087375, 0.9106987238322648]}, {"species": [{"element": "Na", "occu": 1}], "abc": [0.5, 0.95272269, 0.45272269], "properties": {"magmom": 0.0}, "label": "Na", "xyz": [-0.46874233039377555, 7.433603168694416, 0.7317243080172284]}, {"species": [{"element": "Na", "occu": 1}], "abc": [0.5, 0.54727731, 0.047278310000000004], "properties": {"magmom": 0.0}, "label": "Na", "xyz": [1.545212709412865, 4.318840211826963, -2.4121272985126687]}, {"species": [{"element": "Na", "occu": 1}], "abc": [0.0, 0.79727731, 0.79727731], "properties": {"magmom": 0.0}, "label": "Na", "xyz": [-3.960288307106225, 6.124942748805583, 6.182162129482772]}, {"species": [{"element": "Na", "occu": 1}], "abc": [-0.0, 0.20272169, 0.20272169], "properties": {"magmom": 0.0}, "label": "Na", "xyz": [-1.0069725156279852, 1.5573737388702473, 1.5719227664245785]}, {"species": [{"element": "Se", "occu": 1}], "abc": [0.26986914, 0.53726989, 0.55197529], "properties": {"magmom": 0.0}, "label": "Se", "xyz": [-0.3464246603121261, 4.156692254589481, 3.2584833720214155]}, {"species": [{"element": "Se", "occu": 1}], "abc": [0.9852946100000001, 0.44802471, 0.7178938500000001], "properties": {"magmom": 0.0}, "label": "Se", "xyz": [6.269418966846461, 3.5237719789086923, 2.200073388593128]}, {"species": [{"element": "Se", "occu": 1}], "abc": [0.01470539, 0.73259825, 0.46273011000000003], "properties": {"magmom": 0.0}, "label": "Se", "xyz": [-3.5324988529239087, 5.66063482787763, 3.077549022468677]}, {"species": [{"element": "Se", "occu": 1}], "abc": [0.48529461, 0.46789385, 0.69802471], "properties": {"magmom": 0.0}, "label": "Se", "xyz": [1.8670882361239742, 3.623723026823379, 3.9177529771623916]}, {"species": [{"element": "Se", "occu": 1}], "abc": [0.51470539, 0.21273011, 0.98259825], "properties": {"magmom": 0.0}, "label": "Se", "xyz": [3.427478747494607, 1.6050509862443538, 6.917316553982943]}, {"species": [{"element": "Se", "occu": 1}], "abc": [0.73013086, 0.28210615, 0.26740175], "properties": {"magmom": 0.0}, "label": "Se", "xyz": [4.877754241693545, 2.252498607342787, -0.7820030481667488]}, {"species": [{"element": "Se", "occu": 1}], "abc": [0.7698691400000001, 0.30197529, 0.78726989], "properties": {"magmom": 0.0}, "label": "Se", "xyz": [5.157872781187436, 2.3524497697360944, 3.935239776863477]}, {"species": [{"element": "Se", "occu": 1}], "abc": [0.23013086, 0.01740175, 0.53210615], "properties": {"magmom": 0.0}, "label": "Se", "xyz": [1.931103669890012, 0.10110829847758268, 4.09868766707472]}, {"species": [{"element": "Se", "occu": 1}], "abc": [0.20590288, 0.03036134, 0.27437931], "properties": {"magmom": 0.0}, "label": "Se", "xyz": [1.638299720232159, 0.228882293211212, 1.739318183774195]}, {"species": [{"element": "Se", "occu": 1}], "abc": [0.79409712, 0.06847642, 0.8244564600000001], "properties": {"magmom": 0.0}, "label": "Se", "xyz": [6.546153878461621, 0.5304216471579011, 4.584517909920196]}, {"species": [{"element": "Se", "occu": 1}], "abc": [0.70590288, 0.02437931, 0.28036134], "properties": {"magmom": 0.0}, "label": "Se", "xyz": [5.969593662039817, 0.2387960804781497, -0.132715472454771]}, {"species": [{"element": "Se", "occu": 1}], "abc": [0.24401997, 0.17554354, 0.96963866], "properties": {"magmom": 0.0}, "label": "Se", "xyz": [1.2857172384983016, 1.2856105361610688, 7.906998050397334]}, {"species": [{"element": "Se", "occu": 1}], "abc": [0.75598003, 0.7256206900000001, 0.93152358], "properties": {"magmom": 0.0}, "label": "Se", "xyz": [2.913367533353017, 5.637425436919825, 4.638151827224501]}, {"species": [{"element": "Se", "occu": 1}], "abc": [0.74401997, 0.71963866, 0.42554354], "properties": {"magmom": 0.0}, "label": "Se", "xyz": [2.8031993511046753, 5.6473394542887885, -0.07909718013729261]}, {"species": [{"element": "Se", "occu": 1}], "abc": [0.25598003, 0.68152358, 0.9756206900000001], "properties": {"magmom": 0.0}, "label": "Se", "xyz": [-1.161756384798456, 5.231321480342099, 7.0668109414429034]}, {"species": [{"element": "Se", "occu": 1}], "abc": [0.29409712, 0.5744564600000001, 0.31847642], "properties": {"magmom": 0.0}, "label": "Se", "xyz": [-0.34278186889113826, 4.476132821440958, 0.8991154498329359]}]}, "task_ids": null, "uncorrected_energy_per_atom": null, "energy_per_atom": -11.414884175416667, "formation_energy_per_atom": -0.6857838314583321, "energy_above_hull": 0.0, "is_stable": true, "equilibrium_reaction_energy_per_atom": null, "decomposes_to": null, "xas": null, "grain_boundaries": null, "band_gap": 1.1815, "cbm": null, "vbm": null, "efermi": 1.36652948, "is_gap_direct": null, "is_metal": null, "es_source_calc_id": null, "bandstructure": null, "dos": null, "dos_energy_up": null, "dos_energy_down": null, "is_magnetic": null, "ordering": null, "total_magnetization": 1.7e-06, "total_magnetization_normalized_vol": null, "total_magnetization_normalized_formula_units": null, "num_magnetic_sites": null, "num_unique_magnetic_sites": null, "types_of_magnetic_species": null, "bulk_modulus": null, "shear_modulus": null, "universal_anisotropy": null, "homogeneous_poisson": null, "e_total": null, "e_ionic": null, "e_electronic": null, "n": null, "e_ij_max": null, "weighted_surface_energy_EV_PER_ANG2": null, "weighted_surface_energy": null, "weighted_work_function": null, "surface_anisotropy": null, "shape_factor": null, "has_reconstructed": null, "possible_species": null, "has_props": null, "theoretical": null, "database_IDs": null, "fields_not_requested": ["builder_meta", "nsites", "elements", "nelements", "composition", "composition_reduced", "chemsys", "symmetry", "property_name", "deprecated", "deprecation_reasons", "last_updated", "origins", "warnings", "task_ids", "uncorrected_energy_per_atom", "equilibrium_reaction_energy_per_atom", "decomposes_to", "xas", "grain_boundaries", "cbm", "vbm", "is_gap_direct", "is_metal", "es_source_calc_id", "bandstructure", "dos", "dos_energy_up", "dos_energy_down", "is_magnetic", "ordering", "total_magnetization_normalized_vol", "total_magnetization_normalized_formula_units", "num_magnetic_sites", "num_unique_magnetic_sites", "types_of_magnetic_species", "bulk_modulus", "shear_modulus", "universal_anisotropy", "homogeneous_poisson", "e_total", "e_ionic", "e_electronic", "n", "e_ij_max", "weighted_surface_energy_EV_PER_ANG2", "weighted_surface_energy", "weighted_work_function", "surface_anisotropy", "shape_factor", "has_reconstructed", "possible_species", "has_props", "theoretical", "database_IDs"]}