{"builder_meta": null, "nsites": null, "elements": null, "nelements": null, "composition": null, "composition_reduced": null, "formula_pretty": "NaSi6", "formula_anonymous": "AB6", "chemsys": null, "volume": 265.7742797905778, "density": 2.392991752265111, "density_atomic": 18.983877127898413, "symmetry": null, "property_name": null, "material_id": "mp-1104400", "deprecated": null, "deprecation_reasons": null, "last_updated": null, "origins": null, "warnings": null, "structure": {"@module": "pymatgen.core.structure", "@class": "Structure", "charge": 0, "lattice": {"matrix": [[4.14239204, 0.0, -0.0], [-2.07119552, 5.25237167, -0.0], [0.0, 0.0, 12.21536086]], "pbc": [true, true, true], "a": 4.14239204, "b": 5.64599495588569, "c": 12.21536086, "alpha": 90.0, "beta": 90.0, "gamma": 111.5210677186927, "volume": 265.7742797905778}, "properties": {}, "sites": [{"species": [{"element": "Na", "occu": 1}], "abc": [0.28399232, 0.56798363, 0.25], "properties": {"magmom": 0.0}, "label": "Na", "xyz": [2.3758997953482464e-06, 2.9832611272357616, 3.053840215]}, {"species": [{"element": "Na", "occu": 1}], "abc": [0.71600768, 0.43201637, 0.75], "properties": {"magmom": 0.0}, "label": "Na", "xyz": [2.071194144100205, 2.2691105427642375, 9.161520645]}, {"species": [{"element": "Si", "occu": 1}], "abc": [0.24480867, 0.48961834, 0.95199165], "properties": {"magmom": 0.0}, "label": "Si", "xyz": [-1.8263868499790448e-06, 2.5716574981284275, 11.628921540456819]}, {"species": [{"element": "Si", "occu": 1}], "abc": [0.75519233, 0.51038166, 0.04800835], "properties": {"magmom": 0.0}, "label": "Si", "xyz": [2.07120248877889, 2.6807141718715717, 0.586439319543181]}, {"species": [{"element": "Si", "occu": 1}], "abc": [0.24480767, 0.48961834, 0.54800835], "properties": {"magmom": 0.0}, "label": "Si", "xyz": [-5.968778889808846e-06, 2.5716574981284275, 6.694119749543182]}, {"species": [{"element": "Si", "occu": 1}], "abc": [0.75519133, 0.51038166, 0.45199165], "properties": {"magmom": 0.0}, "label": "Si", "xyz": [2.0711983463868506, 2.6807141718715717, 5.5212411104568195]}, {"species": [{"element": "Si", "occu": 1}], "abc": [0.5651944, 0.1303888, 0.15307785000000002], "properties": {"magmom": 0.0}, "label": "Si", "xyz": [2.0711960851943996, 0.684850439205296, 1.8699011774229513]}, {"species": [{"element": "Si", "occu": 1}], "abc": [0.434805599999999, 0.869611199999999, 0.84692215], "properties": {"magmom": 0.0}, "label": "Si", "xyz": [4.348055979708221e-07, 4.567521230794698, 10.345459682577049]}, {"species": [{"element": "Si", "occu": 1}], "abc": [0.5651944, 0.1303888, 0.34692215], "properties": {"magmom": 0.0}, "label": "Si", "xyz": [2.0711960851943996, 0.684850439205296, 4.237779252577049]}, {"species": [{"element": "Si", "occu": 1}], "abc": [0.434805599999999, 0.869611199999999, 0.65307785], "properties": {"magmom": 0.0}, "label": "Si", "xyz": [4.348055979708221e-07, 4.567521230794698, 7.977581607422951]}, {"species": [{"element": "Si", "occu": 1}], "abc": [0.02625787, 0.05251475, 0.9053892800000001], "properties": {"magmom": -0.0}, "label": "Si", "xyz": [2.076741434806073e-06, 0.2758269851571325, 11.059656773975583]}, {"species": [{"element": "Si", "occu": 1}], "abc": [0.97374213, 0.9474852500000001, 0.09461072], "properties": {"magmom": -0.0}, "label": "Si", "xyz": [2.0711944432585647, 4.976544684842867, 1.1557040860244192]}, {"species": [{"element": "Si", "occu": 1}], "abc": [0.02625787, 0.05251475, 0.59461072], "properties": {"magmom": -0.0}, "label": "Si", "xyz": [2.076741434806073e-06, 0.2758269851571325, 7.26338451602442]}, {"species": [{"element": "Si", "occu": 1}], "abc": [0.97374213, 0.9474852500000001, 0.40538928], "properties": {"magmom": -0.0}, "label": "Si", "xyz": [2.0711944432585647, 4.976544684842867, 4.9519763439755815]}]}, "task_ids": null, "uncorrected_energy_per_atom": null, "energy_per_atom": -7.9872563521428575, "formation_energy_per_atom": 0.042281953571427, "energy_above_hull": 0.062099458749997005, "is_stable": false, "equilibrium_reaction_energy_per_atom": null, "decomposes_to": null, "xas": null, "grain_boundaries": null, "band_gap": 0.0, "cbm": null, "vbm": null, "efermi": 5.9987466099999995, "is_gap_direct": null, "is_metal": null, "es_source_calc_id": null, "bandstructure": null, "dos": null, "dos_energy_up": null, "dos_energy_down": null, "is_magnetic": null, "ordering": null, "total_magnetization": 5e-07, "total_magnetization_normalized_vol": null, "total_magnetization_normalized_formula_units": null, "num_magnetic_sites": null, "num_unique_magnetic_sites": null, "types_of_magnetic_species": null, "bulk_modulus": null, "shear_modulus": null, "universal_anisotropy": null, "homogeneous_poisson": null, "e_total": null, "e_ionic": null, "e_electronic": null, "n": null, "e_ij_max": null, "weighted_surface_energy_EV_PER_ANG2": null, "weighted_surface_energy": null, "weighted_work_function": null, "surface_anisotropy": null, "shape_factor": null, "has_reconstructed": null, "possible_species": null, "has_props": null, "theoretical": null, "database_IDs": null, "fields_not_requested": ["builder_meta", "nsites", "elements", "nelements", "composition", "composition_reduced", "chemsys", "symmetry", "property_name", "deprecated", "deprecation_reasons", "last_updated", "origins", "warnings", "task_ids", "uncorrected_energy_per_atom", "equilibrium_reaction_energy_per_atom", "decomposes_to", "xas", "grain_boundaries", "cbm", "vbm", "is_gap_direct", "is_metal", "es_source_calc_id", "bandstructure", "dos", "dos_energy_up", "dos_energy_down", "is_magnetic", "ordering", "total_magnetization_normalized_vol", "total_magnetization_normalized_formula_units", "num_magnetic_sites", "num_unique_magnetic_sites", "types_of_magnetic_species", "bulk_modulus", "shear_modulus", "universal_anisotropy", "homogeneous_poisson", "e_total", "e_ionic", "e_electronic", "n", "e_ij_max", "weighted_surface_energy_EV_PER_ANG2", "weighted_surface_energy", "weighted_work_function", "surface_anisotropy", "shape_factor", "has_reconstructed", "possible_species", "has_props", "theoretical", "database_IDs"]}