{"builder_meta": null, "nsites": null, "elements": null, "nelements": null, "composition": null, "composition_reduced": null, "formula_pretty": "NaSi", "formula_anonymous": "AB", "chemsys": null, "volume": 381.46325253337227, "density": 1.7786768064981051, "density_atomic": 23.841453283335767, "symmetry": null, "property_name": null, "material_id": "mp-2402", "deprecated": null, "deprecation_reasons": null, "last_updated": null, "origins": null, "warnings": null, "structure": {"@module": "pymatgen.core.structure", "@class": "Structure", "charge": 0, "lattice": {"matrix": [[6.21367688, 0.0, 2.08118669], [2.9700128, 6.03792662, 1.4491099], [0.04468883, 0.00741789, 10.18307363]], "pbc": [true, true, true], "a": 6.552947306951254, "b": 6.883128169876432, "c": 10.183174390661303, "alpha": 77.69819124892757, "beta": 71.23098781145131, "gamma": 61.57451674552748, "volume": 381.46325253337227}, "properties": {}, "sites": [{"species": [{"element": "Na", "occu": 1}], "abc": [0.72393938, 0.19276203, 0.54708357], "properties": {"magmom": 0.0}, "label": "Na", "xyz": [5.095279609137042, 1.167941198005306, 7.356978643113209]}, {"species": [{"element": "Na", "occu": 1}], "abc": [0.46378598, 0.30723797, 0.95291643], "properties": {"magmom": 0.0}, "label": "Na", "xyz": [3.8369016450846356, 1.8621489469946944, 11.11406496249425]}, {"species": [{"element": "Na", "occu": 1}], "abc": [0.27606062, 0.80723797, 0.45291643000000004], "properties": {"magmom": 0.0}, "label": "Na", "xyz": [4.133098900862959, 4.877403311994694, 6.356391576886793]}, {"species": [{"element": "Na", "occu": 1}], "abc": [0.53621402, 0.69276203, 0.04708357], "properties": {"magmom": 0.0}, "label": "Na", "xyz": [5.391476864915365, 4.183195563005306, 2.5993052575057503]}, {"species": [{"element": "Na", "occu": 1}], "abc": [0.99203461, 0.84293828, 0.8568697], "properties": {"magmom": 0.0}, "label": "Na", "xyz": [8.706012505882255, 5.0959556450079475, 12.011686679404324]}, {"species": [{"element": "Na", "occu": 1}], "abc": [0.6918435900000001, 0.65706172, 0.643130299999999], "properties": {"magmom": 0.0}, "label": "Na", "xyz": [6.279114979193765, 3.9720611199920532, 8.941053513016826]}, {"species": [{"element": "Na", "occu": 1}], "abc": [0.007965390000000001, 0.15706172000000002, 0.1431303], "properties": {"magmom": 0.0}, "label": "Na", "xyz": [0.5223660041177483, 0.9493888649920535, 1.701683540595676]}, {"species": [{"element": "Na", "occu": 1}], "abc": [0.30815641, 0.34293828, 0.356869699999999], "properties": {"magmom": 0.0}, "label": "Na", "xyz": [2.9492635308062356, 2.0732833900079464, 4.7723167069831565]}, {"species": [{"element": "Si", "occu": 1}], "abc": [0.93745577, 0.33806326000000003, 0.8580436300000001], "properties": {"magmom": 0.0}, "label": "Si", "xyz": [6.867444419394979, 2.047566030060522, 11.178432749922454]}, {"species": [{"element": "Si", "occu": 1}], "abc": [0.13356366, 0.16193674, 0.64195637], "properties": {"magmom": 0.0}, "label": "Si", "xyz": [1.3395638958268, 0.9825241149394782, 7.0497240275249355]}, {"species": [{"element": "Si", "occu": 1}], "abc": [0.06254423, 0.66193674, 0.14195637], "properties": {"magmom": 0.0}, "label": "Si", "xyz": [2.3609340906050216, 3.997778479939478, 2.5349374700775478]}, {"species": [{"element": "Si", "occu": 1}], "abc": [0.86643634, 0.83806326, 0.35804363], "properties": {"magmom": 0.0}, "label": "Si", "xyz": [7.8888146141732, 5.0628203950605215, 6.663646192475066]}, {"species": [{"element": "Si", "occu": 1}], "abc": [0.22843363, 0.43360385, 0.68739144], "properties": {"magmom": 0.0}, "label": "Si", "xyz": [2.73794046918037, 2.623167222538349, 8.103510308169227]}, {"species": [{"element": "Si", "occu": 1}], "abc": [0.34942891, 0.06639615, 0.81260856], "properties": {"magmom": 0.0}, "label": "Si", "xyz": [2.4047502804357057, 0.4069229224616514, 9.098294913728367]}, {"species": [{"element": "Si", "occu": 1}], "abc": [0.7715663700000001, 0.56639615, 0.31260856], "properties": {"magmom": 0.0}, "label": "Si", "xyz": [6.4904380408196305, 3.4221772874616514, 5.609859911830773]}, {"species": [{"element": "Si", "occu": 1}], "abc": [0.65057109, 0.93360385, 0.18739144], "properties": {"magmom": 0.0}, "label": "Si", "xyz": [6.823628229564295, 5.638421587538349, 4.615075306271635]}]}, "task_ids": null, "uncorrected_energy_per_atom": null, "energy_per_atom": -6.238333850625, "formation_energy_per_atom": -0.069361268125, "energy_above_hull": 0.0, "is_stable": true, "equilibrium_reaction_energy_per_atom": null, "decomposes_to": null, "xas": null, "grain_boundaries": null, "band_gap": 1.1286, "cbm": null, "vbm": null, "efermi": 2.336633469999999, "is_gap_direct": null, "is_metal": null, "es_source_calc_id": null, "bandstructure": null, "dos": null, "dos_energy_up": null, "dos_energy_down": null, "is_magnetic": null, "ordering": null, "total_magnetization": 0.0, "total_magnetization_normalized_vol": null, "total_magnetization_normalized_formula_units": null, "num_magnetic_sites": null, "num_unique_magnetic_sites": null, "types_of_magnetic_species": null, "bulk_modulus": null, "shear_modulus": null, "universal_anisotropy": null, "homogeneous_poisson": null, "e_total": null, "e_ionic": null, "e_electronic": null, "n": null, "e_ij_max": null, "weighted_surface_energy_EV_PER_ANG2": null, "weighted_surface_energy": null, "weighted_work_function": null, "surface_anisotropy": null, "shape_factor": null, "has_reconstructed": null, "possible_species": null, "has_props": null, "theoretical": null, "database_IDs": null, "fields_not_requested": ["builder_meta", "nsites", "elements", "nelements", "composition", "composition_reduced", "chemsys", "symmetry", "property_name", "deprecated", "deprecation_reasons", "last_updated", "origins", "warnings", "task_ids", "uncorrected_energy_per_atom", "equilibrium_reaction_energy_per_atom", "decomposes_to", "xas", "grain_boundaries", "cbm", "vbm", "is_gap_direct", "is_metal", "es_source_calc_id", "bandstructure", "dos", "dos_energy_up", "dos_energy_down", "is_magnetic", "ordering", "total_magnetization_normalized_vol", "total_magnetization_normalized_formula_units", "num_magnetic_sites", "num_unique_magnetic_sites", "types_of_magnetic_species", "bulk_modulus", "shear_modulus", "universal_anisotropy", "homogeneous_poisson", "e_total", "e_ionic", "e_electronic", "n", "e_ij_max", "weighted_surface_energy_EV_PER_ANG2", "weighted_surface_energy", "weighted_work_function", "surface_anisotropy", "shape_factor", "has_reconstructed", "possible_species", "has_props", "theoretical", "database_IDs"]}