{"builder_meta": null, "nsites": null, "elements": null, "nelements": null, "composition": null, "composition_reduced": null, "formula_pretty": "NaSn2", "formula_anonymous": "AB2", "chemsys": null, "volume": 707.9198219665092, "density": 4.886661814469602, "density_atomic": 29.496659248604548, "symmetry": null, "property_name": null, "material_id": "mp-583168", "deprecated": null, "deprecation_reasons": null, "last_updated": null, "origins": null, "warnings": null, "structure": {"@module": "pymatgen.core.structure", "@class": "Structure", "charge": 0, "lattice": {"matrix": [[6.93362109, 0.0, 0.0], [-3.46681054, 6.61404092, -1.46641054], [0.0, -0.04257187, 15.44623205]], "pbc": [true, true, true], "a": 6.93362109, "b": 7.610169018064751, "c": 15.446290716756645, "alpha": 101.24972175828297, "beta": 90.0, "gamma": 117.100311236413, "volume": 707.9198219665092}, "properties": {}, "sites": [{"species": [{"element": "Na", "occu": 1}], "abc": [0.38032444, 0.76064788, 0.56368802], "properties": {"magmom": 0.0}, "label": "Na", "xyz": [3.4706137843620866e-06, 5.006958950923252, 7.5914338922643845]}, {"species": [{"element": "Na", "occu": 1}], "abc": [0.08874808000000001, 0.17749516, 0.41751465], "properties": {"magmom": -0.0}, "label": "Na", "xyz": [3.4676980207315466e-06, 1.1561858719390519, 6.1887473947515454]}, {"species": [{"element": "Na", "occu": 1}], "abc": [0.25006305, 0.0, 0.0], "properties": {"magmom": -0.0}, "label": "Na", "xyz": [1.7338424373097245, 0.0, 0.0]}, {"species": [{"element": "Na", "occu": 1}], "abc": [0.72672192, 0.45344383, 0.91102227], "properties": {"magmom": 0.0}, "label": "Na", "xyz": [3.4668105819353254, 2.9603121248959785, 13.406926573527787]}, {"species": [{"element": "Na", "occu": 1}], "abc": [0.61967556, 0.23935212, 0.43631198], "properties": {"magmom": 0.0}, "label": "Na", "xyz": [3.4668070793862156, 1.5645100990767478, 6.3883876177356145]}, {"species": [{"element": "Na", "occu": 1}], "abc": [0.91125192, 0.82250484, 0.58248535], "properties": {"magmom": -0.0}, "label": "Na", "xyz": [3.466807082301979, 5.415283178060948, 7.791074115248454]}, {"species": [{"element": "Na", "occu": 1}], "abc": [0.74993695, 0.0, 0.0], "properties": {"magmom": -0.0}, "label": "Na", "xyz": [5.199778652690275, 0.0, 0.0]}, {"species": [{"element": "Na", "occu": 1}], "abc": [0.27327808, 0.54655617, 0.08897773], "properties": {"magmom": 0.0}, "label": "Na", "xyz": [-3.1935324829035494e-08, 3.6111569251040216, 0.5728949364722149]}, {"species": [{"element": "Sn", "occu": 1}], "abc": [0.61318631, 0.65870427, 0.74722001], "properties": {"magmom": -0.0}, "label": "Sn", "xyz": [1.9679986251362722, 4.32488644283161, 10.575802782592318]}, {"species": [{"element": "Sn", "occu": 1}], "abc": [0.33001124, 0.08807387, 0.74692408], "properties": {"magmom": -0.0}, "label": "Sn", "xyz": [1.9828374727864615, 0.5507262253291308, 11.408010212146175]}, {"species": [{"element": "Sn", "occu": 1}], "abc": [0.04551796, 0.65870427, 0.74722001], "properties": {"magmom": -0.0}, "label": "Sn", "xyz": [-1.9679986185492293, 4.32488644283161, 10.575802782592318]}, {"species": [{"element": "Sn", "occu": 1}], "abc": [0.32597792000000003, 0.65195585, 0.88530419], "properties": {"magmom": 0.0}, "label": "Sn", "xyz": [-3.140832616210787e-08, 4.274373615046247, 12.718579023522631]}, {"species": [{"element": "Sn", "occu": 1}], "abc": [0.66998876, 0.91192613, 0.25307592], "properties": {"magmom": -0.0}, "label": "Sn", "xyz": [1.4839730772135376, 6.020742824670869, 2.571811297853826]}, {"species": [{"element": "Sn", "occu": 1}], "abc": [0.11528142, 0.23056283, 0.88471073], "properties": {"magmom": 0.0}, "label": "Sn", "xyz": [3.582091956388922e-08, 1.4872882020658384, 13.327347468660669]}, {"species": [{"element": "Sn", "occu": 1}], "abc": [0.6339140400000001, 0.69593803, 0.39388097], "properties": {"magmom": -0.0}, "label": "Sn", "xyz": [1.982634459400268, 4.586194358753874, 5.063446000320253]}, {"species": [{"element": "Sn", "occu": 1}], "abc": [0.95448204, 0.34129573, 0.25277999], "properties": {"magmom": -0.0}, "label": "Sn", "xyz": [5.434809168549229, 2.2465826071683903, 3.404018727407686]}, {"species": [{"element": "Sn", "occu": 1}], "abc": [0.75806264, 0.08807387, 0.74692408], "properties": {"magmom": -0.0}, "label": "Sn", "xyz": [4.950783687430488, 0.5507262253291308, 11.408010212146175]}, {"species": [{"element": "Sn", "occu": 1}], "abc": [0.38681369, 0.34129573, 0.25277999], "properties": {"magmom": -0.0}, "label": "Sn", "xyz": [1.4988119248637277, 2.2465826071683903, 3.404018727407686]}, {"species": [{"element": "Sn", "occu": 1}], "abc": [0.67402208, 0.34804415, 0.11469581000000001], "properties": {"magmom": 0.0}, "label": "Sn", "xyz": [3.4668105814083265, 2.297095434953753, 1.2612424864773697]}, {"species": [{"element": "Sn", "occu": 1}], "abc": [0.93797801, 0.30406197, 0.60611903], "properties": {"magmom": -0.0}, "label": "Sn", "xyz": [5.449458869683067, 1.9852746912461265, 8.916375509679748]}, {"species": [{"element": "Sn", "occu": 1}], "abc": [0.06202199, 0.69593803, 0.39388097], "properties": {"magmom": -0.0}, "label": "Sn", "xyz": [-1.982648319683067, 4.586194358753874, 5.063446000320253]}, {"species": [{"element": "Sn", "occu": 1}], "abc": [0.88471858, 0.76943717, 0.11528927], "properties": {"magmom": 0.0}, "label": "Sn", "xyz": [3.466810514179081, 5.084180847934161, 0.6524740413393317]}, {"species": [{"element": "Sn", "occu": 1}], "abc": [0.36608696, 0.30406197, 0.60611903], "properties": {"magmom": -0.0}, "label": "Sn", "xyz": [1.4841830242208225, 1.9852746912461265, 8.916375509679748]}, {"species": [{"element": "Sn", "occu": 1}], "abc": [0.24193736000000002, 0.91192613, 0.25307592], "properties": {"magmom": -0.0}, "label": "Sn", "xyz": [-1.4839731374304876, 6.020742824670869, 2.571811297853826]}]}, "task_ids": null, "uncorrected_energy_per_atom": null, "energy_per_atom": -17.874432926666667, "formation_energy_per_atom": -0.188916883333334, "energy_above_hull": 0.0, "is_stable": true, "equilibrium_reaction_energy_per_atom": null, "decomposes_to": null, "xas": null, "grain_boundaries": null, "band_gap": 0.0, "cbm": null, "vbm": null, "efermi": 4.66744457, "is_gap_direct": null, "is_metal": null, "es_source_calc_id": null, "bandstructure": null, "dos": null, "dos_energy_up": null, "dos_energy_down": null, "is_magnetic": null, "ordering": null, "total_magnetization": 0.0, "total_magnetization_normalized_vol": null, "total_magnetization_normalized_formula_units": null, "num_magnetic_sites": null, "num_unique_magnetic_sites": null, "types_of_magnetic_species": null, "bulk_modulus": null, "shear_modulus": null, "universal_anisotropy": null, "homogeneous_poisson": null, "e_total": null, "e_ionic": null, "e_electronic": null, "n": null, "e_ij_max": null, "weighted_surface_energy_EV_PER_ANG2": null, "weighted_surface_energy": null, "weighted_work_function": null, "surface_anisotropy": null, "shape_factor": null, "has_reconstructed": null, "possible_species": null, "has_props": null, "theoretical": null, "database_IDs": null, "fields_not_requested": ["builder_meta", "nsites", "elements", "nelements", "composition", "composition_reduced", "chemsys", "symmetry", "property_name", "deprecated", "deprecation_reasons", "last_updated", "origins", "warnings", "task_ids", "uncorrected_energy_per_atom", "equilibrium_reaction_energy_per_atom", "decomposes_to", "xas", "grain_boundaries", "cbm", "vbm", "is_gap_direct", "is_metal", "es_source_calc_id", "bandstructure", "dos", "dos_energy_up", "dos_energy_down", "is_magnetic", "ordering", "total_magnetization_normalized_vol", "total_magnetization_normalized_formula_units", "num_magnetic_sites", "num_unique_magnetic_sites", "types_of_magnetic_species", "bulk_modulus", "shear_modulus", "universal_anisotropy", "homogeneous_poisson", "e_total", "e_ionic", "e_electronic", "n", "e_ij_max", "weighted_surface_energy_EV_PER_ANG2", "weighted_surface_energy", "weighted_work_function", "surface_anisotropy", "shape_factor", "has_reconstructed", "possible_species", "has_props", "theoretical", "database_IDs"]}