{"builder_meta": null, "nsites": null, "elements": null, "nelements": null, "composition": null, "composition_reduced": null, "formula_pretty": "NaSn3", "formula_anonymous": "AB3", "chemsys": null, "volume": 209.43529884807486, "density": 6.011815498842833, "density_atomic": 26.179412356009358, "symmetry": null, "property_name": null, "material_id": "mp-1186190", "deprecated": null, "deprecation_reasons": null, "last_updated": null, "origins": null, "warnings": null, "structure": {"@module": "pymatgen.core.structure", "@class": "Structure", "charge": 0, "lattice": {"matrix": [[3.37596356, -5.84733954, 0.0], [3.37596356, 5.84733954, 0.0], [-0.0, 0.0, 5.30473657]], "pbc": [true, true, true], "a": 6.751926366193228, "b": 6.751926366193228, "c": 5.30473657, "alpha": 90.0, "beta": 90.0, "gamma": 119.99999261374417, "volume": 209.43529884807486}, "properties": {}, "sites": [{"species": [{"element": "Na", "occu": 1}], "abc": [0.333333, 0.666667, 0.75], "properties": {"magmom": -0.0}, "label": "Na", "xyz": [3.37596356, 1.94911707822636, 3.9785524275000004]}, {"species": [{"element": "Na", "occu": 1}], "abc": [0.666667, 0.333333, 0.25], "properties": {"magmom": -0.0}, "label": "Na", "xyz": [3.37596356, -1.94911707822636, 1.3261841425]}, {"species": [{"element": "Sn", "occu": 1}], "abc": [0.16300788, 0.32601577, 0.25], "properties": {"magmom": -0.0}, "label": "Sn", "xyz": [1.650926022378194, 0.9531624805289705, 1.3261841425]}, {"species": [{"element": "Sn", "occu": 1}], "abc": [0.67398423, 0.83699212, 0.25], "properties": {"magmom": -0.0}, "label": "Sn", "xyz": [5.101001097621806, 0.9531624805289707, 1.3261841425]}, {"species": [{"element": "Sn", "occu": 1}], "abc": [0.16300788, 0.83699212, 0.25], "properties": {"magmom": -0.0}, "label": "Sn", "xyz": [3.37596356, 3.9410146958888497, 1.3261841425]}, {"species": [{"element": "Sn", "occu": 1}], "abc": [0.83699212, 0.67398423, 0.75], "properties": {"magmom": -0.0}, "label": "Sn", "xyz": [5.101001097621806, -0.9531624805289707, 3.9785524275000004]}, {"species": [{"element": "Sn", "occu": 1}], "abc": [0.32601577, 0.16300788, 0.75], "properties": {"magmom": -0.0}, "label": "Sn", "xyz": [1.650926022378194, -0.9531624805289705, 3.9785524275000004]}, {"species": [{"element": "Sn", "occu": 1}], "abc": [0.83699212, 0.16300788, 0.75], "properties": {"magmom": -0.0}, "label": "Sn", "xyz": [3.37596356, -3.9410146958888497, 3.9785524275000004]}]}, "task_ids": null, "uncorrected_energy_per_atom": null, "energy_per_atom": -19.48953168, "formation_energy_per_atom": -0.038848702499997, "energy_above_hull": 0.10283895999999901, "is_stable": false, "equilibrium_reaction_energy_per_atom": null, "decomposes_to": null, "xas": null, "grain_boundaries": null, "band_gap": 0.0, "cbm": null, "vbm": null, "efermi": 6.26394349, "is_gap_direct": null, "is_metal": null, "es_source_calc_id": null, "bandstructure": null, "dos": null, "dos_energy_up": null, "dos_energy_down": null, "is_magnetic": null, "ordering": null, "total_magnetization": 0.0, "total_magnetization_normalized_vol": null, "total_magnetization_normalized_formula_units": null, "num_magnetic_sites": null, "num_unique_magnetic_sites": null, "types_of_magnetic_species": null, "bulk_modulus": null, "shear_modulus": null, "universal_anisotropy": null, "homogeneous_poisson": null, "e_total": null, "e_ionic": null, "e_electronic": null, "n": null, "e_ij_max": null, "weighted_surface_energy_EV_PER_ANG2": null, "weighted_surface_energy": null, "weighted_work_function": null, "surface_anisotropy": null, "shape_factor": null, "has_reconstructed": null, "possible_species": null, "has_props": null, "theoretical": null, "database_IDs": null, "fields_not_requested": ["builder_meta", "nsites", "elements", "nelements", "composition", "composition_reduced", "chemsys", "symmetry", "property_name", "deprecated", "deprecation_reasons", "last_updated", "origins", "warnings", "task_ids", "uncorrected_energy_per_atom", "equilibrium_reaction_energy_per_atom", "decomposes_to", "xas", "grain_boundaries", "cbm", "vbm", "is_gap_direct", "is_metal", "es_source_calc_id", "bandstructure", "dos", "dos_energy_up", "dos_energy_down", "is_magnetic", "ordering", "total_magnetization_normalized_vol", "total_magnetization_normalized_formula_units", "num_magnetic_sites", "num_unique_magnetic_sites", "types_of_magnetic_species", "bulk_modulus", "shear_modulus", "universal_anisotropy", "homogeneous_poisson", "e_total", "e_ionic", "e_electronic", "n", "e_ij_max", "weighted_surface_energy_EV_PER_ANG2", "weighted_surface_energy", "weighted_work_function", "surface_anisotropy", "shape_factor", "has_reconstructed", "possible_species", "has_props", "theoretical", "database_IDs"]}