{
  "builder_meta": null,
  "nsites": null,
  "elements": null,
  "nelements": null,
  "composition": null,
  "composition_reduced": null,
  "formula_pretty": "NaSn5",
  "formula_anonymous": "AB5",
  "chemsys": null,
  "volume": 359.5354909110029,
  "density": 5.6950615384750005,
  "density_atomic": 29.96129090925024,
  "symmetry": null,
  "property_name": null,
  "material_id": "mp-31284",
  "deprecated": null,
  "deprecation_reasons": null,
  "last_updated": null,
  "origins": null,
  "warnings": null,
  "structure": {
    "@module": "pymatgen.core.structure",
    "@class": "Structure",
    "charge": 0,
    "lattice": {
      "matrix": [
        [6.35206412, 0.0, 0.0],
        [0.0, 6.35206412, -0.0],
        [0.0, -0.0, 8.91070407]
      ],
      "pbc": [true, true, true],
      "a": 6.35206412,
      "b": 6.35206412,
      "c": 8.91070407,
      "alpha": 90.0,
      "beta": 90.0,
      "gamma": 90.0,
      "volume": 359.5354909110029
    },
    "properties": {},
    "sites": [
      {
        "species": [{ "element": "Na", "occu": 1 }],
        "abc": [0.5, -0.0, 0.78943609],
        "properties": { "magmom": 0.0 },
        "label": "Na",
        "xyz": [3.17603206, 0.0, 7.034431380167886]
      },
      {
        "species": [{ "element": "Na", "occu": 1 }],
        "abc": [0.0, 0.5, 0.21056391],
        "properties": { "magmom": 0.0 },
        "label": "Na",
        "xyz": [0.0, 3.17603206, 1.8762726898321136]
      },
      {
        "species": [{ "element": "Sn", "occu": 1 }],
        "abc": [0.34263828, 0.8426382800000001, 0.18104485],
        "properties": { "magmom": -0.0 },
        "label": "Sn",
        "xyz": [2.1764603245265137, 5.3524923845265135, 1.6132370817475394]
      },
      {
        "species": [{ "element": "Sn", "occu": 1 }],
        "abc": [0.8426382800000001, 0.65736172, 0.81895515],
        "properties": { "magmom": -0.0 },
        "label": "Sn",
        "xyz": [5.3524923845265135, 4.175603795473487, 7.297466988252459]
      },
      {
        "species": [{ "element": "Sn", "occu": 1 }],
        "abc": [0.15736172, 0.34263828, 0.81895515],
        "properties": { "magmom": -0.0 },
        "label": "Sn",
        "xyz": [0.9995717354734864, 2.1764603245265137, 7.297466988252459]
      },
      {
        "species": [{ "element": "Sn", "occu": 1 }],
        "abc": [0.65736172, 0.15736172, 0.18104485],
        "properties": { "magmom": -0.0 },
        "label": "Sn",
        "xyz": [4.175603795473487, 0.9995717354734864, 1.6132370817475394]
      },
      {
        "species": [{ "element": "Sn", "occu": 1 }],
        "abc": [0.25519809, 0.75519809, 0.49538045],
        "properties": { "magmom": -0.0 },
        "label": "Sn",
        "xyz": [1.6210346309815307, 4.797066690981531, 4.414188592013431]
      },
      {
        "species": [{ "element": "Sn", "occu": 1 }],
        "abc": [0.75519809, 0.7448019100000001, 0.50461955],
        "properties": { "magmom": -0.0 },
        "label": "Sn",
        "xyz": [4.797066690981531, 4.73102948901847, 4.496515477986568]
      },
      {
        "species": [{ "element": "Sn", "occu": 1 }],
        "abc": [0.24480191, 0.25519809, 0.50461955],
        "properties": { "magmom": -0.0 },
        "label": "Sn",
        "xyz": [1.5549974290184692, 1.6210346309815307, 4.496515477986568]
      },
      {
        "species": [{ "element": "Sn", "occu": 1 }],
        "abc": [0.7448019100000001, 0.24480191, 0.49538045],
        "properties": { "magmom": -0.0 },
        "label": "Sn",
        "xyz": [4.73102948901847, 1.5549974290184692, 4.414188592013431]
      },
      {
        "species": [{ "element": "Sn", "occu": 1 }],
        "abc": [0.5, 0.5, 0.0],
        "properties": { "magmom": -0.0 },
        "label": "Sn",
        "xyz": [3.17603206, 3.17603206, 0.0]
      },
      {
        "species": [{ "element": "Sn", "occu": 1 }],
        "abc": [0.0, -0.0, 0.0],
        "properties": { "magmom": -0.0 },
        "label": "Sn",
        "xyz": [0.0, 0.0, 0.0]
      }
    ]
  },
  "task_ids": null,
  "uncorrected_energy_per_atom": null,
  "energy_per_atom": -21.28777552,
  "formation_energy_per_atom": -0.071925608333332,
  "energy_above_hull": 0.022532833333333002,
  "is_stable": false,
  "equilibrium_reaction_energy_per_atom": null,
  "decomposes_to": null,
  "xas": null,
  "grain_boundaries": null,
  "band_gap": 0.0,
  "cbm": null,
  "vbm": null,
  "efermi": 5.84827038,
  "is_gap_direct": null,
  "is_metal": null,
  "es_source_calc_id": null,
  "bandstructure": null,
  "dos": null,
  "dos_energy_up": null,
  "dos_energy_down": null,
  "is_magnetic": null,
  "ordering": null,
  "total_magnetization": 1e-7,
  "total_magnetization_normalized_vol": null,
  "total_magnetization_normalized_formula_units": null,
  "num_magnetic_sites": null,
  "num_unique_magnetic_sites": null,
  "types_of_magnetic_species": null,
  "bulk_modulus": null,
  "shear_modulus": null,
  "universal_anisotropy": null,
  "homogeneous_poisson": null,
  "e_total": null,
  "e_ionic": null,
  "e_electronic": null,
  "n": null,
  "e_ij_max": null,
  "weighted_surface_energy_EV_PER_ANG2": null,
  "weighted_surface_energy": null,
  "weighted_work_function": null,
  "surface_anisotropy": null,
  "shape_factor": null,
  "has_reconstructed": null,
  "possible_species": null,
  "has_props": null,
  "theoretical": null,
  "database_IDs": null,
  "fields_not_requested": [
    "builder_meta",
    "nsites",
    "elements",
    "nelements",
    "composition",
    "composition_reduced",
    "chemsys",
    "symmetry",
    "property_name",
    "deprecated",
    "deprecation_reasons",
    "last_updated",
    "origins",
    "warnings",
    "task_ids",
    "uncorrected_energy_per_atom",
    "equilibrium_reaction_energy_per_atom",
    "decomposes_to",
    "xas",
    "grain_boundaries",
    "cbm",
    "vbm",
    "is_gap_direct",
    "is_metal",
    "es_source_calc_id",
    "bandstructure",
    "dos",
    "dos_energy_up",
    "dos_energy_down",
    "is_magnetic",
    "ordering",
    "total_magnetization_normalized_vol",
    "total_magnetization_normalized_formula_units",
    "num_magnetic_sites",
    "num_unique_magnetic_sites",
    "types_of_magnetic_species",
    "bulk_modulus",
    "shear_modulus",
    "universal_anisotropy",
    "homogeneous_poisson",
    "e_total",
    "e_ionic",
    "e_electronic",
    "n",
    "e_ij_max",
    "weighted_surface_energy_EV_PER_ANG2",
    "weighted_surface_energy",
    "weighted_work_function",
    "surface_anisotropy",
    "shape_factor",
    "has_reconstructed",
    "possible_species",
    "has_props",
    "theoretical",
    "database_IDs"
  ]
}
