{
  "builder_meta": null,
  "nsites": null,
  "elements": null,
  "nelements": null,
  "composition": null,
  "composition_reduced": null,
  "formula_pretty": "NaSn",
  "formula_anonymous": "AB",
  "chemsys": null,
  "volume": 946.2322969677579,
  "density": 3.978693238379946,
  "density_atomic": 29.569759280242433,
  "symmetry": null,
  "property_name": null,
  "material_id": "mp-11051",
  "deprecated": null,
  "deprecation_reasons": null,
  "last_updated": null,
  "origins": null,
  "warnings": null,
  "structure": {
    "@module": "pymatgen.core.structure",
    "@class": "Structure",
    "charge": 0,
    "lattice": {
      "matrix": [
        [9.268241, -0.0, -4.77779005],
        [-2.46295717, 8.93499511, -4.77779005],
        [0.01431736, 0.01879867, 11.40620929]
      ],
      "pbc": [true, true, true],
      "a": 10.427251267518205,
      "b": 10.427251478642745,
      "c": 11.40623376685194,
      "alpha": 117.19920002037647,
      "beta": 117.19920399475465,
      "gamma": 90.00000150836708,
      "volume": 946.2322969677579
    },
    "properties": {},
    "sites": [
      {
        "species": [{ "element": "Na", "occu": 1 }],
        "abc": [0.12606122, 0.25, 0.5],
        "properties": { "magmom": 0.0 },
        "label": "Na",
        "xyz": [0.55978515521402, 2.2431481124999997, 3.906363089893139]
      },
      {
        "species": [{ "element": "Na", "occu": 1 }],
        "abc": [0.75, 0.12606122, 0.0],
        "properties": { "magmom": 0.0 },
        "label": "Na",
        "xyz": [6.640697364342053, 1.1263563842606341, -4.185636580106861]
      },
      {
        "species": [{ "element": "Na", "occu": 1 }],
        "abc": [0.25, 0.37393878, -0.0],
        "properties": { "magmom": 0.0 },
        "label": "Na",
        "xyz": [1.3960650506579473, 3.3411411707393657, -2.9810484948931393]
      },
      {
        "species": [{ "element": "Na", "occu": 1 }],
        "abc": [0.37393878, 0.75, 0.5],
        "properties": { "magmom": 0.0 },
        "label": "Na",
        "xyz": [1.6256955347859803, 6.7106456675, 0.33316112510686047]
      },
      {
        "species": [{ "element": "Na", "occu": 1 }],
        "abc": [0.87393878, 0.75, 0.5],
        "properties": { "magmom": 0.0 },
        "label": "Na",
        "xyz": [6.259816034785979, 6.7106456675, -2.0557338998931396]
      },
      {
        "species": [{ "element": "Na", "occu": 1 }],
        "abc": [0.25, 0.87393878, -0.0],
        "properties": { "magmom": 0.0 },
        "label": "Na",
        "xyz": [0.1645864656579472, 7.808638725739366, -5.369943519893139]
      },
      {
        "species": [{ "element": "Na", "occu": 1 }],
        "abc": [0.75, 0.62606122, 0.0],
        "properties": { "magmom": 0.0 },
        "label": "Na",
        "xyz": [5.409218779342052, 5.593853939260633, -6.574531605106861]
      },
      {
        "species": [{ "element": "Na", "occu": 1 }],
        "abc": [0.62606122, 0.25, 0.5],
        "properties": { "magmom": 0.0 },
        "label": "Na",
        "xyz": [5.19390565521402, 2.2431481124999997, 1.517468064893139]
      },
      {
        "species": [{ "element": "Na", "occu": 1 }],
        "abc": [0.496661099999999, 0.7466611, 0.25],
        "properties": { "magmom": -0.0 },
        "label": "Na",
        "xyz": [2.767759800320004, 6.67611294482722, -3.0887801136041055]
      },
      {
        "species": [{ "element": "Na", "occu": 1 }],
        "abc": [0.003338899999999, 0.496661099999999, 0.75],
        "properties": { "magmom": -0.0 },
        "label": "Na",
        "xyz": [-1.181571267430194, 4.4517635023272115, 6.1657619425000085]
      },
      {
        "species": [{ "element": "Na", "occu": 1 }],
        "abc": [0.7466611, 0.753338899999999, 0.75],
        "properties": { "magmom": -0.0 },
        "label": "Na",
        "xyz": [5.0755315949301885, 6.74517839017277, 1.3879718925000049]
      },
      {
        "species": [{ "element": "Na", "occu": 1 }],
        "abc": [0.753338899999999, 0.003338899999999, 0.25],
        "properties": { "magmom": -0.0 },
        "label": "Na",
        "xyz": [6.97748225217998, 0.034532722672770064, -0.7636953413958807]
      },
      {
        "species": [{ "element": "Na", "occu": 1 }],
        "abc": [0.503338899999999, 0.2533389, 0.75],
        "properties": { "magmom": -0.0 },
        "label": "Na",
        "xyz": [4.051841389679978, 2.2776808351727786, 4.939409303604115]
      },
      {
        "species": [{ "element": "Na", "occu": 1 }],
        "abc": [0.9966611, 0.503338899999999, 0.25],
        "properties": { "magmom": -0.0 },
        "label": "Na",
        "xyz": [8.001172457430188, 4.50203027767277, -4.315132752499995]
      },
      {
        "species": [{ "element": "Na", "occu": 1 }],
        "abc": [0.2533389, 0.2466611, 0.25],
        "properties": { "magmom": -0.0 },
        "label": "Na",
        "xyz": [1.7440695950698126, 2.2086153898272207, 0.46265729749999984]
      },
      {
        "species": [{ "element": "Na", "occu": 1 }],
        "abc": [0.2466611, 0.9966611, 0.75],
        "properties": { "magmom": -0.0 },
        "label": "Na",
        "xyz": [-0.15788106217998735, 8.919261057327219, 2.6143245313958907]
      },
      {
        "species": [{ "element": "Sn", "occu": 1 }],
        "abc": [0.00521573, 0.06037803, 0.87163239],
        "properties": { "magmom": -0.0 },
        "label": "Sn",
        "xyz": [-0.08788838455275472, 0.5558629324623545, 9.628628250412815]
      },
      {
        "species": [{ "element": "Sn", "occu": 1 }],
        "abc": [0.31125536, 0.00521573, 0.37163239000000003],
        "properties": { "magmom": -0.0 },
        "label": "Sn",
        "xyz": [2.877264364136766, 0.05358871670600159, 2.726884394368249]
      },
      {
        "species": [{ "element": "Sn", "occu": 1 }],
        "abc": [0.06037803, 0.8664166600000001, 0.37163239000000003],
        "properties": { "magmom": -0.0 },
        "label": "Sn",
        "xyz": [-1.5690281970939322, 7.7484148149834535, -0.1891136289919313]
      },
      {
        "species": [{ "element": "Sn", "occu": 1 }],
        "abc": [0.63358334, 0.43962197000000003, 0.12836761],
        "properties": { "magmom": -0.0 },
        "label": "Sn",
        "xyz": [4.791270890888625, 3.9304332925376455, -3.6633618260080696]
      },
      {
        "species": [{ "element": "Sn", "occu": 1 }],
        "abc": [0.49478427, 0.18874464, 0.12836761],
        "properties": { "magmom": -0.0 },
        "label": "Sn",
        "xyz": [4.122747778266711, 1.688845575777789, -1.8015697993682487]
      },
      {
        "species": [{ "element": "Sn", "occu": 1 }],
        "abc": [0.18874464, 0.63358334, 0.62836761],
        "properties": { "magmom": -0.0 },
        "label": "Sn",
        "xyz": [0.1978387462174015, 5.672876520016546, 3.238382030036497]
      },
      {
        "species": [{ "element": "Sn", "occu": 1 }],
        "abc": [0.43962197000000003, 0.49478427, 0.62836761],
        "properties": { "magmom": -0.0 },
        "label": "Sn",
        "xyz": [2.864886466739764, 4.432707508293998, 2.7028956345871835]
      },
      {
        "species": [{ "element": "Sn", "occu": 1 }],
        "abc": [0.8664166600000001, 0.31125536, 0.87163239],
        "properties": { "magmom": -0.0 },
        "label": "Sn",
        "xyz": [7.276029265397419, 2.7974506492222107, 4.315351804963501]
      },
      {
        "species": [{ "element": "Sn", "occu": 1 }],
        "abc": [0.99478427, 0.93962197, 0.12836761],
        "properties": { "magmom": -0.0 },
        "label": "Sn",
        "xyz": [6.907489574552755, 8.397930847537644, -7.777999060412814]
      },
      {
        "species": [{ "element": "Sn", "occu": 1 }],
        "abc": [0.68874464, 0.99478427, 0.62836761],
        "properties": { "magmom": -0.0 },
        "label": "Sn",
        "xyz": [3.942336825863233, 8.900205063293999, -0.8762552043682499]
      },
      {
        "species": [{ "element": "Sn", "occu": 1 }],
        "abc": [0.93962197, 0.13358334, 0.62836761],
        "properties": { "magmom": -0.0 },
        "label": "Sn",
        "xyz": [8.388629387093932, 1.2053789650165458, 2.0397428189919307]
      },
      {
        "species": [{ "element": "Sn", "occu": 1 }],
        "abc": [0.36641666, 0.56037803, 0.87163239],
        "properties": { "magmom": -0.0 },
        "label": "Sn",
        "xyz": [2.0283302991113756, 5.023360487462353, 5.513991016008068]
      },
      {
        "species": [{ "element": "Sn", "occu": 1 }],
        "abc": [0.50521573, 0.81125536, 0.87163239],
        "properties": { "magmom": -0.0 },
        "label": "Sn",
        "xyz": [2.6968534117332887, 7.264948204222209, 3.652198989368248]
      },
      {
        "species": [{ "element": "Sn", "occu": 1 }],
        "abc": [0.81125536, 0.36641666, 0.37163239000000003],
        "properties": { "magmom": -0.0 },
        "label": "Sn",
        "xyz": [6.621762443782598, 3.2809172599834535, -1.3877528400364971]
      },
      {
        "species": [{ "element": "Sn", "occu": 1 }],
        "abc": [0.56037803, 0.50521573, 0.37163239000000003],
        "properties": { "magmom": -0.0 },
        "label": "Sn",
        "xyz": [3.9547147232602353, 4.521086271706001, -0.8522664445871841]
      },
      {
        "species": [{ "element": "Sn", "occu": 1 }],
        "abc": [0.13358334, 0.68874464, 0.12836761],
        "properties": { "magmom": -0.0 },
        "label": "Sn",
        "xyz": [-0.45642807539741953, 6.156343130777789, -2.4647226149635024]
      }
    ]
  },
  "task_ids": null,
  "uncorrected_energy_per_atom": null,
  "energy_per_atom": -14.420799985624999,
  "formation_energy_per_atom": -0.265617810625,
  "energy_above_hull": 0.0,
  "is_stable": true,
  "equilibrium_reaction_energy_per_atom": null,
  "decomposes_to": null,
  "xas": null,
  "grain_boundaries": null,
  "band_gap": 0.34289999999999904,
  "cbm": null,
  "vbm": null,
  "efermi": 3.82085077,
  "is_gap_direct": null,
  "is_metal": null,
  "es_source_calc_id": null,
  "bandstructure": null,
  "dos": null,
  "dos_energy_up": null,
  "dos_energy_down": null,
  "is_magnetic": null,
  "ordering": null,
  "total_magnetization": 0.0,
  "total_magnetization_normalized_vol": null,
  "total_magnetization_normalized_formula_units": null,
  "num_magnetic_sites": null,
  "num_unique_magnetic_sites": null,
  "types_of_magnetic_species": null,
  "bulk_modulus": null,
  "shear_modulus": null,
  "universal_anisotropy": null,
  "homogeneous_poisson": null,
  "e_total": null,
  "e_ionic": null,
  "e_electronic": null,
  "n": null,
  "e_ij_max": null,
  "weighted_surface_energy_EV_PER_ANG2": null,
  "weighted_surface_energy": null,
  "weighted_work_function": null,
  "surface_anisotropy": null,
  "shape_factor": null,
  "has_reconstructed": null,
  "possible_species": null,
  "has_props": null,
  "theoretical": null,
  "database_IDs": null,
  "fields_not_requested": [
    "builder_meta",
    "nsites",
    "elements",
    "nelements",
    "composition",
    "composition_reduced",
    "chemsys",
    "symmetry",
    "property_name",
    "deprecated",
    "deprecation_reasons",
    "last_updated",
    "origins",
    "warnings",
    "task_ids",
    "uncorrected_energy_per_atom",
    "equilibrium_reaction_energy_per_atom",
    "decomposes_to",
    "xas",
    "grain_boundaries",
    "cbm",
    "vbm",
    "is_gap_direct",
    "is_metal",
    "es_source_calc_id",
    "bandstructure",
    "dos",
    "dos_energy_up",
    "dos_energy_down",
    "is_magnetic",
    "ordering",
    "total_magnetization_normalized_vol",
    "total_magnetization_normalized_formula_units",
    "num_magnetic_sites",
    "num_unique_magnetic_sites",
    "types_of_magnetic_species",
    "bulk_modulus",
    "shear_modulus",
    "universal_anisotropy",
    "homogeneous_poisson",
    "e_total",
    "e_ionic",
    "e_electronic",
    "n",
    "e_ij_max",
    "weighted_surface_energy_EV_PER_ANG2",
    "weighted_surface_energy",
    "weighted_work_function",
    "surface_anisotropy",
    "shape_factor",
    "has_reconstructed",
    "possible_species",
    "has_props",
    "theoretical",
    "database_IDs"
  ]
}
