{"builder_meta": null, "nsites": null, "elements": null, "nelements": null, "composition": null, "composition_reduced": null, "formula_pretty": "NaSr3", "formula_anonymous": "AB3", "chemsys": null, "volume": 422.85211505674056, "density": 2.245062480079323, "density_atomic": 52.85651438209257, "symmetry": null, "property_name": null, "material_id": "mp-1186184", "deprecated": null, "deprecation_reasons": null, "last_updated": null, "origins": null, "warnings": null, "structure": {"@module": "pymatgen.core.structure", "@class": "Structure", "charge": 0, "lattice": {"matrix": [[4.19984235, -7.27434193, -0.0], [4.19984235, 7.27434193, 0.0], [0.0, -0.0, 6.92040979]], "pbc": [true, true, true], "a": 8.39968608219436, "b": 8.39968608219436, "c": 6.92040979, "alpha": 90.0, "beta": 90.0, "gamma": 120.00001088674499, "volume": 422.85211505674056}, "properties": {}, "sites": [{"species": [{"element": "Na", "occu": 1}], "abc": [0.333333, 0.666667, 0.75], "properties": {"magmom": 0.004}, "label": "Na", "xyz": [4.19984235, 2.4247854928946206, 5.1903073425]}, {"species": [{"element": "Na", "occu": 1}], "abc": [0.666667, 0.333333, 0.25], "properties": {"magmom": 0.004}, "label": "Na", "xyz": [4.19984235, -2.4247854928946206, 1.7301024475]}, {"species": [{"element": "Sr", "occu": 1}], "abc": [0.16766597, 0.8323340300000001, 0.25], "properties": {"magmom": -0.012}, "label": "Sr", "xyz": [4.19984235, 4.835022738389757, 1.7301024475]}, {"species": [{"element": "Sr", "occu": 1}], "abc": [0.8323340300000001, 0.66466806, 0.75], "properties": {"magmom": -0.012}, "label": "Sr", "xyz": [6.287172775620512, -1.2196595958051226, 5.1903073425]}, {"species": [{"element": "Sr", "occu": 1}], "abc": [0.33533194, 0.16766597, 0.75], "properties": {"magmom": -0.012}, "label": "Sr", "xyz": [2.112511924379488, -1.2196595958051222, 5.1903073425]}, {"species": [{"element": "Sr", "occu": 1}], "abc": [0.8323340300000001, 0.16766597, 0.75], "properties": {"magmom": -0.012}, "label": "Sr", "xyz": [4.19984235, -4.835022738389757, 5.1903073425]}, {"species": [{"element": "Sr", "occu": 1}], "abc": [0.16766597, 0.33533194, 0.25], "properties": {"magmom": -0.012}, "label": "Sr", "xyz": [2.112511924379488, 1.2196595958051222, 1.7301024475]}, {"species": [{"element": "Sr", "occu": 1}], "abc": [0.66466806, 0.8323340300000001, 0.25], "properties": {"magmom": -0.012}, "label": "Sr", "xyz": [6.287172775620512, 1.2196595958051226, 1.7301024475]}]}, "task_ids": null, "uncorrected_energy_per_atom": null, "energy_per_atom": -12.18114516125, "formation_energy_per_atom": 0.06914578374999701, "energy_above_hull": 0.06914578374999701, "is_stable": false, "equilibrium_reaction_energy_per_atom": null, "decomposes_to": null, "xas": null, "grain_boundaries": null, "band_gap": 0.0, "cbm": null, "vbm": null, "efermi": 1.259291339999999, "is_gap_direct": null, "is_metal": null, "es_source_calc_id": null, "bandstructure": null, "dos": null, "dos_energy_up": null, "dos_energy_down": null, "is_magnetic": null, "ordering": null, "total_magnetization": 0.6768174, "total_magnetization_normalized_vol": null, "total_magnetization_normalized_formula_units": null, "num_magnetic_sites": null, "num_unique_magnetic_sites": null, "types_of_magnetic_species": null, "bulk_modulus": null, "shear_modulus": null, "universal_anisotropy": null, "homogeneous_poisson": null, "e_total": null, "e_ionic": null, "e_electronic": null, "n": null, "e_ij_max": null, "weighted_surface_energy_EV_PER_ANG2": null, "weighted_surface_energy": null, "weighted_work_function": null, "surface_anisotropy": null, "shape_factor": null, "has_reconstructed": null, "possible_species": null, "has_props": null, "theoretical": null, "database_IDs": null, "fields_not_requested": ["builder_meta", "nsites", "elements", "nelements", "composition", "composition_reduced", "chemsys", "symmetry", "property_name", "deprecated", "deprecation_reasons", "last_updated", "origins", "warnings", "task_ids", "uncorrected_energy_per_atom", "equilibrium_reaction_energy_per_atom", "decomposes_to", "xas", "grain_boundaries", "cbm", "vbm", "is_gap_direct", "is_metal", "es_source_calc_id", "bandstructure", "dos", "dos_energy_up", "dos_energy_down", "is_magnetic", "ordering", "total_magnetization_normalized_vol", "total_magnetization_normalized_formula_units", "num_magnetic_sites", "num_unique_magnetic_sites", "types_of_magnetic_species", "bulk_modulus", "shear_modulus", "universal_anisotropy", "homogeneous_poisson", "e_total", "e_ionic", "e_electronic", "n", "e_ij_max", "weighted_surface_energy_EV_PER_ANG2", "weighted_surface_energy", "weighted_work_function", "surface_anisotropy", "shape_factor", "has_reconstructed", "possible_species", "has_props", "theoretical", "database_IDs"]}