{
  "builder_meta": null,
  "nsites": null,
  "elements": null,
  "nelements": null,
  "composition": null,
  "composition_reduced": null,
  "formula_pretty": "NaTb3",
  "formula_anonymous": "AB3",
  "chemsys": null,
  "volume": 261.24154678368785,
  "density": 6.353359006505577,
  "density_atomic": 32.65519334796098,
  "symmetry": null,
  "property_name": null,
  "material_id": "mp-1186186",
  "deprecated": null,
  "deprecation_reasons": null,
  "last_updated": null,
  "origins": null,
  "warnings": null,
  "structure": {
    "@module": "pymatgen.core.structure",
    "@class": "Structure",
    "charge": 0,
    "lattice": {
      "matrix": [
        [3.615078999999999, -6.261501, 0.0],
        [3.615078999999999, 6.261501, 0.0],
        [0.0, 0.0, 5.770534]
      ],
      "pbc": [true, true, true],
      "a": 7.23015843182167,
      "b": 7.23015843182167,
      "c": 5.770534,
      "alpha": 90.0,
      "beta": 90.0,
      "gamma": 120.00000395137836,
      "volume": 261.24154678368774
    },
    "properties": {},
    "sites": [
      {
        "species": [{ "element": "Na", "occu": 1 }],
        "abc": [0.333333, 0.666667, 0.75],
        "properties": { "magmom": 0.007 },
        "label": "Na",
        "xyz": [3.615078999999999, 2.0871711743340002, 4.3279005]
      },
      {
        "species": [{ "element": "Na", "occu": 1 }],
        "abc": [0.666667, 0.333333, 0.25],
        "properties": { "magmom": 0.007 },
        "label": "Na",
        "xyz": [3.615078999999999, -2.0871711743340002, 1.4426335]
      },
      {
        "species": [{ "element": "Tb", "occu": 1 }],
        "abc": [0.328187, 0.164094, 0.75],
        "properties": { "magmom": 0.323 },
        "label": "Tb",
        "xyz": [1.7796347051989994, -1.0274684835930004, 4.3279005]
      },
      {
        "species": [{ "element": "Tb", "occu": 1 }],
        "abc": [0.835905999999999, 0.164094, 0.75],
        "properties": { "magmom": 0.326 },
        "label": "Tb",
        "xyz": [3.6150789999999953, -4.2065515098119945, 4.3279005]
      },
      {
        "species": [{ "element": "Tb", "occu": 1 }],
        "abc": [0.164094, 0.835905999999999, 0.25],
        "properties": { "magmom": 0.326 },
        "label": "Tb",
        "xyz": [3.6150789999999953, 4.2065515098119945, 1.4426335]
      },
      {
        "species": [{ "element": "Tb", "occu": 1 }],
        "abc": [0.835905999999999, 0.671813, 0.75],
        "properties": { "magmom": 0.323 },
        "label": "Tb",
        "xyz": [5.450523294800995, -1.027468483592994, 4.3279005]
      },
      {
        "species": [{ "element": "Tb", "occu": 1 }],
        "abc": [0.164094, 0.328187, 0.25],
        "properties": { "magmom": 0.323 },
        "label": "Tb",
        "xyz": [1.7796347051989994, 1.0274684835930004, 1.4426335]
      },
      {
        "species": [{ "element": "Tb", "occu": 1 }],
        "abc": [0.671813, 0.835905999999999, 0.25],
        "properties": { "magmom": 0.323 },
        "label": "Tb",
        "xyz": [5.450523294800995, 1.027468483592994, 1.4426335]
      }
    ]
  },
  "task_ids": null,
  "uncorrected_energy_per_atom": null,
  "energy_per_atom": -24.007532004137932,
  "formation_energy_per_atom": 0.303338750862067,
  "energy_above_hull": 0.303338750862067,
  "is_stable": false,
  "equilibrium_reaction_energy_per_atom": null,
  "decomposes_to": null,
  "xas": null,
  "grain_boundaries": null,
  "band_gap": 0.0,
  "cbm": null,
  "vbm": null,
  "efermi": 2.55993147,
  "is_gap_direct": null,
  "is_metal": null,
  "es_source_calc_id": null,
  "bandstructure": null,
  "dos": null,
  "dos_energy_up": null,
  "dos_energy_down": null,
  "is_magnetic": null,
  "ordering": null,
  "total_magnetization": 3.0340146,
  "total_magnetization_normalized_vol": null,
  "total_magnetization_normalized_formula_units": null,
  "num_magnetic_sites": null,
  "num_unique_magnetic_sites": null,
  "types_of_magnetic_species": null,
  "bulk_modulus": null,
  "shear_modulus": null,
  "universal_anisotropy": null,
  "homogeneous_poisson": null,
  "e_total": null,
  "e_ionic": null,
  "e_electronic": null,
  "n": null,
  "e_ij_max": null,
  "weighted_surface_energy_EV_PER_ANG2": null,
  "weighted_surface_energy": null,
  "weighted_work_function": null,
  "surface_anisotropy": null,
  "shape_factor": null,
  "has_reconstructed": null,
  "possible_species": null,
  "has_props": null,
  "theoretical": null,
  "database_IDs": null,
  "fields_not_requested": [
    "builder_meta",
    "nsites",
    "elements",
    "nelements",
    "composition",
    "composition_reduced",
    "chemsys",
    "symmetry",
    "property_name",
    "deprecated",
    "deprecation_reasons",
    "last_updated",
    "origins",
    "warnings",
    "task_ids",
    "uncorrected_energy_per_atom",
    "equilibrium_reaction_energy_per_atom",
    "decomposes_to",
    "xas",
    "grain_boundaries",
    "cbm",
    "vbm",
    "is_gap_direct",
    "is_metal",
    "es_source_calc_id",
    "bandstructure",
    "dos",
    "dos_energy_up",
    "dos_energy_down",
    "is_magnetic",
    "ordering",
    "total_magnetization_normalized_vol",
    "total_magnetization_normalized_formula_units",
    "num_magnetic_sites",
    "num_unique_magnetic_sites",
    "types_of_magnetic_species",
    "bulk_modulus",
    "shear_modulus",
    "universal_anisotropy",
    "homogeneous_poisson",
    "e_total",
    "e_ionic",
    "e_electronic",
    "n",
    "e_ij_max",
    "weighted_surface_energy_EV_PER_ANG2",
    "weighted_surface_energy",
    "weighted_work_function",
    "surface_anisotropy",
    "shape_factor",
    "has_reconstructed",
    "possible_species",
    "has_props",
    "theoretical",
    "database_IDs"
  ]
}
