{
  "builder_meta": null,
  "nsites": null,
  "elements": null,
  "nelements": null,
  "composition": null,
  "composition_reduced": null,
  "formula_pretty": "NaTe3",
  "formula_anonymous": "AB3",
  "chemsys": null,
  "volume": 1583.040369588561,
  "density": 5.107865429037708,
  "density_atomic": 32.980007699761686,
  "symmetry": null,
  "property_name": null,
  "material_id": "mp-28478",
  "deprecated": null,
  "deprecation_reasons": null,
  "last_updated": null,
  "origins": null,
  "warnings": null,
  "structure": {
    "@module": "pymatgen.core.structure",
    "@class": "Structure",
    "charge": 0,
    "lattice": {
      "matrix": [
        [9.08973171, -0.0, -0.0],
        [-4.54486586, 7.87193922, 0.0],
        [-0.0, -0.0, 22.12377296]
      ],
      "pbc": [true, true, true],
      "a": 9.08973171,
      "b": 9.089732271567064,
      "c": 22.12377296,
      "alpha": 90.0,
      "beta": 90.0,
      "gamma": 119.9999979927141,
      "volume": 1583.040369588561
    },
    "properties": {},
    "sites": [
      {
        "species": [{ "element": "Na", "occu": 1 }],
        "abc": [-0.0, 0.0, 0.12368049],
        "properties": { "magmom": 0.0 },
        "label": "Na",
        "xyz": [0.0, 0.0, 2.7362790803415504]
      },
      {
        "species": [{ "element": "Na", "occu": 1 }],
        "abc": [-0.0, 0.0, 0.37631951],
        "properties": { "magmom": 0.0 },
        "label": "Na",
        "xyz": [0.0, 0.0, 8.32560739965845]
      },
      {
        "species": [{ "element": "Na", "occu": 1 }],
        "abc": [-0.0, 0.0, 0.87631951],
        "properties": { "magmom": 0.0 },
        "label": "Na",
        "xyz": [0.0, 0.0, 19.38749387965845]
      },
      {
        "species": [{ "element": "Na", "occu": 1 }],
        "abc": [-0.0, 0.0, 0.62368049],
        "properties": { "magmom": 0.0 },
        "label": "Na",
        "xyz": [0.0, 0.0, 13.798165560341552]
      },
      {
        "species": [{ "element": "Na", "occu": 1 }],
        "abc": [0.333333, 0.666667, 0.95915128],
        "properties": { "magmom": -0.0 },
        "label": "Na",
        "xyz": [-4.548199189713387e-6, 5.24796210397974, 21.22004515301339]
      },
      {
        "species": [{ "element": "Na", "occu": 1 }],
        "abc": [0.666667, 0.333333, 0.5408487200000001],
        "properties": { "magmom": -0.0 },
        "label": "Na",
        "xyz": [4.5448703981991905, 2.62397711602026, 11.965614286986613]
      },
      {
        "species": [{ "element": "Na", "occu": 1 }],
        "abc": [0.666667, 0.333333, 0.04084872],
        "properties": { "magmom": -0.0 },
        "label": "Na",
        "xyz": [4.5448703981991905, 2.62397711602026, 0.9037278069866111]
      },
      {
        "species": [{ "element": "Na", "occu": 1 }],
        "abc": [0.333333, 0.666667, 0.45915128],
        "properties": { "magmom": -0.0 },
        "label": "Na",
        "xyz": [-4.548199189713387e-6, 5.24796210397974, 10.15815867301339]
      },
      {
        "species": [{ "element": "Na", "occu": 1 }],
        "abc": [0.333333, 0.666667, 0.20778032],
        "properties": { "magmom": 0.0 },
        "label": "Na",
        "xyz": [-4.548199189713387e-6, 5.24796210397974, 4.596884625236147]
      },
      {
        "species": [{ "element": "Na", "occu": 1 }],
        "abc": [0.666667, 0.333333, 0.29221968],
        "properties": { "magmom": 0.0 },
        "label": "Na",
        "xyz": [4.5448703981991905, 2.62397711602026, 6.465001854763853]
      },
      {
        "species": [{ "element": "Na", "occu": 1 }],
        "abc": [0.666667, 0.333333, 0.79221968],
        "properties": { "magmom": 0.0 },
        "label": "Na",
        "xyz": [4.5448703981991905, 2.62397711602026, 17.526888334763854]
      },
      {
        "species": [{ "element": "Na", "occu": 1 }],
        "abc": [0.333333, 0.666667, 0.70778032],
        "properties": { "magmom": 0.0 },
        "label": "Na",
        "xyz": [-4.548199189713387e-6, 5.24796210397974, 15.658771105236148]
      },
      {
        "species": [{ "element": "Te", "occu": 1 }],
        "abc": [0.7938269, 0.66289749, 0.20672656],
        "properties": { "magmom": 0.0 },
        "label": "Te",
        "xyz": [4.2028933742003085, 5.218288750370557, 4.573571478241818]
      },
      {
        "species": [{ "element": "Te", "occu": 1 }],
        "abc": [0.33710251, 0.13092941, 0.20672656],
        "properties": { "magmom": 0.0 },
        "label": "Te",
        "xyz": [2.46911476908865, 1.03066835763046, 4.573571478241818]
      },
      {
        "species": [{ "element": "Te", "occu": 1 }],
        "abc": [0.86907059, 0.2061731, 0.20672656],
        "properties": { "magmom": 0.0 },
        "label": "Te",
        "xyz": [6.962589416711044, 1.622982111998982, 4.573571478241818]
      },
      {
        "species": [{ "element": "Te", "occu": 1 }],
        "abc": [0.13092941, 0.33710251, 0.29327344],
        "properties": { "magmom": 0.0 },
        "label": "Te",
        "xyz": [-0.3419724791707175, 2.6536504696294423, 6.488315001758182]
      },
      {
        "species": [{ "element": "Te", "occu": 1 }],
        "abc": [0.2061731, 0.86907059, 0.29327344],
        "properties": { "magmom": 0.0 },
        "label": "Te",
        "xyz": [-2.075751089602056, 6.841270862369539, 6.488315001758182]
      },
      {
        "species": [{ "element": "Te", "occu": 1 }],
        "abc": [0.66289749, 0.7938269, 0.29327344],
        "properties": { "magmom": 0.0 },
        "label": "Te",
        "xyz": [2.417723558772774, 6.248957108001018, 6.488315001758182]
      },
      {
        "species": [{ "element": "Te", "occu": 1 }],
        "abc": [0.2061731, 0.33710251, 0.79327344],
        "properties": { "magmom": 0.0 },
        "label": "Te",
        "xyz": [0.3419724757996925, 2.6536504696294423, 17.550201481758183]
      },
      {
        "species": [{ "element": "Te", "occu": 1 }],
        "abc": [0.66289749, 0.86907059, 0.79327344],
        "properties": { "magmom": 0.0 },
        "label": "Te",
        "xyz": [2.0757510809113504, 6.841270862369539, 17.550201481758183]
      },
      {
        "species": [{ "element": "Te", "occu": 1 }],
        "abc": [0.13092941, 0.7938269, 0.79327344],
        "properties": { "magmom": 0.0 },
        "label": "Te",
        "xyz": [-2.4177235667110426, 6.248957108001018, 17.550201481758183]
      },
      {
        "species": [{ "element": "Te", "occu": 1 }],
        "abc": [0.86907059, 0.66289749, 0.70672656],
        "properties": { "magmom": 0.0 },
        "label": "Te",
        "xyz": [4.886838329170718, 5.218288750370557, 15.635457958241817]
      },
      {
        "species": [{ "element": "Te", "occu": 1 }],
        "abc": [0.7938269, 0.13092941, 0.70672656],
        "properties": { "magmom": 0.0 },
        "label": "Te",
        "xyz": [6.620616939602057, 1.03066835763046, 15.635457958241817]
      },
      {
        "species": [{ "element": "Te", "occu": 1 }],
        "abc": [0.33710251, 0.2061731, 0.70672656],
        "properties": { "magmom": 0.0 },
        "label": "Te",
        "xyz": [2.1271422912272264, 1.622982111998982, 15.635457958241817]
      },
      {
        "species": [{ "element": "Te", "occu": 1 }],
        "abc": [0.6710039, 0.84076556, 0.54053059],
        "properties": { "magmom": -0.0 },
        "label": "Te",
        "xyz": [2.278078737455888, 6.618455386589263, 11.958576051094846]
      },
      {
        "species": [{ "element": "Te", "occu": 1 }],
        "abc": [0.15923444, 0.83023834, 0.54053059],
        "properties": { "magmom": -0.0 },
        "label": "Te",
        "xyz": [-2.32592354853698, 6.535585750593694, 11.958576051094846]
      },
      {
        "species": [{ "element": "Te", "occu": 1 }],
        "abc": [0.16976166, 0.328996099999999, 0.54053059],
        "properties": { "magmom": -0.0 },
        "label": "Te",
        "xyz": [0.047844801081097454, 2.5898373028170343, 11.958576051094846]
      },
      {
        "species": [{ "element": "Te", "occu": 1 }],
        "abc": [0.83023834, 0.15923444, 0.95946941],
        "properties": { "magmom": -0.0 },
        "label": "Te",
        "xyz": [6.822944595863543, 1.2534838334107368, 21.227083388905154]
      },
      {
        "species": [{ "element": "Te", "occu": 1 }],
        "abc": [0.328996099999999, 0.16976166, 0.95946941],
        "properties": { "magmom": -0.0 },
        "label": "Te",
        "xyz": [2.2189423097653944, 1.3363534694063053, 21.227083388905154]
      },
      {
        "species": [{ "element": "Te", "occu": 1 }],
        "abc": [0.84076556, 0.6710039, 0.95946941],
        "properties": { "magmom": -0.0 },
        "label": "Te",
        "xyz": [4.592710654371055, 5.282101917182958, 21.227083388905154]
      },
      {
        "species": [{ "element": "Te", "occu": 1 }],
        "abc": [0.328996099999999, 0.15923444, 0.45946941],
        "properties": { "magmom": -0.0 },
        "label": "Te",
        "xyz": [2.2667871125441037, 1.2534838334107368, 10.165196908905154]
      },
      {
        "species": [{ "element": "Te", "occu": 1 }],
        "abc": [0.84076556, 0.16976166, 0.45946941],
        "properties": { "magmom": -0.0 },
        "label": "Te",
        "xyz": [6.8707893985369815, 1.3363534694063053, 10.165196908905154]
      },
      {
        "species": [{ "element": "Te", "occu": 1 }],
        "abc": [0.83023834, 0.6710039, 0.45946941],
        "properties": { "magmom": -0.0 },
        "label": "Te",
        "xyz": [4.497021048918908, 5.282101917182958, 10.165196908905154]
      },
      {
        "species": [{ "element": "Te", "occu": 1 }],
        "abc": [0.16976166, 0.84076556, 0.04053059],
        "properties": { "magmom": -0.0 },
        "label": "Te",
        "xyz": [-2.2780787458635423, 6.618455386589263, 0.8966895710948464]
      },
      {
        "species": [{ "element": "Te", "occu": 1 }],
        "abc": [0.6710039, 0.83023834, 0.04053059],
        "properties": { "magmom": -0.0 },
        "label": "Te",
        "xyz": [2.3259235402345975, 6.535585750593694, 0.8966895710948464]
      },
      {
        "species": [{ "element": "Te", "occu": 1 }],
        "abc": [0.15923444, 0.328996099999999, 0.04053059],
        "properties": { "magmom": -0.0 },
        "label": "Te",
        "xyz": [-0.04784480437104888, 2.5898373028170343, 0.8966895710948464]
      },
      {
        "species": [{ "element": "Te", "occu": 1 }],
        "abc": [0.00874025, 0.52877955, 0.62147908],
        "properties": { "magmom": -0.0 },
        "label": "Te",
        "xyz": [-2.323785596682835, 4.1625204783789505, 13.749462065309675]
      },
      {
        "species": [{ "element": "Te", "occu": 1 }],
        "abc": [0.47122045, 0.47995971, 0.62147908],
        "properties": { "magmom": -0.0 },
        "label": "Te",
        "xyz": [2.1019149666109698, 3.778213665168826, 13.749462065309675]
      },
      {
        "species": [{ "element": "Te", "occu": 1 }],
        "abc": [0.52004029, 0.99125975, 0.62147908],
        "properties": { "magmom": -0.0 },
        "label": "Te",
        "xyz": [0.22188411832346144, 7.803136503232395, 13.749462065309675]
      },
      {
        "species": [{ "element": "Te", "occu": 1 }],
        "abc": [0.47995971, 0.47122045, 0.87852092],
        "properties": { "magmom": -0.0 },
        "label": "Te",
        "xyz": [2.2210712597705675, 3.709418741621049, 19.436197374690323]
      },
      {
        "species": [{ "element": "Te", "occu": 1 }],
        "abc": [0.99125975, 0.52004029, 0.87852092],
        "properties": { "magmom": -0.0 },
        "label": "Te",
        "xyz": [6.646771822576175, 4.093725554831173, 19.436197374690323]
      },
      {
        "species": [{ "element": "Te", "occu": 1 }],
        "abc": [0.52877955, 0.00874025, 0.87852092],
        "properties": { "magmom": -0.0 },
        "label": "Te",
        "xyz": [4.766740979401665, 0.068802716767605, 19.436197374690323]
      },
      {
        "species": [{ "element": "Te", "occu": 1 }],
        "abc": [0.99125975, 0.47122045, 0.37852092],
        "properties": { "magmom": -0.0 },
        "label": "Te",
        "xyz": [6.868651446682836, 3.709418741621049, 8.374310894690323]
      },
      {
        "species": [{ "element": "Te", "occu": 1 }],
        "abc": [0.52877955, 0.52004029, 0.37852092],
        "properties": { "magmom": -0.0 },
        "label": "Te",
        "xyz": [2.4429508833890314, 4.093725554831173, 8.374310894690323]
      },
      {
        "species": [{ "element": "Te", "occu": 1 }],
        "abc": [0.47995971, 0.00874025, 0.37852092],
        "properties": { "magmom": -0.0 },
        "label": "Te",
        "xyz": [4.322981731676539, 0.068802716767605, 8.374310894690323]
      },
      {
        "species": [{ "element": "Te", "occu": 1 }],
        "abc": [0.52004029, 0.52877955, 0.12147908],
        "properties": { "magmom": -0.0 },
        "label": "Te",
        "xyz": [2.3237945902294332, 4.1625204783789505, 2.687575585309677]
      },
      {
        "species": [{ "element": "Te", "occu": 1 }],
        "abc": [0.00874025, 0.47995971, 0.12147908],
        "properties": { "magmom": -0.0 },
        "label": "Te",
        "xyz": [-2.101905972576173, 3.778213665168826, 2.687575585309677]
      },
      {
        "species": [{ "element": "Te", "occu": 1 }],
        "abc": [0.47122045, 0.99125975, 0.12147908],
        "properties": { "magmom": -0.0 },
        "label": "Te",
        "xyz": [-0.22187512940166432, 7.803136503232395, 2.687575585309677]
      }
    ]
  },
  "task_ids": null,
  "uncorrected_energy_per_atom": null,
  "energy_per_atom": -20.430028077291666,
  "formation_energy_per_atom": -0.47606470229166803,
  "energy_above_hull": 0.0,
  "is_stable": true,
  "equilibrium_reaction_energy_per_atom": null,
  "decomposes_to": null,
  "xas": null,
  "grain_boundaries": null,
  "band_gap": 0.5092,
  "cbm": null,
  "vbm": null,
  "efermi": 4.00844872,
  "is_gap_direct": null,
  "is_metal": null,
  "es_source_calc_id": null,
  "bandstructure": null,
  "dos": null,
  "dos_energy_up": null,
  "dos_energy_down": null,
  "is_magnetic": null,
  "ordering": null,
  "total_magnetization": 1e-7,
  "total_magnetization_normalized_vol": null,
  "total_magnetization_normalized_formula_units": null,
  "num_magnetic_sites": null,
  "num_unique_magnetic_sites": null,
  "types_of_magnetic_species": null,
  "bulk_modulus": null,
  "shear_modulus": null,
  "universal_anisotropy": null,
  "homogeneous_poisson": null,
  "e_total": null,
  "e_ionic": null,
  "e_electronic": null,
  "n": null,
  "e_ij_max": null,
  "weighted_surface_energy_EV_PER_ANG2": null,
  "weighted_surface_energy": null,
  "weighted_work_function": null,
  "surface_anisotropy": null,
  "shape_factor": null,
  "has_reconstructed": null,
  "possible_species": null,
  "has_props": null,
  "theoretical": null,
  "database_IDs": null,
  "fields_not_requested": [
    "builder_meta",
    "nsites",
    "elements",
    "nelements",
    "composition",
    "composition_reduced",
    "chemsys",
    "symmetry",
    "property_name",
    "deprecated",
    "deprecation_reasons",
    "last_updated",
    "origins",
    "warnings",
    "task_ids",
    "uncorrected_energy_per_atom",
    "equilibrium_reaction_energy_per_atom",
    "decomposes_to",
    "xas",
    "grain_boundaries",
    "cbm",
    "vbm",
    "is_gap_direct",
    "is_metal",
    "es_source_calc_id",
    "bandstructure",
    "dos",
    "dos_energy_up",
    "dos_energy_down",
    "is_magnetic",
    "ordering",
    "total_magnetization_normalized_vol",
    "total_magnetization_normalized_formula_units",
    "num_magnetic_sites",
    "num_unique_magnetic_sites",
    "types_of_magnetic_species",
    "bulk_modulus",
    "shear_modulus",
    "universal_anisotropy",
    "homogeneous_poisson",
    "e_total",
    "e_ionic",
    "e_electronic",
    "n",
    "e_ij_max",
    "weighted_surface_energy_EV_PER_ANG2",
    "weighted_surface_energy",
    "weighted_work_function",
    "surface_anisotropy",
    "shape_factor",
    "has_reconstructed",
    "possible_species",
    "has_props",
    "theoretical",
    "database_IDs"
  ]
}
