{"builder_meta": null, "nsites": null, "elements": null, "nelements": null, "composition": null, "composition_reduced": null, "formula_pretty": "NaTi3", "formula_anonymous": "AB3", "chemsys": null, "volume": 155.8357115022294, "density": 3.550283537165094, "density_atomic": 19.479463937778675, "symmetry": null, "property_name": null, "material_id": "mp-1186192", "deprecated": null, "deprecation_reasons": null, "last_updated": null, "origins": null, "warnings": null, "structure": {"@module": "pymatgen.core.structure", "@class": "Structure", "charge": 0, "lattice": {"matrix": [[3.065314, -5.309279, 0.0], [3.065314, 5.309279, 0.0], [0.0, 0.0, 4.787695]], "pbc": [true, true, true], "a": 6.130627489779247, "b": 6.130627489779247, "c": 4.787695, "alpha": 90.0, "beta": 90.0, "gamma": 119.99999449388604, "volume": 155.8357115022294}, "properties": {}, "sites": [{"species": [{"element": "Na", "occu": 1}], "abc": [0.333333, 0.666667, 0.75], "properties": {"magmom": 0.002}, "label": "Na", "xyz": [3.065314, 1.769763206186, 3.5907712500000004]}, {"species": [{"element": "Na", "occu": 1}], "abc": [0.666667, 0.333333, 0.25], "properties": {"magmom": 0.002}, "label": "Na", "xyz": [3.065314, -1.769763206186, 1.19692375]}, {"species": [{"element": "Ti", "occu": 1}], "abc": [0.154286999999999, 0.308573, 0.25], "properties": {"magmom": 0.241}, "label": "Ti", "xyz": [1.4188112380399969, 0.8191474197940052, 1.19692375]}, {"species": [{"element": "Ti", "occu": 1}], "abc": [0.691427, 0.845712999999999, 0.25], "properties": {"magmom": 0.242}, "label": "Ti", "xyz": [4.711816761959997, 0.8191474197939947, 1.19692375]}, {"species": [{"element": "Ti", "occu": 1}], "abc": [0.154286999999999, 0.845712999999999, 0.25], "properties": {"magmom": 0.24}, "label": "Ti", "xyz": [3.0653139999999937, 3.670973541854, 1.19692375]}, {"species": [{"element": "Ti", "occu": 1}], "abc": [0.845712999999999, 0.691427, 0.75], "properties": {"magmom": 0.245}, "label": "Ti", "xyz": [4.711816761959997, -0.8191474197939947, 3.5907712500000004]}, {"species": [{"element": "Ti", "occu": 1}], "abc": [0.308573, 0.154286999999999, 0.75], "properties": {"magmom": 0.245}, "label": "Ti", "xyz": [1.4188112380399969, -0.8191474197940052, 3.5907712500000004]}, {"species": [{"element": "Ti", "occu": 1}], "abc": [0.845712999999999, 0.154286999999999, 0.75], "properties": {"magmom": 0.244}, "label": "Ti", "xyz": [3.0653139999999937, -3.670973541854, 3.5907712500000004]}]}, "task_ids": null, "uncorrected_energy_per_atom": null, "energy_per_atom": -9.925882385387931, "formation_energy_per_atom": 0.668480517112069, "energy_above_hull": 0.668480517112069, "is_stable": false, "equilibrium_reaction_energy_per_atom": null, "decomposes_to": null, "xas": null, "grain_boundaries": null, "band_gap": 0.0, "cbm": null, "vbm": null, "efermi": 4.10403687, "is_gap_direct": null, "is_metal": null, "es_source_calc_id": null, "bandstructure": null, "dos": null, "dos_energy_up": null, "dos_energy_down": null, "is_magnetic": null, "ordering": null, "total_magnetization": 1.974161399999999, "total_magnetization_normalized_vol": null, "total_magnetization_normalized_formula_units": null, "num_magnetic_sites": null, "num_unique_magnetic_sites": null, "types_of_magnetic_species": null, "bulk_modulus": null, "shear_modulus": null, "universal_anisotropy": null, "homogeneous_poisson": null, "e_total": null, "e_ionic": null, "e_electronic": null, "n": null, "e_ij_max": null, "weighted_surface_energy_EV_PER_ANG2": null, "weighted_surface_energy": null, "weighted_work_function": null, "surface_anisotropy": null, "shape_factor": null, "has_reconstructed": null, "possible_species": null, "has_props": null, "theoretical": null, "database_IDs": null, "fields_not_requested": ["builder_meta", "nsites", "elements", "nelements", "composition", "composition_reduced", "chemsys", "symmetry", "property_name", "deprecated", "deprecation_reasons", "last_updated", "origins", "warnings", "task_ids", "uncorrected_energy_per_atom", "equilibrium_reaction_energy_per_atom", "decomposes_to", "xas", "grain_boundaries", "cbm", "vbm", "is_gap_direct", "is_metal", "es_source_calc_id", "bandstructure", "dos", "dos_energy_up", "dos_energy_down", "is_magnetic", "ordering", "total_magnetization_normalized_vol", "total_magnetization_normalized_formula_units", "num_magnetic_sites", "num_unique_magnetic_sites", "types_of_magnetic_species", "bulk_modulus", "shear_modulus", "universal_anisotropy", "homogeneous_poisson", "e_total", "e_ionic", "e_electronic", "n", "e_ij_max", "weighted_surface_energy_EV_PER_ANG2", "weighted_surface_energy", "weighted_work_function", "surface_anisotropy", "shape_factor", "has_reconstructed", "possible_species", "has_props", "theoretical", "database_IDs"]}