{"builder_meta": null, "nsites": null, "elements": null, "nelements": null, "composition": null, "composition_reduced": null, "formula_pretty": "NaYb3", "formula_anonymous": "AB3", "chemsys": null, "volume": 247.08001802143997, "density": 7.286663304329528, "density_atomic": 30.885002252679996, "symmetry": null, "property_name": null, "material_id": "mp-1186204", "deprecated": null, "deprecation_reasons": null, "last_updated": null, "origins": null, "warnings": null, "structure": {"@module": "pymatgen.core.structure", "@class": "Structure", "charge": 0.0, "lattice": {"matrix": [[3.520409643671819, -6.097528696534797, 0.0], [3.520409643671819, 6.097528696534797, 0.0], [-0.0, 0.0, 5.755202031520328]], "pbc": [true, true, true], "a": 7.04081957333966, "b": 7.04081957333966, "c": 5.755202031520328, "alpha": 90.0, "beta": 90.0, "gamma": 120.00000268737811, "volume": 247.08001802143983}, "properties": {}, "sites": [{"species": [{"element": "Na", "occu": 1}], "abc": [0.33333300000000304, 0.666666999999996, 0.75], "properties": {"magmom": 0.014}, "label": "Na", "xyz": [3.5204096436718153, 2.032513630530687, 4.316401523640247]}, {"species": [{"element": "Na", "occu": 1}], "abc": [0.666666999999996, 0.33333300000000304, 0.25], "properties": {"magmom": 0.014}, "label": "Na", "xyz": [3.5204096436718153, -2.032513630530687, 1.438800507880082]}, {"species": [{"element": "Yb", "occu": 1}], "abc": [0.673114095122315, 0.836556547557158, 0.25], "properties": {"magmom": 0.586}, "label": "Yb", "xyz": [5.3146590892570496, 0.9965950439534792, 1.438800507880082]}, {"species": [{"element": "Yb", "occu": 1}], "abc": [0.163443452434854, 0.8365565475651451, 0.25], "properties": {"magmom": 0.586}, "label": "Yb", "xyz": [3.5204096436718153, 4.104326413570306, 1.438800507880082]}, {"species": [{"element": "Yb", "occu": 1}], "abc": [0.836556547557158, 0.673114095122315, 0.75], "properties": {"magmom": 0.586}, "label": "Yb", "xyz": [5.3146590892570496, -0.9965950439534792, 4.316401523640247]}, {"species": [{"element": "Yb", "occu": 1}], "abc": [0.32688590487768404, 0.163443452442841, 0.75], "properties": {"magmom": 0.586}, "label": "Yb", "xyz": [1.7261601980865815, -0.996595043953479, 4.316401523640247]}, {"species": [{"element": "Yb", "occu": 1}], "abc": [0.8365565475651451, 0.163443452434854, 0.75], "properties": {"magmom": 0.586}, "label": "Yb", "xyz": [3.5204096436718153, -4.104326413570306, 4.316401523640247]}, {"species": [{"element": "Yb", "occu": 1}], "abc": [0.163443452442841, 0.32688590487768404, 0.25], "properties": {"magmom": 0.586}, "label": "Yb", "xyz": [1.7261601980865815, 0.996595043953479, 1.438800507880082]}]}, "task_ids": null, "uncorrected_energy_per_atom": null, "energy_per_atom": -27.9768241125, "formation_energy_per_atom": 0.311255118749997, "energy_above_hull": 0.311255118749997, "is_stable": false, "equilibrium_reaction_energy_per_atom": null, "decomposes_to": null, "xas": null, "grain_boundaries": null, "band_gap": 0.0, "cbm": null, "vbm": null, "efermi": 0.99086825, "is_gap_direct": null, "is_metal": null, "es_source_calc_id": null, "bandstructure": null, "dos": null, "dos_energy_up": null, "dos_energy_down": null, "is_magnetic": null, "ordering": null, "total_magnetization": 3.6532194000000002, "total_magnetization_normalized_vol": null, "total_magnetization_normalized_formula_units": null, "num_magnetic_sites": null, "num_unique_magnetic_sites": null, "types_of_magnetic_species": null, "bulk_modulus": null, "shear_modulus": null, "universal_anisotropy": null, "homogeneous_poisson": null, "e_total": null, "e_ionic": null, "e_electronic": null, "n": null, "e_ij_max": null, "weighted_surface_energy_EV_PER_ANG2": null, "weighted_surface_energy": null, "weighted_work_function": null, "surface_anisotropy": null, "shape_factor": null, "has_reconstructed": null, "possible_species": null, "has_props": null, "theoretical": null, "database_IDs": null, "fields_not_requested": ["builder_meta", "nsites", "elements", "nelements", "composition", "composition_reduced", "chemsys", "symmetry", "property_name", "deprecated", "deprecation_reasons", "last_updated", "origins", "warnings", "task_ids", "uncorrected_energy_per_atom", "equilibrium_reaction_energy_per_atom", "decomposes_to", "xas", "grain_boundaries", "cbm", "vbm", "is_gap_direct", "is_metal", "es_source_calc_id", "bandstructure", "dos", "dos_energy_up", "dos_energy_down", "is_magnetic", "ordering", "total_magnetization_normalized_vol", "total_magnetization_normalized_formula_units", "num_magnetic_sites", "num_unique_magnetic_sites", "types_of_magnetic_species", "bulk_modulus", "shear_modulus", "universal_anisotropy", "homogeneous_poisson", "e_total", "e_ionic", "e_electronic", "n", "e_ij_max", "weighted_surface_energy_EV_PER_ANG2", "weighted_surface_energy", "weighted_work_function", "surface_anisotropy", "shape_factor", "has_reconstructed", "possible_species", "has_props", "theoretical", "database_IDs"]}