{"builder_meta": null, "nsites": null, "elements": null, "nelements": null, "composition": null, "composition_reduced": null, "formula_pretty": "NaZn3", "formula_anonymous": "AB3", "chemsys": null, "volume": 145.511141133699, "density": 5.003300869021577, "density_atomic": 18.188892641712375, "symmetry": null, "property_name": null, "material_id": "mp-1186211", "deprecated": null, "deprecation_reasons": null, "last_updated": null, "origins": null, "warnings": null, "structure": {"@module": "pymatgen.core.structure", "@class": "Structure", "charge": 0, "lattice": {"matrix": [[3.007541, -5.209213, 0.0], [3.007541, 5.209213, 0.0], [0.0, 0.0, 4.643897]], "pbc": [true, true, true], "a": 6.015081291724161, "b": 6.015081291724161, "c": 4.643897, "alpha": 90.0, "beta": 90.0, "gamma": 119.99999220972238, "volume": 145.511141133699}, "properties": {}, "sites": [{"species": [{"element": "Na", "occu": 1}], "abc": [0.333333, 0.666667, 0.75], "properties": {"magmom": -0.0}, "label": "Na", "xyz": [3.007541, 1.736407806142, 3.48292275]}, {"species": [{"element": "Na", "occu": 1}], "abc": [0.666667, 0.333333, 0.25], "properties": {"magmom": -0.0}, "label": "Na", "xyz": [3.007541, -1.736407806142, 1.16097425]}, {"species": [{"element": "Zn", "occu": 1}], "abc": [0.841811, 0.158189, 0.75], "properties": {"magmom": -0.0}, "label": "Zn", "xyz": [3.007541, -3.561132609486, 3.48292275]}, {"species": [{"element": "Zn", "occu": 1}], "abc": [0.158189, 0.841811, 0.25], "properties": {"magmom": -0.0}, "label": "Zn", "xyz": [3.007541, 3.561132609486, 1.16097425]}, {"species": [{"element": "Zn", "occu": 1}], "abc": [0.158189, 0.316378, 0.25], "properties": {"magmom": -0.0}, "label": "Zn", "xyz": [1.4272797097469998, 0.824040195257, 1.16097425]}, {"species": [{"element": "Zn", "occu": 1}], "abc": [0.316378, 0.158189, 0.75], "properties": {"magmom": -0.0}, "label": "Zn", "xyz": [1.4272797097469998, -0.824040195257, 3.48292275]}, {"species": [{"element": "Zn", "occu": 1}], "abc": [0.683622, 0.841811, 0.25], "properties": {"magmom": -0.0}, "label": "Zn", "xyz": [4.587802290252999, 0.8240401952570005, 1.16097425]}, {"species": [{"element": "Zn", "occu": 1}], "abc": [0.841811, 0.683622, 0.75], "properties": {"magmom": -0.0}, "label": "Zn", "xyz": [4.587802290252999, -0.8240401952570005, 3.48292275]}]}, "task_ids": null, "uncorrected_energy_per_atom": null, "energy_per_atom": -7.5249484826061, "formation_energy_per_atom": 0.049048613643899, "energy_above_hull": 0.114463871528514, "is_stable": false, "equilibrium_reaction_energy_per_atom": null, "decomposes_to": null, "xas": null, "grain_boundaries": null, "band_gap": 0.0, "cbm": null, "vbm": null, "efermi": 1.9245632400000001, "is_gap_direct": null, "is_metal": null, "es_source_calc_id": null, "bandstructure": null, "dos": null, "dos_energy_up": null, "dos_energy_down": null, "is_magnetic": null, "ordering": null, "total_magnetization": 0.0011668, "total_magnetization_normalized_vol": null, "total_magnetization_normalized_formula_units": null, "num_magnetic_sites": null, "num_unique_magnetic_sites": null, "types_of_magnetic_species": null, "bulk_modulus": null, "shear_modulus": null, "universal_anisotropy": null, "homogeneous_poisson": null, "e_total": null, "e_ionic": null, "e_electronic": null, "n": null, "e_ij_max": null, "weighted_surface_energy_EV_PER_ANG2": null, "weighted_surface_energy": null, "weighted_work_function": null, "surface_anisotropy": null, "shape_factor": null, "has_reconstructed": null, "possible_species": null, "has_props": null, "theoretical": null, "database_IDs": null, "fields_not_requested": ["builder_meta", "nsites", "elements", "nelements", "composition", "composition_reduced", "chemsys", "symmetry", "property_name", "deprecated", "deprecation_reasons", "last_updated", "origins", "warnings", "task_ids", "uncorrected_energy_per_atom", "equilibrium_reaction_energy_per_atom", "decomposes_to", "xas", "grain_boundaries", "cbm", "vbm", "is_gap_direct", "is_metal", "es_source_calc_id", "bandstructure", "dos", "dos_energy_up", "dos_energy_down", "is_magnetic", "ordering", "total_magnetization_normalized_vol", "total_magnetization_normalized_formula_units", "num_magnetic_sites", "num_unique_magnetic_sites", "types_of_magnetic_species", "bulk_modulus", "shear_modulus", "universal_anisotropy", "homogeneous_poisson", "e_total", "e_ionic", "e_electronic", "n", "e_ij_max", "weighted_surface_energy_EV_PER_ANG2", "weighted_surface_energy", "weighted_work_function", "surface_anisotropy", "shape_factor", "has_reconstructed", "possible_species", "has_props", "theoretical", "database_IDs"]}