{"builder_meta": null, "nsites": null, "elements": null, "nelements": null, "composition": null, "composition_reduced": null, "formula_pretty": "Nb2Al", "formula_anonymous": "AB2", "chemsys": null, "volume": 517.5739156586486, "density": 6.8271069171903545, "density_atomic": 17.252463855288287, "symmetry": null, "property_name": null, "material_id": "mp-18427", "deprecated": null, "deprecation_reasons": null, "last_updated": null, "origins": null, "warnings": null, "structure": {"@module": "pymatgen.core.structure", "@class": "Structure", "charge": 0, "lattice": {"matrix": [[5.18377702, 0.0, 0.0], [0.0, 9.99224409, -3.529e-05], [0.0, -3.529e-05, 9.99224409]], "pbc": [true, true, true], "a": 5.18377702, "b": 9.992244090062318, "c": 9.992244090062318, "alpha": 90.0004047074993, "beta": 90.0, "gamma": 90.0, "volume": 517.5739156586486}, "properties": {}, "sites": [{"species": [{"element": "Nb", "occu": 1}], "abc": [-0.0, 0.3964994, 0.3964994], "properties": {"magmom": 0.0}, "label": "Nb", "xyz": [0.0, 3.9619047938747203, 3.9619047938747203]}, {"species": [{"element": "Nb", "occu": 1}], "abc": [0.5, 0.10351182, 0.89648818], "properties": {"magmom": 0.0}, "label": "Nb", "xyz": [2.59188851, 1.0342837345722717, 8.957925065427728]}, {"species": [{"element": "Nb", "occu": 1}], "abc": [0.5, 0.89648818, 0.10351182], "properties": {"magmom": 0.0}, "label": "Nb", "xyz": [2.59188851, 8.957925065427728, 1.0342837345722717]}, {"species": [{"element": "Nb", "occu": 1}], "abc": [0.0, 0.603500599999999, 0.603500599999999], "properties": {"magmom": 0.0}, "label": "Nb", "xyz": [0.0, 6.030304006125271, 6.030304006125271]}, {"species": [{"element": "Nb", "occu": 1}], "abc": [-0.0, 0.46478468, 0.12780853], "properties": {"magmom": 0.0}, "label": "Nb", "xyz": [0.0, 4.644237461489517, 1.2770776262927306]}, {"species": [{"element": "Nb", "occu": 1}], "abc": [0.5, 0.37220148000000003, 0.96477653], "properties": {"magmom": 0.0}, "label": "Nb", "xyz": [2.59188851, 3.7190939918555097, 9.640269445072978]}, {"species": [{"element": "Nb", "occu": 1}], "abc": [0.5, 0.62779852, 0.03522347], "properties": {"magmom": 0.0}, "label": "Nb", "xyz": [2.59188851, 6.2731148081444905, 0.3519393549270215]}, {"species": [{"element": "Nb", "occu": 1}], "abc": [-0.0, 0.53521532, 0.87219147], "properties": {"magmom": 0.0}, "label": "Nb", "xyz": [0.0, 5.347971338510483, 8.715131173707269]}, {"species": [{"element": "Nb", "occu": 1}], "abc": [0.5, 0.96477653, 0.37220148000000003], "properties": {"magmom": 0.0}, "label": "Nb", "xyz": [2.59188851, 9.640269445072978, 3.7190939918555097]}, {"species": [{"element": "Nb", "occu": 1}], "abc": [0.5, 0.03522347, 0.62779852], "properties": {"magmom": 0.0}, "label": "Nb", "xyz": [2.59188851, 0.3519393549270215, 6.2731148081444905]}, {"species": [{"element": "Nb", "occu": 1}], "abc": [0.0, 0.12780853, 0.46478468], "properties": {"magmom": 0.0}, "label": "Nb", "xyz": [0.0, 1.2770776262927306, 4.644237461489517]}, {"species": [{"element": "Nb", "occu": 1}], "abc": [0.0, 0.87219147, 0.53521532], "properties": {"magmom": 0.0}, "label": "Nb", "xyz": [0.0, 8.715131173707269, 5.347971338510483]}, {"species": [{"element": "Nb", "occu": 1}], "abc": [0.25245403, 0.18141554000000001, 0.18141554000000001], "properties": {"magmom": -0.0}, "label": "Nb", "xyz": [1.3086653993203905, 1.8127419552447521, 1.8127419552447521]}, {"species": [{"element": "Nb", "occu": 1}], "abc": [0.75248141, 0.31859435, 0.68140565], "properties": {"magmom": -0.0}, "label": "Nb", "xyz": [3.900695841135198, 3.183448464089503, 6.808760335910496]}, {"species": [{"element": "Nb", "occu": 1}], "abc": [0.75248141, 0.68140565, 0.31859435], "properties": {"magmom": -0.0}, "label": "Nb", "xyz": [3.900695841135198, 6.808760335910496, 3.183448464089503]}, {"species": [{"element": "Nb", "occu": 1}], "abc": [0.25245403, 0.8185844600000001, 0.8185844600000001], "properties": {"magmom": -0.0}, "label": "Nb", "xyz": [1.3086653993203905, 8.179466844755249, 8.179466844755249]}, {"species": [{"element": "Nb", "occu": 1}], "abc": [0.24751859, 0.68140565, 0.31859435], "properties": {"magmom": -0.0}, "label": "Nb", "xyz": [1.2830811788648018, 6.808760335910496, 3.183448464089503]}, {"species": [{"element": "Nb", "occu": 1}], "abc": [0.24751859, 0.31859435, 0.68140565], "properties": {"magmom": -0.0}, "label": "Nb", "xyz": [1.2830811788648018, 3.183448464089503, 6.808760335910496]}, {"species": [{"element": "Nb", "occu": 1}], "abc": [0.74754597, 0.18141554000000001, 0.18141554000000001], "properties": {"magmom": -0.0}, "label": "Nb", "xyz": [3.8751116206796095, 1.8127419552447521, 1.8127419552447521]}, {"species": [{"element": "Nb", "occu": 1}], "abc": [0.74754597, 0.8185844600000001, 0.8185844600000001], "properties": {"magmom": -0.0}, "label": "Nb", "xyz": [3.8751116206796095, 8.179466844755249, 8.179466844755249]}, {"species": [{"element": "Al", "occu": 1}], "abc": [0.0, 0.0, 0.0], "properties": {"magmom": -0.0}, "label": "Al", "xyz": [0.0, 0.0, 0.0]}, {"species": [{"element": "Al", "occu": 1}], "abc": [0.5, 0.5, 0.5], "properties": {"magmom": -0.0}, "label": "Al", "xyz": [2.59188851, 4.9961044, 4.9961044]}, {"species": [{"element": "Al", "occu": 1}], "abc": [0.0, 0.9329324600000001, 0.26127676], "properties": {"magmom": -0.0}, "label": "Al", "xyz": [0.0, 9.3220796393473, 2.610708237777835]}, {"species": [{"element": "Al", "occu": 1}], "abc": [0.5, 0.23872086, 0.43293042], "properties": {"magmom": -0.0}, "label": "Al", "xyz": [2.59188851, 2.3853418243801956, 4.325938006167068]}, {"species": [{"element": "Al", "occu": 1}], "abc": [0.5, 0.76127914, 0.56706958], "properties": {"magmom": -0.0}, "label": "Al", "xyz": [2.59188851, 7.606866975619804, 5.666270793832931]}, {"species": [{"element": "Al", "occu": 1}], "abc": [-0.0, 0.06706754, 0.73872324], "properties": {"magmom": -0.0}, "label": "Al", "xyz": [0.0, 0.670129160652699, 7.381500562222165]}, {"species": [{"element": "Al", "occu": 1}], "abc": [0.5, 0.43293042, 0.23872086], "properties": {"magmom": -0.0}, "label": "Al", "xyz": [2.59188851, 4.325938006167068, 2.3853418243801956]}, {"species": [{"element": "Al", "occu": 1}], "abc": [0.5, 0.56706958, 0.76127914], "properties": {"magmom": -0.0}, "label": "Al", "xyz": [2.59188851, 5.666270793832931, 7.606866975619804]}, {"species": [{"element": "Al", "occu": 1}], "abc": [-0.0, 0.26127676, 0.9329324600000001], "properties": {"magmom": -0.0}, "label": "Al", "xyz": [0.0, 2.610708237777835, 9.3220796393473]}, {"species": [{"element": "Al", "occu": 1}], "abc": [-0.0, 0.73872324, 0.06706754], "properties": {"magmom": -0.0}, "label": "Al", "xyz": [0.0, 7.381500562222165, 0.670129160652699]}]}, "task_ids": null, "uncorrected_energy_per_atom": null, "energy_per_atom": -19.079221069000003, "formation_energy_per_atom": -0.345805192333333, "energy_above_hull": 0.0, "is_stable": true, "equilibrium_reaction_energy_per_atom": null, "decomposes_to": null, "xas": null, "grain_boundaries": null, "band_gap": 0.0, "cbm": null, "vbm": null, "efermi": 5.91002105, "is_gap_direct": null, "is_metal": null, "es_source_calc_id": null, "bandstructure": null, "dos": null, "dos_energy_up": null, "dos_energy_down": null, "is_magnetic": null, "ordering": null, "total_magnetization": 1.8e-06, "total_magnetization_normalized_vol": null, "total_magnetization_normalized_formula_units": null, "num_magnetic_sites": null, "num_unique_magnetic_sites": null, "types_of_magnetic_species": null, "bulk_modulus": null, "shear_modulus": null, "universal_anisotropy": null, "homogeneous_poisson": null, "e_total": null, "e_ionic": null, "e_electronic": null, "n": null, "e_ij_max": null, "weighted_surface_energy_EV_PER_ANG2": null, "weighted_surface_energy": null, "weighted_work_function": null, "surface_anisotropy": null, "shape_factor": null, "has_reconstructed": null, "possible_species": null, "has_props": null, "theoretical": null, "database_IDs": null, "fields_not_requested": ["builder_meta", "nsites", "elements", "nelements", "composition", "composition_reduced", "chemsys", "symmetry", "property_name", "deprecated", "deprecation_reasons", "last_updated", "origins", "warnings", "task_ids", "uncorrected_energy_per_atom", "equilibrium_reaction_energy_per_atom", "decomposes_to", "xas", "grain_boundaries", "cbm", "vbm", "is_gap_direct", "is_metal", "es_source_calc_id", "bandstructure", "dos", "dos_energy_up", "dos_energy_down", "is_magnetic", "ordering", "total_magnetization_normalized_vol", "total_magnetization_normalized_formula_units", "num_magnetic_sites", "num_unique_magnetic_sites", "types_of_magnetic_species", "bulk_modulus", "shear_modulus", "universal_anisotropy", "homogeneous_poisson", "e_total", "e_ionic", "e_electronic", "n", "e_ij_max", "weighted_surface_energy_EV_PER_ANG2", "weighted_surface_energy", "weighted_work_function", "surface_anisotropy", "shape_factor", "has_reconstructed", "possible_species", "has_props", "theoretical", "database_IDs"]}