{
  "builder_meta": null,
  "nsites": null,
  "elements": null,
  "nelements": null,
  "composition": null,
  "composition_reduced": null,
  "formula_pretty": "Nb2Br5",
  "formula_anonymous": "A2B5",
  "chemsys": null,
  "volume": 492.98402276034756,
  "density": 3.9432024977138083,
  "density_atomic": 35.213144482881965,
  "symmetry": null,
  "property_name": null,
  "material_id": "mp-568616",
  "deprecated": null,
  "deprecation_reasons": null,
  "last_updated": null,
  "origins": null,
  "warnings": null,
  "structure": {
    "@module": "pymatgen.core.structure",
    "@class": "Structure",
    "charge": 0,
    "lattice": {
      "matrix": [
        [5.290974, -7.687882, 0.0],
        [5.290974, 7.687882, 0.0],
        [0.0, 0.0, 6.059831]
      ],
      "pbc": [true, true, true],
      "a": 9.332627471114446,
      "b": 9.332627471114446,
      "c": 6.059831,
      "alpha": 90.0,
      "beta": 90.0,
      "gamma": 110.9267468366815,
      "volume": 492.98402276034756
    },
    "properties": {},
    "sites": [
      {
        "species": [{ "element": "Nb", "occu": 1 }],
        "abc": [0.864621, 0.864621, 0.0],
        "properties": { "magmom": 0.018000000000000002 },
        "label": "Nb",
        "xyz": [9.149374461708, 0.0, 0.0]
      },
      {
        "species": [{ "element": "Nb", "occu": 1 }],
        "abc": [0.864621, 0.864621, 0.5],
        "properties": { "magmom": -0.037 },
        "label": "Nb",
        "xyz": [9.149374461708, 0.0, 3.0299155]
      },
      {
        "species": [{ "element": "Nb", "occu": 1 }],
        "abc": [0.135379, 0.135379, 0.5],
        "properties": { "magmom": -0.037 },
        "label": "Nb",
        "xyz": [1.4325735382920002, 0.0, 3.0299155]
      },
      {
        "species": [{ "element": "Nb", "occu": 1 }],
        "abc": [0.135379, 0.135379, 0.0],
        "properties": { "magmom": 0.018000000000000002 },
        "label": "Nb",
        "xyz": [1.4325735382920002, 0.0, 0.0]
      },
      {
        "species": [{ "element": "Br", "occu": 1 }],
        "abc": [0.039968, 0.318040999999999, 0.75],
        "properties": { "magmom": -0.0 },
        "label": "Br",
        "xyz": [1.8942163107659948, 2.1377924113859925, 4.54487325]
      },
      {
        "species": [{ "element": "Br", "occu": 1 }],
        "abc": [0.387476999999999, 0.25103000000000003, 0.75],
        "properties": { "magmom": 0.001 },
        "label": "Br",
        "xyz": [3.3783239358179955, -1.0489884352539922, 4.54487325]
      },
      {
        "species": [{ "element": "Br", "occu": 1 }],
        "abc": [0.887604, 0.112396, 0.25],
        "properties": { "magmom": 0.001 },
        "label": "Br",
        "xyz": [5.290973999999999, -5.959707629456, 1.51495775]
      },
      {
        "species": [{ "element": "Br", "occu": 1 }],
        "abc": [0.112396, 0.887604, 0.75],
        "properties": { "magmom": 0.001 },
        "label": "Br",
        "xyz": [5.290973999999999, 5.959707629456, 4.54487325]
      },
      {
        "species": [{ "element": "Br", "occu": 1 }],
        "abc": [0.25103000000000003, 0.387476999999999, 0.25],
        "properties": { "magmom": 0.001 },
        "label": "Br",
        "xyz": [3.3783239358179955, 1.0489884352539922, 1.51495775]
      },
      {
        "species": [{ "element": "Br", "occu": 1 }],
        "abc": [0.74897, 0.612522999999999, 0.75],
        "properties": { "magmom": 0.001 },
        "label": "Br",
        "xyz": [7.203624064181995, -1.0489884352540075, 4.54487325]
      },
      {
        "species": [{ "element": "Br", "occu": 1 }],
        "abc": [0.318040999999999, 0.039968, 0.25],
        "properties": { "magmom": -0.001 },
        "label": "Br",
        "xyz": [1.8942163107659948, -2.1377924113859925, 1.51495775]
      },
      {
        "species": [{ "element": "Br", "occu": 1 }],
        "abc": [0.612522999999999, 0.74897, 0.25],
        "properties": { "magmom": 0.001 },
        "label": "Br",
        "xyz": [7.203624064181995, 1.0489884352540075, 1.51495775]
      },
      {
        "species": [{ "element": "Br", "occu": 1 }],
        "abc": [0.681959, 0.960032, 0.75],
        "properties": { "magmom": -0.0 },
        "label": "Br",
        "xyz": [8.687731689234, 2.137792411386, 4.54487325]
      },
      {
        "species": [{ "element": "Br", "occu": 1 }],
        "abc": [0.960032, 0.681959, 0.25],
        "properties": { "magmom": -0.001 },
        "label": "Br",
        "xyz": [8.687731689234, -2.137792411386, 1.51495775]
      }
    ]
  },
  "task_ids": null,
  "uncorrected_energy_per_atom": null,
  "energy_per_atom": -5.268838168571428,
  "formation_energy_per_atom": -1.213503489285714,
  "energy_above_hull": 0.08056855044643,
  "is_stable": false,
  "equilibrium_reaction_energy_per_atom": null,
  "decomposes_to": null,
  "xas": null,
  "grain_boundaries": null,
  "band_gap": 0.0,
  "cbm": null,
  "vbm": null,
  "efermi": 1.06224792,
  "is_gap_direct": null,
  "is_metal": null,
  "es_source_calc_id": null,
  "bandstructure": null,
  "dos": null,
  "dos_energy_up": null,
  "dos_energy_down": null,
  "is_magnetic": null,
  "ordering": null,
  "total_magnetization": 0.0431461,
  "total_magnetization_normalized_vol": null,
  "total_magnetization_normalized_formula_units": null,
  "num_magnetic_sites": null,
  "num_unique_magnetic_sites": null,
  "types_of_magnetic_species": null,
  "bulk_modulus": null,
  "shear_modulus": null,
  "universal_anisotropy": null,
  "homogeneous_poisson": null,
  "e_total": null,
  "e_ionic": null,
  "e_electronic": null,
  "n": null,
  "e_ij_max": null,
  "weighted_surface_energy_EV_PER_ANG2": null,
  "weighted_surface_energy": null,
  "weighted_work_function": null,
  "surface_anisotropy": null,
  "shape_factor": null,
  "has_reconstructed": null,
  "possible_species": null,
  "has_props": null,
  "theoretical": null,
  "database_IDs": null,
  "fields_not_requested": [
    "builder_meta",
    "nsites",
    "elements",
    "nelements",
    "composition",
    "composition_reduced",
    "chemsys",
    "symmetry",
    "property_name",
    "deprecated",
    "deprecation_reasons",
    "last_updated",
    "origins",
    "warnings",
    "task_ids",
    "uncorrected_energy_per_atom",
    "equilibrium_reaction_energy_per_atom",
    "decomposes_to",
    "xas",
    "grain_boundaries",
    "cbm",
    "vbm",
    "is_gap_direct",
    "is_metal",
    "es_source_calc_id",
    "bandstructure",
    "dos",
    "dos_energy_up",
    "dos_energy_down",
    "is_magnetic",
    "ordering",
    "total_magnetization_normalized_vol",
    "total_magnetization_normalized_formula_units",
    "num_magnetic_sites",
    "num_unique_magnetic_sites",
    "types_of_magnetic_species",
    "bulk_modulus",
    "shear_modulus",
    "universal_anisotropy",
    "homogeneous_poisson",
    "e_total",
    "e_ionic",
    "e_electronic",
    "n",
    "e_ij_max",
    "weighted_surface_energy_EV_PER_ANG2",
    "weighted_surface_energy",
    "weighted_work_function",
    "surface_anisotropy",
    "shape_factor",
    "has_reconstructed",
    "possible_species",
    "has_props",
    "theoretical",
    "database_IDs"
  ]
}
