{
  "builder_meta": null,
  "nsites": null,
  "elements": null,
  "nelements": null,
  "composition": null,
  "composition_reduced": null,
  "formula_pretty": "Nb2B3",
  "formula_anonymous": "A2B3",
  "chemsys": null,
  "volume": 102.06246159875938,
  "density": 7.101643541080588,
  "density_atomic": 10.206246159875938,
  "symmetry": null,
  "property_name": null,
  "material_id": "mp-1080021",
  "deprecated": null,
  "deprecation_reasons": null,
  "last_updated": null,
  "origins": null,
  "warnings": null,
  "structure": {
    "@module": "pymatgen.core.structure",
    "@class": "Structure",
    "charge": 0,
    "lattice": {
      "matrix": [
        [-0.0, -0.0, -3.13795583],
        [-3.32185933, -0.0, 0.0],
        [1.66092967, 9.79124629, -0.0]
      ],
      "pbc": [true, true, true],
      "a": 3.13795583,
      "b": 3.32185933,
      "c": 9.931122357524606,
      "alpha": 99.62767079216309,
      "beta": 90.0,
      "gamma": 90.0,
      "volume": 102.06246159875938
    },
    "properties": {},
    "sites": [
      {
        "species": [{ "element": "Nb", "occu": 1 }],
        "abc": [0.75, 0.43108094, 0.86216087],
        "properties": { "magmom": 0.0 },
        "label": "Nb",
        "xyz": [-1.6732281575837504e-6, 8.441629419770672, -2.3534668725000003]
      },
      {
        "species": [{ "element": "Nb", "occu": 1 }],
        "abc": [0.25, 0.56891906, 0.13783913],
        "properties": { "magmom": 0.0 },
        "label": "Nb",
        "xyz": [-1.660927986771843, 1.3496168702293279, -0.7844889575]
      },
      {
        "species": [{ "element": "Nb", "occu": 1 }],
        "abc": [0.75, 0.70237938, 0.40475876],
        "properties": { "magmom": 0.0 },
        "label": "Nb",
        "xyz": [-1.6609296629762063, 3.9630927071950004, -2.3534668725000003]
      },
      {
        "species": [{ "element": "Nb", "occu": 1 }],
        "abc": [0.25, 0.29762062, 0.59524124],
        "properties": { "magmom": 0.0 },
        "label": "Nb",
        "xyz": [2.9762061704019516e-9, 5.828153582804999, -0.7844889575]
      },
      {
        "species": [{ "element": "B", "occu": 1 }],
        "abc": [0.75, 0.02290864, 0.04581728],
        "properties": { "magmom": -0.0 },
        "label": "B",
        "xyz": [
          2.2908640262553348e-10, 0.44860827281789123, -2.3534668725000003
        ]
      },
      {
        "species": [{ "element": "B", "occu": 1 }],
        "abc": [0.25, 0.9770913600000001, 0.95418272],
        "properties": { "magmom": -0.0 },
        "label": "B",
        "xyz": [-1.6609296602290868, 9.342638017182109, -0.7844889575]
      },
      {
        "species": [{ "element": "B", "occu": 1 }],
        "abc": [0.75, 0.11565721, 0.23131542],
        "properties": { "magmom": -0.0 },
        "label": "B",
        "xyz": [1.6620862420824167e-6, 2.264866247894792, -2.3534668725000003]
      },
      {
        "species": [{ "element": "B", "occu": 1 }],
        "abc": [0.25, 0.88434279, 0.7686845800000001],
        "properties": { "magmom": -0.0 },
        "label": "B",
        "xyz": [-1.660931322086242, 7.526380042105209, -0.7844889575]
      },
      {
        "species": [{ "element": "B", "occu": 1 }],
        "abc": [0.75, 0.83507445, 0.670148899999999],
        "properties": { "magmom": -0.0 },
        "label": "B",
        "xyz": [-1.6609296616492573, 6.561592930872572, -2.3534668725000003]
      },
      {
        "species": [{ "element": "B", "occu": 1 }],
        "abc": [0.25, 0.16492555, 0.3298511],
        "properties": { "magmom": -0.0 },
        "label": "B",
        "xyz": [1.649255509938996e-9, 3.2296533591274192, -0.7844889575]
      }
    ]
  },
  "task_ids": null,
  "uncorrected_energy_per_atom": null,
  "energy_per_atom": -15.072503316,
  "formation_energy_per_atom": -0.771060937500001,
  "energy_above_hull": 0.0,
  "is_stable": true,
  "equilibrium_reaction_energy_per_atom": null,
  "decomposes_to": null,
  "xas": null,
  "grain_boundaries": null,
  "band_gap": 0.0,
  "cbm": null,
  "vbm": null,
  "efermi": 7.80005746,
  "is_gap_direct": null,
  "is_metal": null,
  "es_source_calc_id": null,
  "bandstructure": null,
  "dos": null,
  "dos_energy_up": null,
  "dos_energy_down": null,
  "is_magnetic": null,
  "ordering": null,
  "total_magnetization": 0.0,
  "total_magnetization_normalized_vol": null,
  "total_magnetization_normalized_formula_units": null,
  "num_magnetic_sites": null,
  "num_unique_magnetic_sites": null,
  "types_of_magnetic_species": null,
  "bulk_modulus": null,
  "shear_modulus": null,
  "universal_anisotropy": null,
  "homogeneous_poisson": null,
  "e_total": null,
  "e_ionic": null,
  "e_electronic": null,
  "n": null,
  "e_ij_max": null,
  "weighted_surface_energy_EV_PER_ANG2": null,
  "weighted_surface_energy": null,
  "weighted_work_function": null,
  "surface_anisotropy": null,
  "shape_factor": null,
  "has_reconstructed": null,
  "possible_species": null,
  "has_props": null,
  "theoretical": null,
  "database_IDs": null,
  "fields_not_requested": [
    "builder_meta",
    "nsites",
    "elements",
    "nelements",
    "composition",
    "composition_reduced",
    "chemsys",
    "symmetry",
    "property_name",
    "deprecated",
    "deprecation_reasons",
    "last_updated",
    "origins",
    "warnings",
    "task_ids",
    "uncorrected_energy_per_atom",
    "equilibrium_reaction_energy_per_atom",
    "decomposes_to",
    "xas",
    "grain_boundaries",
    "cbm",
    "vbm",
    "is_gap_direct",
    "is_metal",
    "es_source_calc_id",
    "bandstructure",
    "dos",
    "dos_energy_up",
    "dos_energy_down",
    "is_magnetic",
    "ordering",
    "total_magnetization_normalized_vol",
    "total_magnetization_normalized_formula_units",
    "num_magnetic_sites",
    "num_unique_magnetic_sites",
    "types_of_magnetic_species",
    "bulk_modulus",
    "shear_modulus",
    "universal_anisotropy",
    "homogeneous_poisson",
    "e_total",
    "e_ionic",
    "e_electronic",
    "n",
    "e_ij_max",
    "weighted_surface_energy_EV_PER_ANG2",
    "weighted_surface_energy",
    "weighted_work_function",
    "surface_anisotropy",
    "shape_factor",
    "has_reconstructed",
    "possible_species",
    "has_props",
    "theoretical",
    "database_IDs"
  ]
}
