{
  "builder_meta": null,
  "nsites": null,
  "elements": null,
  "nelements": null,
  "composition": null,
  "composition_reduced": null,
  "formula_pretty": "Nb2C",
  "formula_anonymous": "AB2",
  "chemsys": null,
  "volume": 171.13372737768208,
  "density": 7.678055954336023,
  "density_atomic": 14.261143948140173,
  "symmetry": null,
  "property_name": null,
  "material_id": "mp-569989",
  "deprecated": null,
  "deprecation_reasons": null,
  "last_updated": null,
  "origins": null,
  "warnings": null,
  "structure": {
    "@module": "pymatgen.core.structure",
    "@class": "Structure",
    "charge": 0,
    "lattice": {
      "matrix": [
        [3.10629662, 0.0, 0.0],
        [-0.0, 4.9922501, 0.0],
        [0.0, 0.0, 11.03561018]
      ],
      "pbc": [true, true, true],
      "a": 3.10629662,
      "b": 4.9922501,
      "c": 11.03561018,
      "alpha": 90.0,
      "beta": 90.0,
      "gamma": 90.0,
      "volume": 171.13372737768208
    },
    "properties": {},
    "sites": [
      {
        "species": [{ "element": "Nb", "occu": 1 }],
        "abc": [0.0, 0.73353342, 0.29697368],
        "properties": { "magmom": 0.0 },
        "label": "Nb",
        "xyz": [0.0, 3.661982289348342, 3.277285766200063]
      },
      {
        "species": [{ "element": "Nb", "occu": 1 }],
        "abc": [0.5, 0.26646658, 0.70302632],
        "properties": { "magmom": 0.0 },
        "label": "Nb",
        "xyz": [1.55314831, 1.330267810651658, 7.758324413799938]
      },
      {
        "species": [{ "element": "Nb", "occu": 1 }],
        "abc": [0.5, 0.75361555, 0.5462847],
        "properties": { "magmom": -0.0 },
        "label": "Nb",
        "xyz": [1.55314831, 3.7622373048490547, 6.028584996498246]
      },
      {
        "species": [{ "element": "Nb", "occu": 1 }],
        "abc": [-0.0, 0.76646658, 0.79697368],
        "properties": { "magmom": 0.0 },
        "label": "Nb",
        "xyz": [0.0, 3.8263928606516577, 8.795090856200064]
      },
      {
        "species": [{ "element": "Nb", "occu": 1 }],
        "abc": [0.5, 0.74638445, 0.0462847],
        "properties": { "magmom": -0.0 },
        "label": "Nb",
        "xyz": [1.55314831, 3.726137845150945, 0.510779906498246]
      },
      {
        "species": [{ "element": "Nb", "occu": 1 }],
        "abc": [-0.0, 0.24638445, 0.4537153],
        "properties": { "magmom": -0.0 },
        "label": "Nb",
        "xyz": [0.0, 1.230012795150945, 5.007025183501754]
      },
      {
        "species": [{ "element": "Nb", "occu": 1 }],
        "abc": [0.0, 0.25361555, 0.953715299999999],
        "properties": { "magmom": -0.0 },
        "label": "Nb",
        "xyz": [0.0, 1.266112254849055, 10.524830273501744]
      },
      {
        "species": [{ "element": "Nb", "occu": 1 }],
        "abc": [0.5, 0.23353342, 0.20302632],
        "properties": { "magmom": 0.0 },
        "label": "Nb",
        "xyz": [1.55314831, 1.165857239348342, 2.240519323799938]
      },
      {
        "species": [{ "element": "C", "occu": 1 }],
        "abc": [0.5, 0.98958535, 0.37553962],
        "properties": { "magmom": 0.0 },
        "label": "C",
        "xyz": [1.55314831, 4.9402575624960345, 4.144308853465332]
      },
      {
        "species": [{ "element": "C", "occu": 1 }],
        "abc": [0.0, 0.010414650000000001, 0.62446038],
        "properties": { "magmom": 0.0 },
        "label": "C",
        "xyz": [0.0, 0.051992537503965, 6.891301326534669]
      },
      {
        "species": [{ "element": "C", "occu": 1 }],
        "abc": [0.5, 0.51041465, 0.87553962],
        "properties": { "magmom": 0.0 },
        "label": "C",
        "xyz": [1.55314831, 2.5481175875039646, 9.662113943465332]
      },
      {
        "species": [{ "element": "C", "occu": 1 }],
        "abc": [-0.0, 0.48958535000000003, 0.12446038000000001],
        "properties": { "magmom": 0.0 },
        "label": "C",
        "xyz": [0.0, 2.444132512496035, 1.3734962365346686]
      }
    ]
  },
  "task_ids": null,
  "uncorrected_energy_per_atom": null,
  "energy_per_atom": -10.276456723333334,
  "formation_energy_per_atom": -0.466031532500001,
  "energy_above_hull": 0.0,
  "is_stable": true,
  "equilibrium_reaction_energy_per_atom": null,
  "decomposes_to": null,
  "xas": null,
  "grain_boundaries": null,
  "band_gap": 0.0,
  "cbm": null,
  "vbm": null,
  "efermi": 5.55107395,
  "is_gap_direct": null,
  "is_metal": null,
  "es_source_calc_id": null,
  "bandstructure": null,
  "dos": null,
  "dos_energy_up": null,
  "dos_energy_down": null,
  "is_magnetic": null,
  "ordering": null,
  "total_magnetization": 0.0,
  "total_magnetization_normalized_vol": null,
  "total_magnetization_normalized_formula_units": null,
  "num_magnetic_sites": null,
  "num_unique_magnetic_sites": null,
  "types_of_magnetic_species": null,
  "bulk_modulus": null,
  "shear_modulus": null,
  "universal_anisotropy": null,
  "homogeneous_poisson": null,
  "e_total": null,
  "e_ionic": null,
  "e_electronic": null,
  "n": null,
  "e_ij_max": null,
  "weighted_surface_energy_EV_PER_ANG2": null,
  "weighted_surface_energy": null,
  "weighted_work_function": null,
  "surface_anisotropy": null,
  "shape_factor": null,
  "has_reconstructed": null,
  "possible_species": null,
  "has_props": null,
  "theoretical": null,
  "database_IDs": null,
  "fields_not_requested": [
    "builder_meta",
    "nsites",
    "elements",
    "nelements",
    "composition",
    "composition_reduced",
    "chemsys",
    "symmetry",
    "property_name",
    "deprecated",
    "deprecation_reasons",
    "last_updated",
    "origins",
    "warnings",
    "task_ids",
    "uncorrected_energy_per_atom",
    "equilibrium_reaction_energy_per_atom",
    "decomposes_to",
    "xas",
    "grain_boundaries",
    "cbm",
    "vbm",
    "is_gap_direct",
    "is_metal",
    "es_source_calc_id",
    "bandstructure",
    "dos",
    "dos_energy_up",
    "dos_energy_down",
    "is_magnetic",
    "ordering",
    "total_magnetization_normalized_vol",
    "total_magnetization_normalized_formula_units",
    "num_magnetic_sites",
    "num_unique_magnetic_sites",
    "types_of_magnetic_species",
    "bulk_modulus",
    "shear_modulus",
    "universal_anisotropy",
    "homogeneous_poisson",
    "e_total",
    "e_ionic",
    "e_electronic",
    "n",
    "e_ij_max",
    "weighted_surface_energy_EV_PER_ANG2",
    "weighted_surface_energy",
    "weighted_work_function",
    "surface_anisotropy",
    "shape_factor",
    "has_reconstructed",
    "possible_species",
    "has_props",
    "theoretical",
    "database_IDs"
  ]
}
