{
  "builder_meta": null,
  "nsites": null,
  "elements": null,
  "nelements": null,
  "composition": null,
  "composition_reduced": null,
  "formula_pretty": "Nb2F5",
  "formula_anonymous": "A2B5",
  "chemsys": null,
  "volume": 280.3857585884136,
  "density": 4.989061887273012,
  "density_atomic": 13.351702789924456,
  "symmetry": null,
  "property_name": null,
  "material_id": "mp-466",
  "deprecated": null,
  "deprecation_reasons": null,
  "last_updated": null,
  "origins": null,
  "warnings": null,
  "structure": {
    "@module": "pymatgen.core.structure",
    "@class": "Structure",
    "charge": 0,
    "lattice": {
      "matrix": [
        [6.73312184, 1e-6, -2.38051696],
        [-3.36655942, 5.83105249, -2.38051496],
        [-1e-6, 1e-6, 7.14154988]
      ],
      "pbc": [true, true, true],
      "a": 7.1415538021591365,
      "b": 7.14155073806171,
      "c": 7.14154988000014,
      "alpha": 109.47119305855624,
      "beta": 109.47122036862174,
      "gamma": 109.47122430529606,
      "volume": 280.3857585884136
    },
    "properties": {},
    "sites": [
      {
        "species": [{ "element": "Nb", "occu": 1 }],
        "abc": [0.75896367, 0.75896367, -0.0],
        "properties": { "magmom": 0.115 },
        "label": "Nb",
        "xyz": [2.5550985695672814, 4.425557756736708, -3.6134502589903463]
      },
      {
        "species": [{ "element": "Nb", "occu": 1 }],
        "abc": [0.24103633, 0.0, 0.24103633],
        "properties": { "magmom": 0.115 },
        "label": "Nb",
        "xyz": [1.6229267367201172, 4.820726599999999e-7, 1.1475819020459834]
      },
      {
        "species": [{ "element": "Nb", "occu": 1 }],
        "abc": [0.75896367, -0.0, 0.75896367],
        "properties": { "magmom": 0.115 },
        "label": "Nb",
        "xyz": [5.110194103279883, 1.51792734e-6, 3.613451017954017]
      },
      {
        "species": [{ "element": "Nb", "occu": 1 }],
        "abc": [-0.0, 0.75896367, 0.75896367],
        "properties": { "magmom": 0.115 },
        "label": "Nb",
        "xyz": [-2.5550970516399416, 4.425557756736708, 3.6134525358813567]
      },
      {
        "species": [{ "element": "Nb", "occu": 1 }],
        "abc": [0.0, 0.24103633, 0.24103633],
        "properties": { "magmom": 0.115 },
        "label": "Nb",
        "xyz": [-0.8114633683600586, 1.4054957332632918, 1.1475823841186434]
      },
      {
        "species": [{ "element": "Nb", "occu": 1 }],
        "abc": [0.24103633, 0.24103633, 0.0],
        "properties": { "magmom": 0.115 },
        "label": "Nb",
        "xyz": [0.8114638504327186, 1.4054957332632918, -1.1475816610096536]
      },
      {
        "species": [{ "element": "F", "occu": 1 }],
        "abc": [0.5, -0.0, 0.5],
        "properties": { "magmom": -0.002 },
        "label": "F",
        "xyz": [3.36656042, 1e-6, 2.38051646]
      },
      {
        "species": [{ "element": "F", "occu": 1 }],
        "abc": [-0.0, 0.5, 0.5],
        "properties": { "magmom": -0.002 },
        "label": "F",
        "xyz": [-1.6832802100000002, 2.915526745, 2.38051746]
      },
      {
        "species": [{ "element": "F", "occu": 1 }],
        "abc": [0.5, 0.5, -0.0],
        "properties": { "magmom": -0.002 },
        "label": "F",
        "xyz": [1.6832812099999999, 2.915526745, -2.3805159600000003]
      },
      {
        "species": [{ "element": "F", "occu": 1 }],
        "abc": [0.49463457, 0.74731678, 0.74731678],
        "properties": { "magmom": 0.019 },
        "label": "F",
        "xyz": [0.8145477333361608, 4.357644612789132, 2.3805153029946506]
      },
      {
        "species": [{ "element": "F", "occu": 1 }],
        "abc": [0.74731778, 0.49463557, 0.74731678],
        "properties": { "magmom": 0.019 },
        "label": "F",
        "xyz": [3.366560880970966, 2.8842474667256295, 2.380510036598311]
      },
      {
        "species": [{ "element": "F", "occu": 1 }],
        "abc": [0.74731778, 0.25268322, 0.0],
        "properties": { "magmom": 0.019 },
        "label": "F",
        "xyz": [4.181108591371383, 1.473409866479998, -2.3805188351505198]
      },
      {
        "species": [{ "element": "F", "occu": 1 }],
        "abc": [0.50536543, 0.25268322, 0.25268322],
        "properties": { "magmom": 0.019 },
        "label": "F",
        "xyz": [2.5520136866638383, 1.4734098772108677, 2.6570053495156287e-6]
      },
      {
        "species": [{ "element": "F", "occu": 1 }],
        "abc": [0.25268322, -0.0, 0.74731678],
        "properties": { "magmom": 0.019 },
        "label": "F",
        "xyz": [1.7013461598667448, 1e-6, 4.735483369813576]
      },
      {
        "species": [{ "element": "F", "occu": 1 }],
        "abc": [0.25268222, 0.50536443, 0.25268322],
        "properties": { "magmom": 0.019 },
        "label": "F",
        "xyz": [5.390290342000498e-7, 2.946807023274371, 7.923401689424736e-6]
      },
      {
        "species": [{ "element": "F", "occu": 1 }],
        "abc": [0.25268322, 0.25268322, 0.50536443],
        "properties": { "magmom": 0.019 },
        "label": "F",
        "xyz": [0.8506733272521624, 1.4734098772098678, 2.4060524083543857]
      },
      {
        "species": [{ "element": "F", "occu": 1 }],
        "abc": [0.25268222, 0.74731678, -0.0],
        "properties": { "magmom": 0.019 },
        "label": "F",
        "xyz": [-0.8145461713713831, 4.357643623520002, -2.38051308484948]
      },
      {
        "species": [{ "element": "F", "occu": 1 }],
        "abc": [0.0, 0.25268222, 0.74731678],
        "properties": { "magmom": 0.019 },
        "label": "F",
        "xyz": [-0.8506704553242925, 1.4734040354265079, 4.735486255694976]
      },
      {
        "species": [{ "element": "F", "occu": 1 }],
        "abc": [-0.0, 0.74731778, 0.25268322],
        "properties": { "magmom": 0.019 },
        "label": "F",
        "xyz": [-2.515889964675708, 4.357649454573493, 0.02554866430502445]
      },
      {
        "species": [{ "element": "F", "occu": 1 }],
        "abc": [0.74731678, 0.74731678, 0.49463557],
        "properties": { "magmom": 0.019 },
        "label": "F",
        "xyz": [2.5158880927478373, 4.357644612790132, -0.025534448354386008]
      },
      {
        "species": [{ "element": "F", "occu": 1 }],
        "abc": [0.74731678, 0.0, 0.25268322],
        "properties": { "magmom": 0.019 },
        "label": "F",
        "xyz": [5.031774680133255, 1e-6, 0.025549550186424685]
      }
    ]
  },
  "task_ids": null,
  "uncorrected_energy_per_atom": null,
  "energy_per_atom": -12.19565115095238,
  "formation_energy_per_atom": -2.89589557238095,
  "energy_above_hull": 0.0,
  "is_stable": true,
  "equilibrium_reaction_energy_per_atom": null,
  "decomposes_to": null,
  "xas": null,
  "grain_boundaries": null,
  "band_gap": 0.15130000000000002,
  "cbm": null,
  "vbm": null,
  "efermi": 2.44114787,
  "is_gap_direct": null,
  "is_metal": null,
  "es_source_calc_id": null,
  "bandstructure": null,
  "dos": null,
  "dos_energy_up": null,
  "dos_energy_down": null,
  "is_magnetic": null,
  "ordering": null,
  "total_magnetization": 1.0,
  "total_magnetization_normalized_vol": null,
  "total_magnetization_normalized_formula_units": null,
  "num_magnetic_sites": null,
  "num_unique_magnetic_sites": null,
  "types_of_magnetic_species": null,
  "bulk_modulus": null,
  "shear_modulus": null,
  "universal_anisotropy": null,
  "homogeneous_poisson": null,
  "e_total": null,
  "e_ionic": null,
  "e_electronic": null,
  "n": null,
  "e_ij_max": null,
  "weighted_surface_energy_EV_PER_ANG2": null,
  "weighted_surface_energy": null,
  "weighted_work_function": null,
  "surface_anisotropy": null,
  "shape_factor": null,
  "has_reconstructed": null,
  "possible_species": null,
  "has_props": null,
  "theoretical": null,
  "database_IDs": null,
  "fields_not_requested": [
    "builder_meta",
    "nsites",
    "elements",
    "nelements",
    "composition",
    "composition_reduced",
    "chemsys",
    "symmetry",
    "property_name",
    "deprecated",
    "deprecation_reasons",
    "last_updated",
    "origins",
    "warnings",
    "task_ids",
    "uncorrected_energy_per_atom",
    "equilibrium_reaction_energy_per_atom",
    "decomposes_to",
    "xas",
    "grain_boundaries",
    "cbm",
    "vbm",
    "is_gap_direct",
    "is_metal",
    "es_source_calc_id",
    "bandstructure",
    "dos",
    "dos_energy_up",
    "dos_energy_down",
    "is_magnetic",
    "ordering",
    "total_magnetization_normalized_vol",
    "total_magnetization_normalized_formula_units",
    "num_magnetic_sites",
    "num_unique_magnetic_sites",
    "types_of_magnetic_species",
    "bulk_modulus",
    "shear_modulus",
    "universal_anisotropy",
    "homogeneous_poisson",
    "e_total",
    "e_ionic",
    "e_electronic",
    "n",
    "e_ij_max",
    "weighted_surface_energy_EV_PER_ANG2",
    "weighted_surface_energy",
    "weighted_work_function",
    "surface_anisotropy",
    "shape_factor",
    "has_reconstructed",
    "possible_species",
    "has_props",
    "theoretical",
    "database_IDs"
  ]
}
