{"builder_meta": null, "nsites": null, "elements": null, "nelements": null, "composition": null, "composition_reduced": null, "formula_pretty": "Nb2N", "formula_anonymous": "AB2", "chemsys": null, "volume": 123.53041659175386, "density": 8.058129214284511, "density_atomic": 13.725601843528207, "symmetry": null, "property_name": null, "material_id": "mp-1079585", "deprecated": null, "deprecation_reasons": null, "last_updated": null, "origins": null, "warnings": null, "structure": {"@module": "pymatgen.core.structure", "@class": "Structure", "charge": 0, "lattice": {"matrix": [[-1.293e-05, 2.1840000000000004e-05, -5.01212402], [-2.66727226, -4.61999363, 1.9310000000000003e-05], [-2.66739572, 4.62006439, -3.896e-05]], "pbc": [true, true, true], "a": 5.012124020064261, "b": 5.334667979413429, "c": 5.334790989002125, "alpha": 120.0007627593405, "beta": 89.99929145031408, "gamma": 90.0003497079091, "volume": 123.53041659175386}, "properties": {}, "sites": [{"species": [{"element": "Nb", "occu": 1}], "abc": [0.24770154, 0.33416706, 0.33417731], "properties": {"magmom": -0.0}, "label": "Nb", "xyz": [-1.7827008585397808, 7.641112279666018e-05, -1.2415174052070597]}, {"species": [{"element": "Nb", "occu": 1}], "abc": [0.24770156000000002, 0.665832099999999, 1.022e-05], "properties": {"magmom": -0.0}, "label": "Nb", "xyz": [-1.7759859537129725, -3.0760874337893824, -1.2414980818477914]}, {"species": [{"element": "Nb", "occu": 1}], "abc": [0.24771587, -4e-08, 0.66583906], "properties": {"magmom": -0.0}, "label": "Nb", "xyz": [-1.7760593551281318, 3.0762249254914193, -1.2416086032527476]}, {"species": [{"element": "Nb", "occu": 1}], "abc": [0.75229849, 0.66583209, 0.66582269], "properties": {"magmom": -0.0}, "label": "Nb", "xyz": [-3.551977784279186, 2.01158724442152e-05, -3.770626415173074]}, {"species": [{"element": "Nb", "occu": 1}], "abc": [0.75229838, 0.33416707, 0.99998981], "properties": {"magmom": -0.0}, "label": "Nb", "xyz": [-3.5586928224721444, 3.0761840069847204, -3.770645287441963]}, {"species": [{"element": "Nb", "occu": 1}], "abc": [0.75228414, -1.2e-07, 0.33416089], "properties": {"magmom": -0.0}, "label": "Nb", "xyz": [-0.8913487347386497, 1.54386181270456, -3.7705544268696345]}, {"species": [{"element": "N", "occu": 1}], "abc": [0.50000005, 0.66665818, 0.3333295], "properties": {"magmom": 0.0}, "label": "N", "xyz": [-2.6672870170664735, -1.5399418718997964, -2.5060623739540655]}, {"species": [{"element": "N", "occu": 1}], "abc": [0.49999997, 0.33334174, 0.66667053], "properties": {"magmom": 0.0}, "label": "N", "xyz": [-2.667393759573876, 1.5400349801016553, -2.5060813962911284]}, {"species": [{"element": "N", "occu": 1}], "abc": [1e-08, -9e-08, -2e-08], "properties": {"magmom": 0.0}, "label": "N", "xyz": [2.934022885e-07, 3.233983573e-07, -5.012219890000001e-08]}]}, "task_ids": null, "uncorrected_energy_per_atom": null, "energy_per_atom": -20.515203785555556, "formation_energy_per_atom": -0.982903795138886, "energy_above_hull": 0.0, "is_stable": true, "equilibrium_reaction_energy_per_atom": null, "decomposes_to": null, "xas": null, "grain_boundaries": null, "band_gap": 0.0, "cbm": null, "vbm": null, "efermi": 6.425397699999999, "is_gap_direct": null, "is_metal": null, "es_source_calc_id": null, "bandstructure": null, "dos": null, "dos_energy_up": null, "dos_energy_down": null, "is_magnetic": null, "ordering": null, "total_magnetization": 3e-06, "total_magnetization_normalized_vol": null, "total_magnetization_normalized_formula_units": null, "num_magnetic_sites": null, "num_unique_magnetic_sites": null, "types_of_magnetic_species": null, "bulk_modulus": null, "shear_modulus": null, "universal_anisotropy": null, "homogeneous_poisson": null, "e_total": null, "e_ionic": null, "e_electronic": null, "n": null, "e_ij_max": null, "weighted_surface_energy_EV_PER_ANG2": null, "weighted_surface_energy": null, "weighted_work_function": null, "surface_anisotropy": null, "shape_factor": null, "has_reconstructed": null, "possible_species": null, "has_props": null, "theoretical": null, "database_IDs": null, "fields_not_requested": ["builder_meta", "nsites", "elements", "nelements", "composition", "composition_reduced", "chemsys", "symmetry", "property_name", "deprecated", "deprecation_reasons", "last_updated", "origins", "warnings", "task_ids", "uncorrected_energy_per_atom", "equilibrium_reaction_energy_per_atom", "decomposes_to", "xas", "grain_boundaries", "cbm", "vbm", "is_gap_direct", "is_metal", "es_source_calc_id", "bandstructure", "dos", "dos_energy_up", "dos_energy_down", "is_magnetic", "ordering", "total_magnetization_normalized_vol", "total_magnetization_normalized_formula_units", "num_magnetic_sites", "num_unique_magnetic_sites", "types_of_magnetic_species", "bulk_modulus", "shear_modulus", "universal_anisotropy", "homogeneous_poisson", "e_total", "e_ionic", "e_electronic", "n", "e_ij_max", "weighted_surface_energy_EV_PER_ANG2", "weighted_surface_energy", "weighted_work_function", "surface_anisotropy", "shape_factor", "has_reconstructed", "possible_species", "has_props", "theoretical", "database_IDs"]}