{"builder_meta": null, "nsites": null, "elements": null, "nelements": null, "composition": null, "composition_reduced": null, "formula_pretty": "Nb2N3", "formula_anonymous": "A2B3", "chemsys": null, "volume": 205.0041400103404, "density": 7.3818092584106, "density_atomic": 10.250207000517019, "symmetry": null, "property_name": null, "material_id": "mp-1188869", "deprecated": null, "deprecation_reasons": null, "last_updated": null, "origins": null, "warnings": null, "structure": {"@module": "pymatgen.core.structure", "@class": "Structure", "charge": 0, "lattice": {"matrix": [[3.01394272, -0.0, 0.0], [-0.0, 8.19175301, 0.0], [0.0, 0.0, 8.30330112]], "pbc": [true, true, true], "a": 3.01394272, "b": 8.19175301, "c": 8.30330112, "alpha": 90.0, "beta": 90.0, "gamma": 90.0, "volume": 205.0041400103404}, "properties": {}, "sites": [{"species": [{"element": "Nb", "occu": 1}], "abc": [0.25, 0.18724323, 0.47826195], "properties": {"magmom": -0.0}, "label": "Nb", "xyz": [0.75348568, 1.5338502929546223, 3.971152985088384]}, {"species": [{"element": "Nb", "occu": 1}], "abc": [0.25, 0.31275677, 0.97826195], "properties": {"magmom": -0.0}, "label": "Nb", "xyz": [0.75348568, 2.5620262120453776, 8.122803545088384]}, {"species": [{"element": "Nb", "occu": 1}], "abc": [0.75, 0.81275677, 0.5217380500000001], "properties": {"magmom": -0.0}, "label": "Nb", "xyz": [2.2604570400000004, 6.657902717045378, 4.332148134911617]}, {"species": [{"element": "Nb", "occu": 1}], "abc": [0.75, 0.68724323, 0.021738050000000002], "properties": {"magmom": -0.0}, "label": "Nb", "xyz": [2.2604570400000004, 5.629726797954621, 0.18049757491161603]}, {"species": [{"element": "Nb", "occu": 1}], "abc": [0.25, 0.9955242400000001, 0.80563984], "properties": {"magmom": 0.0}, "label": "Nb", "xyz": [0.75348568, 8.155088689547963, 6.689470185788621]}, {"species": [{"element": "Nb", "occu": 1}], "abc": [0.25, 0.50447576, 0.30563984], "properties": {"magmom": 0.0}, "label": "Nb", "xyz": [0.75348568, 4.132540825452038, 2.5378196257886207]}, {"species": [{"element": "Nb", "occu": 1}], "abc": [0.75, 0.0044757600000000005, 0.19436016], "properties": {"magmom": 0.0}, "label": "Nb", "xyz": [2.2604570400000004, 0.0366643204520376, 1.6138309342113792]}, {"species": [{"element": "Nb", "occu": 1}], "abc": [0.75, 0.49552424, 0.69436016], "properties": {"magmom": 0.0}, "label": "Nb", "xyz": [2.2604570400000004, 4.059212184547962, 5.76548149421138]}, {"species": [{"element": "N", "occu": 1}], "abc": [0.25, 0.6262322300000001, 0.54562515], "properties": {"magmom": 0.0}, "label": "N", "xyz": [0.75348568, 5.129939755061512, 4.530489919095168]}, {"species": [{"element": "N", "occu": 1}], "abc": [0.25, 0.87376777, 0.04562515], "properties": {"magmom": 0.0}, "label": "N", "xyz": [0.75348568, 7.157689759938488, 0.378839359095168]}, {"species": [{"element": "N", "occu": 1}], "abc": [0.75, 0.37376777, 0.45437485], "properties": {"magmom": 0.0}, "label": "N", "xyz": [2.2604570400000004, 3.0618132549384875, 3.7728112009048322]}, {"species": [{"element": "N", "occu": 1}], "abc": [0.75, 0.12623223, 0.95437485], "properties": {"magmom": 0.0}, "label": "N", "xyz": [2.2604570400000004, 1.0340632500615121, 7.9244617609048325]}, {"species": [{"element": "N", "occu": 1}], "abc": [0.25, 0.9527251800000001, 0.37877164], "properties": {"magmom": -0.0}, "label": "N", "xyz": [0.75348568, 7.804489360967792, 3.1450549826362373]}, {"species": [{"element": "N", "occu": 1}], "abc": [0.25, 0.54727482, 0.87877164], "properties": {"magmom": -0.0}, "label": "N", "xyz": [0.75348568, 4.483140154032208, 7.296705542636237]}, {"species": [{"element": "N", "occu": 1}], "abc": [0.75, 0.04727482, 0.62122836], "properties": {"magmom": -0.0}, "label": "N", "xyz": [2.2604570400000004, 0.38726364903220817, 5.158246137363764]}, {"species": [{"element": "N", "occu": 1}], "abc": [0.75, 0.45272518, 0.12122836000000001], "properties": {"magmom": -0.0}, "label": "N", "xyz": [2.2604570400000004, 3.7086128559677913, 1.0065955773637634]}, {"species": [{"element": "N", "occu": 1}], "abc": [0.25, 0.2985876, 0.72113622], "properties": {"magmom": 0.0}, "label": "N", "xyz": [0.75348568, 2.445955871048676, 5.987811183198566]}, {"species": [{"element": "N", "occu": 1}], "abc": [0.25, 0.2014124, 0.22113622], "properties": {"magmom": 0.0}, "label": "N", "xyz": [0.75348568, 1.6499206339513237, 1.8361606231985665]}, {"species": [{"element": "N", "occu": 1}], "abc": [0.75, 0.701412399999999, 0.27886378], "properties": {"magmom": 0.0}, "label": "N", "xyz": [2.2604570400000004, 5.745797138951316, 2.3154899368014337]}, {"species": [{"element": "N", "occu": 1}], "abc": [0.75, 0.7985876, 0.77886378], "properties": {"magmom": 0.0}, "label": "N", "xyz": [2.2604570400000004, 6.541832376048675, 6.467140496801434]}]}, "task_ids": null, "uncorrected_energy_per_atom": null, "energy_per_atom": -16.390347204, "formation_energy_per_atom": -1.019466941249999, "energy_above_hull": 0.017388997749996003, "is_stable": false, "equilibrium_reaction_energy_per_atom": null, "decomposes_to": null, "xas": null, "grain_boundaries": null, "band_gap": 0.0, "cbm": null, "vbm": null, "efermi": 7.04436399, "is_gap_direct": null, "is_metal": null, "es_source_calc_id": null, "bandstructure": null, "dos": null, "dos_energy_up": null, "dos_energy_down": null, "is_magnetic": null, "ordering": null, "total_magnetization": 4e-07, "total_magnetization_normalized_vol": null, "total_magnetization_normalized_formula_units": null, "num_magnetic_sites": null, "num_unique_magnetic_sites": null, "types_of_magnetic_species": null, "bulk_modulus": null, "shear_modulus": null, "universal_anisotropy": null, "homogeneous_poisson": null, "e_total": null, "e_ionic": null, "e_electronic": null, "n": null, "e_ij_max": null, "weighted_surface_energy_EV_PER_ANG2": null, "weighted_surface_energy": null, "weighted_work_function": null, "surface_anisotropy": null, "shape_factor": null, "has_reconstructed": null, "possible_species": null, "has_props": null, "theoretical": null, "database_IDs": null, "fields_not_requested": ["builder_meta", "nsites", "elements", "nelements", "composition", "composition_reduced", "chemsys", "symmetry", "property_name", "deprecated", "deprecation_reasons", "last_updated", "origins", "warnings", "task_ids", "uncorrected_energy_per_atom", "equilibrium_reaction_energy_per_atom", "decomposes_to", "xas", "grain_boundaries", "cbm", "vbm", "is_gap_direct", "is_metal", "es_source_calc_id", "bandstructure", "dos", "dos_energy_up", "dos_energy_down", "is_magnetic", "ordering", "total_magnetization_normalized_vol", "total_magnetization_normalized_formula_units", "num_magnetic_sites", "num_unique_magnetic_sites", "types_of_magnetic_species", "bulk_modulus", "shear_modulus", "universal_anisotropy", "homogeneous_poisson", "e_total", "e_ionic", "e_electronic", "n", "e_ij_max", "weighted_surface_energy_EV_PER_ANG2", "weighted_surface_energy", "weighted_work_function", "surface_anisotropy", "shape_factor", "has_reconstructed", "possible_species", "has_props", "theoretical", "database_IDs"]}