{"builder_meta": null, "nsites": null, "elements": null, "nelements": null, "composition": null, "composition_reduced": null, "formula_pretty": "Nb2O5", "formula_anonymous": "A2B5", "chemsys": null, "volume": 1436.934978242596, "density": 4.300420662212256, "density_atomic": 14.662601818801999, "symmetry": null, "property_name": null, "material_id": "mp-581967", "deprecated": null, "deprecation_reasons": null, "last_updated": null, "origins": null, "warnings": null, "structure": {"@module": "pymatgen.core.structure", "@class": "Structure", "charge": 0, "lattice": {"matrix": [[3.871906, 0.0, 0.0], [0.0, 19.788757, 0.0], [0.0, 9.029412, 18.753995]], "pbc": [true, true, true], "a": 3.871906, "b": 19.788757, "c": 20.814480765221337, "alpha": 64.29076372516107, "beta": 90.0, "gamma": 90.0, "volume": 1436.934978242596}, "properties": {}, "sites": [{"species": [{"element": "Nb", "occu": 1}], "abc": [0.011304999999999002, 0.159851, 0.834127], "properties": {"magmom": 0.0}, "label": "Nb", "xyz": [0.04377189732999613, 10.694928938531, 15.643213587364999]}, {"species": [{"element": "Nb", "occu": 1}], "abc": [0.499617, 0.421487, 0.703581999999999], "properties": {"magmom": 0.0}, "label": "Nb", "xyz": [1.934470060002, 14.693635575442991, 13.194973310089981]}, {"species": [{"element": "Nb", "occu": 1}], "abc": [0.992898, 0.004056, 0.763149], "properties": {"magmom": 0.0}, "label": "Nb", "xyz": [3.8444077235879996, 6.97104993678, 14.312092530254999]}, {"species": [{"element": "Nb", "occu": 1}], "abc": [0.020463, 0.155706999999999, 0.566554999999999], "properties": {"magmom": 0.001}, "label": "Nb", "xyz": [0.079230812478, 8.196906501858972, 10.625169637224982]}, {"species": [{"element": "Nb", "occu": 1}], "abc": [0.998038, 0.693199, 0.628879], "properties": {"magmom": 0.001}, "label": "Nb", "xyz": [3.864309320428, 19.395954152791, 11.793993621604999]}, {"species": [{"element": "Nb", "occu": 1}], "abc": [0.992898, 0.995943999999999, 0.236850999999999], "properties": {"magmom": 0.0}, "label": "Nb", "xyz": [3.8444077235879996, 21.847119063219974, 4.441902469744981]}, {"species": [{"element": "Nb", "occu": 1}], "abc": [0.003483, 0.15156, 0.303435], "properties": {"magmom": 0.0}, "label": "Nb", "xyz": [0.013485848598, 5.73902364114, 5.690618472825]}, {"species": [{"element": "Nb", "occu": 1}], "abc": [0.503721, 0.734279, 0.841580999999999], "properties": {"magmom": 0.0}, "label": "Nb", "xyz": [1.950360362226, 22.129450281574993, 15.783005866094982]}, {"species": [{"element": "Nb", "occu": 1}], "abc": [0.999033, 0.315098, 0.639091], "properties": {"magmom": 0.0}, "label": "Nb", "xyz": [3.868161866898, 12.006013697678, 11.985509418545]}, {"species": [{"element": "Nb", "occu": 1}], "abc": [0.999033, 0.684902, 0.360909], "properties": {"magmom": 0.0}, "label": "Nb", "xyz": [3.868161866898, 16.812155302322, 6.768485581455]}, {"species": [{"element": "Nb", "occu": 1}], "abc": [0.003483, 0.8484400000000001, 0.696565], "properties": {"magmom": 0.0}, "label": "Nb", "xyz": [0.013485848598, 23.079145358860004, 13.063376527175]}, {"species": [{"element": "Nb", "occu": 1}], "abc": [0.999825, 0.531778, 0.562161999999999], "properties": {"magmom": 0.0}, "label": "Nb", "xyz": [3.8712284164499997, 15.599217928689992, 10.542783337189983]}, {"species": [{"element": "Nb", "occu": 1}], "abc": [0.485657, 0.110358, 0.092602999999999], "properties": {"magmom": 0.0}, "label": "Nb", "xyz": [1.880418252242, 3.019998284441991, 1.7366761989849813]}, {"species": [{"element": "Nb", "occu": 1}], "abc": [0.501458, 0.581178, 0.7708400000000001], "properties": {"magmom": 0.001}, "label": "Nb", "xyz": [1.941598238948, 18.461022161826, 14.456329505800001]}, {"species": [{"element": "Nb", "occu": 1}], "abc": [0.506428, 0.265268, 0.898044], "properties": {"magmom": 0.0}, "label": "Nb", "xyz": [1.960841611768, 13.358133262004001, 16.84191268578]}, {"species": [{"element": "Nb", "occu": 1}], "abc": [0.475365, 0.425060999999999, 0.964061], "properties": {"magmom": 0.0}, "label": "Nb", "xyz": [1.84056859569, 17.11633280130898, 18.079995173695]}, {"species": [{"element": "Nb", "occu": 1}], "abc": [0.499617, 0.5785129999999991, 0.296417999999999], "properties": {"magmom": 0.0}, "label": "Nb", "xyz": [1.934470060002, 14.124533424556972, 5.559021689909981]}, {"species": [{"element": "Nb", "occu": 1}], "abc": [0.972533, 0.0, 0.5], "properties": {"magmom": 0.001}, "label": "Nb", "xyz": [3.765556357898, 4.514706, 9.3769975]}, {"species": [{"element": "Nb", "occu": 1}], "abc": [0.7662100000000001, 0.0, 0.0], "properties": {"magmom": 0.0}, "label": "Nb", "xyz": [2.96669309626, 0.0, 0.0]}, {"species": [{"element": "Nb", "occu": 1}], "abc": [0.485657, 0.889641999999999, 0.907397], "properties": {"magmom": 0.0}, "label": "Nb", "xyz": [1.880418252242, 25.798170715557983, 17.017318801015]}, {"species": [{"element": "Nb", "occu": 1}], "abc": [0.999825, 0.46822199999999903, 0.437838], "properties": {"magmom": 0.0}, "label": "Nb", "xyz": [3.8712284164499997, 13.21895107130998, 8.21121166281]}, {"species": [{"element": "Nb", "occu": 1}], "abc": [0.020463, 0.844293, 0.433444999999999], "properties": {"magmom": 0.001}, "label": "Nb", "xyz": [0.079230812478, 20.621262498140993, 8.128825362774982]}, {"species": [{"element": "Nb", "occu": 1}], "abc": [0.501458, 0.41882199999999903, 0.22916000000000003], "properties": {"magmom": 0.001}, "label": "Nb", "xyz": [1.941598238948, 10.357146838173982, 4.2976654942]}, {"species": [{"element": "Nb", "occu": 1}], "abc": [0.503721, 0.265721, 0.158419], "properties": {"magmom": 0.0}, "label": "Nb", "xyz": [1.950360362226, 6.688718718425, 2.970989133905]}, {"species": [{"element": "Nb", "occu": 1}], "abc": [0.011304999999999002, 0.840148999999999, 0.165873], "properties": {"magmom": 0.0}, "label": "Nb", "xyz": [0.04377189732999613, 18.12324006146898, 3.1107814126349997]}, {"species": [{"element": "Nb", "occu": 1}], "abc": [0.998038, 0.306801, 0.371121], "properties": {"magmom": 0.001}, "label": "Nb", "xyz": [3.864309320428, 9.422214847209, 6.960001378395]}, {"species": [{"element": "Nb", "occu": 1}], "abc": [0.475365, 0.574939, 0.035939], "properties": {"magmom": 0.0}, "label": "Nb", "xyz": [1.84056859569, 11.701836198691, 0.673999826305]}, {"species": [{"element": "Nb", "occu": 1}], "abc": [0.506428, 0.734731999999999, 0.101955999999999], "properties": {"magmom": 0.0}, "label": "Nb", "xyz": [1.960841611768, 15.460035737995973, 1.9120823142199814]}, {"species": [{"element": "O", "occu": 1}], "abc": [0.49981299999999906, 0.181863, 0.13181299999999901], "properties": {"magmom": -0.0}, "label": "O", "xyz": [1.9352289535779965, 4.789036598246991, 2.4720203429349814]}, {"species": [{"element": "O", "occu": 1}], "abc": [0.504987, 0.33941000000000004, 0.066382], "properties": {"magmom": -0.0}, "label": "O", "xyz": [1.955262195222, 7.315892440754001, 1.24492769609]}, {"species": [{"element": "O", "occu": 1}], "abc": [0.0015509999999990002, 0.7545700000000001, 0.813055], "properties": {"magmom": -0.0}, "label": "O", "xyz": [0.006005326205996129, 22.27341094315, 15.248029404725]}, {"species": [{"element": "O", "occu": 1}], "abc": [0.999765999999999, 0.577230999999999, 0.461711999999999], "properties": {"magmom": -0.0}, "label": "O", "xyz": [3.870999973995996, 15.591671865210973, 8.65894453943998]}, {"species": [{"element": "O", "occu": 1}], "abc": [0.006887, 0.086722, 0.938913], "properties": {"magmom": -0.0}, "label": "O", "xyz": [0.026665816622, 10.19395289371, 17.608369707435]}, {"species": [{"element": "O", "occu": 1}], "abc": [0.49548000000000003, 0.0137, 0.206315], "properties": {"magmom": -0.0}, "label": "O", "xyz": [1.9184519848800001, 2.1340091076800003, 3.869230478425]}, {"species": [{"element": "O", "occu": 1}], "abc": [0.000208, 0.404997, 0.259115], "properties": {"magmom": -0.0}, "label": "O", "xyz": [0.000805356448, 10.354043309109, 4.8594414144249996]}, {"species": [{"element": "O", "occu": 1}], "abc": [0.007031, 0.079527, 0.536121], "properties": {"magmom": -0.0}, "label": "O", "xyz": [0.027223371086, 6.414597868791001, 10.054410553395]}, {"species": [{"element": "O", "occu": 1}], "abc": [0.999765999999999, 0.422769, 0.538288], "properties": {"magmom": -0.0}, "label": "O", "xyz": [3.870999973995996, 13.226497134789, 10.09505046056]}, {"species": [{"element": "O", "occu": 1}], "abc": [0.499438, 0.165459, 0.573836999999999], "properties": {"magmom": -0.0}, "label": "O", "xyz": [1.933776988828, 8.455638638306992, 10.761736228814982]}, {"species": [{"element": "O", "occu": 1}], "abc": [0.499598999999999, 0.341338, 0.20097399999999901], "properties": {"magmom": -0.0}, "label": "O", "xyz": [1.9344003656939963, 8.569331784153992, 3.7690653911299816]}, {"species": [{"element": "O", "occu": 1}], "abc": [0.503567, 0.500927999999999, 0.861929], "properties": {"magmom": -0.0}, "label": "O", "xyz": [1.949764088702, 17.69545452224398, 16.164612156355]}, {"species": [{"element": "O", "occu": 1}], "abc": [0.999647, 0.426332999999999, 0.670721], "properties": {"magmom": -0.0}, "label": "O", "xyz": [3.870539217182, 14.49281638413298, 12.578698280395]}, {"species": [{"element": "O", "occu": 1}], "abc": [0.499438, 0.834541, 0.426162999999999], "properties": {"magmom": -0.0}, "label": "O", "xyz": [1.933776988828, 20.36253036169299, 7.992258771184981]}, {"species": [{"element": "O", "occu": 1}], "abc": [0.000208, 0.595003, 0.740885], "properties": {"magmom": -0.0}, "label": "O", "xyz": [0.000805356448, 18.464125690891002, 13.894553585575]}, {"species": [{"element": "O", "occu": 1}], "abc": [0.499961999999999, 0.340468999999999, 0.791613], "properties": {"magmom": -0.0}, "label": "O", "xyz": [1.9358058675719962, 13.885258228588981, 14.845906243935]}, {"species": [{"element": "O", "occu": 1}], "abc": [0.499281, 0.664296, 0.653361], "properties": {"magmom": -0.0}, "label": "O", "xyz": [1.933169099586, 19.045057773804, 12.253128927195]}, {"species": [{"element": "O", "occu": 1}], "abc": [0.499816999999999, 0.503574, 0.585822], "properties": {"magmom": -0.0}, "label": "O", "xyz": [1.9352444412019962, 15.254731714182, 10.986502858889999]}, {"species": [{"element": "O", "occu": 1}], "abc": [0.000294999999999, 0.414996, 0.963376], "properties": {"magmom": -0.0}, "label": "O", "xyz": [0.0011422122699961282, 16.910973814884002, 18.06714868712]}, {"species": [{"element": "O", "occu": 1}], "abc": [0.499598999999999, 0.658662, 0.799026], "properties": {"magmom": -0.0}, "label": "O", "xyz": [1.9344003656939963, 20.248837215846, 14.98492960887]}, {"species": [{"element": "O", "occu": 1}], "abc": [0.991807999999999, 0.918176999999999, 0.326754999999999], "properties": {"magmom": -0.0}, "label": "O", "xyz": [3.8401873460479963, 21.119987054048973, 6.127961636224981]}, {"species": [{"element": "O", "occu": 1}], "abc": [6.6e-05, 0.246301, 0.737221999999999], "properties": {"magmom": -0.0}, "label": "O", "xyz": [0.000255545796, 11.530671811320993, 13.825857701889982]}, {"species": [{"element": "O", "occu": 1}], "abc": [0.499445, 0.343246, 0.645459], "properties": {"magmom": -0.0}, "label": "O", "xyz": [1.93380409217, 12.620526925330001, 12.104934858705]}, {"species": [{"element": "O", "occu": 1}], "abc": [0.998868, 0.076403, 0.264418], "properties": {"magmom": -0.0}, "label": "O", "xyz": [3.867523002408, 3.899459463287, 4.95889384991]}, {"species": [{"element": "O", "occu": 1}], "abc": [0.505361, 0.8201200000000001, 0.153153999999999], "properties": {"magmom": -0.0}, "label": "O", "xyz": [1.956710288066, 17.612045956287993, 2.8722493502299815]}, {"species": [{"element": "O", "occu": 1}], "abc": [0.995118, 0.238309, 0.466024999999999], "properties": {"magmom": -0.0}, "label": "O", "xyz": [3.853003354908, 8.923770619212991, 8.739830519874982]}, {"species": [{"element": "O", "occu": 1}], "abc": [0.499816999999999, 0.496426, 0.414178], "properties": {"magmom": -0.0}, "label": "O", "xyz": [1.9352444412019962, 13.563437285817999, 7.76749214111]}, {"species": [{"element": "O", "occu": 1}], "abc": [0.9997400000000001, 0.762162999999999, 0.668221], "properties": {"magmom": -0.0}, "label": "O", "xyz": [3.8708993044400004, 21.11590111744298, 12.531813292894999]}, {"species": [{"element": "O", "occu": 1}], "abc": [3.2000000000000005e-05, 0.607321, 0.588896], "properties": {"magmom": -0.0}, "label": "O", "xyz": [0.00012390099200000002, 17.335512299149002, 11.04415263952]}, {"species": [{"element": "O", "occu": 1}], "abc": [0.501367999999999, 0.825932, 0.723216], "properties": {"magmom": -0.0}, "label": "O", "xyz": [1.9412497674079963, 22.874382875515998, 13.563189247919999]}, {"species": [{"element": "O", "occu": 1}], "abc": [0.49981299999999906, 0.818137, 0.868186999999999], "properties": {"magmom": -0.0}, "label": "O", "xyz": [1.9352289535779965, 24.029132401752992, 16.281974657064982]}, {"species": [{"element": "O", "occu": 1}], "abc": [0.499075, 0.0, 0.5], "properties": {"magmom": -0.0}, "label": "O", "xyz": [1.93237148695, 4.514706, 9.3769975]}, {"species": [{"element": "O", "occu": 1}], "abc": [0.494594, 0.026299, 0.059534], "properties": {"magmom": -0.0}, "label": "O", "xyz": [1.9150214761639999, 1.0579815343510002, 1.1165003383299998]}, {"species": [{"element": "O", "occu": 1}], "abc": [0.999647, 0.573666999999999, 0.329279], "properties": {"magmom": -0.0}, "label": "O", "xyz": [3.870539217182, 14.325352615866981, 6.175296719605]}, {"species": [{"element": "O", "occu": 1}], "abc": [0.006887, 0.913277999999999, 0.061086999999999], "properties": {"magmom": -0.0}, "label": "O", "xyz": [0.026665816622, 18.62421610628997, 1.1456252925649812]}, {"species": [{"element": "O", "occu": 1}], "abc": [0.495110999999999, 0.18146299999999901, 0.9968809999999991], "properties": {"magmom": -0.0}, "label": "O", "xyz": [1.9170232515659962, 12.592176475462972, 18.695501289594983]}, {"species": [{"element": "O", "occu": 1}], "abc": [0.991807999999999, 0.08182299999999901, 0.673245], "properties": {"magmom": -0.0}, "label": "O", "xyz": [3.8401873460479963, 7.698181945950981, 12.626033363774999]}, {"species": [{"element": "O", "occu": 1}], "abc": [0.503567, 0.499071999999999, 0.138071], "properties": {"magmom": -0.0}, "label": "O", "xyz": [1.949764088702, 11.12271447775598, 2.589382843645]}, {"species": [{"element": "O", "occu": 1}], "abc": [0.000294999999999, 0.585004, 0.036624], "properties": {"magmom": -0.0}, "label": "O", "xyz": [0.0011422122699961282, 11.907195185116, 0.68684631288]}, {"species": [{"element": "O", "occu": 1}], "abc": [0.003624999999999, 0.9188900000000001, 0.602677], "properties": {"magmom": -0.0}, "label": "O", "xyz": [0.014035659249996129, 23.625509855654002, 11.302601444615]}, {"species": [{"element": "O", "occu": 1}], "abc": [0.499961999999999, 0.659531, 0.208387], "properties": {"magmom": -0.0}, "label": "O", "xyz": [1.9358058675719962, 14.932910771411, 3.9080887560649997]}, {"species": [{"element": "O", "occu": 1}], "abc": [0.004586, 0.914214, 0.195569], "properties": {"magmom": -0.0}, "label": "O", "xyz": [0.017756560916, 19.857031767426, 3.667700048155]}, {"species": [{"element": "O", "occu": 1}], "abc": [0.004586, 0.085786, 0.804431], "properties": {"magmom": -0.0}, "label": "O", "xyz": [0.017756560916, 8.961137232574, 15.086294951845]}, {"species": [{"element": "O", "occu": 1}], "abc": [0.49945199999999906, 0.50124, 0.2717], "properties": {"magmom": -0.0}, "label": "O", "xyz": [1.9338311955119964, 12.372207799080002, 5.0954604415]}, {"species": [{"element": "O", "occu": 1}], "abc": [0.9997400000000001, 0.237837, 0.331779], "properties": {"magmom": -0.0}, "label": "O", "xyz": [3.8708993044400004, 7.702267882557, 6.222181707104999]}, {"species": [{"element": "O", "occu": 1}], "abc": [0.0015509999999990002, 0.24543, 0.186945], "properties": {"magmom": -0.0}, "label": "O", "xyz": [0.006005326205996129, 6.54475805685, 3.5059655952749997]}, {"species": [{"element": "O", "occu": 1}], "abc": [0.998671, 0.253092, 0.59721], "properties": {"magmom": -0.0}, "label": "O", "xyz": [3.866760236926, 10.400831227164002, 11.20007335395]}, {"species": [{"element": "O", "occu": 1}], "abc": [0.49548000000000003, 0.9863000000000001, 0.793685], "properties": {"magmom": -0.0}, "label": "O", "xyz": [1.9184519848800001, 26.684159892320004, 14.884764521574999]}, {"species": [{"element": "O", "occu": 1}], "abc": [0.501367999999999, 0.174068, 0.276784], "properties": {"magmom": -0.0}, "label": "O", "xyz": [1.9412497674079963, 5.943786124484, 5.190805752079999]}, {"species": [{"element": "O", "occu": 1}], "abc": [0.505361, 0.17988, 0.846846], "properties": {"magmom": -0.0}, "label": "O", "xyz": [1.956710288066, 11.206123043712001, 15.88174564977]}, {"species": [{"element": "O", "occu": 1}], "abc": [0.003624999999999, 0.08111, 0.397323], "properties": {"magmom": -0.0}, "label": "O", "xyz": [0.014035659249996129, 5.192659144346, 7.451393555385]}, {"species": [{"element": "O", "occu": 1}], "abc": [0.499445, 0.656754, 0.354541], "properties": {"magmom": -0.0}, "label": "O", "xyz": [1.93380409217, 16.19764207467, 6.649060141295]}, {"species": [{"element": "O", "occu": 1}], "abc": [0.998671, 0.746908, 0.40279000000000004], "properties": {"magmom": -0.0}, "label": "O", "xyz": [3.866760236926, 18.417337772836, 7.553921646050001]}, {"species": [{"element": "O", "occu": 1}], "abc": [0.993879, 0.915036, 0.882108], "properties": {"magmom": -0.0}, "label": "O", "xyz": [3.848206063374, 26.072341610748, 16.54304902146]}, {"species": [{"element": "O", "occu": 1}], "abc": [0.506181, 0.339069, 0.927211999999999], "properties": {"magmom": -0.0}, "label": "O", "xyz": [1.959885250986, 15.081933206576991, 17.38892921193998]}, {"species": [{"element": "O", "occu": 1}], "abc": [0.499281, 0.335704, 0.346639], "properties": {"magmom": -0.0}, "label": "O", "xyz": [1.933169099586, 9.773111226196, 6.500866072805]}, {"species": [{"element": "O", "occu": 1}], "abc": [0.495110999999999, 0.818537, 0.003119], "properties": {"magmom": -0.0}, "label": "O", "xyz": [1.9170232515659962, 16.225992524537002, 0.058493710404999996]}, {"species": [{"element": "O", "occu": 1}], "abc": [0.49945199999999906, 0.49876000000000004, 0.7283000000000001], "properties": {"magmom": -0.0}, "label": "O", "xyz": [1.9338311955119964, 16.445961200920003, 13.658534558500001]}, {"species": [{"element": "O", "occu": 1}], "abc": [0.494594, 0.973700999999999, 0.940465999999999], "properties": {"magmom": -0.0}, "label": "O", "xyz": [1.9150214761639999, 27.760187465648972, 17.637494661669983]}, {"species": [{"element": "O", "occu": 1}], "abc": [3.2000000000000005e-05, 0.392679, 0.411103999999999], "properties": {"magmom": -0.0}, "label": "O", "xyz": [0.00012390099200000002, 11.482656700850992, 7.709842360479982]}, {"species": [{"element": "O", "occu": 1}], "abc": [0.007031, 0.920473, 0.463879], "properties": {"magmom": -0.0}, "label": "O", "xyz": [0.027223371086, 22.403571131209, 8.699584446605]}, {"species": [{"element": "O", "occu": 1}], "abc": [0.995118, 0.761691, 0.533975], "properties": {"magmom": -0.0}, "label": "O", "xyz": [3.853003354908, 19.894398380787003, 10.014164480125]}, {"species": [{"element": "O", "occu": 1}], "abc": [0.500104, 0.5, 0.0], "properties": {"magmom": -0.0}, "label": "O", "xyz": [1.936355678224, 9.8943785, 0.0]}, {"species": [{"element": "O", "occu": 1}], "abc": [0.993879, 0.084964, 0.117892], "properties": {"magmom": -0.0}, "label": "O", "xyz": [3.848206063374, 2.7458273892519998, 2.21094597854]}, {"species": [{"element": "O", "occu": 1}], "abc": [0.998868, 0.923597, 0.735582], "properties": {"magmom": -0.0}, "label": "O", "xyz": [3.867523002408, 24.918709536713003, 13.79510115009]}, {"species": [{"element": "O", "occu": 1}], "abc": [0.504987, 0.66059, 0.933618], "properties": {"magmom": -0.0}, "label": "O", "xyz": [1.955262195222, 21.502276559246, 17.509067303909998]}, {"species": [{"element": "O", "occu": 1}], "abc": [0.003513999999999, 0.247437, 0.885335], "properties": {"magmom": -0.0}, "label": "O", "xyz": [0.01360587768399613, 12.890525138829, 16.603568163325]}, {"species": [{"element": "O", "occu": 1}], "abc": [0.506181, 0.660930999999999, 0.072787999999999], "properties": {"magmom": -0.0}, "label": "O", "xyz": [1.959885250986, 13.736235793422972, 1.3650657880599812]}, {"species": [{"element": "O", "occu": 1}], "abc": [0.003513999999999, 0.752563, 0.114664999999999], "properties": {"magmom": -0.0}, "label": "O", "xyz": [0.01360587768399613, 15.927643861170992, 2.1504268366749812]}, {"species": [{"element": "O", "occu": 1}], "abc": [6.6e-05, 0.753699, 0.262778], "properties": {"magmom": -0.0}, "label": "O", "xyz": [0.000255545796, 17.287497188679, 4.92813729811]}]}, "task_ids": null, "uncorrected_energy_per_atom": null, "energy_per_atom": -9.454550289693879, "formation_energy_per_atom": -3.034205274693879, "energy_above_hull": 0.0, "is_stable": true, "equilibrium_reaction_energy_per_atom": null, "decomposes_to": null, "xas": null, "grain_boundaries": null, "band_gap": 1.7731, "cbm": null, "vbm": null, "efermi": 0.4008034, "is_gap_direct": null, "is_metal": null, "es_source_calc_id": null, "bandstructure": null, "dos": null, "dos_energy_up": null, "dos_energy_down": null, "is_magnetic": null, "ordering": null, "total_magnetization": 0.0422385, "total_magnetization_normalized_vol": null, "total_magnetization_normalized_formula_units": null, "num_magnetic_sites": null, "num_unique_magnetic_sites": null, "types_of_magnetic_species": null, "bulk_modulus": null, "shear_modulus": null, "universal_anisotropy": null, "homogeneous_poisson": null, "e_total": null, "e_ionic": null, "e_electronic": null, "n": null, "e_ij_max": null, "weighted_surface_energy_EV_PER_ANG2": null, "weighted_surface_energy": null, "weighted_work_function": null, "surface_anisotropy": null, "shape_factor": null, "has_reconstructed": null, "possible_species": null, "has_props": null, "theoretical": null, "database_IDs": null, "fields_not_requested": ["builder_meta", "nsites", "elements", "nelements", "composition", "composition_reduced", "chemsys", "symmetry", "property_name", "deprecated", "deprecation_reasons", "last_updated", "origins", "warnings", "task_ids", "uncorrected_energy_per_atom", "equilibrium_reaction_energy_per_atom", "decomposes_to", "xas", "grain_boundaries", "cbm", "vbm", "is_gap_direct", "is_metal", "es_source_calc_id", "bandstructure", "dos", "dos_energy_up", "dos_energy_down", "is_magnetic", "ordering", "total_magnetization_normalized_vol", "total_magnetization_normalized_formula_units", "num_magnetic_sites", "num_unique_magnetic_sites", "types_of_magnetic_species", "bulk_modulus", "shear_modulus", "universal_anisotropy", "homogeneous_poisson", "e_total", "e_ionic", "e_electronic", "n", "e_ij_max", "weighted_surface_energy_EV_PER_ANG2", "weighted_surface_energy", "weighted_work_function", "surface_anisotropy", "shape_factor", "has_reconstructed", "possible_species", "has_props", "theoretical", "database_IDs"]}