{"builder_meta": null, "nsites": null, "elements": null, "nelements": null, "composition": null, "composition_reduced": null, "formula_pretty": "Nb2O3", "formula_anonymous": "A2B3", "chemsys": null, "volume": 119.20386858387614, "density": 6.514087804223596, "density_atomic": 11.920386858387614, "symmetry": null, "property_name": null, "material_id": "mp-1095187", "deprecated": null, "deprecation_reasons": null, "last_updated": null, "origins": null, "warnings": null, "structure": {"@module": "pymatgen.core.structure", "@class": "Structure", "charge": 0, "lattice": {"matrix": [[1.435695, 5.915497, 0.0], [-1.435695, 5.915497, 0.0], [0.0, 2.882673999999999, 7.017896]], "pbc": [true, true, true], "a": 6.087226370855121, "b": 6.087226370855121, "c": 7.5868750917022485, "alpha": 68.33147474955035, "beta": 68.33147474955035, "gamma": 27.283904266001493, "volume": 119.20386858387614}, "properties": {}, "sites": [{"species": [{"element": "Nb", "occu": 1}], "abc": [0.163009, 0.163009, 0.154631], "properties": {"magmom": -0.0}, "label": "Nb", "xyz": [0.0, 2.37430926424, 1.085184276376]}, {"species": [{"element": "Nb", "occu": 1}], "abc": [0.836990999999999, 0.836990999999999, 0.845368999999999], "properties": {"magmom": -0.0}, "label": "Nb", "xyz": [0.0, 12.339358735759987, 5.932711723623994]}, {"species": [{"element": "Nb", "occu": 1}], "abc": [0.340366, 0.340366, 0.35772000000000004], "properties": {"magmom": -0.0}, "label": "Nb", "xyz": [0.0, 5.058058247084, 2.51044175712]}, {"species": [{"element": "Nb", "occu": 1}], "abc": [0.659633999999999, 0.659633999999999, 0.6422800000000001], "properties": {"magmom": -0.0}, "label": "Nb", "xyz": [0.0, 9.65560975291599, 4.507454242880001]}, {"species": [{"element": "O", "occu": 1}], "abc": [0.138511, 0.138511, 0.446519], "properties": {"magmom": -0.0}, "label": "O", "xyz": [0.0, 2.9258915217399997, 3.133623904024]}, {"species": [{"element": "O", "occu": 1}], "abc": [0.861489, 0.861489, 0.553481], "properties": {"magmom": -0.0}, "label": "O", "xyz": [0.0, 11.78777647826, 3.884272095976]}, {"species": [{"element": "O", "occu": 1}], "abc": [0.189776, 0.189776, 0.846792999999999], "properties": {"magmom": -0.0}, "label": "O", "xyz": [0.0, 4.686266881825997, 5.942705207527993]}, {"species": [{"element": "O", "occu": 1}], "abc": [0.8102239999999991, 0.8102239999999991, 0.153206999999999], "properties": {"magmom": -0.0}, "label": "O", "xyz": [0.0, 10.027401118173987, 1.075190792471993]}, {"species": [{"element": "O", "occu": 1}], "abc": [0.473755999999999, 0.473755999999999, 0.793791999999999], "properties": {"magmom": 0.0}, "label": "O", "xyz": [0.0, 7.893247953271985, 5.570749701631994]}, {"species": [{"element": "O", "occu": 1}], "abc": [0.526243999999999, 0.526243999999999, 0.206208], "properties": {"magmom": 0.0}, "label": "O", "xyz": [0.0, 6.820420046727989, 1.4471462983680001]}]}, "task_ids": null, "uncorrected_energy_per_atom": null, "energy_per_atom": -9.581871108, "formation_energy_per_atom": -2.572572488999999, "energy_above_hull": 0.08106879983333301, "is_stable": false, "equilibrium_reaction_energy_per_atom": null, "decomposes_to": null, "xas": null, "grain_boundaries": null, "band_gap": 0.0, "cbm": null, "vbm": null, "efermi": 5.24135957, "is_gap_direct": null, "is_metal": null, "es_source_calc_id": null, "bandstructure": null, "dos": null, "dos_energy_up": null, "dos_energy_down": null, "is_magnetic": null, "ordering": null, "total_magnetization": 0.0030911, "total_magnetization_normalized_vol": null, "total_magnetization_normalized_formula_units": null, "num_magnetic_sites": null, "num_unique_magnetic_sites": null, "types_of_magnetic_species": null, "bulk_modulus": null, "shear_modulus": null, "universal_anisotropy": null, "homogeneous_poisson": null, "e_total": null, "e_ionic": null, "e_electronic": null, "n": null, "e_ij_max": null, "weighted_surface_energy_EV_PER_ANG2": null, "weighted_surface_energy": null, "weighted_work_function": null, "surface_anisotropy": null, "shape_factor": null, "has_reconstructed": null, "possible_species": null, "has_props": null, "theoretical": null, "database_IDs": null, "fields_not_requested": ["builder_meta", "nsites", "elements", "nelements", "composition", "composition_reduced", "chemsys", "symmetry", "property_name", "deprecated", "deprecation_reasons", "last_updated", "origins", "warnings", "task_ids", "uncorrected_energy_per_atom", "equilibrium_reaction_energy_per_atom", "decomposes_to", "xas", "grain_boundaries", "cbm", "vbm", "is_gap_direct", "is_metal", "es_source_calc_id", "bandstructure", "dos", "dos_energy_up", "dos_energy_down", "is_magnetic", "ordering", "total_magnetization_normalized_vol", "total_magnetization_normalized_formula_units", "num_magnetic_sites", "num_unique_magnetic_sites", "types_of_magnetic_species", "bulk_modulus", "shear_modulus", "universal_anisotropy", "homogeneous_poisson", "e_total", "e_ionic", "e_electronic", "n", "e_ij_max", "weighted_surface_energy_EV_PER_ANG2", "weighted_surface_energy", "weighted_work_function", "surface_anisotropy", "shape_factor", "has_reconstructed", "possible_species", "has_props", "theoretical", "database_IDs"]}