{"builder_meta": null, "nsites": null, "elements": null, "nelements": null, "composition": null, "composition_reduced": null, "formula_pretty": "Nb2P5", "formula_anonymous": "A2B5", "chemsys": null, "volume": 450.80804967254755, "density": 5.019564816258623, "density_atomic": 16.10028748830527, "symmetry": null, "property_name": null, "material_id": "mp-27672", "deprecated": null, "deprecation_reasons": null, "last_updated": null, "origins": null, "warnings": null, "structure": {"@module": "pymatgen.core.structure", "@class": "Structure", "charge": 0, "lattice": {"matrix": [[3.39205627, -0.0, 0.0], [-0.0, 7.93228258, 0.0], [0.0, 0.0, 16.75446008]], "pbc": [true, true, true], "a": 3.39205627, "b": 7.93228258, "c": 16.75446008, "alpha": 90.0, "beta": 90.0, "gamma": 90.0, "volume": 450.80804967254755}, "properties": {}, "sites": [{"species": [{"element": "Nb", "occu": 1}], "abc": [0.25, 0.32690554, 0.77388289], "properties": {"magmom": 0.0}, "label": "Nb", "xyz": [0.8480140675, 2.593107120247493, 12.965989987100032]}, {"species": [{"element": "Nb", "occu": 1}], "abc": [0.75, 0.6730944600000001, 0.22611711], "properties": {"magmom": 0.0}, "label": "Nb", "xyz": [2.5440422025, 5.339175459752507, 3.7884700928999693]}, {"species": [{"element": "Nb", "occu": 1}], "abc": [0.75, 0.82690554, 0.72611711], "properties": {"magmom": 0.0}, "label": "Nb", "xyz": [2.5440422025, 6.559248410247493, 12.16570013289997]}, {"species": [{"element": "Nb", "occu": 1}], "abc": [0.25, 0.17309446, 0.27388289], "properties": {"magmom": 0.0}, "label": "Nb", "xyz": [0.8480140675, 1.3730341697525068, 4.588759947100032]}, {"species": [{"element": "Nb", "occu": 1}], "abc": [0.25, 0.33529654000000003, 0.59487219], "properties": {"magmom": -0.0}, "label": "Nb", "xyz": [0.8480140675, 2.6596669033762734, 9.966762360057176]}, {"species": [{"element": "Nb", "occu": 1}], "abc": [0.75, 0.66470346, 0.40512781000000003], "properties": {"magmom": -0.0}, "label": "Nb", "xyz": [2.5440422025, 5.272615676623727, 6.787697719942826]}, {"species": [{"element": "Nb", "occu": 1}], "abc": [0.75, 0.83529654, 0.90512781], "properties": {"magmom": -0.0}, "label": "Nb", "xyz": [2.5440422025, 6.6258081933762725, 15.164927759942826]}, {"species": [{"element": "Nb", "occu": 1}], "abc": [0.25, 0.16470346, 0.09487219], "properties": {"magmom": -0.0}, "label": "Nb", "xyz": [0.8480140675, 1.3064743866237267, 1.5895323200571752]}, {"species": [{"element": "P", "occu": 1}], "abc": [0.75, 0.15350928, 0.6852891600000001], "properties": {"magmom": -0.0}, "label": "P", "xyz": [2.5440422025, 1.2176789876123424, 11.481649874476735]}, {"species": [{"element": "P", "occu": 1}], "abc": [0.25, 0.84649072, 0.31471084], "properties": {"magmom": -0.0}, "label": "P", "xyz": [0.8480140675, 6.7146035923876575, 5.2728102055232675]}, {"species": [{"element": "P", "occu": 1}], "abc": [0.25, 0.65350928, 0.81471084], "properties": {"magmom": -0.0}, "label": "P", "xyz": [0.8480140675, 5.183820277612342, 13.650040245523268]}, {"species": [{"element": "P", "occu": 1}], "abc": [0.75, 0.34649072000000003, 0.18528916], "properties": {"magmom": -0.0}, "label": "P", "xyz": [2.5440422025, 2.748462302387658, 3.104419834476733]}, {"species": [{"element": "P", "occu": 1}], "abc": [0.25, 0.00296439, 0.81496455], "properties": {"magmom": -0.0}, "label": "P", "xyz": [0.8480140675, 0.0235143791573262, 13.654291019590165]}, {"species": [{"element": "P", "occu": 1}], "abc": [0.75, 0.9970356100000001, 0.18503545], "properties": {"magmom": -0.0}, "label": "P", "xyz": [2.5440422025, 7.908768200842674, 3.100169060409836]}, {"species": [{"element": "P", "occu": 1}], "abc": [0.75, 0.50296439, 0.68503545], "properties": {"magmom": -0.0}, "label": "P", "xyz": [2.5440422025, 3.9896556691573264, 11.477399100409837]}, {"species": [{"element": "P", "occu": 1}], "abc": [0.25, 0.49703561, 0.31496455], "properties": {"magmom": -0.0}, "label": "P", "xyz": [0.8480140675, 3.942626910842674, 5.277060979590164]}, {"species": [{"element": "P", "occu": 1}], "abc": [0.25, 0.46306256, 0.04001689], "properties": {"magmom": -0.0}, "label": "P", "xyz": [0.8480140675, 3.673143078138205, 0.6704613860307512]}, {"species": [{"element": "P", "occu": 1}], "abc": [0.75, 0.53693744, 0.95998311], "properties": {"magmom": -0.0}, "label": "P", "xyz": [2.5440422025, 4.259139501861795, 16.08399869396925]}, {"species": [{"element": "P", "occu": 1}], "abc": [0.75, 0.96306256, 0.45998311000000003], "properties": {"magmom": -0.0}, "label": "P", "xyz": [2.5440422025, 7.639284368138204, 7.70676865396925]}, {"species": [{"element": "P", "occu": 1}], "abc": [0.25, 0.03693744, 0.54001689], "properties": {"magmom": -0.0}, "label": "P", "xyz": [0.8480140675, 0.2929982118617952, 9.04769142603075]}, {"species": [{"element": "P", "occu": 1}], "abc": [0.75, 0.18393934, 0.38519008], "properties": {"magmom": 0.0}, "label": "P", "xyz": [2.5440422025, 1.4590588224586973, 6.453651818572006]}, {"species": [{"element": "P", "occu": 1}], "abc": [0.25, 0.81606066, 0.61480992], "properties": {"magmom": 0.0}, "label": "P", "xyz": [0.8480140675, 6.4732237575413025, 10.300808261427994]}, {"species": [{"element": "P", "occu": 1}], "abc": [0.25, 0.68393934, 0.11480992], "properties": {"magmom": 0.0}, "label": "P", "xyz": [0.8480140675, 5.425200112458697, 1.9235782214279937]}, {"species": [{"element": "P", "occu": 1}], "abc": [0.75, 0.31606066, 0.88519008], "properties": {"magmom": 0.0}, "label": "P", "xyz": [2.5440422025, 2.5070824675413026, 14.830881858572008]}, {"species": [{"element": "P", "occu": 1}], "abc": [0.75, 0.12134628, 0.9776014900000001], "properties": {"magmom": -0.0}, "label": "P", "xyz": [2.5440422025, 0.9625529829918024, 16.37918513835352]}, {"species": [{"element": "P", "occu": 1}], "abc": [0.25, 0.87865372, 0.02239851], "properties": {"magmom": -0.0}, "label": "P", "xyz": [0.8480140675, 6.969729597008198, 0.37527494164648084]}, {"species": [{"element": "P", "occu": 1}], "abc": [0.25, 0.62134628, 0.52239851], "properties": {"magmom": -0.0}, "label": "P", "xyz": [0.8480140675, 4.928694272991803, 8.752504981646481]}, {"species": [{"element": "P", "occu": 1}], "abc": [0.75, 0.37865372, 0.47760149], "properties": {"magmom": -0.0}, "label": "P", "xyz": [2.5440422025, 3.0035883070081977, 8.00195509835352]}]}, "task_ids": null, "uncorrected_energy_per_atom": null, "energy_per_atom": -7.312635057857144, "formation_energy_per_atom": -0.5583525283163271, "energy_above_hull": 0.019809007193876002, "is_stable": false, "equilibrium_reaction_energy_per_atom": null, "decomposes_to": null, "xas": null, "grain_boundaries": null, "band_gap": 0.0, "cbm": null, "vbm": null, "efermi": 8.04244077, "is_gap_direct": null, "is_metal": null, "es_source_calc_id": null, "bandstructure": null, "dos": null, "dos_energy_up": null, "dos_energy_down": null, "is_magnetic": null, "ordering": null, "total_magnetization": 4e-07, "total_magnetization_normalized_vol": null, "total_magnetization_normalized_formula_units": null, "num_magnetic_sites": null, "num_unique_magnetic_sites": null, "types_of_magnetic_species": null, "bulk_modulus": null, "shear_modulus": null, "universal_anisotropy": null, "homogeneous_poisson": null, "e_total": null, "e_ionic": null, "e_electronic": null, "n": null, "e_ij_max": null, "weighted_surface_energy_EV_PER_ANG2": null, "weighted_surface_energy": null, "weighted_work_function": null, "surface_anisotropy": null, "shape_factor": null, "has_reconstructed": null, "possible_species": null, "has_props": null, "theoretical": null, "database_IDs": null, "fields_not_requested": ["builder_meta", "nsites", "elements", "nelements", "composition", "composition_reduced", "chemsys", "symmetry", "property_name", "deprecated", "deprecation_reasons", "last_updated", "origins", "warnings", "task_ids", "uncorrected_energy_per_atom", "equilibrium_reaction_energy_per_atom", "decomposes_to", "xas", "grain_boundaries", "cbm", "vbm", "is_gap_direct", "is_metal", "es_source_calc_id", "bandstructure", "dos", "dos_energy_up", "dos_energy_down", "is_magnetic", "ordering", "total_magnetization_normalized_vol", "total_magnetization_normalized_formula_units", "num_magnetic_sites", "num_unique_magnetic_sites", "types_of_magnetic_species", "bulk_modulus", "shear_modulus", "universal_anisotropy", "homogeneous_poisson", "e_total", "e_ionic", "e_electronic", "n", "e_ij_max", "weighted_surface_energy_EV_PER_ANG2", "weighted_surface_energy", "weighted_work_function", "surface_anisotropy", "shape_factor", "has_reconstructed", "possible_species", "has_props", "theoretical", "database_IDs"]}