{
  "builder_meta": null,
  "nsites": null,
  "elements": null,
  "nelements": null,
  "composition": null,
  "composition_reduced": null,
  "formula_pretty": "Nb2Pt",
  "formula_anonymous": "AB2",
  "chemsys": null,
  "volume": 515.5332375019076,
  "density": 12.268732727810276,
  "density_atomic": 17.184441250063585,
  "symmetry": null,
  "property_name": null,
  "material_id": "mp-1192954",
  "deprecated": null,
  "deprecation_reasons": null,
  "last_updated": null,
  "origins": null,
  "warnings": null,
  "structure": {
    "@module": "pymatgen.core.structure",
    "@class": "Structure",
    "charge": 0,
    "lattice": {
      "matrix": [
        [0.0, 0.0, 5.16402119],
        [9.99158456, -1.031e-5, 0.0],
        [-1.1320000000000002e-5, 9.99158268, 0.0]
      ],
      "pbc": [true, true, true],
      "a": 5.16402119,
      "b": 9.99158456000532,
      "c": 9.991582680006413,
      "alpha": 90.00012403516433,
      "beta": 90.0,
      "gamma": 90.0,
      "volume": 515.5332375019077
    },
    "properties": {},
    "sites": [
      {
        "species": [{ "element": "Nb", "occu": 1 }],
        "abc": [0.5, 0.10744731, 0.89252274],
        "properties": { "magmom": -0.0 },
        "label": "Nb",
        "xyz": [1.073558780252117, 8.917713642708376, 2.582010595]
      },
      {
        "species": [{ "element": "Nb", "occu": 1 }],
        "abc": [0.5, 0.8925508, 0.10748097000000001],
        "properties": { "magmom": -0.0 },
        "label": "Nb",
        "xyz": [8.917995575611068, 1.073895796082852, 2.582010595]
      },
      {
        "species": [{ "element": "Nb", "occu": 1 }],
        "abc": [-0.0, 0.39251978, 0.39255335],
        "properties": { "magmom": -0.0 },
        "label": "Nb",
        "xyz": [3.9218901296386743, 3.9222252059570466, 0.0]
      },
      {
        "species": [{ "element": "Nb", "occu": 1 }],
        "abc": [-0.0, 0.60747837, 0.60744767],
        "properties": { "magmom": -0.0 },
        "label": "Nb",
        "xyz": [6.069664625918342, 6.069357355476361, 0.0]
      },
      {
        "species": [{ "element": "Nb", "occu": 1 }],
        "abc": [0.5, 0.37437421, 0.96245281],
        "properties": { "magmom": 0.0 },
        "label": "Nb",
        "xyz": [3.7405806813323883, 9.616422966915227, 2.582010595]
      },
      {
        "species": [{ "element": "Nb", "occu": 1 }],
        "abc": [0.5, 0.62563315, 0.03755339],
        "properties": { "magmom": 0.0 },
        "label": "Nb",
        "xyz": [6.251066096659788, 0.3752113508215087, 2.582010595]
      },
      {
        "species": [{ "element": "Nb", "occu": 1 }],
        "abc": [-0.0, 0.12560604, 0.46246036],
        "properties": { "magmom": 0.0 },
        "label": "Nb",
        "xyz": [1.2549981348554673, 4.620709628164293, 0.0]
      },
      {
        "species": [{ "element": "Nb", "occu": 1 }],
        "abc": [-0.0, 0.87438262, 0.53753795],
        "properties": { "magmom": 0.0 },
        "label": "Nb",
        "xyz": [8.736461800594752, 5.370845856177895, 0.0]
      },
      {
        "species": [{ "element": "Nb", "occu": 1 }],
        "abc": [0.5, 0.96245882, 0.37438765],
        "properties": { "magmom": 0.0 },
        "label": "Nb",
        "xyz": [9.616484447479621, 3.7407152363954683, 2.582010595]
      },
      {
        "species": [{ "element": "Nb", "occu": 1 }],
        "abc": [0.5, 0.0375367, 0.62561238],
        "properties": { "magmom": 0.0 },
        "label": "Nb",
        "xyz": [0.37504403022121036, 6.250857433398202, 2.582010595]
      },
      {
        "species": [{ "element": "Nb", "occu": 1 }],
        "abc": [-0.0, 0.46245187, 0.12563023],
        "properties": { "magmom": 0.0 },
        "label": "Nb",
        "xyz": [4.620625541900924, 1.2552400622736368, 0.0]
      },
      {
        "species": [{ "element": "Nb", "occu": 1 }],
        "abc": [-0.0, 0.53755316, 0.87437168],
        "properties": { "magmom": 0.0 },
        "label": "Nb",
        "xyz": [5.370997955747792, 8.736351391597424, 0.0]
      },
      {
        "species": [{ "element": "Nb", "occu": 1 }],
        "abc": [0.24717385, 0.32133221, 0.67864268],
        "properties": { "magmom": 0.0 },
        "label": "Nb",
        "xyz": [3.21061026583154, 6.780711134461698, 1.2764109990138814]
      },
      {
        "species": [{ "element": "Nb", "occu": 1 }],
        "abc": [0.2471724, 0.67866897, 0.32135713],
        "properties": { "magmom": 0.0 },
        "label": "Nb",
        "xyz": [6.7809747642403915, 3.2108593371254277, 1.2764035111831558]
      },
      {
        "species": [{ "element": "Nb", "occu": 1 }],
        "abc": [0.74717339, 0.17864121, 0.17866923],
        "properties": { "magmom": 0.0 },
        "label": "Nb",
        "xyz": [1.784906733080034, 1.7851865421260615, 3.858419218564134]
      },
      {
        "species": [{ "element": "Nb", "occu": 1 }],
        "abc": [0.74717412, 0.82135693, 0.82133143],
        "properties": { "magmom": 0.0 },
        "label": "Nb",
        "xyz": [8.206647922565212, 8.206392422337684, 3.858422988299603]
      },
      {
        "species": [{ "element": "Nb", "occu": 1 }],
        "abc": [0.7528266, 0.67866897, 0.32135713],
        "properties": { "magmom": 0.0 },
        "label": "Nb",
        "xyz": [6.7809747642403915, 3.2108593371254277, 3.887612514795654]
      },
      {
        "species": [{ "element": "Nb", "occu": 1 }],
        "abc": [0.75282615, 0.32133321, 0.67864268],
        "properties": { "magmom": 0.0 },
        "label": "Nb",
        "xyz": [3.2106202574160996, 6.780711134451388, 3.887610190986118]
      },
      {
        "species": [{ "element": "Nb", "occu": 1 }],
        "abc": [0.25282588, 0.82135693, 0.82133143],
        "properties": { "magmom": 0.0 },
        "label": "Nb",
        "xyz": [8.206647922565212, 8.206392422337684, 1.305598201700397]
      },
      {
        "species": [{ "element": "Nb", "occu": 1 }],
        "abc": [0.25282661, 0.17864221, 0.17866923],
        "properties": { "magmom": 0.0 },
        "label": "Nb",
        "xyz": [1.7849167246645938, 1.7851865421157516, 1.3056019714358658]
      },
      {
        "species": [{ "element": "Pt", "occu": 1 }],
        "abc": [0.5, 0.49999732, 0.49999727],
        "properties": { "magmom": 0.0 },
        "label": "Pt",
        "xyz": [4.995759842584283, 4.9957589080069145, 2.582010595]
      },
      {
        "species": [{ "element": "Pt", "occu": 1 }],
        "abc": [-0.0, 1.00001404, -1.0860000000000001e-5],
        "properties": { "magmom": 0.0 },
        "label": "Pt",
        "xyz": [9.991724841970155, -0.00011881873265720002, 0.0]
      },
      {
        "species": [{ "element": "Pt", "occu": 1 }],
        "abc": [0.5, 0.43243284, 0.23645207000000001],
        "properties": { "magmom": 0.0 },
        "label": "Pt",
        "xyz": [4.320686610743517, 2.3625259488795676, 2.582010595]
      },
      {
        "species": [{ "element": "Pt", "occu": 1 }],
        "abc": [0.5, 0.56756573, 0.7635522],
        "properties": { "magmom": 0.0 },
        "label": "Pt",
        "xyz": [5.670872341242224, 7.62908908519322, 2.582010595]
      },
      {
        "species": [{ "element": "Pt", "occu": 1 }],
        "abc": [-0.0, 0.06756894000000001, 0.736445999999999],
        "properties": { "magmom": 0.0 },
        "label": "Pt",
        "xyz": [0.6751124410708464, 7.3582604017195, 0.0]
      },
      {
        "species": [{ "element": "Pt", "occu": 1 }],
        "abc": [-0.0, 0.93243263, 0.26355446],
        "properties": { "magmom": 0.0 },
        "label": "Pt",
        "xyz": [9.316476485711704, 2.6333165643923375, 0.0]
      },
      {
        "species": [{ "element": "Pt", "occu": 1 }],
        "abc": [0.5, 0.23644205000000001, 0.43243236],
        "properties": { "magmom": 0.0 },
        "label": "Pt",
        "xyz": [2.362425840980433, 4.32068124072999, 2.582010595]
      },
      {
        "species": [{ "element": "Pt", "occu": 1 }],
        "abc": [0.5, 0.76355415, 0.56756677],
        "properties": { "magmom": 0.0 },
        "label": "Pt",
        "xyz": [7.629109431008088, 5.670882436632257, 2.582010595]
      },
      {
        "species": [{ "element": "Pt", "occu": 1 }],
        "abc": [-0.0, 0.73645179, 0.06756261],
        "properties": { "magmom": 0.0 },
        "label": "Pt",
        "xyz": [7.358319569339617, 0.6750498110736398, 0.0]
      },
      {
        "species": [{ "element": "Pt", "occu": 1 }],
        "abc": [-0.0, 0.26354805, 0.93243502],
        "properties": { "magmom": 0.0 },
        "label": "Pt",
        "xyz": [2.6332520720336814, 9.31649887887706, 0.0]
      }
    ]
  },
  "task_ids": null,
  "uncorrected_energy_per_atom": null,
  "energy_per_atom": -34.16813766566667,
  "formation_energy_per_atom": -0.516182265666672,
  "energy_above_hull": 0.0,
  "is_stable": true,
  "equilibrium_reaction_energy_per_atom": null,
  "decomposes_to": null,
  "xas": null,
  "grain_boundaries": null,
  "band_gap": 0.0,
  "cbm": null,
  "vbm": null,
  "efermi": 6.11709212,
  "is_gap_direct": null,
  "is_metal": null,
  "es_source_calc_id": null,
  "bandstructure": null,
  "dos": null,
  "dos_energy_up": null,
  "dos_energy_down": null,
  "is_magnetic": null,
  "ordering": null,
  "total_magnetization": 1.6600000000000004e-5,
  "total_magnetization_normalized_vol": null,
  "total_magnetization_normalized_formula_units": null,
  "num_magnetic_sites": null,
  "num_unique_magnetic_sites": null,
  "types_of_magnetic_species": null,
  "bulk_modulus": null,
  "shear_modulus": null,
  "universal_anisotropy": null,
  "homogeneous_poisson": null,
  "e_total": null,
  "e_ionic": null,
  "e_electronic": null,
  "n": null,
  "e_ij_max": null,
  "weighted_surface_energy_EV_PER_ANG2": null,
  "weighted_surface_energy": null,
  "weighted_work_function": null,
  "surface_anisotropy": null,
  "shape_factor": null,
  "has_reconstructed": null,
  "possible_species": null,
  "has_props": null,
  "theoretical": null,
  "database_IDs": null,
  "fields_not_requested": [
    "builder_meta",
    "nsites",
    "elements",
    "nelements",
    "composition",
    "composition_reduced",
    "chemsys",
    "symmetry",
    "property_name",
    "deprecated",
    "deprecation_reasons",
    "last_updated",
    "origins",
    "warnings",
    "task_ids",
    "uncorrected_energy_per_atom",
    "equilibrium_reaction_energy_per_atom",
    "decomposes_to",
    "xas",
    "grain_boundaries",
    "cbm",
    "vbm",
    "is_gap_direct",
    "is_metal",
    "es_source_calc_id",
    "bandstructure",
    "dos",
    "dos_energy_up",
    "dos_energy_down",
    "is_magnetic",
    "ordering",
    "total_magnetization_normalized_vol",
    "total_magnetization_normalized_formula_units",
    "num_magnetic_sites",
    "num_unique_magnetic_sites",
    "types_of_magnetic_species",
    "bulk_modulus",
    "shear_modulus",
    "universal_anisotropy",
    "homogeneous_poisson",
    "e_total",
    "e_ionic",
    "e_electronic",
    "n",
    "e_ij_max",
    "weighted_surface_energy_EV_PER_ANG2",
    "weighted_surface_energy",
    "weighted_work_function",
    "surface_anisotropy",
    "shape_factor",
    "has_reconstructed",
    "possible_species",
    "has_props",
    "theoretical",
    "database_IDs"
  ]
}
