{
  "builder_meta": null,
  "nsites": null,
  "elements": null,
  "nelements": null,
  "composition": null,
  "composition_reduced": null,
  "formula_pretty": "Nb2P",
  "formula_anonymous": "AB2",
  "chemsys": null,
  "volume": 872.1043408963061,
  "density": 7.429942148230364,
  "density_atomic": 16.150080386968632,
  "symmetry": null,
  "property_name": null,
  "material_id": "mp-505064",
  "deprecated": null,
  "deprecation_reasons": null,
  "last_updated": null,
  "origins": null,
  "warnings": null,
  "structure": {
    "@module": "pymatgen.core.structure",
    "@class": "Structure",
    "charge": 0,
    "lattice": {
      "matrix": [
        [3.46254098, 0.0, 0.0],
        [0.0, 13.92368752, -0.0],
        [0.0, 0.0, 18.08919573]
      ],
      "pbc": [true, true, true],
      "a": 3.46254098,
      "b": 13.92368752,
      "c": 18.08919573,
      "alpha": 90.0,
      "beta": 90.0,
      "gamma": 90.0,
      "volume": 872.1043408963061
    },
    "properties": {},
    "sites": [
      {
        "species": [{ "element": "Nb", "occu": 1 }],
        "abc": [0.0, 0.34354981, 0.06186526],
        "properties": { "magmom": -0.0 },
        "label": "Nb",
        "xyz": [0.0, 4.7834802019953715, 1.1190927970273399]
      },
      {
        "species": [{ "element": "Nb", "occu": 1 }],
        "abc": [-0.0, 0.65645019, 0.93813474],
        "properties": { "magmom": -0.0 },
        "label": "Nb",
        "xyz": [0.0, 9.140207318004629, 16.970102932972658]
      },
      {
        "species": [{ "element": "Nb", "occu": 1 }],
        "abc": [0.0, 0.34354981, 0.43813474],
        "properties": { "magmom": -0.0 },
        "label": "Nb",
        "xyz": [0.0, 4.7834802019953715, 7.925505067972661]
      },
      {
        "species": [{ "element": "Nb", "occu": 1 }],
        "abc": [-0.0, 0.65645019, 0.56186526],
        "properties": { "magmom": -0.0 },
        "label": "Nb",
        "xyz": [0.0, 9.140207318004629, 10.16369066202734]
      },
      {
        "species": [{ "element": "Nb", "occu": 1 }],
        "abc": [-0.0, 0.56936716, 0.12060275000000001],
        "properties": { "magmom": -0.0 },
        "label": "Nb",
        "xyz": [0.0, 7.927690419989843, 2.1816067503262575]
      },
      {
        "species": [{ "element": "Nb", "occu": 1 }],
        "abc": [-0.0, 0.43063284, 0.87939725],
        "properties": { "magmom": -0.0 },
        "label": "Nb",
        "xyz": [0.0, 5.995997100010157, 15.907588979673744]
      },
      {
        "species": [{ "element": "Nb", "occu": 1 }],
        "abc": [0.0, 0.56936716, 0.37939725],
        "properties": { "magmom": -0.0 },
        "label": "Nb",
        "xyz": [0.0, 7.927690419989843, 6.862991114673743]
      },
      {
        "species": [{ "element": "Nb", "occu": 1 }],
        "abc": [0.0, 0.43063284, 0.62060275],
        "properties": { "magmom": -0.0 },
        "label": "Nb",
        "xyz": [0.0, 5.995997100010157, 11.226204615326257]
      },
      {
        "species": [{ "element": "Nb", "occu": 1 }],
        "abc": [0.5, 0.1614294, 0.0008605700000000001],
        "properties": { "magmom": 0.0 },
        "label": "Nb",
        "xyz": [1.73127049, 2.247692522141088, 0.0155670191693661]
      },
      {
        "species": [{ "element": "Nb", "occu": 1 }],
        "abc": [0.5, 0.8385705999999991, 0.99913943],
        "properties": { "magmom": 0.0 },
        "label": "Nb",
        "xyz": [1.73127049, 11.675994997858899, 18.073628710830636]
      },
      {
        "species": [{ "element": "Nb", "occu": 1 }],
        "abc": [0.5, 0.1614294, 0.49913943],
        "properties": { "magmom": 0.0 },
        "label": "Nb",
        "xyz": [1.73127049, 2.247692522141088, 9.029030845830635]
      },
      {
        "species": [{ "element": "Nb", "occu": 1 }],
        "abc": [0.5, 0.8385705999999991, 0.5008605700000001],
        "properties": { "magmom": 0.0 },
        "label": "Nb",
        "xyz": [1.73127049, 11.675994997858899, 9.060164884169367]
      },
      {
        "species": [{ "element": "Nb", "occu": 1 }],
        "abc": [0.5, 0.00379822, 0.14360739],
        "properties": { "magmom": -0.0 },
        "label": "Nb",
        "xyz": [1.73127049, 0.0528852284122144, 2.597742185984445]
      },
      {
        "species": [{ "element": "Nb", "occu": 1 }],
        "abc": [0.5, 0.99620178, 0.85639261],
        "properties": { "magmom": -0.0 },
        "label": "Nb",
        "xyz": [1.73127049, 13.870802291587786, 15.491453544015556]
      },
      {
        "species": [{ "element": "Nb", "occu": 1 }],
        "abc": [0.5, 0.00379822, 0.35639261],
        "properties": { "magmom": -0.0 },
        "label": "Nb",
        "xyz": [1.73127049, 0.0528852284122144, 6.446855679015555]
      },
      {
        "species": [{ "element": "Nb", "occu": 1 }],
        "abc": [0.5, 0.99620178, 0.64360739],
        "properties": { "magmom": -0.0 },
        "label": "Nb",
        "xyz": [1.73127049, 13.870802291587786, 11.642340050984444]
      },
      {
        "species": [{ "element": "Nb", "occu": 1 }],
        "abc": [0.5, 0.24059195, 0.16491245000000002],
        "properties": { "magmom": 0.0 },
        "label": "Nb",
        "xyz": [1.73127049, 3.3499271316274637, 2.983133586363839]
      },
      {
        "species": [{ "element": "Nb", "occu": 1 }],
        "abc": [0.5, 0.75940805, 0.83508755],
        "properties": { "magmom": 0.0 },
        "label": "Nb",
        "xyz": [1.73127049, 10.573760388372536, 15.106062143636162]
      },
      {
        "species": [{ "element": "Nb", "occu": 1 }],
        "abc": [0.5, 0.24059195, 0.33508855],
        "properties": { "magmom": 0.0 },
        "label": "Nb",
        "xyz": [1.73127049, 3.3499271316274637, 6.061482367831891]
      },
      {
        "species": [{ "element": "Nb", "occu": 1 }],
        "abc": [0.5, 0.75940805, 0.66491245],
        "properties": { "magmom": 0.0 },
        "label": "Nb",
        "xyz": [1.73127049, 10.573760388372536, 12.027731451363838]
      },
      {
        "species": [{ "element": "Nb", "occu": 1 }],
        "abc": [0.5, 0.23824182, 0.6624112400000001],
        "properties": { "magmom": -0.0 },
        "label": "Nb",
        "xyz": [1.73127049, 3.317204655876086, 11.982486574112006]
      },
      {
        "species": [{ "element": "Nb", "occu": 1 }],
        "abc": [0.5, 0.7617581800000001, 0.33758876],
        "properties": { "magmom": -0.0 },
        "label": "Nb",
        "xyz": [1.73127049, 10.606482864123914, 6.1067091558879945]
      },
      {
        "species": [{ "element": "Nb", "occu": 1 }],
        "abc": [0.5, 0.23824182, 0.83758876],
        "properties": { "magmom": -0.0 },
        "label": "Nb",
        "xyz": [1.73127049, 3.317204655876086, 15.151307020887996]
      },
      {
        "species": [{ "element": "Nb", "occu": 1 }],
        "abc": [0.5, 0.7617581800000001, 0.16241124],
        "properties": { "magmom": -0.0 },
        "label": "Nb",
        "xyz": [1.73127049, 10.606482864123914, 2.9378887091120056]
      },
      {
        "species": [{ "element": "Nb", "occu": 1 }],
        "abc": [-0.0, 0.11894003, 0.25],
        "properties": { "magmom": -0.0 },
        "label": "Nb",
        "xyz": [0.0, 1.6560838113394256, 4.5222989325]
      },
      {
        "species": [{ "element": "Nb", "occu": 1 }],
        "abc": [0.0, 0.88105997, 0.75],
        "properties": { "magmom": -0.0 },
        "label": "Nb",
        "xyz": [0.0, 12.267603708660575, 13.5668967975]
      },
      {
        "species": [{ "element": "Nb", "occu": 1 }],
        "abc": [-0.0, 0.38627481, 0.25],
        "properties": { "magmom": -0.0 },
        "label": "Nb",
        "xyz": [0.0, 5.378369751287371, 4.5222989325]
      },
      {
        "species": [{ "element": "Nb", "occu": 1 }],
        "abc": [0.0, 0.61372519, 0.75],
        "properties": { "magmom": -0.0 },
        "label": "Nb",
        "xyz": [0.0, 8.545317768712628, 13.5668967975]
      },
      {
        "species": [{ "element": "Nb", "occu": 1 }],
        "abc": [-0.0, 0.8880403, 0.25],
        "properties": { "magmom": 0.0 },
        "label": "Nb",
        "xyz": [0.0, 12.364795642367056, 4.5222989325]
      },
      {
        "species": [{ "element": "Nb", "occu": 1 }],
        "abc": [-0.0, 0.1119587, 0.75],
        "properties": { "magmom": 0.0 },
        "label": "Nb",
        "xyz": [0.0, 1.5588779539454238, 13.5668967975]
      },
      {
        "species": [{ "element": "Nb", "occu": 1 }],
        "abc": [0.5, 0.56092509, 0.25],
        "properties": { "magmom": 0.0 },
        "label": "Nb",
        "xyz": [1.73127049, 7.810145675287877, 4.5222989325]
      },
      {
        "species": [{ "element": "Nb", "occu": 1 }],
        "abc": [0.5, 0.43907491, 0.75],
        "properties": { "magmom": 0.0 },
        "label": "Nb",
        "xyz": [1.73127049, 6.113541844712123, 13.5668967975]
      },
      {
        "species": [{ "element": "Nb", "occu": 1 }],
        "abc": [0.5, 0.5, -0.0],
        "properties": { "magmom": 0.0 },
        "label": "Nb",
        "xyz": [1.73127049, 6.96184376, 0.0]
      },
      {
        "species": [{ "element": "Nb", "occu": 1 }],
        "abc": [0.5, 0.5, 0.5],
        "properties": { "magmom": 0.0 },
        "label": "Nb",
        "xyz": [1.73127049, 6.96184376, 9.044597865]
      },
      {
        "species": [{ "element": "Nb", "occu": 1 }],
        "abc": [0.0, -0.0, -0.0],
        "properties": { "magmom": 0.0 },
        "label": "Nb",
        "xyz": [0.0, 0.0, 0.0]
      },
      {
        "species": [{ "element": "Nb", "occu": 1 }],
        "abc": [0.0, -0.0, 0.5],
        "properties": { "magmom": 0.0 },
        "label": "Nb",
        "xyz": [0.0, 0.0, 9.044597865]
      },
      {
        "species": [{ "element": "P", "occu": 1 }],
        "abc": [-0.0, 0.13651368, 0.10360035000000001],
        "properties": { "magmom": -0.0 },
        "label": "P",
        "xyz": [0.0, 1.9007738225252735, 1.8740470088465055]
      },
      {
        "species": [{ "element": "P", "occu": 1 }],
        "abc": [0.0, 0.86348632, 0.89639965],
        "properties": { "magmom": -0.0 },
        "label": "P",
        "xyz": [0.0, 12.022913697474726, 16.215148721153493]
      },
      {
        "species": [{ "element": "P", "occu": 1 }],
        "abc": [0.0, 0.13651368, 0.39639965],
        "properties": { "magmom": -0.0 },
        "label": "P",
        "xyz": [0.0, 1.9007738225252735, 7.170550856153494]
      },
      {
        "species": [{ "element": "P", "occu": 1 }],
        "abc": [0.0, 0.86348632, 0.60360035],
        "properties": { "magmom": -0.0 },
        "label": "P",
        "xyz": [0.0, 12.022913697474726, 10.918644873846505]
      },
      {
        "species": [{ "element": "P", "occu": 1 }],
        "abc": [0.0, 0.12735042, 0.60452633],
        "properties": { "magmom": -0.0 },
        "label": "P",
        "xyz": [0.0, 1.7731874536207581, 10.93539510730857]
      },
      {
        "species": [{ "element": "P", "occu": 1 }],
        "abc": [0.0, 0.87264958, 0.39547367],
        "properties": { "magmom": -0.0 },
        "label": "P",
        "xyz": [0.0, 12.150500066379243, 7.1538006226914295]
      },
      {
        "species": [{ "element": "P", "occu": 1 }],
        "abc": [-0.0, 0.12735042, 0.89547367],
        "properties": { "magmom": -0.0 },
        "label": "P",
        "xyz": [0.0, 1.7731874536207581, 16.198398487691428]
      },
      {
        "species": [{ "element": "P", "occu": 1 }],
        "abc": [0.0, 0.87264958, 0.10452733],
        "properties": { "magmom": -0.0 },
        "label": "P",
        "xyz": [0.0, 12.150500066379243, 1.890815331504301]
      },
      {
        "species": [{ "element": "P", "occu": 1 }],
        "abc": [0.5, 0.431547399999999, 0.14375919],
        "properties": { "magmom": 0.0 },
        "label": "P",
        "xyz": [1.73127049, 6.008731147668434, 2.6004881258962587]
      },
      {
        "species": [{ "element": "P", "occu": 1 }],
        "abc": [0.5, 0.5684526, 0.85624081],
        "properties": { "magmom": 0.0 },
        "label": "P",
        "xyz": [1.73127049, 7.9149563723315515, 15.488707604103741]
      },
      {
        "species": [{ "element": "P", "occu": 1 }],
        "abc": [0.5, 0.431547399999999, 0.35624081],
        "properties": { "magmom": 0.0 },
        "label": "P",
        "xyz": [1.73127049, 6.008731147668434, 6.444109739103742]
      },
      {
        "species": [{ "element": "P", "occu": 1 }],
        "abc": [0.5, 0.5684526, 0.64375919],
        "properties": { "magmom": 0.0 },
        "label": "P",
        "xyz": [1.73127049, 7.9149563723315515, 11.64508599089626]
      },
      {
        "species": [{ "element": "P", "occu": 1 }],
        "abc": [0.5, 0.32922578, 0.545454099999999],
        "properties": { "magmom": 0.0 },
        "label": "P",
        "xyz": [1.73127049, 4.584036884248266, 9.866825976630976]
      },
      {
        "species": [{ "element": "P", "occu": 1 }],
        "abc": [0.5, 0.67077422, 0.4545459],
        "properties": { "magmom": 0.0 },
        "label": "P",
        "xyz": [1.73127049, 9.339650635751735, 8.222369753369007]
      },
      {
        "species": [{ "element": "P", "occu": 1 }],
        "abc": [0.5, 0.32922578, 0.9545459],
        "properties": { "magmom": 0.0 },
        "label": "P",
        "xyz": [1.73127049, 4.584036884248266, 17.266967618369005]
      },
      {
        "species": [{ "element": "P", "occu": 1 }],
        "abc": [0.5, 0.67077422, 0.0454541],
        "properties": { "magmom": 0.0 },
        "label": "P",
        "xyz": [1.73127049, 9.339650635751735, 0.822228111630993]
      },
      {
        "species": [{ "element": "P", "occu": 1 }],
        "abc": [0.0, 0.6900823700000001, 0.25],
        "properties": { "magmom": -0.0 },
        "label": "P",
        "xyz": [0.0, 9.608491282941023, 4.5222989325]
      },
      {
        "species": [{ "element": "P", "occu": 1 }],
        "abc": [-0.0, 0.30991763, 0.75],
        "properties": { "magmom": -0.0 },
        "label": "P",
        "xyz": [0.0, 4.315196237058977, 13.5668967975]
      }
    ]
  },
  "task_ids": null,
  "uncorrected_energy_per_atom": null,
  "energy_per_atom": -9.358476115740743,
  "formation_energy_per_atom": -0.8191149139550271,
  "energy_above_hull": 0.0,
  "is_stable": true,
  "equilibrium_reaction_energy_per_atom": null,
  "decomposes_to": null,
  "xas": null,
  "grain_boundaries": null,
  "band_gap": 0.0,
  "cbm": null,
  "vbm": null,
  "efermi": 7.28769406,
  "is_gap_direct": null,
  "is_metal": null,
  "es_source_calc_id": null,
  "bandstructure": null,
  "dos": null,
  "dos_energy_up": null,
  "dos_energy_down": null,
  "is_magnetic": null,
  "ordering": null,
  "total_magnetization": 9e-7,
  "total_magnetization_normalized_vol": null,
  "total_magnetization_normalized_formula_units": null,
  "num_magnetic_sites": null,
  "num_unique_magnetic_sites": null,
  "types_of_magnetic_species": null,
  "bulk_modulus": null,
  "shear_modulus": null,
  "universal_anisotropy": null,
  "homogeneous_poisson": null,
  "e_total": null,
  "e_ionic": null,
  "e_electronic": null,
  "n": null,
  "e_ij_max": null,
  "weighted_surface_energy_EV_PER_ANG2": null,
  "weighted_surface_energy": null,
  "weighted_work_function": null,
  "surface_anisotropy": null,
  "shape_factor": null,
  "has_reconstructed": null,
  "possible_species": null,
  "has_props": null,
  "theoretical": null,
  "database_IDs": null,
  "fields_not_requested": [
    "builder_meta",
    "nsites",
    "elements",
    "nelements",
    "composition",
    "composition_reduced",
    "chemsys",
    "symmetry",
    "property_name",
    "deprecated",
    "deprecation_reasons",
    "last_updated",
    "origins",
    "warnings",
    "task_ids",
    "uncorrected_energy_per_atom",
    "equilibrium_reaction_energy_per_atom",
    "decomposes_to",
    "xas",
    "grain_boundaries",
    "cbm",
    "vbm",
    "is_gap_direct",
    "is_metal",
    "es_source_calc_id",
    "bandstructure",
    "dos",
    "dos_energy_up",
    "dos_energy_down",
    "is_magnetic",
    "ordering",
    "total_magnetization_normalized_vol",
    "total_magnetization_normalized_formula_units",
    "num_magnetic_sites",
    "num_unique_magnetic_sites",
    "types_of_magnetic_species",
    "bulk_modulus",
    "shear_modulus",
    "universal_anisotropy",
    "homogeneous_poisson",
    "e_total",
    "e_ionic",
    "e_electronic",
    "n",
    "e_ij_max",
    "weighted_surface_energy_EV_PER_ANG2",
    "weighted_surface_energy",
    "weighted_work_function",
    "surface_anisotropy",
    "shape_factor",
    "has_reconstructed",
    "possible_species",
    "has_props",
    "theoretical",
    "database_IDs"
  ]
}
