{
  "builder_meta": null,
  "nsites": null,
  "elements": null,
  "nelements": null,
  "composition": null,
  "composition_reduced": null,
  "formula_pretty": "Nb2Sb",
  "formula_anonymous": "AB2",
  "chemsys": null,
  "volume": 426.51764547536624,
  "density": 8.38219971562791,
  "density_atomic": 20.310364070255535,
  "symmetry": null,
  "property_name": null,
  "material_id": "mp-673700",
  "deprecated": null,
  "deprecation_reasons": null,
  "last_updated": null,
  "origins": null,
  "warnings": null,
  "structure": {
    "@module": "pymatgen.core.structure",
    "@class": "Structure",
    "charge": 0,
    "lattice": {
      "matrix": [
        [2.938444999999999, 0.0, 0.0],
        [0.782057, 6.902907, 0.0],
        [1.371570999999999, 2.367789, 21.027489]
      ],
      "pbc": [true, true, true],
      "a": 2.938444999999999,
      "b": 6.947066877603669,
      "c": 21.20478543635099,
      "alpha": 83.20976905178586,
      "beta": 86.29139703018393,
      "gamma": 83.5363007149749,
      "volume": 426.5176454753661
    },
    "properties": {},
    "sites": [
      {
        "species": [{ "element": "Nb", "occu": 1 }],
        "abc": [0.602691, 0.067934, 0.861464999999999],
        "properties": { "magmom": 0.0 },
        "label": "Nb",
        "xyz": [3.005663027247997, 2.5087094350229977, 18.11444581138498]
      },
      {
        "species": [{ "element": "Nb", "occu": 1 }],
        "abc": [0.889950999999999, 0.836338999999999, 0.764552],
        "properties": { "magmom": 0.0 },
        "label": "Nb",
        "xyz": [4.317774186709995, 7.583468153000993, 16.076608769928]
      },
      {
        "species": [{ "element": "Nb", "occu": 1 }],
        "abc": [0.08312699999999901, 0.203854999999999, 0.720258],
        "properties": { "magmom": 0.0 },
        "label": "Nb",
        "xyz": [1.3915753325679954, 3.112611076046993, 15.145217172161999]
      },
      {
        "species": [{ "element": "Nb", "occu": 1 }],
        "abc": [0.256673, 0.320472, 0.946229],
        "properties": { "magmom": 0.0 },
        "label": "Nb",
        "xyz": [2.3026671201479987, 4.452659029785, 19.896819888981]
      },
      {
        "species": [{ "element": "Nb", "occu": 1 }],
        "abc": [0.660947, 0.342165999999999, 0.577550999999999],
        "properties": { "magmom": 0.0 },
        "label": "Nb",
        "xyz": [3.001901925497996, 3.729458981300991, 12.14444729943898]
      },
      {
        "species": [{ "element": "Nb", "occu": 1 }],
        "abc": [0.237992999999999, 0.488928, 0.435295],
        "properties": { "magmom": -0.0 },
        "label": "Nb",
        "xyz": [1.6787369042259965, 4.405711226451, 9.153160824255]
      },
      {
        "species": [{ "element": "Nb", "occu": 1 }],
        "abc": [0.621062999999999, 0.264661, 0.34087],
        "properties": { "magmom": -0.0 },
        "label": "Nb",
        "xyz": [2.499466861481996, 2.6340385059569997, 7.16764017543]
      },
      {
        "species": [{ "element": "Nb", "occu": 1 }],
        "abc": [0.465721, 0.971529, 0.625667],
        "properties": { "magmom": 0.0 },
        "label": "Nb",
        "xyz": [2.9864333118549986, 8.187821775066, 13.156205960163]
      },
      {
        "species": [{ "element": "Nb", "occu": 1 }],
        "abc": [0.8120900000000001, 0.643392, 0.292122],
        "properties": { "magmom": -0.0 },
        "label": "Nb",
        "xyz": [3.290117081055999, 5.132958398802, 6.142592141658]
      },
      {
        "species": [{ "element": "Nb", "occu": 1 }],
        "abc": [0.044437, 0.114116, 0.48333000000000004],
        "properties": { "magmom": -0.0 },
        "label": "Nb",
        "xyz": [0.8827423085069995, 1.932155592582, 10.163216258370001]
      },
      {
        "species": [{ "element": "Nb", "occu": 1 }],
        "abc": [0.386640999999999, 0.805539, 0.150469],
        "properties": { "magmom": -0.0 },
        "label": "Nb",
        "xyz": [1.9724796437669965, 5.916839644914, 3.1639852423409995]
      },
      {
        "species": [{ "element": "Nb", "occu": 1 }],
        "abc": [0.998165, 0.951445, 0.008178999999999001],
        "properties": { "magmom": 0.0 },
        "label": "Nb",
        "xyz": [3.688355254998997, 6.587102496845998, 0.171983832530979]
      },
      {
        "species": [{ "element": "Nb", "occu": 1 }],
        "abc": [0.19586699999999901, 0.420981999999999, 0.19783],
        "properties": { "magmom": -0.0 },
        "label": "Nb",
        "xyz": [1.1761142177189958, 3.374419292543993, 4.15986814887]
      },
      {
        "species": [{ "element": "Nb", "occu": 1 }],
        "abc": [0.773922, 0.580693, 0.062223999999999],
        "properties": { "magmom": 0.0 },
        "label": "Nb",
        "xyz": [2.813606890694998, 4.155803077286998, 1.308414475535979]
      },
      {
        "species": [{ "element": "Sb", "occu": 1 }],
        "abc": [0.667532, 0.693229, 0.927025999999999],
        "properties": { "magmom": -0.0 },
        "label": "Sb",
        "xyz": [3.775132637638997, 6.980297282216997, 19.49302901771398]
      },
      {
        "species": [{ "element": "Sb", "occu": 1 }],
        "abc": [0.411230999999999, 0.461889, 0.806755],
        "properties": { "magmom": -0.0 },
        "label": "Sb",
        "xyz": [2.6761249635729962, 5.098602426018, 16.964031888195]
      },
      {
        "species": [{ "element": "Sb", "occu": 1 }],
        "abc": [0.040931999999999004, 0.59828, 0.658623],
        "properties": { "magmom": -0.0 },
        "label": "Sb",
        "xyz": [1.4915136994329963, 5.689351494507, 13.849187887646998]
      },
      {
        "species": [{ "element": "Sb", "occu": 1 }],
        "abc": [0.620877999999999, 0.743332, 0.515289],
        "properties": { "magmom": -0.0 },
        "label": "Sb",
        "xyz": [3.112499297652996, 6.351247292145, 10.835233779321]
      },
      {
        "species": [{ "element": "Sb", "occu": 1 }],
        "abc": [0.192689, 0.892803999999999, 0.372407999999999],
        "properties": { "magmom": -0.0 },
        "label": "Sb",
        "xyz": [1.7752136594009973, 7.044726547139991, 7.830805123511979]
      },
      {
        "species": [{ "element": "Sb", "occu": 1 }],
        "abc": [0.768122, 0.052216, 0.229465],
        "properties": { "magmom": -0.0 },
        "label": "Sb",
        "xyz": [2.612647678116999, 0.903766894797, 4.825072763385]
      },
      {
        "species": [{ "element": "Sb", "occu": 1 }],
        "abc": [0.362535, 0.21218, 0.082104],
        "properties": { "magmom": -0.0 },
        "label": "Sb",
        "xyz": [1.3438374777189996, 1.659063755316, 1.726440956856]
      }
    ]
  },
  "task_ids": null,
  "uncorrected_energy_per_atom": null,
  "energy_per_atom": -25.085901318571423,
  "formation_energy_per_atom": -0.027746308571425002,
  "energy_above_hull": 0.324180038571434,
  "is_stable": false,
  "equilibrium_reaction_energy_per_atom": null,
  "decomposes_to": null,
  "xas": null,
  "grain_boundaries": null,
  "band_gap": 0.0,
  "cbm": null,
  "vbm": null,
  "efermi": 7.24298893,
  "is_gap_direct": null,
  "is_metal": null,
  "es_source_calc_id": null,
  "bandstructure": null,
  "dos": null,
  "dos_energy_up": null,
  "dos_energy_down": null,
  "is_magnetic": null,
  "ordering": null,
  "total_magnetization": 0.0012427,
  "total_magnetization_normalized_vol": null,
  "total_magnetization_normalized_formula_units": null,
  "num_magnetic_sites": null,
  "num_unique_magnetic_sites": null,
  "types_of_magnetic_species": null,
  "bulk_modulus": null,
  "shear_modulus": null,
  "universal_anisotropy": null,
  "homogeneous_poisson": null,
  "e_total": null,
  "e_ionic": null,
  "e_electronic": null,
  "n": null,
  "e_ij_max": null,
  "weighted_surface_energy_EV_PER_ANG2": null,
  "weighted_surface_energy": null,
  "weighted_work_function": null,
  "surface_anisotropy": null,
  "shape_factor": null,
  "has_reconstructed": null,
  "possible_species": null,
  "has_props": null,
  "theoretical": null,
  "database_IDs": null,
  "fields_not_requested": [
    "builder_meta",
    "nsites",
    "elements",
    "nelements",
    "composition",
    "composition_reduced",
    "chemsys",
    "symmetry",
    "property_name",
    "deprecated",
    "deprecation_reasons",
    "last_updated",
    "origins",
    "warnings",
    "task_ids",
    "uncorrected_energy_per_atom",
    "equilibrium_reaction_energy_per_atom",
    "decomposes_to",
    "xas",
    "grain_boundaries",
    "cbm",
    "vbm",
    "is_gap_direct",
    "is_metal",
    "es_source_calc_id",
    "bandstructure",
    "dos",
    "dos_energy_up",
    "dos_energy_down",
    "is_magnetic",
    "ordering",
    "total_magnetization_normalized_vol",
    "total_magnetization_normalized_formula_units",
    "num_magnetic_sites",
    "num_unique_magnetic_sites",
    "types_of_magnetic_species",
    "bulk_modulus",
    "shear_modulus",
    "universal_anisotropy",
    "homogeneous_poisson",
    "e_total",
    "e_ionic",
    "e_electronic",
    "n",
    "e_ij_max",
    "weighted_surface_energy_EV_PER_ANG2",
    "weighted_surface_energy",
    "weighted_work_function",
    "surface_anisotropy",
    "shape_factor",
    "has_reconstructed",
    "possible_species",
    "has_props",
    "theoretical",
    "database_IDs"
  ]
}
