{
  "builder_meta": null,
  "nsites": null,
  "elements": null,
  "nelements": null,
  "composition": null,
  "composition_reduced": null,
  "formula_pretty": "Nb2Se",
  "formula_anonymous": "AB2",
  "chemsys": null,
  "volume": 228.08713712193054,
  "density": 7.710483235474518,
  "density_atomic": 19.007261426827544,
  "symmetry": null,
  "property_name": null,
  "material_id": "mp-27793",
  "deprecated": null,
  "deprecation_reasons": null,
  "last_updated": null,
  "origins": null,
  "warnings": null,
  "structure": {
    "@module": "pymatgen.core.structure",
    "@class": "Structure",
    "charge": 0,
    "lattice": {
      "matrix": [
        [3.44602075, -0.00025308, -0.0006840700000000001],
        [-1.72348152, 7.05495476, -0.25733463],
        [-0.0018531700000000001, -0.050973120000000004, 9.38388454]
      ],
      "pbc": [true, true, true],
      "a": 3.446020827190662,
      "b": 7.266979862860872,
      "c": 9.384023164573529,
      "alpha": 92.32900188358036,
      "beta": 90.02266561804818,
      "gamma": 103.72313363795267,
      "volume": 228.08713712193054
    },
    "properties": {},
    "sites": [
      {
        "species": [{ "element": "Nb", "occu": 1 }],
        "abc": [0.217189599999999, 0.43528475, 0.12156098],
        "properties": { "magmom": 0.0 },
        "label": "Nb",
        "xyz": [-0.001990627439929943, 3.0646629102030847, 1.0285517879136847]
      },
      {
        "species": [{ "element": "Nb", "occu": 1 }],
        "abc": [0.7828104, 0.56471525, 0.8784390200000001],
        "properties": { "magmom": 0.0 },
        "label": "Nb",
        "xyz": [1.7226766874399269, 3.9390656497969156, 8.097314052086316]
      },
      {
        "species": [{ "element": "Nb", "occu": 1 }],
        "abc": [0.08453106, 0.16929757, 0.39792771],
        "properties": { "magmom": 0.0 },
        "label": "Nb",
        "xyz": [-0.0012228741907521126, 1.1740816872941133, 3.69048373320854]
      },
      {
        "species": [{ "element": "Nb", "occu": 1 }],
        "abc": [0.91546894, 0.83070243, 0.6020722900000001],
        "properties": { "magmom": 0.0 },
        "label": "Nb",
        "xyz": [1.721908934190752, 5.829646872705887, 5.435382106791461]
      },
      {
        "species": [{ "element": "Nb", "occu": 1 }],
        "abc": [0.41380386, 0.82796091, 0.35536929],
        "properties": { "magmom": -0.0 },
        "label": "Nb",
        "xyz": [-0.0016571993844373824, 5.823007756154058, 3.1213983011859536]
      },
      {
        "species": [{ "element": "Nb", "occu": 1 }],
        "abc": [0.58619614, 0.17203909, 0.64463071],
        "properties": { "magmom": -0.0 },
        "label": "Nb",
        "xyz": [1.7223432593844377, 1.180720803845942, 6.004467538814048]
      },
      {
        "species": [{ "element": "Nb", "occu": 1 }],
        "abc": [0.25668499, 0.51295926, 0.6230729700000001],
        "properties": { "magmom": -0.0 },
        "label": "Nb",
        "xyz": [-0.0006886635051475245, 3.5870794379172426, 5.714667038596601]
      },
      {
        "species": [{ "element": "Nb", "occu": 1 }],
        "abc": [0.74331501, 0.48704074, 0.37692703],
        "properties": { "magmom": -0.0 },
        "label": "Nb",
        "xyz": [1.7213747235051475, 3.416649122082758, 3.4111988014033994]
      },
      {
        "species": [{ "element": "Se", "occu": 1 }],
        "abc": [0.14018602, 0.27946605, 0.85903083],
        "properties": { "magmom": 0.0 },
        "label": "Se",
        "xyz": [-0.0001625690257121416, 1.927797379846667, 7.989033935395356]
      },
      {
        "species": [{ "element": "Se", "occu": 1 }],
        "abc": [0.85981398, 0.72053395, 0.14096917],
        "properties": { "magmom": 0.0 },
        "label": "Se",
        "xyz": [1.720848629025712, 5.075931180153334, 1.136831904604645]
      },
      {
        "species": [{ "element": "Se", "occu": 1 }],
        "abc": [0.42411603000000003, 0.84684055, 0.81532682],
        "properties": { "magmom": -0.0 },
        "label": "Se",
        "xyz": [0.00048766227296733865, 5.9327546820635675, 7.432721216589474]
      },
      {
        "species": [{ "element": "Se", "occu": 1 }],
        "abc": [0.57588397, 0.15315945, 0.18467318],
        "properties": { "magmom": -0.0 },
        "label": "Se",
        "xyz": [1.720198397727033, 1.0709738779364328, 1.6931446234105259]
      }
    ]
  },
  "task_ids": null,
  "uncorrected_energy_per_atom": null,
  "energy_per_atom": -21.858824658333333,
  "formation_energy_per_atom": -0.598921481354165,
  "energy_above_hull": 0.0,
  "is_stable": true,
  "equilibrium_reaction_energy_per_atom": null,
  "decomposes_to": null,
  "xas": null,
  "grain_boundaries": null,
  "band_gap": 0.0,
  "cbm": null,
  "vbm": null,
  "efermi": 5.75125519,
  "is_gap_direct": null,
  "is_metal": null,
  "es_source_calc_id": null,
  "bandstructure": null,
  "dos": null,
  "dos_energy_up": null,
  "dos_energy_down": null,
  "is_magnetic": null,
  "ordering": null,
  "total_magnetization": 0.0,
  "total_magnetization_normalized_vol": null,
  "total_magnetization_normalized_formula_units": null,
  "num_magnetic_sites": null,
  "num_unique_magnetic_sites": null,
  "types_of_magnetic_species": null,
  "bulk_modulus": null,
  "shear_modulus": null,
  "universal_anisotropy": null,
  "homogeneous_poisson": null,
  "e_total": null,
  "e_ionic": null,
  "e_electronic": null,
  "n": null,
  "e_ij_max": null,
  "weighted_surface_energy_EV_PER_ANG2": null,
  "weighted_surface_energy": null,
  "weighted_work_function": null,
  "surface_anisotropy": null,
  "shape_factor": null,
  "has_reconstructed": null,
  "possible_species": null,
  "has_props": null,
  "theoretical": null,
  "database_IDs": null,
  "fields_not_requested": [
    "builder_meta",
    "nsites",
    "elements",
    "nelements",
    "composition",
    "composition_reduced",
    "chemsys",
    "symmetry",
    "property_name",
    "deprecated",
    "deprecation_reasons",
    "last_updated",
    "origins",
    "warnings",
    "task_ids",
    "uncorrected_energy_per_atom",
    "equilibrium_reaction_energy_per_atom",
    "decomposes_to",
    "xas",
    "grain_boundaries",
    "cbm",
    "vbm",
    "is_gap_direct",
    "is_metal",
    "es_source_calc_id",
    "bandstructure",
    "dos",
    "dos_energy_up",
    "dos_energy_down",
    "is_magnetic",
    "ordering",
    "total_magnetization_normalized_vol",
    "total_magnetization_normalized_formula_units",
    "num_magnetic_sites",
    "num_unique_magnetic_sites",
    "types_of_magnetic_species",
    "bulk_modulus",
    "shear_modulus",
    "universal_anisotropy",
    "homogeneous_poisson",
    "e_total",
    "e_ionic",
    "e_electronic",
    "n",
    "e_ij_max",
    "weighted_surface_energy_EV_PER_ANG2",
    "weighted_surface_energy",
    "weighted_work_function",
    "surface_anisotropy",
    "shape_factor",
    "has_reconstructed",
    "possible_species",
    "has_props",
    "theoretical",
    "database_IDs"
  ]
}
