{
  "builder_meta": null,
  "nsites": null,
  "elements": null,
  "nelements": null,
  "composition": null,
  "composition_reduced": null,
  "formula_pretty": "Nb2Se3",
  "formula_anonymous": "A2B3",
  "chemsys": null,
  "volume": 208.12684634609485,
  "density": 6.744904402979224,
  "density_atomic": 20.812684634609486,
  "symmetry": null,
  "property_name": null,
  "material_id": "mp-2330",
  "deprecated": null,
  "deprecation_reasons": null,
  "last_updated": null,
  "origins": null,
  "warnings": null,
  "structure": {
    "@module": "pymatgen.core.structure",
    "@class": "Structure",
    "charge": 0,
    "lattice": {
      "matrix": [
        [3.47956188, 0.0, 0.0],
        [0.0, 6.44133859, -1.5702391900000001],
        [0.0, -0.06079654, 9.30079357]
      ],
      "pbc": [true, true, true],
      "a": 3.47956188,
      "b": 6.6299693773678205,
      "c": 9.30099227238843,
      "alpha": 104.0746050573737,
      "beta": 90.0,
      "gamma": 90.0,
      "volume": 208.12684634609485
    },
    "properties": {},
    "sites": [
      {
        "species": [{ "element": "Nb", "occu": 1 }],
        "abc": [0.25, 0.11428199, 0.63425135],
        "properties": { "magmom": -0.0 },
        "label": "Nb",
        "xyz": [0.86989047, 0.6975687047586651, 5.719590818434631]
      },
      {
        "species": [{ "element": "Nb", "occu": 1 }],
        "abc": [0.75, 0.8857180100000001, 0.36574865],
        "properties": { "magmom": -0.0 },
        "label": "Nb",
        "xyz": [2.60967141, 5.682973345241335, 2.0109635615653687]
      },
      {
        "species": [{ "element": "Nb", "occu": 1 }],
        "abc": [0.25, 0.32186894, 0.00232767],
        "properties": { "magmom": -0.0 },
        "label": "Nb",
        "xyz": [0.86989047, 2.0731253098621325, -0.4837620454626767]
      },
      {
        "species": [{ "element": "Nb", "occu": 1 }],
        "abc": [0.75, 0.67813106, 0.99767233],
        "properties": { "magmom": -0.0 },
        "label": "Nb",
        "xyz": [2.60967141, 4.307416740137867, 8.214316425462677]
      },
      {
        "species": [{ "element": "Se", "occu": 1 }],
        "abc": [0.25, 0.72991704, 0.51217163],
        "properties": { "magmom": 0.0 },
        "label": "Se",
        "xyz": [0.86989047, 4.670504534260414, 3.6174582613836215]
      },
      {
        "species": [{ "element": "Se", "occu": 1 }],
        "abc": [0.75, 0.27008296, 0.48782837],
        "properties": { "magmom": 0.0 },
        "label": "Se",
        "xyz": [2.60967141, 1.7100375157395866, 4.113096118616379]
      },
      {
        "species": [{ "element": "Se", "occu": 1 }],
        "abc": [0.25, 0.96694113, 0.15748975],
        "properties": { "magmom": 0.0 },
        "label": "Se",
        "xyz": [0.86989047, 6.2188203830417415, -0.05354920260797735]
      },
      {
        "species": [{ "element": "Se", "occu": 1 }],
        "abc": [0.75, 0.033058870000000004, 0.84251025],
        "properties": { "magmom": 0.0 },
        "label": "Se",
        "xyz": [2.60967141, 0.16172166695825832, 7.784103582607977]
      },
      {
        "species": [{ "element": "Se", "occu": 1 }],
        "abc": [0.75, 0.47498658, 0.2027013],
        "properties": { "magmom": 0.0 },
        "label": "Se",
        "xyz": [2.60967141, 3.04722584979262, 1.1394404050305709]
      },
      {
        "species": [{ "element": "Se", "occu": 1 }],
        "abc": [0.25, 0.5250134200000001, 0.797298699999999],
        "properties": { "magmom": 0.0 },
        "label": "Se",
        "xyz": [0.86989047, 3.33331620020738, 6.59111397496942]
      }
    ]
  },
  "task_ids": null,
  "uncorrected_energy_per_atom": null,
  "energy_per_atom": -19.455192387,
  "formation_energy_per_atom": -0.974626388437499,
  "energy_above_hull": 0.018909157499997,
  "is_stable": false,
  "equilibrium_reaction_energy_per_atom": null,
  "decomposes_to": null,
  "xas": null,
  "grain_boundaries": null,
  "band_gap": 0.0,
  "cbm": null,
  "vbm": null,
  "efermi": 5.00138731,
  "is_gap_direct": null,
  "is_metal": null,
  "es_source_calc_id": null,
  "bandstructure": null,
  "dos": null,
  "dos_energy_up": null,
  "dos_energy_down": null,
  "is_magnetic": null,
  "ordering": null,
  "total_magnetization": 1e-7,
  "total_magnetization_normalized_vol": null,
  "total_magnetization_normalized_formula_units": null,
  "num_magnetic_sites": null,
  "num_unique_magnetic_sites": null,
  "types_of_magnetic_species": null,
  "bulk_modulus": null,
  "shear_modulus": null,
  "universal_anisotropy": null,
  "homogeneous_poisson": null,
  "e_total": null,
  "e_ionic": null,
  "e_electronic": null,
  "n": null,
  "e_ij_max": null,
  "weighted_surface_energy_EV_PER_ANG2": null,
  "weighted_surface_energy": null,
  "weighted_work_function": null,
  "surface_anisotropy": null,
  "shape_factor": null,
  "has_reconstructed": null,
  "possible_species": null,
  "has_props": null,
  "theoretical": null,
  "database_IDs": null,
  "fields_not_requested": [
    "builder_meta",
    "nsites",
    "elements",
    "nelements",
    "composition",
    "composition_reduced",
    "chemsys",
    "symmetry",
    "property_name",
    "deprecated",
    "deprecation_reasons",
    "last_updated",
    "origins",
    "warnings",
    "task_ids",
    "uncorrected_energy_per_atom",
    "equilibrium_reaction_energy_per_atom",
    "decomposes_to",
    "xas",
    "grain_boundaries",
    "cbm",
    "vbm",
    "is_gap_direct",
    "is_metal",
    "es_source_calc_id",
    "bandstructure",
    "dos",
    "dos_energy_up",
    "dos_energy_down",
    "is_magnetic",
    "ordering",
    "total_magnetization_normalized_vol",
    "total_magnetization_normalized_formula_units",
    "num_magnetic_sites",
    "num_unique_magnetic_sites",
    "types_of_magnetic_species",
    "bulk_modulus",
    "shear_modulus",
    "universal_anisotropy",
    "homogeneous_poisson",
    "e_total",
    "e_ionic",
    "e_electronic",
    "n",
    "e_ij_max",
    "weighted_surface_energy_EV_PER_ANG2",
    "weighted_surface_energy",
    "weighted_work_function",
    "surface_anisotropy",
    "shape_factor",
    "has_reconstructed",
    "possible_species",
    "has_props",
    "theoretical",
    "database_IDs"
  ]
}
