{"builder_meta": null, "nsites": null, "elements": null, "nelements": null, "composition": null, "composition_reduced": null, "formula_pretty": "Nb2Tc", "formula_anonymous": "AB2", "chemsys": null, "volume": 50.6556944606626, "density": 9.303636651266338, "density_atomic": 16.885231486887534, "symmetry": null, "property_name": null, "material_id": "mp-1220634", "deprecated": null, "deprecation_reasons": null, "last_updated": null, "origins": null, "warnings": null, "structure": {"@module": "pymatgen.core.structure", "@class": "Structure", "charge": 0, "lattice": {"matrix": [[-1.6110377900000001, -1.64568428, 1.64568428], [-1.6110377900000001, 1.64568428, -1.64568428], [1.6110377900000001, -4.77656876, -4.77656876]], "pbc": [true, true, true], "a": 2.830546989485658, "b": 2.830546989485658, "c": 6.9445418134549355, "alpha": 97.58735100687458, "beta": 97.58735100687458, "gamma": 110.61647802444911, "volume": 50.65569446066261}, "properties": {}, "sites": [{"species": [{"element": "Nb", "occu": 1}], "abc": [0.66046246, 0.66046246, 0.32092393], "properties": {"magmom": 0.0}, "label": "Nb", "xyz": [-1.611039384927412, -1.532915218374427, -1.532915218374427]}, {"species": [{"element": "Nb", "occu": 1}], "abc": [0.33953754, 0.33953754, 0.67907607], "properties": {"magmom": 0.0}, "label": "Nb", "xyz": [1.5949274121407342e-06, -3.2436535416255734, -3.2436535416255734]}, {"species": [{"element": "Tc", "occu": 1}], "abc": [-0.0, -0.0, -0.0], "properties": {"magmom": -0.0}, "label": "Tc", "xyz": [0.0, 0.0, 0.0]}]}, "task_ids": null, "uncorrected_energy_per_atom": null, "energy_per_atom": -25.28358166, "formation_energy_per_atom": -0.13931120999999702, "energy_above_hull": 0.0, "is_stable": true, "equilibrium_reaction_energy_per_atom": null, "decomposes_to": null, "xas": null, "grain_boundaries": null, "band_gap": 0.0, "cbm": null, "vbm": null, "efermi": 6.22528589, "is_gap_direct": null, "is_metal": null, "es_source_calc_id": null, "bandstructure": null, "dos": null, "dos_energy_up": null, "dos_energy_down": null, "is_magnetic": null, "ordering": null, "total_magnetization": 2e-07, "total_magnetization_normalized_vol": null, "total_magnetization_normalized_formula_units": null, "num_magnetic_sites": null, "num_unique_magnetic_sites": null, "types_of_magnetic_species": null, "bulk_modulus": null, "shear_modulus": null, "universal_anisotropy": null, "homogeneous_poisson": null, "e_total": null, "e_ionic": null, "e_electronic": null, "n": null, "e_ij_max": null, "weighted_surface_energy_EV_PER_ANG2": null, "weighted_surface_energy": null, "weighted_work_function": null, "surface_anisotropy": null, "shape_factor": null, "has_reconstructed": null, "possible_species": null, "has_props": null, "theoretical": null, "database_IDs": null, "fields_not_requested": ["builder_meta", "nsites", "elements", "nelements", "composition", "composition_reduced", "chemsys", "symmetry", "property_name", "deprecated", "deprecation_reasons", "last_updated", "origins", "warnings", "task_ids", "uncorrected_energy_per_atom", "equilibrium_reaction_energy_per_atom", "decomposes_to", "xas", "grain_boundaries", "cbm", "vbm", "is_gap_direct", "is_metal", "es_source_calc_id", "bandstructure", "dos", "dos_energy_up", "dos_energy_down", "is_magnetic", "ordering", "total_magnetization_normalized_vol", "total_magnetization_normalized_formula_units", "num_magnetic_sites", "num_unique_magnetic_sites", "types_of_magnetic_species", "bulk_modulus", "shear_modulus", "universal_anisotropy", "homogeneous_poisson", "e_total", "e_ionic", "e_electronic", "n", "e_ij_max", "weighted_surface_energy_EV_PER_ANG2", "weighted_surface_energy", "weighted_work_function", "surface_anisotropy", "shape_factor", "has_reconstructed", "possible_species", "has_props", "theoretical", "database_IDs"]}