{"builder_meta": null, "nsites": null, "elements": null, "nelements": null, "composition": null, "composition_reduced": null, "formula_pretty": "Nb2Te3", "formula_anonymous": "A2B3", "chemsys": null, "volume": 270.0434538229675, "density": 6.992976044264652, "density_atomic": 27.004345382296748, "symmetry": null, "property_name": null, "material_id": "mp-2037445", "deprecated": null, "deprecation_reasons": null, "last_updated": null, "origins": null, "warnings": null, "structure": {"@module": "pymatgen.core.structure", "@class": "Structure", "charge": 0, "lattice": {"matrix": [[3.59049295, 0.00188641, 0.7496825300000001], [1.44312025, 7.8477753, 2.10080502], [-0.14595354, 0.8350436999999991, 9.74565783]], "pbc": [true, true, true], "a": 3.6679240829561333, "b": 8.251275958741616, "c": 9.782456079951933, "alpha": 70.59620987273735, "beta": 79.10213350838407, "gamma": 77.07168716904846, "volume": 270.0434538229675}, "properties": {}, "sites": [{"species": [{"element": "Nb", "occu": 1}], "abc": [0.68005648, 0.52934548, 0.107471199999999], "properties": {"magmom": 0.0}, "label": "Nb", "xyz": [3.1899613763877377, 4.24521039694652, 2.66925564594709]}, {"species": [{"element": "Nb", "occu": 1}], "abc": [0.31994352, 0.47065452, 0.8925288], "properties": {"magmom": 0.0}, "label": "Nb", "xyz": [1.697698283612262, 4.439495013053479, 9.9268897340529]}, {"species": [{"element": "Nb", "occu": 1}], "abc": [0.7535324, 0.118193399999999, 0.37393061], "properties": {"magmom": -0.0}, "label": "Nb", "xyz": [2.8215435625090692, 1.241225116315353, 4.457411141343014]}, {"species": [{"element": "Nb", "occu": 1}], "abc": [0.246467599999999, 0.8818066, 0.6260693900000001], "properties": {"magmom": -0.0}, "label": "Nb", "xyz": [2.0661160974909256, 7.4434802936846385, 8.138734238656983]}, {"species": [{"element": "Te", "occu": 1}], "abc": [0.39458189, 0.87262207, 0.33887075], "properties": {"magmom": 0.0}, "label": "Te", "xyz": [2.626582688491638, 7.131858155305761, 5.431538352901645]}, {"species": [{"element": "Te", "occu": 1}], "abc": [0.87174808, 0.21575404, 0.04362966], "properties": {"magmom": -0.0}, "label": "Te", "xyz": [3.4349964562333497, 1.7312663729989468, 1.5319912140535612]}, {"species": [{"element": "Te", "occu": 1}], "abc": [0.12498422000000001, 0.40531673, 0.34223738], "properties": {"magmom": 0.0}, "label": "Te", "xyz": [0.9837249843667063, 3.466853561926725, 4.280518309449347]}, {"species": [{"element": "Te", "occu": 1}], "abc": [0.87501578, 0.59468327, 0.65776262], "properties": {"magmom": 0.0}, "label": "Te", "xyz": [3.9039346756332938, 5.217851848073274, 8.315627070550654]}, {"species": [{"element": "Te", "occu": 1}], "abc": [0.60541811, 0.12737793, 0.66112925], "properties": {"magmom": 0.0}, "label": "Te", "xyz": [2.261076971508362, 1.5528472546942385, 7.164607027098356]}, {"species": [{"element": "Te", "occu": 1}], "abc": [0.12825192, 0.78424596, 0.95637034], "properties": {"magmom": -0.0}, "label": "Te", "xyz": [1.4526632037666505, 6.953439037001052, 11.06415416594644]}]}, "task_ids": null, "uncorrected_energy_per_atom": null, "energy_per_atom": -25.665670210000002, "formation_energy_per_atom": -0.521705764, "energy_above_hull": 0.026130903166663003, "is_stable": false, "equilibrium_reaction_energy_per_atom": null, "decomposes_to": null, "xas": null, "grain_boundaries": null, "band_gap": 0.0, "cbm": null, "vbm": null, "efermi": 5.87007354, "is_gap_direct": null, "is_metal": null, "es_source_calc_id": null, "bandstructure": null, "dos": null, "dos_energy_up": null, "dos_energy_down": null, "is_magnetic": null, "ordering": null, "total_magnetization": 2.299999999999998e-06, "total_magnetization_normalized_vol": null, "total_magnetization_normalized_formula_units": null, "num_magnetic_sites": null, "num_unique_magnetic_sites": null, "types_of_magnetic_species": null, "bulk_modulus": null, "shear_modulus": null, "universal_anisotropy": null, "homogeneous_poisson": null, "e_total": null, "e_ionic": null, "e_electronic": null, "n": null, "e_ij_max": null, "weighted_surface_energy_EV_PER_ANG2": null, "weighted_surface_energy": null, "weighted_work_function": null, "surface_anisotropy": null, "shape_factor": null, "has_reconstructed": null, "possible_species": null, "has_props": null, "theoretical": null, "database_IDs": null, "fields_not_requested": ["builder_meta", "nsites", "elements", "nelements", "composition", "composition_reduced", "chemsys", "symmetry", "property_name", "deprecated", "deprecation_reasons", "last_updated", "origins", "warnings", "task_ids", "uncorrected_energy_per_atom", "equilibrium_reaction_energy_per_atom", "decomposes_to", "xas", "grain_boundaries", "cbm", "vbm", "is_gap_direct", "is_metal", "es_source_calc_id", "bandstructure", "dos", "dos_energy_up", "dos_energy_down", "is_magnetic", "ordering", "total_magnetization_normalized_vol", "total_magnetization_normalized_formula_units", "num_magnetic_sites", "num_unique_magnetic_sites", "types_of_magnetic_species", "bulk_modulus", "shear_modulus", "universal_anisotropy", "homogeneous_poisson", "e_total", "e_ionic", "e_electronic", "n", "e_ij_max", "weighted_surface_energy_EV_PER_ANG2", "weighted_surface_energy", "weighted_work_function", "surface_anisotropy", "shape_factor", "has_reconstructed", "possible_species", "has_props", "theoretical", "database_IDs"]}