{"builder_meta": null, "nsites": null, "elements": null, "nelements": null, "composition": null, "composition_reduced": null, "formula_pretty": "Nb3As", "formula_anonymous": "AB3", "chemsys": null, "volume": 561.6780957889132, "density": 8.363997367374989, "density_atomic": 17.552440493403537, "symmetry": null, "property_name": null, "material_id": "mp-504425", "deprecated": null, "deprecation_reasons": null, "last_updated": null, "origins": null, "warnings": null, "structure": {"@module": "pymatgen.core.structure", "@class": "Structure", "charge": 0, "lattice": {"matrix": [[5.24691737, -0.0, 0.0], [-0.0, 10.34645629, 0.00141392], [0.0, -0.00141392, 10.34645629]], "pbc": [true, true, true], "a": 5.24691737, "b": 10.346456386611328, "c": 10.346456386611328, "alpha": 90.0, "beta": 90.0, "gamma": 90.0, "volume": 561.6780957889132}, "properties": {}, "sites": [{"species": [{"element": "Nb", "occu": 1}], "abc": [0.72651577, 0.165423699999999, 0.65580456], "properties": {"magmom": -0.0}, "label": "Nb", "xyz": [3.8119682131919252, 1.7106218261965878, 6.785487110700586]}, {"species": [{"element": "Nb", "occu": 1}], "abc": [0.22651577, 0.34419544, 0.665422699999999], "properties": {"magmom": -0.0}, "label": "Nb", "xyz": [1.188509528191925, 3.560262220713334, 6.885253544740299]}, {"species": [{"element": "Nb", "occu": 1}], "abc": [0.22651577, 0.15580456, 0.8345773], "properties": {"magmom": -0.0}, "label": "Nb", "xyz": [1.188509528191925, 1.6108450442866666, 8.635137850259692]}, {"species": [{"element": "Nb", "occu": 1}], "abc": [0.72651577, 0.334577299999999, 0.84419544], "properties": {"magmom": -0.0}, "label": "Nb", "xyz": [3.8119682131919252, 3.460495785259682, 8.734904285713334]}, {"species": [{"element": "Nb", "occu": 1}], "abc": [0.27348423, 0.8345773, 0.34419544], "properties": {"magmom": -0.0}, "label": "Nb", "xyz": [1.4349491568080752, 8.634430890259694, 3.562383100713334]}, {"species": [{"element": "Nb", "occu": 1}], "abc": [0.77348423, 0.65580456, 0.334577299999999], "properties": {"magmom": -0.0}, "label": "Nb", "xyz": [4.058407841808076, 6.784780149286666, 3.462616665259682]}, {"species": [{"element": "Nb", "occu": 1}], "abc": [0.77348423, 0.84419544, 0.165423699999999], "properties": {"magmom": -0.0}, "label": "Nb", "xyz": [4.058407841808076, 8.734197324299416, 1.7127427061965876]}, {"species": [{"element": "Nb", "occu": 1}], "abc": [0.27348423, 0.665422699999999, 0.15580456], "properties": {"magmom": -0.0}, "label": "Nb", "xyz": [1.4349491568080752, 6.884546584740298, 1.6129659242866665]}, {"species": [{"element": "Nb", "occu": 1}], "abc": [0.51942216, 0.10121829, 0.26175775], "properties": {"magmom": -0.0}, "label": "Nb", "xyz": [2.7253651536669192, 1.046880508715664, 2.7084082335083446]}, {"species": [{"element": "Nb", "occu": 1}], "abc": [0.01942216, 0.73824225, 0.60121729], "properties": {"magmom": -0.0}, "label": "Nb", "xyz": [0.10190646866691921, 7.637341097905576, 6.221512227259375]}, {"species": [{"element": "Nb", "occu": 1}], "abc": [0.01942216, 0.76175775, 0.89878271], "properties": {"magmom": -0.0}, "label": "Nb", "xyz": [0.10190646866691921, 7.880222457094425, 9.300293087740625]}, {"species": [{"element": "Nb", "occu": 1}], "abc": [0.51942216, 0.39878271, 0.23824225000000002], "properties": {"magmom": -0.0}, "label": "Nb", "xyz": [2.7253651536669192, 4.125651022740627, 2.465526872905576]}, {"species": [{"element": "Nb", "occu": 1}], "abc": [0.48057784000000003, 0.89878271, 0.73824225], "properties": {"magmom": -0.0}, "label": "Nb", "xyz": [2.521552216333081, 9.298172207740626, 7.639461977905576]}, {"species": [{"element": "Nb", "occu": 1}], "abc": [0.98057784, 0.26175775, 0.39878271], "properties": {"magmom": -0.0}, "label": "Nb", "xyz": [5.145010901333081, 2.7077012720944245, 4.126357982740626]}, {"species": [{"element": "Nb", "occu": 1}], "abc": [0.98057784, 0.23824225000000002, 0.10121829], "properties": {"magmom": -0.0}, "label": "Nb", "xyz": [5.145010901333081, 2.464819911491656, 1.047587468715664]}, {"species": [{"element": "Nb", "occu": 1}], "abc": [0.48057784000000003, 0.60121729, 0.76175775], "properties": {"magmom": -0.0}, "label": "Nb", "xyz": [2.521552216333081, 6.219391347259374, 7.882343337094425]}, {"species": [{"element": "Nb", "occu": 1}], "abc": [0.2395531, 0.056302080000000004, 0.5363160100000001], "properties": {"magmom": 0.0}, "label": "Nb", "xyz": [1.256915321427347, 0.581768701823224, 5.549049761729157]}, {"species": [{"element": "Nb", "occu": 1}], "abc": [0.7395531, 0.46368399, 0.55630208], "properties": {"magmom": 0.0}, "label": "Nb", "xyz": [3.880374006427347, 4.796699568270843, 5.756410766823225]}, {"species": [{"element": "Nb", "occu": 1}], "abc": [0.7395531, 0.03631601, 0.94369792], "properties": {"magmom": 0.0}, "label": "Nb", "xyz": [3.880374006427347, 0.3744076967291566, 9.763980628176776]}, {"species": [{"element": "Nb", "occu": 1}], "abc": [0.2395531, 0.44369792, 0.96368399], "properties": {"magmom": 0.0}, "label": "Nb", "xyz": [1.256915321427347, 4.589338563176777, 9.971341633270844]}, {"species": [{"element": "Nb", "occu": 1}], "abc": [0.760446899999999, 0.94369792, 0.46368399], "properties": {"magmom": 0.0}, "label": "Nb", "xyz": [3.990002048572648, 9.763273668176778, 4.798820448270844]}, {"species": [{"element": "Nb", "occu": 1}], "abc": [0.2604459, 0.5363160100000001, 0.44369792], "properties": {"magmom": 0.0}, "label": "Nb", "xyz": [1.366538116655283, 5.548342801729158, 4.591459443176777]}, {"species": [{"element": "Nb", "occu": 1}], "abc": [0.2604459, 0.96368399, 0.056302080000000004], "properties": {"magmom": 0.0}, "label": "Nb", "xyz": [1.366538116655283, 9.970634673270844, 0.5838895818232241]}, {"species": [{"element": "Nb", "occu": 1}], "abc": [0.760446899999999, 0.55630208, 0.03631601], "properties": {"magmom": 0.0}, "label": "Nb", "xyz": [3.990002048572648, 5.755703806823225, 0.37652857672915657]}, {"species": [{"element": "As", "occu": 1}], "abc": [0.02103156, 0.04343575, 0.27170575], "properties": {"magmom": 0.0}, "label": "As", "xyz": [0.11035085748219721, 0.44902191860432755, 2.811253080792308]}, {"species": [{"element": "As", "occu": 1}], "abc": [0.5210315600000001, 0.72829425, 0.54343575], "properties": {"magmom": 0.0}, "label": "As", "xyz": [2.7338095424821978, 7.5344962492076935, 5.623663983604328]}, {"species": [{"element": "As", "occu": 1}], "abc": [0.5210315600000001, 0.77170575, 0.95656425], "properties": {"magmom": 0.0}, "label": "As", "xyz": [2.7338095424821978, 7.983067305792308, 9.898141331395673]}, {"species": [{"element": "As", "occu": 1}], "abc": [0.02103156, 0.45656425, 0.22829425], "properties": {"magmom": 0.0}, "label": "As", "xyz": [0.11035085748219721, 4.723499266395673, 2.3626820242076927]}, {"species": [{"element": "As", "occu": 1}], "abc": [0.97896844, 0.95656425, 0.72829425], "properties": {"magmom": 0.0}, "label": "As", "xyz": [5.1365665125178035, 9.896020451395673, 7.536617129207693]}, {"species": [{"element": "As", "occu": 1}], "abc": [0.47896844, 0.27170575, 0.45656425], "properties": {"magmom": 0.0}, "label": "As", "xyz": [2.513107827517803, 2.810546120792308, 4.724206226395673]}, {"species": [{"element": "As", "occu": 1}], "abc": [0.47896844, 0.22829425, 0.04343575], "properties": {"magmom": 0.0}, "label": "As", "xyz": [2.513107827517803, 2.3619750642076927, 0.4497288786043276]}, {"species": [{"element": "As", "occu": 1}], "abc": [0.97896844, 0.54343575, 0.77170575], "properties": {"magmom": 0.0}, "label": "As", "xyz": [5.1365665125178035, 5.621543103604328, 7.985188185792308]}]}, "task_ids": null, "uncorrected_energy_per_atom": null, "energy_per_atom": -9.16052685375, "formation_energy_per_atom": -0.417017440624999, "energy_above_hull": 0.0, "is_stable": true, "equilibrium_reaction_energy_per_atom": null, "decomposes_to": null, "xas": null, "grain_boundaries": null, "band_gap": 0.0, "cbm": null, "vbm": null, "efermi": 6.11235137, "is_gap_direct": null, "is_metal": null, "es_source_calc_id": null, "bandstructure": null, "dos": null, "dos_energy_up": null, "dos_energy_down": null, "is_magnetic": null, "ordering": null, "total_magnetization": 4e-07, "total_magnetization_normalized_vol": null, "total_magnetization_normalized_formula_units": null, "num_magnetic_sites": null, "num_unique_magnetic_sites": null, "types_of_magnetic_species": null, "bulk_modulus": null, "shear_modulus": null, "universal_anisotropy": null, "homogeneous_poisson": null, "e_total": null, "e_ionic": null, "e_electronic": null, "n": null, "e_ij_max": null, "weighted_surface_energy_EV_PER_ANG2": null, "weighted_surface_energy": null, "weighted_work_function": null, "surface_anisotropy": null, "shape_factor": null, "has_reconstructed": null, "possible_species": null, "has_props": null, "theoretical": null, "database_IDs": null, "fields_not_requested": ["builder_meta", "nsites", "elements", "nelements", "composition", "composition_reduced", "chemsys", "symmetry", "property_name", "deprecated", "deprecation_reasons", "last_updated", "origins", "warnings", "task_ids", "uncorrected_energy_per_atom", "equilibrium_reaction_energy_per_atom", "decomposes_to", "xas", "grain_boundaries", "cbm", "vbm", "is_gap_direct", "is_metal", "es_source_calc_id", "bandstructure", "dos", "dos_energy_up", "dos_energy_down", "is_magnetic", "ordering", "total_magnetization_normalized_vol", "total_magnetization_normalized_formula_units", "num_magnetic_sites", "num_unique_magnetic_sites", "types_of_magnetic_species", "bulk_modulus", "shear_modulus", "universal_anisotropy", "homogeneous_poisson", "e_total", "e_ionic", "e_electronic", "n", "e_ij_max", "weighted_surface_energy_EV_PER_ANG2", "weighted_surface_energy", "weighted_work_function", "surface_anisotropy", "shape_factor", "has_reconstructed", "possible_species", "has_props", "theoretical", "database_IDs"]}