{"builder_meta": null, "nsites": null, "elements": null, "nelements": null, "composition": null, "composition_reduced": null, "formula_pretty": "Nb3Au2", "formula_anonymous": "A2B3", "chemsys": null, "volume": 89.375045068954, "density": 12.497508504692004, "density_atomic": 17.875009013790798, "symmetry": null, "property_name": null, "material_id": "mp-2123", "deprecated": null, "deprecation_reasons": null, "last_updated": null, "origins": null, "warnings": null, "structure": {"@module": "pymatgen.core.structure", "@class": "Structure", "charge": 0, "lattice": {"matrix": [[3.33736758, 0.000101, -0.72693217], [-0.15851055, 3.33358461, -0.72692262], [0.00462729, 0.0048854400000000004, 8.03128975]], "pbc": [true, true, true], "a": 3.4156189415707607, "b": 3.415600743933316, "c": 8.031292568932587, "alpha": 102.25466316400859, "beta": 102.2549939628654, "gamma": 90.00121719267854, "volume": 89.375045068954}, "properties": {}, "sites": [{"species": [{"element": "Nb", "occu": 1}], "abc": [1.57e-06, 6.249999999999999e-06, 1.339e-05], "properties": {"magmom": -0.0}, "label": "Nb", "xyz": [4.3109355762000005e-06, 2.0900478424099992e-05, 0.00010185441987059999]}, {"species": [{"element": "Nb", "occu": 1}], "abc": [0.39920292, 0.39918909, 0.79856145], "properties": {"magmom": 0.0}, "label": "Nb", "xyz": [1.2727063762514048, 1.3346722504491129, 5.833105364045984]}, {"species": [{"element": "Nb", "occu": 1}], "abc": [0.6007939800000001, 0.60081215, 0.20145224], "properties": {"magmom": 0.0}, "label": "Nb", "xyz": [1.9107674647036155, 2.003902999764377, 0.7444408964163703]}, {"species": [{"element": "Au", "occu": 1}], "abc": [0.1997714, 0.19977106, 0.39961815], "properties": {"magmom": 0.0}, "label": "Au", "xyz": [0.6368939222458425, 0.6679262185455226, 2.919010792367647]}, {"species": [{"element": "Au", "occu": 1}], "abc": [0.80023013, 0.80022245, 0.60035477], "properties": {"magmom": 0.0}, "label": "Au", "xyz": [2.546596407353011, 2.670623064347174, 3.658210285827506]}]}, "task_ids": null, "uncorrected_energy_per_atom": null, "energy_per_atom": -35.260111452000004, "formation_energy_per_atom": -0.185682601999997, "energy_above_hull": 0.0, "is_stable": true, "equilibrium_reaction_energy_per_atom": null, "decomposes_to": null, "xas": null, "grain_boundaries": null, "band_gap": 0.0, "cbm": null, "vbm": null, "efermi": 5.56798434, "is_gap_direct": null, "is_metal": null, "es_source_calc_id": null, "bandstructure": null, "dos": null, "dos_energy_up": null, "dos_energy_down": null, "is_magnetic": null, "ordering": null, "total_magnetization": 0.0, "total_magnetization_normalized_vol": null, "total_magnetization_normalized_formula_units": null, "num_magnetic_sites": null, "num_unique_magnetic_sites": null, "types_of_magnetic_species": null, "bulk_modulus": null, "shear_modulus": null, "universal_anisotropy": null, "homogeneous_poisson": null, "e_total": null, "e_ionic": null, "e_electronic": null, "n": null, "e_ij_max": null, "weighted_surface_energy_EV_PER_ANG2": null, "weighted_surface_energy": null, "weighted_work_function": null, "surface_anisotropy": null, "shape_factor": null, "has_reconstructed": null, "possible_species": null, "has_props": null, "theoretical": null, "database_IDs": null, "fields_not_requested": ["builder_meta", "nsites", "elements", "nelements", "composition", "composition_reduced", "chemsys", "symmetry", "property_name", "deprecated", "deprecation_reasons", "last_updated", "origins", "warnings", "task_ids", "uncorrected_energy_per_atom", "equilibrium_reaction_energy_per_atom", "decomposes_to", "xas", "grain_boundaries", "cbm", "vbm", "is_gap_direct", "is_metal", "es_source_calc_id", "bandstructure", "dos", "dos_energy_up", "dos_energy_down", "is_magnetic", "ordering", "total_magnetization_normalized_vol", "total_magnetization_normalized_formula_units", "num_magnetic_sites", "num_unique_magnetic_sites", "types_of_magnetic_species", "bulk_modulus", "shear_modulus", "universal_anisotropy", "homogeneous_poisson", "e_total", "e_ionic", "e_electronic", "n", "e_ij_max", "weighted_surface_energy_EV_PER_ANG2", "weighted_surface_energy", "weighted_work_function", "surface_anisotropy", "shape_factor", "has_reconstructed", "possible_species", "has_props", "theoretical", "database_IDs"]}