{"builder_meta": null, "nsites": null, "elements": null, "nelements": null, "composition": null, "composition_reduced": null, "formula_pretty": "Nb3B4", "formula_anonymous": "A3B4", "chemsys": null, "volume": 74.06841806132483, "density": 7.218088167247705, "density_atomic": 10.581202580189261, "symmetry": null, "property_name": null, "material_id": "mp-10255", "deprecated": null, "deprecation_reasons": null, "last_updated": null, "origins": null, "warnings": null, "structure": {"@module": "pymatgen.core.structure", "@class": "Structure", "charge": 0, "lattice": {"matrix": [[3.08998271, -0.02317847, -0.63800078], [-0.12016031, 3.23836353, -0.70677842], [-0.07380856, -0.0769793, 7.43686079]], "pbc": [true, true, true], "a": 3.1552456932624273, "b": 3.3167714101986365, "c": 7.437625422538916, "alpha": 102.8744948577481, "beta": 102.22931131972223, "gamma": 89.97497112724227, "volume": 74.06841806132483}, "properties": {}, "sites": [{"species": [{"element": "Nb", "occu": 1}], "abc": [0.18503853, 0.18476361, 0.36979143000000003], "properties": {"magmom": 0.0}, "label": "Nb", "xyz": [0.5222708327808565, 0.565576540851295, 2.5014457274256805]}, {"species": [{"element": "Nb", "occu": 1}], "abc": [0.81496147, 0.81523639, 0.63020857], "properties": {"magmom": 0.0}, "label": "Nb", "xyz": [2.373743007219143, 2.572629219148705, 3.59063586257432]}, {"species": [{"element": "Nb", "occu": 1}], "abc": [0.5, -0.0, -0.0], "properties": {"magmom": 0.0}, "label": "Nb", "xyz": [1.544991355, -0.011589235, -0.31900039]}, {"species": [{"element": "B", "occu": 1}], "abc": [0.9356998200000001, 0.43566256000000003, 0.87141261], "properties": {"magmom": -0.0}, "label": "B", "xyz": [2.7746292073751775, 1.3220649227545884, 5.5756801604047475]}, {"species": [{"element": "B", "occu": 1}], "abc": [0.06430018, 0.56433744, 0.12858739], "properties": {"magmom": -0.0}, "label": "B", "xyz": [0.12138463262482302, 1.8161408372454115, 0.5164014295952528]}, {"species": [{"element": "B", "occu": 1}], "abc": [0.36798822000000003, 0.36771448, 0.73557878], "properties": {"magmom": -0.0}, "label": "B", "xyz": [1.0386005408570307, 1.125639417988037, 4.9757275563617025]}, {"species": [{"element": "B", "occu": 1}], "abc": [0.63201178, 0.63228552, 0.26442122], "properties": {"magmom": -0.0}, "label": "B", "xyz": [1.8574132991429697, 2.0125663420119633, 1.1163540336382969]}]}, "task_ids": null, "uncorrected_energy_per_atom": null, "energy_per_atom": -15.58797522, "formation_energy_per_atom": -0.789740828571429, "energy_above_hull": 0.0, "is_stable": true, "equilibrium_reaction_energy_per_atom": null, "decomposes_to": null, "xas": null, "grain_boundaries": null, "band_gap": 0.0, "cbm": null, "vbm": null, "efermi": 7.46395444, "is_gap_direct": null, "is_metal": null, "es_source_calc_id": null, "bandstructure": null, "dos": null, "dos_energy_up": null, "dos_energy_down": null, "is_magnetic": null, "ordering": null, "total_magnetization": 0.0, "total_magnetization_normalized_vol": null, "total_magnetization_normalized_formula_units": null, "num_magnetic_sites": null, "num_unique_magnetic_sites": null, "types_of_magnetic_species": null, "bulk_modulus": null, "shear_modulus": null, "universal_anisotropy": null, "homogeneous_poisson": null, "e_total": null, "e_ionic": null, "e_electronic": null, "n": null, "e_ij_max": null, "weighted_surface_energy_EV_PER_ANG2": null, "weighted_surface_energy": null, "weighted_work_function": null, "surface_anisotropy": null, "shape_factor": null, "has_reconstructed": null, "possible_species": null, "has_props": null, "theoretical": null, "database_IDs": null, "fields_not_requested": ["builder_meta", "nsites", "elements", "nelements", "composition", "composition_reduced", "chemsys", "symmetry", "property_name", "deprecated", "deprecation_reasons", "last_updated", "origins", "warnings", "task_ids", "uncorrected_energy_per_atom", "equilibrium_reaction_energy_per_atom", "decomposes_to", "xas", "grain_boundaries", "cbm", "vbm", "is_gap_direct", "is_metal", "es_source_calc_id", "bandstructure", "dos", "dos_energy_up", "dos_energy_down", "is_magnetic", "ordering", "total_magnetization_normalized_vol", "total_magnetization_normalized_formula_units", "num_magnetic_sites", "num_unique_magnetic_sites", "types_of_magnetic_species", "bulk_modulus", "shear_modulus", "universal_anisotropy", "homogeneous_poisson", "e_total", "e_ionic", "e_electronic", "n", "e_ij_max", "weighted_surface_energy_EV_PER_ANG2", "weighted_surface_energy", "weighted_work_function", "surface_anisotropy", "shape_factor", "has_reconstructed", "possible_species", "has_props", "theoretical", "database_IDs"]}