{
  "builder_meta": null,
  "nsites": null,
  "elements": null,
  "nelements": null,
  "composition": null,
  "composition_reduced": null,
  "formula_pretty": "Nb3B2",
  "formula_anonymous": "A2B3",
  "chemsys": null,
  "volume": 128.6426855296185,
  "density": 7.753696904319577,
  "density_atomic": 12.86426855296185,
  "symmetry": null,
  "property_name": null,
  "material_id": "mp-20689",
  "deprecated": null,
  "deprecation_reasons": null,
  "last_updated": null,
  "origins": null,
  "warnings": null,
  "structure": {
    "@module": "pymatgen.core.structure",
    "@class": "Structure",
    "charge": 0,
    "lattice": {
      "matrix": [
        [3.31146728, -0.0, 0.0],
        [0.0, 6.23278742, 0.0],
        [-0.0, 0.0, 6.23278742]
      ],
      "pbc": [true, true, true],
      "a": 3.31146728,
      "b": 6.23278742,
      "c": 6.23278742,
      "alpha": 90.0,
      "beta": 90.0,
      "gamma": 90.0,
      "volume": 128.6426855296185
    },
    "properties": {},
    "sites": [
      {
        "species": [{ "element": "Nb", "occu": 1 }],
        "abc": [-0.0, -0.0, -0.0],
        "properties": { "magmom": 0.0 },
        "label": "Nb",
        "xyz": [0.0, 0.0, 0.0]
      },
      {
        "species": [{ "element": "Nb", "occu": 1 }],
        "abc": [-0.0, 0.5, 0.5],
        "properties": { "magmom": 0.0 },
        "label": "Nb",
        "xyz": [0.0, 3.11639371, 3.11639371]
      },
      {
        "species": [{ "element": "Nb", "occu": 1 }],
        "abc": [0.5, 0.82173271, 0.32173271000000003],
        "properties": { "magmom": -0.0 },
        "label": "Nb",
        "xyz": [1.65573364, 5.121685297490509, 2.0052915874905084]
      },
      {
        "species": [{ "element": "Nb", "occu": 1 }],
        "abc": [0.5, 0.67826729, 0.82173271],
        "properties": { "magmom": -0.0 },
        "label": "Nb",
        "xyz": [1.65573364, 4.227495832509492, 5.121685297490509]
      },
      {
        "species": [{ "element": "Nb", "occu": 1 }],
        "abc": [0.5, 0.32173271000000003, 0.17826729],
        "properties": { "magmom": -0.0 },
        "label": "Nb",
        "xyz": [1.65573364, 2.0052915874905084, 1.1111021225094917]
      },
      {
        "species": [{ "element": "Nb", "occu": 1 }],
        "abc": [0.5, 0.17826729, 0.67826729],
        "properties": { "magmom": -0.0 },
        "label": "Nb",
        "xyz": [1.65573364, 1.1111021225094917, 4.227495832509492]
      },
      {
        "species": [{ "element": "B", "occu": 1 }],
        "abc": [-0.0, 0.60513122, 0.10513122],
        "properties": { "magmom": -0.0 },
        "label": "B",
        "xyz": [0.0, 3.7716542554652523, 0.6552605454652524]
      },
      {
        "species": [{ "element": "B", "occu": 1 }],
        "abc": [0.0, 0.89486878, 0.60513122],
        "properties": { "magmom": -0.0 },
        "label": "B",
        "xyz": [0.0, 5.577526874534748, 3.7716542554652523]
      },
      {
        "species": [{ "element": "B", "occu": 1 }],
        "abc": [-0.0, 0.10513122, 0.39486878000000003],
        "properties": { "magmom": -0.0 },
        "label": "B",
        "xyz": [0.0, 0.6552605454652524, 2.461133164534748]
      },
      {
        "species": [{ "element": "B", "occu": 1 }],
        "abc": [0.0, 0.39486878000000003, 0.89486878],
        "properties": { "magmom": -0.0 },
        "label": "B",
        "xyz": [0.0, 2.461133164534748, 5.577526874534748]
      }
    ]
  },
  "task_ids": null,
  "uncorrected_energy_per_atom": null,
  "energy_per_atom": -18.451674156000003,
  "formation_energy_per_atom": -0.672687687000001,
  "energy_above_hull": 0.0,
  "is_stable": true,
  "equilibrium_reaction_energy_per_atom": null,
  "decomposes_to": null,
  "xas": null,
  "grain_boundaries": null,
  "band_gap": 0.0,
  "cbm": null,
  "vbm": null,
  "efermi": 6.01362898,
  "is_gap_direct": null,
  "is_metal": null,
  "es_source_calc_id": null,
  "bandstructure": null,
  "dos": null,
  "dos_energy_up": null,
  "dos_energy_down": null,
  "is_magnetic": null,
  "ordering": null,
  "total_magnetization": 0.0,
  "total_magnetization_normalized_vol": null,
  "total_magnetization_normalized_formula_units": null,
  "num_magnetic_sites": null,
  "num_unique_magnetic_sites": null,
  "types_of_magnetic_species": null,
  "bulk_modulus": null,
  "shear_modulus": null,
  "universal_anisotropy": null,
  "homogeneous_poisson": null,
  "e_total": null,
  "e_ionic": null,
  "e_electronic": null,
  "n": null,
  "e_ij_max": null,
  "weighted_surface_energy_EV_PER_ANG2": null,
  "weighted_surface_energy": null,
  "weighted_work_function": null,
  "surface_anisotropy": null,
  "shape_factor": null,
  "has_reconstructed": null,
  "possible_species": null,
  "has_props": null,
  "theoretical": null,
  "database_IDs": null,
  "fields_not_requested": [
    "builder_meta",
    "nsites",
    "elements",
    "nelements",
    "composition",
    "composition_reduced",
    "chemsys",
    "symmetry",
    "property_name",
    "deprecated",
    "deprecation_reasons",
    "last_updated",
    "origins",
    "warnings",
    "task_ids",
    "uncorrected_energy_per_atom",
    "equilibrium_reaction_energy_per_atom",
    "decomposes_to",
    "xas",
    "grain_boundaries",
    "cbm",
    "vbm",
    "is_gap_direct",
    "is_metal",
    "es_source_calc_id",
    "bandstructure",
    "dos",
    "dos_energy_up",
    "dos_energy_down",
    "is_magnetic",
    "ordering",
    "total_magnetization_normalized_vol",
    "total_magnetization_normalized_formula_units",
    "num_magnetic_sites",
    "num_unique_magnetic_sites",
    "types_of_magnetic_species",
    "bulk_modulus",
    "shear_modulus",
    "universal_anisotropy",
    "homogeneous_poisson",
    "e_total",
    "e_ionic",
    "e_electronic",
    "n",
    "e_ij_max",
    "weighted_surface_energy_EV_PER_ANG2",
    "weighted_surface_energy",
    "weighted_work_function",
    "surface_anisotropy",
    "shape_factor",
    "has_reconstructed",
    "possible_species",
    "has_props",
    "theoretical",
    "database_IDs"
  ]
}
