{
  "builder_meta": null,
  "nsites": null,
  "elements": null,
  "nelements": null,
  "composition": null,
  "composition_reduced": null,
  "formula_pretty": "Nb3Br8",
  "formula_anonymous": "A3B8",
  "chemsys": null,
  "volume": 606.5489387185947,
  "density": 5.026119516160572,
  "density_atomic": 27.57040630539067,
  "symmetry": null,
  "property_name": null,
  "material_id": "mp-27771",
  "deprecated": null,
  "deprecation_reasons": null,
  "last_updated": null,
  "origins": null,
  "warnings": null,
  "structure": {
    "@module": "pymatgen.core.structure",
    "@class": "Structure",
    "charge": 0,
    "lattice": {
      "matrix": [
        [13.852202, -3.57532115, -0.04716017],
        [13.852202, 3.57532115, -0.04716017],
        [12.95025231, -0.0, 6.07944234]
      ],
      "pbc": [true, true, true],
      "a": 14.306244987979053,
      "b": 14.306244987979053,
      "c": 14.306245281625959,
      "alpha": 28.944767569688814,
      "beta": 28.944767569688814,
      "gamma": 28.94476568039739,
      "volume": 606.5489387185949
    },
    "properties": {},
    "sites": [
      {
        "species": [{ "element": "Nb", "occu": 1 }],
        "abc": [0.450239, 0.450239, 0.8527675100000001],
        "properties": { "magmom": 0.255 },
        "label": "Nb",
        "xyz": [23.51715756882645, 0.0, 5.141884210909113]
      },
      {
        "species": [{ "element": "Nb", "occu": 1 }],
        "abc": [0.8527675100000001, 0.450239, 0.450239],
        "properties": { "magmom": 0.255 },
        "label": "Nb",
        "xyz": [23.880218033637114, -1.439168695280987, 2.675752031196553]
      },
      {
        "species": [{ "element": "Nb", "occu": 1 }],
        "abc": [0.450239, 0.8527675100000001, 0.450239],
        "properties": { "magmom": 0.255 },
        "label": "Nb",
        "xyz": [23.880218033637114, 1.439168695280987, 2.675752031196553]
      },
      {
        "species": [{ "element": "Nb", "occu": 1 }],
        "abc": [0.5497609999999991, 0.14723249, 0.5497609999999991],
        "properties": { "magmom": 0.255 },
        "label": "Nb",
        "xyz": [16.774438276362865, -1.4391686952809835, 3.3093699688034413]
      },
      {
        "species": [{ "element": "Nb", "occu": 1 }],
        "abc": [0.5497609999999991, 0.5497609999999991, 0.14723249],
        "properties": { "magmom": 0.255 },
        "label": "Nb",
        "xyz": [17.137498741173523, 0.0, 0.8432377890908866]
      },
      {
        "species": [{ "element": "Nb", "occu": 1 }],
        "abc": [0.14723249, 0.5497609999999991, 0.5497609999999991],
        "properties": { "magmom": 0.255 },
        "label": "Nb",
        "xyz": [16.774438276362865, 1.4391686952809835, 3.3093699688034413]
      },
      {
        "species": [{ "element": "Br", "occu": 1 }],
        "abc": [0.63303665, 0.63303665, 0.63303665],
        "properties": { "magmom": -0.009000000000000001 },
        "label": "Br",
        "xyz": [25.73588743738376, 0.0, 3.7888015807213]
      },
      {
        "species": [{ "element": "Br", "occu": 1 }],
        "abc": [0.36696335, 0.36696335, 0.36696335],
        "properties": { "magmom": -0.009000000000000001 },
        "label": "Br",
        "xyz": [14.918768872616239, 0.0, 2.1963204192787]
      },
      {
        "species": [{ "element": "Br", "occu": 1 }],
        "abc": [0.7833807700000001, 0.7833807700000001, 0.7833807700000001],
        "properties": { "magmom": -0.006 },
        "label": "Br",
        "xyz": [31.84807596421316, 0.0, 4.68862948090394]
      },
      {
        "species": [{ "element": "Br", "occu": 1 }],
        "abc": [0.21661923, 0.21661923, 0.21661923],
        "properties": { "magmom": -0.006 },
        "label": "Br",
        "xyz": [8.806580345786841, 0.0, 1.29649251909606]
      },
      {
        "species": [{ "element": "Br", "occu": 1 }],
        "abc": [0.11682758, 0.11682758, 0.6242679600000001],
        "properties": { "magmom": 0.004 },
        "label": "Br",
        "xyz": [11.32106606571131, 0.0, 3.7841818504624496]
      },
      {
        "species": [{ "element": "Br", "occu": 1 }],
        "abc": [0.6242679600000001, 0.11682758, 0.11682758],
        "properties": { "magmom": 0.004 },
        "label": "Br",
        "xyz": [11.778751759145791, -1.8142623229780375, 0.6752963446790954]
      },
      {
        "species": [{ "element": "Br", "occu": 1 }],
        "abc": [0.79035181, 0.29265589000000003, 0.29265589000000003],
        "properties": { "magmom": 0.027 },
        "label": "Br",
        "xyz": [18.792009043463008, -1.7794227490447077, 1.7281097814730737]
      },
      {
        "species": [{ "element": "Br", "occu": 1 }],
        "abc": [0.29265589000000003, 0.29265589000000003, 0.79035181],
        "properties": { "magmom": 0.027 },
        "label": "Br",
        "xyz": [18.343112362704744, 0.0, 4.777294854161833]
      },
      {
        "species": [{ "element": "Br", "occu": 1 }],
        "abc": [0.29265589000000003, 0.79035181, 0.29265589000000003],
        "properties": { "magmom": 0.027 },
        "label": "Br",
        "xyz": [18.792009043463008, 1.7794227490447077, 1.7281097814730737]
      },
      {
        "species": [{ "element": "Br", "occu": 1 }],
        "abc": [0.70734411, 0.20964819, 0.70734411],
        "properties": { "magmom": 0.027 },
        "label": "Br",
        "xyz": [21.862647266536992, -1.779422749044708, 4.257012218526926]
      },
      {
        "species": [{ "element": "Br", "occu": 1 }],
        "abc": [0.20964819, 0.70734411, 0.70734411],
        "properties": { "magmom": 0.027 },
        "label": "Br",
        "xyz": [21.862647266536992, 1.779422749044708, 4.257012218526926]
      },
      {
        "species": [{ "element": "Br", "occu": 1 }],
        "abc": [0.70734411, 0.70734411, 0.20964819],
        "properties": { "magmom": 0.027 },
        "label": "Br",
        "xyz": [22.31154394729526, 0.0, 1.2078271458381673]
      },
      {
        "species": [{ "element": "Br", "occu": 1 }],
        "abc": [0.37573204, 0.8831724200000001, 0.8831724200000001],
        "properties": { "magmom": 0.004 },
        "label": "Br",
        "xyz": [28.875904550854216, 1.8142623229780375, 5.309825655320905]
      },
      {
        "species": [{ "element": "Br", "occu": 1 }],
        "abc": [0.8831724200000001, 0.8831724200000001, 0.37573204],
        "properties": { "magmom": 0.004 },
        "label": "Br",
        "xyz": [29.333590244288693, 0.0, 2.2009401495375505]
      },
      {
        "species": [{ "element": "Br", "occu": 1 }],
        "abc": [0.8831724200000001, 0.37573204, 0.8831724200000001],
        "properties": { "magmom": 0.004 },
        "label": "Br",
        "xyz": [28.875904550854216, -1.8142623229780375, 5.309825655320905]
      },
      {
        "species": [{ "element": "Br", "occu": 1 }],
        "abc": [0.11682758, 0.6242679600000001, 0.11682758],
        "properties": { "magmom": 0.004 },
        "label": "Br",
        "xyz": [11.778751759145791, 1.8142623229780375, 0.6752963446790954]
      }
    ]
  },
  "task_ids": null,
  "uncorrected_energy_per_atom": null,
  "energy_per_atom": -5.263008567727274,
  "formation_energy_per_atom": -1.3176006222727281,
  "energy_above_hull": 0.0,
  "is_stable": true,
  "equilibrium_reaction_energy_per_atom": null,
  "decomposes_to": null,
  "xas": null,
  "grain_boundaries": null,
  "band_gap": 0.030699999999999002,
  "cbm": null,
  "vbm": null,
  "efermi": 2.71126035,
  "is_gap_direct": null,
  "is_metal": null,
  "es_source_calc_id": null,
  "bandstructure": null,
  "dos": null,
  "dos_energy_up": null,
  "dos_energy_down": null,
  "is_magnetic": null,
  "ordering": null,
  "total_magnetization": 2.0,
  "total_magnetization_normalized_vol": null,
  "total_magnetization_normalized_formula_units": null,
  "num_magnetic_sites": null,
  "num_unique_magnetic_sites": null,
  "types_of_magnetic_species": null,
  "bulk_modulus": null,
  "shear_modulus": null,
  "universal_anisotropy": null,
  "homogeneous_poisson": null,
  "e_total": null,
  "e_ionic": null,
  "e_electronic": null,
  "n": null,
  "e_ij_max": null,
  "weighted_surface_energy_EV_PER_ANG2": null,
  "weighted_surface_energy": null,
  "weighted_work_function": null,
  "surface_anisotropy": null,
  "shape_factor": null,
  "has_reconstructed": null,
  "possible_species": null,
  "has_props": null,
  "theoretical": null,
  "database_IDs": null,
  "fields_not_requested": [
    "builder_meta",
    "nsites",
    "elements",
    "nelements",
    "composition",
    "composition_reduced",
    "chemsys",
    "symmetry",
    "property_name",
    "deprecated",
    "deprecation_reasons",
    "last_updated",
    "origins",
    "warnings",
    "task_ids",
    "uncorrected_energy_per_atom",
    "equilibrium_reaction_energy_per_atom",
    "decomposes_to",
    "xas",
    "grain_boundaries",
    "cbm",
    "vbm",
    "is_gap_direct",
    "is_metal",
    "es_source_calc_id",
    "bandstructure",
    "dos",
    "dos_energy_up",
    "dos_energy_down",
    "is_magnetic",
    "ordering",
    "total_magnetization_normalized_vol",
    "total_magnetization_normalized_formula_units",
    "num_magnetic_sites",
    "num_unique_magnetic_sites",
    "types_of_magnetic_species",
    "bulk_modulus",
    "shear_modulus",
    "universal_anisotropy",
    "homogeneous_poisson",
    "e_total",
    "e_ionic",
    "e_electronic",
    "n",
    "e_ij_max",
    "weighted_surface_energy_EV_PER_ANG2",
    "weighted_surface_energy",
    "weighted_work_function",
    "surface_anisotropy",
    "shape_factor",
    "has_reconstructed",
    "possible_species",
    "has_props",
    "theoretical",
    "database_IDs"
  ]
}
