{
  "builder_meta": null,
  "nsites": null,
  "elements": null,
  "nelements": null,
  "composition": null,
  "composition_reduced": null,
  "formula_pretty": "Nb3Cl8",
  "formula_anonymous": "A3B8",
  "chemsys": null,
  "volume": 511.48231937551543,
  "density": 3.651319771696544,
  "density_atomic": 23.2491963352507,
  "symmetry": null,
  "property_name": null,
  "material_id": "mp-29950",
  "deprecated": null,
  "deprecation_reasons": null,
  "last_updated": null,
  "origins": null,
  "warnings": null,
  "structure": {
    "@module": "pymatgen.core.structure",
    "@class": "Structure",
    "charge": 0,
    "lattice": {
      "matrix": [
        [6.80126383, -7.678000000000002e-5, 0.00011645],
        [-3.40069981, 5.89010931, 0.00010188000000000001],
        [0.00023053, 0.00040084, 12.76792963]
      ],
      "pbc": [true, true, true],
      "a": 6.8012638314303056,
      "b": 6.801334199395163,
      "c": 12.767929638373197,
      "alpha": 89.99810122991391,
      "beta": 89.99798451453755,
      "gamma": 120.00096498224381,
      "volume": 511.48231937551543
    },
    "properties": {},
    "sites": [
      {
        "species": [{ "element": "Nb", "occu": 1 }],
        "abc": [0.52892174, 0.05780542, 0.245761199999999],
        "properties": { "magmom": 0.253 },
        "label": "Nb",
        "xyz": [3.40081407368113, 0.340538142818671, 3.1379291895371555]
      },
      {
        "species": [{ "element": "Nb", "occu": 1 }],
        "abc": [0.94224422, 0.47112009, 0.24575797],
        "properties": { "magmom": 0.253 },
        "label": "Nb",
        "xyz": [4.806370186547204, 2.774974992350521, 3.137978189025839]
      },
      {
        "species": [{ "element": "Nb", "occu": 1 }],
        "abc": [0.5289287, 0.47112269, 0.24576323],
        "properties": { "magmom": 0.254 },
        "label": "Nb",
        "xyz": [1.9952934493866443, 2.775022043108771, 3.1379972180082767]
      },
      {
        "species": [{ "element": "Nb", "occu": 1 }],
        "abc": [0.47107171000000003, 0.94219158, 0.75423885],
        "properties": { "magmom": 0.253 },
        "label": "Nb",
        "xyz": [-5.386984825951583e-5, 5.549877557376351, 9.630219407790925]
      },
      {
        "species": [{ "element": "Nb", "occu": 1 }],
        "abc": [0.47108024, 0.52888479, 0.75423756],
        "properties": { "magmom": 0.253 },
        "label": "Nb",
        "xyz": [1.405536466859536, 3.115455384539118, 9.630160830459255]
      },
      {
        "species": [{ "element": "Nb", "occu": 1 }],
        "abc": [0.05775819, 0.52887322, 0.75424259],
        "properties": { "magmom": 0.253 },
        "label": "Nb",
        "xyz": [-1.405536494690548, 3.1154189728576256, 9.630176920613822]
      },
      {
        "species": [{ "element": "Cl", "occu": 1 }],
        "abc": [0.66673937, 0.3333773, 0.10078157],
        "properties": { "magmom": -0.007 },
        "label": "Cl",
        "xyz": [3.4009774736250065, 1.963617943508353, 1.2868836000398796]
      },
      {
        "species": [{ "element": "Cl", "occu": 1 }],
        "abc": [0.33327309, 0.66662832, 0.89920809],
        "properties": { "magmom": -0.007 },
        "label": "Cl",
        "xyz": [-0.0001172941942968062, 3.9268485238046047, 11.481132341591278]
      },
      {
        "species": [{ "element": "Cl", "occu": 1 }],
        "abc": [0.33332331, 0.66666413, 0.35153654],
        "properties": { "magmom": -0.004 },
        "label": "Cl",
        "xyz": [-2.3768507371857832e-5, 3.9268399160990017, 4.488500540334694]
      },
      {
        "species": [{ "element": "Cl", "occu": 1 }],
        "abc": [0.66667159, 0.33333631, 0.64846349],
        "properties": { "magmom": -0.004 },
        "label": "Cl",
        "xyz": [3.4007821357608385, 1.9635960459526975, 8.279647802154127]
      },
      {
        "species": [{ "element": "Cl", "occu": 1 }],
        "abc": [0.66994177, 0.83500081, 0.13968306],
        "properties": { "magmom": 0.004 },
        "label": "Cl",
        "xyz": [1.7168958337261544, 4.91825059726721, 1.783626565184707]
      },
      {
        "species": [{ "element": "Cl", "occu": 1 }],
        "abc": [0.16505844, 0.83495383, 0.13969225],
        "properties": { "magmom": 0.004 },
        "label": "Cl",
        "xyz": [-1.7167891299771545, 4.918012648557624, 1.7836851040079056]
      },
      {
        "species": [{ "element": "Cl", "occu": 1 }],
        "abc": [0.16506633, 0.33011723, 0.13969131],
        "properties": { "magmom": 0.004 },
        "label": "Cl",
        "xyz": [6.226147881199741e-5, 1.9444698898862942, 1.7836216703200363]
      },
      {
        "species": [{ "element": "Cl", "occu": 1 }],
        "abc": [0.83490663, 0.16502729, 0.86031158],
        "properties": { "magmom": 0.004 },
        "label": "Cl",
        "xyz": [5.1174103179269155, 0.9723095203957456, 10.984511751171484]
      },
      {
        "species": [{ "element": "Cl", "occu": 1 }],
        "abc": [0.33007076, 0.16502847, 0.86031458],
        "properties": { "magmom": 0.004 },
        "label": "Cl",
        "xyz": [1.6838843630751477, 0.9723552332253501, 10.98449126694353]
      },
      {
        "species": [{ "element": "Cl", "occu": 1 }],
        "abc": [0.83494409, 0.66987755, 0.8603086],
        "properties": { "magmom": 0.004 },
        "label": "Cl",
        "xyz": [3.4008209093225568, 3.9459327329069844, 10.984525141247891]
      },
      {
        "species": [{ "element": "Cl", "occu": 1 }],
        "abc": [0.3369279, 0.16845586, 0.37524184],
        "properties": { "magmom": 0.027 },
        "label": "Cl",
        "xyz": [1.7187542329938457, 0.9923479719250401, 4.791117804888691]
      },
      {
        "species": [{ "element": "Cl", "occu": 1 }],
        "abc": [0.83154589, 0.16846474, 0.37523438000000003],
        "properties": { "magmom": 0.027 },
        "label": "Cl",
        "xyz": [5.082751478114081, 0.9923622963361743, 4.791080155303281]
      },
      {
        "species": [{ "element": "Cl", "occu": 1 }],
        "abc": [0.83157174, 0.66307262, 0.37523875],
        "properties": { "magmom": 0.027 },
        "label": "Cl",
        "xyz": [3.4009143682509997, 3.9056567748904447, 4.79118634481681]
      },
      {
        "species": [{ "element": "Cl", "occu": 1 }],
        "abc": [0.16844403, 0.83151461, 0.62476427],
        "properties": { "magmom": 0.027 },
        "label": "Cl",
        "xyz": [-1.6819552607136263, 4.897949443139383, 7.97705056471408]
      },
      {
        "species": [{ "element": "Cl", "occu": 1 }],
        "abc": [0.6630575, 0.83155208, 0.6247594],
        "properties": { "magmom": 0.027 },
        "label": "Cl",
        "xyz": [1.6819140172836018, 4.898132167160911, 7.977045986452807]
      },
      {
        "species": [{ "element": "Cl", "occu": 1 }],
        "abc": [0.16845076, 0.33693505, 0.6247658700000001],
        "properties": { "magmom": 0.027 },
        "label": "Cl",
        "xyz": [7.127882681374229e-6, 1.9848217723722934, 7.977020606419624]
      }
    ]
  },
  "task_ids": null,
  "uncorrected_energy_per_atom": null,
  "energy_per_atom": -12.674365419999999,
  "formation_energy_per_atom": -1.45420768090909,
  "energy_above_hull": 0.0,
  "is_stable": true,
  "equilibrium_reaction_energy_per_atom": null,
  "decomposes_to": null,
  "xas": null,
  "grain_boundaries": null,
  "band_gap": 0.1451,
  "cbm": null,
  "vbm": null,
  "efermi": 3.00105071,
  "is_gap_direct": null,
  "is_metal": null,
  "es_source_calc_id": null,
  "bandstructure": null,
  "dos": null,
  "dos_energy_up": null,
  "dos_energy_down": null,
  "is_magnetic": null,
  "ordering": null,
  "total_magnetization": 1.9932237,
  "total_magnetization_normalized_vol": null,
  "total_magnetization_normalized_formula_units": null,
  "num_magnetic_sites": null,
  "num_unique_magnetic_sites": null,
  "types_of_magnetic_species": null,
  "bulk_modulus": null,
  "shear_modulus": null,
  "universal_anisotropy": null,
  "homogeneous_poisson": null,
  "e_total": null,
  "e_ionic": null,
  "e_electronic": null,
  "n": null,
  "e_ij_max": null,
  "weighted_surface_energy_EV_PER_ANG2": null,
  "weighted_surface_energy": null,
  "weighted_work_function": null,
  "surface_anisotropy": null,
  "shape_factor": null,
  "has_reconstructed": null,
  "possible_species": null,
  "has_props": null,
  "theoretical": null,
  "database_IDs": null,
  "fields_not_requested": [
    "builder_meta",
    "nsites",
    "elements",
    "nelements",
    "composition",
    "composition_reduced",
    "chemsys",
    "symmetry",
    "property_name",
    "deprecated",
    "deprecation_reasons",
    "last_updated",
    "origins",
    "warnings",
    "task_ids",
    "uncorrected_energy_per_atom",
    "equilibrium_reaction_energy_per_atom",
    "decomposes_to",
    "xas",
    "grain_boundaries",
    "cbm",
    "vbm",
    "is_gap_direct",
    "is_metal",
    "es_source_calc_id",
    "bandstructure",
    "dos",
    "dos_energy_up",
    "dos_energy_down",
    "is_magnetic",
    "ordering",
    "total_magnetization_normalized_vol",
    "total_magnetization_normalized_formula_units",
    "num_magnetic_sites",
    "num_unique_magnetic_sites",
    "types_of_magnetic_species",
    "bulk_modulus",
    "shear_modulus",
    "universal_anisotropy",
    "homogeneous_poisson",
    "e_total",
    "e_ionic",
    "e_electronic",
    "n",
    "e_ij_max",
    "weighted_surface_energy_EV_PER_ANG2",
    "weighted_surface_energy",
    "weighted_work_function",
    "surface_anisotropy",
    "shape_factor",
    "has_reconstructed",
    "possible_species",
    "has_props",
    "theoretical",
    "database_IDs"
  ]
}
