{"builder_meta": null, "nsites": null, "elements": null, "nelements": null, "composition": null, "composition_reduced": null, "formula_pretty": "Nb3Ga", "formula_anonymous": "AB3", "chemsys": null, "volume": 139.42756603097695, "density": 8.299675629296393, "density_atomic": 17.42844575387212, "symmetry": null, "property_name": null, "material_id": "mp-2670", "deprecated": null, "deprecation_reasons": null, "last_updated": null, "origins": null, "warnings": null, "structure": {"@module": "pymatgen.core.structure", "@class": "Structure", "charge": 0, "lattice": {"matrix": [[5.18540562, 0.0, 0.0], [0.0, 5.18540452, 0.0], [0.0, 0.0, 5.18541202]], "pbc": [true, true, true], "a": 5.18540562, "b": 5.18540452, "c": 5.18541202, "alpha": 90.0, "beta": 90.0, "gamma": 90.0, "volume": 139.42756603097695}, "properties": {}, "sites": [{"species": [{"element": "Nb", "occu": 1}], "abc": [0.25000798, -0.0, 0.5], "properties": {"magmom": 0.14300000000000002}, "label": "Nb", "xyz": [1.2963927845368477, 0.0, 2.59270601]}, {"species": [{"element": "Nb", "occu": 1}], "abc": [0.74999202, -0.0, 0.5], "properties": {"magmom": 0.14300000000000002}, "label": "Nb", "xyz": [3.889012835463152, 0.0, 2.59270601]}, {"species": [{"element": "Nb", "occu": 1}], "abc": [0.0, 0.5, 0.25000641], "properties": {"magmom": 0.14300000000000002}, "label": "Nb", "xyz": [0.0, 2.59270226, 1.2963862434910483]}, {"species": [{"element": "Nb", "occu": 1}], "abc": [-0.0, 0.5, 0.74999359], "properties": {"magmom": 0.14300000000000002}, "label": "Nb", "xyz": [0.0, 2.59270226, 3.889025776508952]}, {"species": [{"element": "Nb", "occu": 1}], "abc": [0.5, 0.75001309, -0.0], "properties": {"magmom": 0.14300000000000002}, "label": "Nb", "xyz": [2.59270281, 3.8891212669451667, 0.0]}, {"species": [{"element": "Nb", "occu": 1}], "abc": [0.5, 0.24998691, 0.0], "properties": {"magmom": 0.14300000000000002}, "label": "Nb", "xyz": [2.59270281, 1.2962832530548332, 0.0]}, {"species": [{"element": "Ga", "occu": 1}], "abc": [-0.0, -0.0, -0.0], "properties": {"magmom": 0.007}, "label": "Ga", "xyz": [0.0, 0.0, 0.0]}, {"species": [{"element": "Ga", "occu": 1}], "abc": [0.5, 0.5, 0.5], "properties": {"magmom": 0.007}, "label": "Ga", "xyz": [2.59270281, 2.59270226, 2.59270601]}]}, "task_ids": null, "uncorrected_energy_per_atom": null, "energy_per_atom": -21.635087241249998, "formation_energy_per_atom": -0.22383726625000103, "energy_above_hull": 0.058372391875000006, "is_stable": false, "equilibrium_reaction_energy_per_atom": null, "decomposes_to": null, "xas": null, "grain_boundaries": null, "band_gap": 0.0, "cbm": null, "vbm": null, "efermi": 5.02231986, "is_gap_direct": null, "is_metal": null, "es_source_calc_id": null, "bandstructure": null, "dos": null, "dos_energy_up": null, "dos_energy_down": null, "is_magnetic": null, "ordering": null, "total_magnetization": 1.0942645, "total_magnetization_normalized_vol": null, "total_magnetization_normalized_formula_units": null, "num_magnetic_sites": null, "num_unique_magnetic_sites": null, "types_of_magnetic_species": null, "bulk_modulus": null, "shear_modulus": null, "universal_anisotropy": null, "homogeneous_poisson": null, "e_total": null, "e_ionic": null, "e_electronic": null, "n": null, "e_ij_max": null, "weighted_surface_energy_EV_PER_ANG2": null, "weighted_surface_energy": null, "weighted_work_function": null, "surface_anisotropy": null, "shape_factor": null, "has_reconstructed": null, "possible_species": null, "has_props": null, "theoretical": null, "database_IDs": null, "fields_not_requested": ["builder_meta", "nsites", "elements", "nelements", "composition", "composition_reduced", "chemsys", "symmetry", "property_name", "deprecated", "deprecation_reasons", "last_updated", "origins", "warnings", "task_ids", "uncorrected_energy_per_atom", "equilibrium_reaction_energy_per_atom", "decomposes_to", "xas", "grain_boundaries", "cbm", "vbm", "is_gap_direct", "is_metal", "es_source_calc_id", "bandstructure", "dos", "dos_energy_up", "dos_energy_down", "is_magnetic", "ordering", "total_magnetization_normalized_vol", "total_magnetization_normalized_formula_units", "num_magnetic_sites", "num_unique_magnetic_sites", "types_of_magnetic_species", "bulk_modulus", "shear_modulus", "universal_anisotropy", "homogeneous_poisson", "e_total", "e_ionic", "e_electronic", "n", "e_ij_max", "weighted_surface_energy_EV_PER_ANG2", "weighted_surface_energy", "weighted_work_function", "surface_anisotropy", "shape_factor", "has_reconstructed", "possible_species", "has_props", "theoretical", "database_IDs"]}