{"builder_meta": null, "nsites": null, "elements": null, "nelements": null, "composition": null, "composition_reduced": null, "formula_pretty": "Nb3In", "formula_anonymous": "AB3", "chemsys": null, "volume": 151.25352403376326, "density": 8.640906706836937, "density_atomic": 18.906690504220407, "symmetry": null, "property_name": null, "material_id": "mp-22060", "deprecated": null, "deprecation_reasons": null, "last_updated": null, "origins": null, "warnings": null, "structure": {"@module": "pymatgen.core.structure", "@class": "Structure", "charge": 0, "lattice": {"matrix": [[5.32804182, -5.5e-07, 3.0000000000000004e-08], [-5.5e-07, 5.328061209999999, 1.6e-07], [3.0000000000000004e-08, 1.6e-07, 5.32805466]], "pbc": [true, true, true], "a": 5.328041820000029, "b": 5.32806121000003, "c": 5.328054660000003, "alpha": 89.9999965588495, "beta": 89.99999935478328, "gamma": 90.00001182896924, "volume": 151.25352403376323}, "properties": {}, "sites": [{"species": [{"element": "Nb", "occu": 1}], "abc": [0.49999972000000004, 0.24999869, 1.5e-07], "properties": {"magmom": -0.155}, "label": "Nb", "xyz": [2.6640192806490157, 1.3320080477399925, 8.542079810000001e-07]}, {"species": [{"element": "Nb", "occu": 1}], "abc": [0.49999983000000003, 0.75000135, 1.2e-07], "properties": {"magmom": -0.155}, "label": "Nb", "xyz": [2.664019591732152, 3.9960528253827454, 7.743667701e-07]}, {"species": [{"element": "Nb", "occu": 1}], "abc": [0.24999756, -6.509999999999999e-06, 0.49999985], "properties": {"magmom": -0.155}, "label": "Nb", "xyz": [1.3319974695815353, -3.474317715909999e-05, 2.6640265382906865]}, {"species": [{"element": "Nb", "occu": 1}], "abc": [0.75000246, -6.61e-06, 0.49999988], "properties": {"magmom": -0.155}, "label": "Nb", "xyz": [3.9960444869865093, -3.555098597029999e-05, 2.664026713132457]}, {"species": [{"element": "Nb", "occu": 1}], "abc": [2.6e-07, 0.50000743, 0.25000455], "properties": {"magmom": -0.155}, "label": "Nb", "xyz": [1.1177869232e-06, 2.6640702324953747, 1.3320379876498996]}, {"species": [{"element": "Nb", "occu": 1}], "abc": [2.1e-07, 0.50000752, 0.74999545], "properties": {"magmom": -0.155}, "label": "Nb", "xyz": [8.663845097e-07, 2.664070792019455, 3.996016832352507]}, {"species": [{"element": "In", "occu": 1}], "abc": [0.49999979, 0.50000581, 0.49999987], "properties": {"magmom": -0.008}, "label": "In", "xyz": [2.6640195311080186, 2.6640613660357237, 2.6640267323538174]}, {"species": [{"element": "In", "occu": 1}], "abc": [1.6e-07, -5.67e-06, 1.3e-07], "properties": {"magmom": -0.008}, "label": "In", "xyz": [8.524898136000001e-07, -3.0210107127899996e-05, 6.926462034e-07]}]}, "task_ids": null, "uncorrected_energy_per_atom": null, "energy_per_atom": -24.24442209, "formation_energy_per_atom": -0.0492185075, "energy_above_hull": 0.0, "is_stable": true, "equilibrium_reaction_energy_per_atom": null, "decomposes_to": null, "xas": null, "grain_boundaries": null, "band_gap": 0.0, "cbm": null, "vbm": null, "efermi": 6.32743144, "is_gap_direct": null, "is_metal": null, "es_source_calc_id": null, "bandstructure": null, "dos": null, "dos_energy_up": null, "dos_energy_down": null, "is_magnetic": null, "ordering": null, "total_magnetization": 1.2156734, "total_magnetization_normalized_vol": null, "total_magnetization_normalized_formula_units": null, "num_magnetic_sites": null, "num_unique_magnetic_sites": null, "types_of_magnetic_species": null, "bulk_modulus": null, "shear_modulus": null, "universal_anisotropy": null, "homogeneous_poisson": null, "e_total": null, "e_ionic": null, "e_electronic": null, "n": null, "e_ij_max": null, "weighted_surface_energy_EV_PER_ANG2": null, "weighted_surface_energy": null, "weighted_work_function": null, "surface_anisotropy": null, "shape_factor": null, "has_reconstructed": null, "possible_species": null, "has_props": null, "theoretical": null, "database_IDs": null, "fields_not_requested": ["builder_meta", "nsites", "elements", "nelements", "composition", "composition_reduced", "chemsys", "symmetry", "property_name", "deprecated", "deprecation_reasons", "last_updated", "origins", "warnings", "task_ids", "uncorrected_energy_per_atom", "equilibrium_reaction_energy_per_atom", "decomposes_to", "xas", "grain_boundaries", "cbm", "vbm", "is_gap_direct", "is_metal", "es_source_calc_id", "bandstructure", "dos", "dos_energy_up", "dos_energy_down", "is_magnetic", "ordering", "total_magnetization_normalized_vol", "total_magnetization_normalized_formula_units", "num_magnetic_sites", "num_unique_magnetic_sites", "types_of_magnetic_species", "bulk_modulus", "shear_modulus", "universal_anisotropy", "homogeneous_poisson", "e_total", "e_ionic", "e_electronic", "n", "e_ij_max", "weighted_surface_energy_EV_PER_ANG2", "weighted_surface_energy", "weighted_work_function", "surface_anisotropy", "shape_factor", "has_reconstructed", "possible_species", "has_props", "theoretical", "database_IDs"]}