{"builder_meta": null, "nsites": null, "elements": null, "nelements": null, "composition": null, "composition_reduced": null, "formula_pretty": "Nb3I8", "formula_anonymous": "A3B8", "chemsys": null, "volume": 739.8199210400187, "density": 5.808609908335435, "density_atomic": 33.62817822909176, "symmetry": null, "property_name": null, "material_id": "mp-27772", "deprecated": null, "deprecation_reasons": null, "last_updated": null, "origins": null, "warnings": null, "structure": {"@module": "pymatgen.core.structure", "@class": "Structure", "charge": 0, "lattice": {"matrix": [[14.58290465, -3.84941271, -0.07173839], [14.58290465, 3.84941271, -0.07173839], [13.59922403, 0.0, 6.52267732]], "pbc": [true, true, true], "a": 15.082580437030693, "b": 15.082580437030693, "c": 15.082579807147443, "alpha": 29.573533757289763, "beta": 29.573533757289763, "gamma": 29.573530195699522, "volume": 739.8199210400187}, "properties": {}, "sites": [{"species": [{"element": "Nb", "occu": 1}], "abc": [0.15699467, 0.54551144, 0.54551144], "properties": {"magmom": 0.0}, "label": "Nb", "xyz": [17.663111901660315, 1.4955613924861466, 3.5077984401919773]}, {"species": [{"element": "Nb", "occu": 1}], "abc": [0.84300533, 0.45448856, 0.45448856], "properties": {"magmom": 0.0}, "label": "Nb", "xyz": [25.101921428339686, -1.4955613924861466, 2.8714020998080216]}, {"species": [{"element": "Nb", "occu": 1}], "abc": [0.54551144, 0.15699467, 0.54551144], "properties": {"magmom": 0.0}, "label": "Nb", "xyz": [17.663111901660315, -1.4955613924861466, 3.5077984401919773]}, {"species": [{"element": "Nb", "occu": 1}], "abc": [0.45448856, 0.45448856, 0.84300533], "properties": {"magmom": 0.0}, "label": "Nb", "xyz": [24.719745011145687, 0.0, 5.4334431914944785]}, {"species": [{"element": "Nb", "occu": 1}], "abc": [0.45448856, 0.84300533, 0.45448856], "properties": {"magmom": 0.0}, "label": "Nb", "xyz": [25.101921428339686, 1.4955613924861466, 2.8714020998080216]}, {"species": [{"element": "Nb", "occu": 1}], "abc": [0.54551144, 0.54551144, 0.15699467], "properties": {"magmom": 0.0}, "label": "Nb", "xyz": [18.04528831885431, 0.0, 0.9457573485055213]}, {"species": [{"element": "I", "occu": 1}], "abc": [0.20881969, 0.70577091, 0.70577091], "properties": {"magmom": 0.0}, "label": "I", "xyz": [22.935324232533258, 1.9129703425180065, 4.537904650619627]}, {"species": [{"element": "I", "occu": 1}], "abc": [0.11691687, 0.11691687, 0.62497092], "properties": {"magmom": -0.0}, "label": "I", "xyz": [11.909094687688098, 0.0, 4.059708789508255]}, {"species": [{"element": "I", "occu": 1}], "abc": [0.37502908, 0.88308313, 0.88308313], "properties": {"magmom": -0.0}, "label": "I", "xyz": [30.356175719414395, 1.9557097174369757, 5.66981135934087]}, {"species": [{"element": "I", "occu": 1}], "abc": [0.88308313, 0.37502908, 0.88308313], "properties": {"magmom": -0.0}, "label": "I", "xyz": [30.356175719414395, -1.9557097174369757, 5.66981135934087]}, {"species": [{"element": "I", "occu": 1}], "abc": [0.36617834, 0.36617834, 0.36617834], "properties": {"magmom": 0.0}, "label": "I", "xyz": [15.659628914824072, 0.0, 2.3359250642643032]}, {"species": [{"element": "I", "occu": 1}], "abc": [0.79118031, 0.29422909, 0.29422909], "properties": {"magmom": 0.0}, "label": "I", "xyz": [19.829709097466743, -1.9129703425180062, 1.8412958893803728]}, {"species": [{"element": "I", "occu": 1}], "abc": [0.29422909, 0.29422909, 0.79118031], "properties": {"magmom": 0.0}, "label": "I", "xyz": [19.340867813267387, 0.0, 5.118398821652039]}, {"species": [{"element": "I", "occu": 1}], "abc": [0.6338216600000001, 0.6338216600000001, 0.6338216600000001], "properties": {"magmom": 0.0}, "label": "I", "xyz": [27.10540441517593, 0.0, 4.043275475735697]}, {"species": [{"element": "I", "occu": 1}], "abc": [0.62497092, 0.11691687, 0.11691687], "properties": {"magmom": -0.0}, "label": "I", "xyz": [12.40885761058561, -1.9557097174369753, 0.7093891806591304]}, {"species": [{"element": "I", "occu": 1}], "abc": [0.11691687, 0.62497092, 0.11691687], "properties": {"magmom": -0.0}, "label": "I", "xyz": [12.40885761058561, 1.9557097174369753, 0.7093891806591304]}, {"species": [{"element": "I", "occu": 1}], "abc": [0.29422909, 0.79118031, 0.29422909], "properties": {"magmom": 0.0}, "label": "I", "xyz": [19.829709097466743, 1.9129703425180062, 1.8412958893803728]}, {"species": [{"element": "I", "occu": 1}], "abc": [0.88308313, 0.88308313, 0.37502908], "properties": {"magmom": -0.0}, "label": "I", "xyz": [30.855938642311905, 0.0, 2.319491750491744]}, {"species": [{"element": "I", "occu": 1}], "abc": [0.70577091, 0.20881969, 0.70577091], "properties": {"magmom": 0.0}, "label": "I", "xyz": [22.935324232533258, -1.9129703425180065, 4.537904650619627]}, {"species": [{"element": "I", "occu": 1}], "abc": [0.70577091, 0.70577091, 0.20881969], "properties": {"magmom": 0.0}, "label": "I", "xyz": [23.424165516732614, 0.0, 1.260801718347961]}, {"species": [{"element": "I", "occu": 1}], "abc": [0.78357504, 0.78357504, 0.78357504], "properties": {"magmom": 0.0}, "label": "I", "xyz": [33.50961270215608, 0.0, 4.998582318298522]}, {"species": [{"element": "I", "occu": 1}], "abc": [0.21642496, 0.21642496, 0.21642496], "properties": {"magmom": 0.0}, "label": "I", "xyz": [9.255420627843916, 0.0, 1.3806182217014784]}]}, "task_ids": null, "uncorrected_energy_per_atom": null, "energy_per_atom": -4.661118035454549, "formation_energy_per_atom": -0.797843850000002, "energy_above_hull": 0.0, "is_stable": true, "equilibrium_reaction_energy_per_atom": null, "decomposes_to": null, "xas": null, "grain_boundaries": null, "band_gap": 0.06770000000000001, "cbm": null, "vbm": null, "efermi": 4.40437203, "is_gap_direct": null, "is_metal": null, "es_source_calc_id": null, "bandstructure": null, "dos": null, "dos_energy_up": null, "dos_energy_down": null, "is_magnetic": null, "ordering": null, "total_magnetization": 0.0, "total_magnetization_normalized_vol": null, "total_magnetization_normalized_formula_units": null, "num_magnetic_sites": null, "num_unique_magnetic_sites": null, "types_of_magnetic_species": null, "bulk_modulus": null, "shear_modulus": null, "universal_anisotropy": null, "homogeneous_poisson": null, "e_total": null, "e_ionic": null, "e_electronic": null, "n": null, "e_ij_max": null, "weighted_surface_energy_EV_PER_ANG2": null, "weighted_surface_energy": null, "weighted_work_function": null, "surface_anisotropy": null, "shape_factor": null, "has_reconstructed": null, "possible_species": null, "has_props": null, "theoretical": null, "database_IDs": null, "fields_not_requested": ["builder_meta", "nsites", "elements", "nelements", "composition", "composition_reduced", "chemsys", "symmetry", "property_name", "deprecated", "deprecation_reasons", "last_updated", "origins", "warnings", "task_ids", "uncorrected_energy_per_atom", "equilibrium_reaction_energy_per_atom", "decomposes_to", "xas", "grain_boundaries", "cbm", "vbm", "is_gap_direct", "is_metal", "es_source_calc_id", "bandstructure", "dos", "dos_energy_up", "dos_energy_down", "is_magnetic", "ordering", "total_magnetization_normalized_vol", "total_magnetization_normalized_formula_units", "num_magnetic_sites", "num_unique_magnetic_sites", "types_of_magnetic_species", "bulk_modulus", "shear_modulus", "universal_anisotropy", "homogeneous_poisson", "e_total", "e_ionic", "e_electronic", "n", "e_ij_max", "weighted_surface_energy_EV_PER_ANG2", "weighted_surface_energy", "weighted_work_function", "surface_anisotropy", "shape_factor", "has_reconstructed", "possible_species", "has_props", "theoretical", "database_IDs"]}