{
  "builder_meta": null,
  "nsites": null,
  "elements": null,
  "nelements": null,
  "composition": null,
  "composition_reduced": null,
  "formula_pretty": "Nb3I",
  "formula_anonymous": "AB3",
  "chemsys": null,
  "volume": 160.06424997210914,
  "density": 8.41604356822573,
  "density_atomic": 20.008031246513642,
  "symmetry": null,
  "property_name": null,
  "material_id": "mp-1186215",
  "deprecated": null,
  "deprecation_reasons": null,
  "last_updated": null,
  "origins": null,
  "warnings": null,
  "structure": {
    "@module": "pymatgen.core.structure",
    "@class": "Structure",
    "charge": 0,
    "lattice": {
      "matrix": [
        [3.036386, -5.259175, 0.0],
        [3.036386, 5.259175, 0.0],
        [0.0, 0.0, 5.011754]
      ],
      "pbc": [true, true, true],
      "a": 6.072772152948025,
      "b": 6.072772152948025,
      "c": 5.011754,
      "alpha": 90.0,
      "beta": 90.0,
      "gamma": 120.00000166628347,
      "volume": 160.06424997210914
    },
    "properties": {},
    "sites": [
      {
        "species": [{ "element": "Nb", "occu": 1 }],
        "abc": [0.847488999999999, 0.152510999999999, 0.75],
        "properties": { "magmom": 0.0 },
        "label": "Nb",
        "xyz": [3.036385999999994, -3.6550109231500003, 3.7588155]
      },
      {
        "species": [{ "element": "Nb", "occu": 1 }],
        "abc": [0.305023, 0.152510999999999, 0.75],
        "properties": { "magmom": 0.0 },
        "label": "Nb",
        "xyz": [1.3892498321239968, -0.8020872976000052, 3.7588155]
      },
      {
        "species": [{ "element": "Nb", "occu": 1 }],
        "abc": [0.847488999999999, 0.694977, 0.75],
        "properties": { "magmom": 0.0 },
        "label": "Nb",
        "xyz": [4.683522167875997, -0.8020872975999951, 3.7588155]
      },
      {
        "species": [{ "element": "Nb", "occu": 1 }],
        "abc": [0.152510999999999, 0.847488999999999, 0.25],
        "properties": { "magmom": 0.0 },
        "label": "Nb",
        "xyz": [3.036385999999994, 3.6550109231500003, 1.2529385]
      },
      {
        "species": [{ "element": "Nb", "occu": 1 }],
        "abc": [0.694977, 0.847488999999999, 0.25],
        "properties": { "magmom": 0.0 },
        "label": "Nb",
        "xyz": [4.683522167875997, 0.8020872975999951, 1.2529385]
      },
      {
        "species": [{ "element": "Nb", "occu": 1 }],
        "abc": [0.152510999999999, 0.305023, 0.25],
        "properties": { "magmom": 0.0 },
        "label": "Nb",
        "xyz": [1.3892498321239968, 0.8020872976000052, 1.2529385]
      },
      {
        "species": [{ "element": "I", "occu": 1 }],
        "abc": [0.666667, 0.333333, 0.25],
        "properties": { "magmom": -0.0 },
        "label": "I",
        "xyz": [3.036386, -1.75306183945, 1.2529385]
      },
      {
        "species": [{ "element": "I", "occu": 1 }],
        "abc": [0.333333, 0.666667, 0.75],
        "properties": { "magmom": -0.0 },
        "label": "I",
        "xyz": [3.036386, 1.75306183945, 3.7588155]
      }
    ]
  },
  "task_ids": null,
  "uncorrected_energy_per_atom": null,
  "energy_per_atom": -7.4654572275,
  "formation_energy_per_atom": 0.49152470624999905,
  "energy_above_hull": 0.7657835296875011,
  "is_stable": false,
  "equilibrium_reaction_energy_per_atom": null,
  "decomposes_to": null,
  "xas": null,
  "grain_boundaries": null,
  "band_gap": 0.0,
  "cbm": null,
  "vbm": null,
  "efermi": 7.4888465,
  "is_gap_direct": null,
  "is_metal": null,
  "es_source_calc_id": null,
  "bandstructure": null,
  "dos": null,
  "dos_energy_up": null,
  "dos_energy_down": null,
  "is_magnetic": null,
  "ordering": null,
  "total_magnetization": 0.0007134999999990001,
  "total_magnetization_normalized_vol": null,
  "total_magnetization_normalized_formula_units": null,
  "num_magnetic_sites": null,
  "num_unique_magnetic_sites": null,
  "types_of_magnetic_species": null,
  "bulk_modulus": null,
  "shear_modulus": null,
  "universal_anisotropy": null,
  "homogeneous_poisson": null,
  "e_total": null,
  "e_ionic": null,
  "e_electronic": null,
  "n": null,
  "e_ij_max": null,
  "weighted_surface_energy_EV_PER_ANG2": null,
  "weighted_surface_energy": null,
  "weighted_work_function": null,
  "surface_anisotropy": null,
  "shape_factor": null,
  "has_reconstructed": null,
  "possible_species": null,
  "has_props": null,
  "theoretical": null,
  "database_IDs": null,
  "fields_not_requested": [
    "builder_meta",
    "nsites",
    "elements",
    "nelements",
    "composition",
    "composition_reduced",
    "chemsys",
    "symmetry",
    "property_name",
    "deprecated",
    "deprecation_reasons",
    "last_updated",
    "origins",
    "warnings",
    "task_ids",
    "uncorrected_energy_per_atom",
    "equilibrium_reaction_energy_per_atom",
    "decomposes_to",
    "xas",
    "grain_boundaries",
    "cbm",
    "vbm",
    "is_gap_direct",
    "is_metal",
    "es_source_calc_id",
    "bandstructure",
    "dos",
    "dos_energy_up",
    "dos_energy_down",
    "is_magnetic",
    "ordering",
    "total_magnetization_normalized_vol",
    "total_magnetization_normalized_formula_units",
    "num_magnetic_sites",
    "num_unique_magnetic_sites",
    "types_of_magnetic_species",
    "bulk_modulus",
    "shear_modulus",
    "universal_anisotropy",
    "homogeneous_poisson",
    "e_total",
    "e_ionic",
    "e_electronic",
    "n",
    "e_ij_max",
    "weighted_surface_energy_EV_PER_ANG2",
    "weighted_surface_energy",
    "weighted_work_function",
    "surface_anisotropy",
    "shape_factor",
    "has_reconstructed",
    "possible_species",
    "has_props",
    "theoretical",
    "database_IDs"
  ]
}
