{
  "builder_meta": null,
  "nsites": null,
  "elements": null,
  "nelements": null,
  "composition": null,
  "composition_reduced": null,
  "formula_pretty": "Nb3N",
  "formula_anonymous": "AB3",
  "chemsys": null,
  "volume": 251.25743701405915,
  "density": 7.738400883172298,
  "density_atomic": 15.703589813378697,
  "symmetry": null,
  "property_name": null,
  "material_id": "mp-1120827",
  "deprecated": null,
  "deprecation_reasons": null,
  "last_updated": null,
  "origins": null,
  "warnings": null,
  "structure": {
    "@module": "pymatgen.core.structure",
    "@class": "Structure",
    "charge": 0,
    "lattice": {
      "matrix": [
        [5.440168, 0.0, 0.0],
        [0.0, 5.3004, 0.0],
        [0.0, 4.626046, 8.713607]
      ],
      "pbc": [true, true, true],
      "a": 5.440168,
      "b": 5.3004,
      "c": 9.865457340871988,
      "alpha": 62.03620830183193,
      "beta": 90.0,
      "gamma": 90.0,
      "volume": 251.25743701405915
    },
    "properties": {},
    "sites": [
      {
        "species": [{ "element": "Nb", "occu": 1 }],
        "abc": [0.942249, 0.310233, 0.862367999999999],
        "properties": { "magmom": -0.0 },
        "label": "Nb",
        "xyz": [5.125992857832, 5.633713030127995, 7.514335841375991]
      },
      {
        "species": [{ "element": "Nb", "occu": 1 }],
        "abc": [0.057751, 0.310233, 0.362367999999999],
        "properties": { "magmom": -0.0 },
        "label": "Nb",
        "xyz": [0.31417514216799997, 3.320690030127995, 3.1575323413759913]
      },
      {
        "species": [{ "element": "Nb", "occu": 1 }],
        "abc": [0.442403999999999, 0.21879099999999901, 0.894281999999999],
        "properties": { "magmom": -0.0 },
        "label": "Nb",
        "xyz": [2.4067520838719947, 5.296669485371989, 7.792421895173991]
      },
      {
        "species": [{ "element": "Nb", "occu": 1 }],
        "abc": [0.557596, 0.21879099999999901, 0.394281999999999],
        "properties": { "magmom": -0.0 },
        "label": "Nb",
        "xyz": [3.033415916128, 2.98364648537199, 3.435618395173991]
      },
      {
        "species": [{ "element": "Nb", "occu": 1 }],
        "abc": [0.158842999999999, 0.66603, 0.007692],
        "properties": { "magmom": -0.0 },
        "label": "Nb",
        "xyz": [0.8641326056239946, 3.565808957832, 0.06702506504399999]
      },
      {
        "species": [{ "element": "Nb", "occu": 1 }],
        "abc": [0.841156999999999, 0.66603, 0.507692],
        "properties": { "magmom": -0.0 },
        "label": "Nb",
        "xyz": [4.576035394375995, 5.878831957832, 4.423828565044]
      },
      {
        "species": [{ "element": "Nb", "occu": 1 }],
        "abc": [0.324173, 0.403485, 0.595596999999999],
        "properties": { "magmom": 0.0 },
        "label": "Nb",
        "xyz": [1.763555581064, 4.893891013461996, 5.189798188378991]
      },
      {
        "species": [{ "element": "Nb", "occu": 1 }],
        "abc": [0.675827, 0.403485, 0.095597],
        "properties": { "magmom": 0.0 },
        "label": "Nb",
        "xyz": [3.6766124189359997, 2.580868013462, 0.8329946883789999]
      },
      {
        "species": [{ "element": "Nb", "occu": 1 }],
        "abc": [0.811218, 0.953889, 0.707401],
        "properties": { "magmom": 0.001 },
        "label": "Nb",
        "xyz": [4.413162204624, 8.328462822046, 6.164014305406999]
      },
      {
        "species": [{ "element": "Nb", "occu": 1 }],
        "abc": [0.188781999999999, 0.953889, 0.207401],
        "properties": { "magmom": 0.001 },
        "label": "Nb",
        "xyz": [1.0270057953759946, 6.015439822046, 1.807210805407]
      },
      {
        "species": [{ "element": "Nb", "occu": 1 }],
        "abc": [0.306419, 0.828496999999999, 0.677945999999999],
        "properties": { "magmom": -0.0 },
        "label": "Nb",
        "xyz": [1.6669708383919999, 7.52757488031599, 5.907355011221991]
      },
      {
        "species": [{ "element": "Nb", "occu": 1 }],
        "abc": [0.693581, 0.828496999999999, 0.177946],
        "properties": { "magmom": -0.0 },
        "label": "Nb",
        "xyz": [3.773197161608, 5.2145518803159945, 1.5505515112219999]
      },
      {
        "species": [{ "element": "N", "occu": 1 }],
        "abc": [0.160131, 0.047542, 0.795771999999999],
        "properties": { "magmom": -0.0 },
        "label": "N",
        "xyz": [0.8711395420079999, 3.933269494311995, 6.934044469603991]
      },
      {
        "species": [{ "element": "N", "occu": 1 }],
        "abc": [0.839869, 0.047542, 0.295772],
        "properties": { "magmom": -0.0 },
        "label": "N",
        "xyz": [4.569028457992, 1.6202464943119999, 2.5772409696039995]
      },
      {
        "species": [{ "element": "N", "occu": 1 }],
        "abc": [0.367785, 0.571537, 0.208946],
        "properties": { "magmom": 0.0 },
        "label": "N",
        "xyz": [2.00081218788, 3.9959685223159997, 1.8206733282219998]
      },
      {
        "species": [{ "element": "N", "occu": 1 }],
        "abc": [0.632215, 0.571537, 0.708946],
        "properties": { "magmom": 0.0 },
        "label": "N",
        "xyz": [3.4393558121199996, 6.308991522315999, 6.177476828222]
      }
    ]
  },
  "task_ids": null,
  "uncorrected_energy_per_atom": null,
  "energy_per_atom": -21.17707120854167,
  "formation_energy_per_atom": -0.344327553229167,
  "energy_above_hull": 0.39285029312499703,
  "is_stable": false,
  "equilibrium_reaction_energy_per_atom": null,
  "decomposes_to": null,
  "xas": null,
  "grain_boundaries": null,
  "band_gap": 0.0,
  "cbm": null,
  "vbm": null,
  "efermi": 5.35104725,
  "is_gap_direct": null,
  "is_metal": null,
  "es_source_calc_id": null,
  "bandstructure": null,
  "dos": null,
  "dos_energy_up": null,
  "dos_energy_down": null,
  "is_magnetic": null,
  "ordering": null,
  "total_magnetization": 0.0007476,
  "total_magnetization_normalized_vol": null,
  "total_magnetization_normalized_formula_units": null,
  "num_magnetic_sites": null,
  "num_unique_magnetic_sites": null,
  "types_of_magnetic_species": null,
  "bulk_modulus": null,
  "shear_modulus": null,
  "universal_anisotropy": null,
  "homogeneous_poisson": null,
  "e_total": null,
  "e_ionic": null,
  "e_electronic": null,
  "n": null,
  "e_ij_max": null,
  "weighted_surface_energy_EV_PER_ANG2": null,
  "weighted_surface_energy": null,
  "weighted_work_function": null,
  "surface_anisotropy": null,
  "shape_factor": null,
  "has_reconstructed": null,
  "possible_species": null,
  "has_props": null,
  "theoretical": null,
  "database_IDs": null,
  "fields_not_requested": [
    "builder_meta",
    "nsites",
    "elements",
    "nelements",
    "composition",
    "composition_reduced",
    "chemsys",
    "symmetry",
    "property_name",
    "deprecated",
    "deprecation_reasons",
    "last_updated",
    "origins",
    "warnings",
    "task_ids",
    "uncorrected_energy_per_atom",
    "equilibrium_reaction_energy_per_atom",
    "decomposes_to",
    "xas",
    "grain_boundaries",
    "cbm",
    "vbm",
    "is_gap_direct",
    "is_metal",
    "es_source_calc_id",
    "bandstructure",
    "dos",
    "dos_energy_up",
    "dos_energy_down",
    "is_magnetic",
    "ordering",
    "total_magnetization_normalized_vol",
    "total_magnetization_normalized_formula_units",
    "num_magnetic_sites",
    "num_unique_magnetic_sites",
    "types_of_magnetic_species",
    "bulk_modulus",
    "shear_modulus",
    "universal_anisotropy",
    "homogeneous_poisson",
    "e_total",
    "e_ionic",
    "e_electronic",
    "n",
    "e_ij_max",
    "weighted_surface_energy_EV_PER_ANG2",
    "weighted_surface_energy",
    "weighted_work_function",
    "surface_anisotropy",
    "shape_factor",
    "has_reconstructed",
    "possible_species",
    "has_props",
    "theoretical",
    "database_IDs"
  ]
}
