{
  "builder_meta": null,
  "nsites": null,
  "elements": null,
  "nelements": null,
  "composition": null,
  "composition_reduced": null,
  "formula_pretty": "Nb3N5",
  "formula_anonymous": "A3B5",
  "chemsys": null,
  "volume": 210.71845065289676,
  "density": 5.496598722186215,
  "density_atomic": 13.169903165806048,
  "symmetry": null,
  "property_name": null,
  "material_id": "mp-754556",
  "deprecated": null,
  "deprecation_reasons": null,
  "last_updated": null,
  "origins": null,
  "warnings": null,
  "structure": {
    "@module": "pymatgen.core.structure",
    "@class": "Structure",
    "charge": 0,
    "lattice": {
      "matrix": [
        [3.89927145, -0.00033892, 0.0],
        [-1.9500877, 5.19955328, -3.0000000000000004e-8],
        [2e-8, -7e-8, 10.39362921]
      ],
      "pbc": [true, true, true],
      "a": 3.89927146472926,
      "b": 5.553214956153782,
      "c": 10.39362921,
      "alpha": 90.00000070954987,
      "beta": 89.99999988971473,
      "gamma": 110.56349089315816,
      "volume": 210.71845065289676
    },
    "properties": {},
    "sites": [
      {
        "species": [{ "element": "Nb", "occu": 1 }],
        "abc": [0.13036553, 0.26119366, 0.94025561],
        "properties": { "magmom": -0.0 },
        "label": "Nb",
        "xyz": [-0.0010199356857512505, 1.3580461022648844, 9.772668165126559]
      },
      {
        "species": [{ "element": "Nb", "occu": 1 }],
        "abc": [0.13036553, 0.26119365, 0.55974439],
        "properties": { "magmom": 0.0 },
        "label": "Nb",
        "xyz": [-0.0010199237950986263, 1.358046076905137, 5.817775634201823]
      },
      {
        "species": [{ "element": "Nb", "occu": 1 }],
        "abc": [0.20229125, 0.4040977, 0.24999999],
        "properties": { "magmom": -0.0 },
        "label": "Nb",
        "xyz": [0.000762546341522338, 2.101058943425007, 2.598407186440777]
      },
      {
        "species": [{ "element": "Nb", "occu": 1 }],
        "abc": [0.79770115, 0.59590245, 0.75],
        "properties": { "magmom": -0.0 },
        "label": "Nb",
        "xyz": [1.9483912966823025, 3.098156129083778, 7.795221889622927]
      },
      {
        "species": [{ "element": "Nb", "occu": 1 }],
        "abc": [0.86963407, 0.73880586, 0.05974372],
        "properties": { "magmom": -0.0 },
        "label": "Nb",
        "xyz": [1.950203082019254, 3.8411656920851565, 0.6209540511418854]
      },
      {
        "species": [{ "element": "Nb", "occu": 1 }],
        "abc": [0.86963408, 0.73880588, 0.44025628],
        "properties": { "magmom": 0.0 },
        "label": "Nb",
        "xyz": [1.9502030896204656, 3.8411657694369534, 4.575860509529763]
      },
      {
        "species": [{ "element": "N", "occu": 1 }],
        "abc": [0.30867393, 0.61710929, 0.42544958],
        "properties": { "magmom": -0.0 },
        "label": "N",
        "xyz": [0.00018621513255698808, 3.208587987388145, 4.421965163556953]
      },
      {
        "species": [{ "element": "N", "occu": 1 }],
        "abc": [0.04726095, 0.09433175, 0.11962161],
        "properties": { "magmom": -0.0 },
        "label": "N",
        "xyz": [0.0003280900328346857, 0.4904669340659533, 1.2433026570132757]
      },
      {
        "species": [{ "element": "N", "occu": 1 }],
        "abc": [0.04726093, 0.09433174, 0.38037838],
        "properties": { "magmom": -0.0 },
        "label": "N",
        "xyz": [0.00032803676341810665, 0.490466863824225, 3.953511838390528]
      },
      {
        "species": [{ "element": "N", "occu": 1 }],
        "abc": [0.30867394, 0.61710927, 0.07455042],
        "properties": { "magmom": 0.0 },
        "label": "N",
        "xyz": [0.00018628610904222734, 3.2085879079566317, 0.7748494044164902]
      },
      {
        "species": [{ "element": "N", "occu": 1 }],
        "abc": [0.23512697000000002, 0.47048328, 0.75000001],
        "properties": { "magmom": 0.0 },
        "label": "N",
        "xyz": [-0.0006597611376492483, 2.4462231399764853, 7.795221997321795]
      },
      {
        "species": [{ "element": "N", "occu": 1 }],
        "abc": [0.9527396300000001, 0.90566899, 0.88037944],
        "properties": { "magmom": 0.0 },
        "label": "N",
        "xyz": [1.9488564984797294, 4.708751203406827, 9.150337436297374]
      },
      {
        "species": [{ "element": "N", "occu": 1 }],
        "abc": [0.6913287100000001, 0.38289045, 0.57455],
        "properties": { "magmom": 0.0 },
        "label": "N",
        "xyz": [1.9490083559668647, 1.9906249498332826, 5.971659651118786]
      },
      {
        "species": [{ "element": "N", "occu": 1 }],
        "abc": [0.69132869, 0.38289044, 0.92545001],
        "properties": { "magmom": -0.0 },
        "label": "N",
        "xyz": [1.9490083045003126, 1.9906248732815277, 9.618784244844079]
      },
      {
        "species": [{ "element": "N", "occu": 1 }],
        "abc": [0.76487399, 0.52951661, 0.24999999],
        "properties": { "magmom": 0.0 },
        "label": "N",
        "xyz": [1.949847488947888, 2.752990577747291, 2.59840718267821]
      },
      {
        "species": [{ "element": "N", "occu": 1 }],
        "abc": [0.95273965, 0.9056689800000001, 0.61962056],
        "properties": { "magmom": -0.0 },
        "label": "N",
        "xyz": [1.9488565907508575, 4.708751169657638, 6.440106324362488]
      }
    ]
  },
  "task_ids": null,
  "uncorrected_energy_per_atom": null,
  "energy_per_atom": -15.938190228125,
  "formation_energy_per_atom": -0.9574430648437491,
  "energy_above_hull": 0.014609377968747,
  "is_stable": false,
  "equilibrium_reaction_energy_per_atom": null,
  "decomposes_to": null,
  "xas": null,
  "grain_boundaries": null,
  "band_gap": 0.6958000000000001,
  "cbm": null,
  "vbm": null,
  "efermi": 3.41978884,
  "is_gap_direct": null,
  "is_metal": null,
  "es_source_calc_id": null,
  "bandstructure": null,
  "dos": null,
  "dos_energy_up": null,
  "dos_energy_down": null,
  "is_magnetic": null,
  "ordering": null,
  "total_magnetization": 0.0,
  "total_magnetization_normalized_vol": null,
  "total_magnetization_normalized_formula_units": null,
  "num_magnetic_sites": null,
  "num_unique_magnetic_sites": null,
  "types_of_magnetic_species": null,
  "bulk_modulus": null,
  "shear_modulus": null,
  "universal_anisotropy": null,
  "homogeneous_poisson": null,
  "e_total": null,
  "e_ionic": null,
  "e_electronic": null,
  "n": null,
  "e_ij_max": null,
  "weighted_surface_energy_EV_PER_ANG2": null,
  "weighted_surface_energy": null,
  "weighted_work_function": null,
  "surface_anisotropy": null,
  "shape_factor": null,
  "has_reconstructed": null,
  "possible_species": null,
  "has_props": null,
  "theoretical": null,
  "database_IDs": null,
  "fields_not_requested": [
    "builder_meta",
    "nsites",
    "elements",
    "nelements",
    "composition",
    "composition_reduced",
    "chemsys",
    "symmetry",
    "property_name",
    "deprecated",
    "deprecation_reasons",
    "last_updated",
    "origins",
    "warnings",
    "task_ids",
    "uncorrected_energy_per_atom",
    "equilibrium_reaction_energy_per_atom",
    "decomposes_to",
    "xas",
    "grain_boundaries",
    "cbm",
    "vbm",
    "is_gap_direct",
    "is_metal",
    "es_source_calc_id",
    "bandstructure",
    "dos",
    "dos_energy_up",
    "dos_energy_down",
    "is_magnetic",
    "ordering",
    "total_magnetization_normalized_vol",
    "total_magnetization_normalized_formula_units",
    "num_magnetic_sites",
    "num_unique_magnetic_sites",
    "types_of_magnetic_species",
    "bulk_modulus",
    "shear_modulus",
    "universal_anisotropy",
    "homogeneous_poisson",
    "e_total",
    "e_ionic",
    "e_electronic",
    "n",
    "e_ij_max",
    "weighted_surface_energy_EV_PER_ANG2",
    "weighted_surface_energy",
    "weighted_work_function",
    "surface_anisotropy",
    "shape_factor",
    "has_reconstructed",
    "possible_species",
    "has_props",
    "theoretical",
    "database_IDs"
  ]
}
