{
  "builder_meta": null,
  "nsites": null,
  "elements": null,
  "nelements": null,
  "composition": null,
  "composition_reduced": null,
  "formula_pretty": "Nb3Os2",
  "formula_anonymous": "A2B3",
  "chemsys": null,
  "volume": 500.06496737087735,
  "density": 13.133406080566049,
  "density_atomic": 16.668832245695913,
  "symmetry": null,
  "property_name": null,
  "material_id": "mp-1220934",
  "deprecated": null,
  "deprecation_reasons": null,
  "last_updated": null,
  "origins": null,
  "warnings": null,
  "structure": {
    "@module": "pymatgen.core.structure",
    "@class": "Structure",
    "charge": 0,
    "lattice": {
      "matrix": [
        [0.0, 0.0, 5.08829493],
        [9.91351461, 0.01611402, 0.0],
        [0.01611402, 9.91351461, 0.0]
      ],
      "pbc": [true, true, true],
      "a": 5.08829493,
      "b": 9.91352770633764,
      "c": 9.91352770633764,
      "alpha": 89.81373618536185,
      "beta": 90.0,
      "gamma": 90.0,
      "volume": 500.06496737087735
    },
    "properties": {},
    "sites": [
      {
        "species": [{ "element": "Nb", "occu": 1 }],
        "abc": [0.50384412, 0.10474873, 0.89525127],
        "properties": { "magmom": -0.0 },
        "label": "Nb",
        "xyz": [1.0528541621037506, 8.87677446789625, 2.5637074813063117]
      },
      {
        "species": [{ "element": "Nb", "occu": 1 }],
        "abc": [0.50384412, 0.89525127, 0.10474873],
        "properties": { "magmom": -0.0 },
        "label": "Nb",
        "xyz": [8.87677446789625, 1.0528541621037506, 2.5637074813063117]
      },
      {
        "species": [{ "element": "Nb", "occu": 1 }],
        "abc": [0.99134717, 0.39811271, 0.39811271],
        "properties": { "magmom": 0.0 },
        "label": "Nb",
        "xyz": [3.953111363182887, 3.953111363182887, 5.044266778980848]
      },
      {
        "species": [{ "element": "Nb", "occu": 1 }],
        "abc": [0.99134717, 0.60188729, 0.60188729],
        "properties": { "magmom": 0.0 },
        "label": "Nb",
        "xyz": [5.976517266817112, 5.976517266817112, 5.044266778980848]
      },
      {
        "species": [{ "element": "Nb", "occu": 1 }],
        "abc": [0.50150038, 0.37185959, 0.96117037],
        "properties": { "magmom": 0.0 },
        "label": "Nb",
        "xyz": [3.701923796899197, 9.534568658564558, 2.5517818409470734]
      },
      {
        "species": [{ "element": "Nb", "occu": 1 }],
        "abc": [0.50150038, 0.62814041, 0.038829630000000004],
        "properties": { "magmom": 0.0 },
        "label": "Nb",
        "xyz": [6.227704833100802, 0.3950599714354425, 2.5517818409470734]
      },
      {
        "species": [{ "element": "Nb", "occu": 1 }],
        "abc": [0.00363208, 0.12921366, 0.46564624],
        "properties": { "magmom": 0.0 },
        "label": "Nb",
        "xyz": [1.2884649390458576, 4.618272954833079, 0.0184810942493544]
      },
      {
        "species": [{ "element": "Nb", "occu": 1 }],
        "abc": [0.00363208, 0.87078634, 0.53435376],
        "properties": { "magmom": 0.0 },
        "label": "Nb",
        "xyz": [8.641163690954142, 5.31135567516692, 0.0184810942493544]
      },
      {
        "species": [{ "element": "Nb", "occu": 1 }],
        "abc": [0.50150038, 0.96117037, 0.37185959],
        "properties": { "magmom": 0.0 },
        "label": "Nb",
        "xyz": [9.534568658564558, 3.701923796899197, 2.5517818409470734]
      },
      {
        "species": [{ "element": "Nb", "occu": 1 }],
        "abc": [0.50150038, 0.038829630000000004, 0.62814041],
        "properties": { "magmom": 0.0 },
        "label": "Nb",
        "xyz": [0.3950599714354425, 6.227704833100802, 2.5517818409470734]
      },
      {
        "species": [{ "element": "Nb", "occu": 1 }],
        "abc": [0.00363208, 0.46564624, 0.12921366],
        "properties": { "magmom": 0.0 },
        "label": "Nb",
        "xyz": [4.618272954833079, 1.2884649390458576, 0.0184810942493544]
      },
      {
        "species": [{ "element": "Nb", "occu": 1 }],
        "abc": [0.00363208, 0.53435376, 0.87078634],
        "properties": { "magmom": 0.0 },
        "label": "Nb",
        "xyz": [5.31135567516692, 8.641163690954142, 0.0184810942493544]
      },
      {
        "species": [{ "element": "Nb", "occu": 1 }],
        "abc": [0.75023972, 0.18106489, 0.18106489],
        "properties": { "magmom": -0.0 },
        "label": "Nb",
        "xyz": [1.7979071156318007, 1.7979071156318007, 3.8174409635606197]
      },
      {
        "species": [{ "element": "Nb", "occu": 1 }],
        "abc": [0.75023972, 0.81893511, 0.81893511],
        "properties": { "magmom": -0.0 },
        "label": "Nb",
        "xyz": [8.131721514368198, 8.131721514368198, 3.8174409635606197]
      },
      {
        "species": [{ "element": "Nb", "occu": 1 }],
        "abc": [0.75201524, 0.6802486600000001, 0.31975134],
        "properties": { "magmom": 0.0 },
        "label": "Nb",
        "xyz": [6.74880750883071, 3.1808211211692905, 3.826475332974733]
      },
      {
        "species": [{ "element": "Nb", "occu": 1 }],
        "abc": [0.75201524, 0.31975134, 0.6802486600000001],
        "properties": { "magmom": 0.0 },
        "label": "Nb",
        "xyz": [3.1808211211692905, 6.74880750883071, 3.826475332974733]
      },
      {
        "species": [{ "element": "Nb", "occu": 1 }],
        "abc": [0.25053103, 0.81861619, 0.81861619],
        "properties": { "magmom": 0.0 },
        "label": "Nb",
        "xyz": [8.128554757205519, 8.128554757205519, 1.274775769756678]
      },
      {
        "species": [{ "element": "Nb", "occu": 1 }],
        "abc": [0.25053103, 0.18138381, 0.18138381],
        "properties": { "magmom": 0.0 },
        "label": "Nb",
        "xyz": [1.8010738727944804, 1.8010738727944804, 1.274775769756678]
      },
      {
        "species": [{ "element": "Os", "occu": 1 }],
        "abc": [0.47321332, 0.5, 0.5],
        "properties": { "magmom": -0.0 },
        "label": "Os",
        "xyz": [4.964814315, 4.964814315, 2.407848936964468]
      },
      {
        "species": [{ "element": "Os", "occu": 1 }],
        "abc": [0.00158796, 0.0, 0.0],
        "properties": { "magmom": -0.0 },
        "label": "Os",
        "xyz": [0.0, 0.0, 0.0080800088170428]
      },
      {
        "species": [{ "element": "Os", "occu": 1 }],
        "abc": [0.49952591, 0.43516692, 0.24440094],
        "properties": { "magmom": -0.0 },
        "label": "Os",
        "xyz": [4.31797190084388, 2.4298845778399523, 2.5417351552566365]
      },
      {
        "species": [{ "element": "Os", "occu": 1 }],
        "abc": [0.49952591, 0.56483308, 0.75559906],
        "properties": { "magmom": -0.0 },
        "label": "Os",
        "xyz": [5.6116567291561195, 7.4997440521600485, 2.5417351552566365]
      },
      {
        "species": [{ "element": "Os", "occu": 1 }],
        "abc": [0.00271623, 0.07130302, 0.74149645],
        "properties": { "magmom": -0.0 },
        "label": "Os",
        "xyz": [0.7188120191323512, 7.351984868628474, 0.0138209793377139]
      },
      {
        "species": [{ "element": "Os", "occu": 1 }],
        "abc": [0.00271623, 0.92869698, 0.25850355],
        "properties": { "magmom": -0.0 },
        "label": "Os",
        "xyz": [9.210816610867647, 2.577643761371525, 0.0138209793377139]
      },
      {
        "species": [{ "element": "Os", "occu": 1 }],
        "abc": [0.49952591, 0.24440094, 0.43516692],
        "properties": { "magmom": -0.0 },
        "label": "Os",
        "xyz": [2.4298845778399523, 4.31797190084388, 2.5417351552566365]
      },
      {
        "species": [{ "element": "Os", "occu": 1 }],
        "abc": [0.49952591, 0.75559906, 0.56483308],
        "properties": { "magmom": -0.0 },
        "label": "Os",
        "xyz": [7.4997440521600485, 5.6116567291561195, 2.5417351552566365]
      },
      {
        "species": [{ "element": "Os", "occu": 1 }],
        "abc": [0.00271623, 0.74149645, 0.07130302],
        "properties": { "magmom": -0.0 },
        "label": "Os",
        "xyz": [7.351984868628474, 0.7188120191323512, 0.0138209793377139]
      },
      {
        "species": [{ "element": "Os", "occu": 1 }],
        "abc": [0.00271623, 0.25850355, 0.92869698],
        "properties": { "magmom": -0.0 },
        "label": "Os",
        "xyz": [2.577643761371525, 9.210816610867647, 0.0138209793377139]
      },
      {
        "species": [{ "element": "Os", "occu": 1 }],
        "abc": [0.24987691, 0.3193354, 0.6806646],
        "properties": { "magmom": -0.0 },
        "label": "Os",
        "xyz": [3.1767043963678856, 6.752924233632113, 1.2714474142770664]
      },
      {
        "species": [{ "element": "Os", "occu": 1 }],
        "abc": [0.24987691, 0.6806646, 0.3193354],
        "properties": { "magmom": -0.0 },
        "label": "Os",
        "xyz": [6.752924233632113, 3.1767043963678856, 1.2714474142770664]
      }
    ]
  },
  "task_ids": null,
  "uncorrected_energy_per_atom": null,
  "energy_per_atom": -36.312508533666666,
  "formation_energy_per_atom": -0.27797220366666503,
  "energy_above_hull": 0.0,
  "is_stable": true,
  "equilibrium_reaction_energy_per_atom": null,
  "decomposes_to": null,
  "xas": null,
  "grain_boundaries": null,
  "band_gap": 0.0,
  "cbm": null,
  "vbm": null,
  "efermi": 6.17665875,
  "is_gap_direct": null,
  "is_metal": null,
  "es_source_calc_id": null,
  "bandstructure": null,
  "dos": null,
  "dos_energy_up": null,
  "dos_energy_down": null,
  "is_magnetic": null,
  "ordering": null,
  "total_magnetization": 3.7e-6,
  "total_magnetization_normalized_vol": null,
  "total_magnetization_normalized_formula_units": null,
  "num_magnetic_sites": null,
  "num_unique_magnetic_sites": null,
  "types_of_magnetic_species": null,
  "bulk_modulus": null,
  "shear_modulus": null,
  "universal_anisotropy": null,
  "homogeneous_poisson": null,
  "e_total": null,
  "e_ionic": null,
  "e_electronic": null,
  "n": null,
  "e_ij_max": null,
  "weighted_surface_energy_EV_PER_ANG2": null,
  "weighted_surface_energy": null,
  "weighted_work_function": null,
  "surface_anisotropy": null,
  "shape_factor": null,
  "has_reconstructed": null,
  "possible_species": null,
  "has_props": null,
  "theoretical": null,
  "database_IDs": null,
  "fields_not_requested": [
    "builder_meta",
    "nsites",
    "elements",
    "nelements",
    "composition",
    "composition_reduced",
    "chemsys",
    "symmetry",
    "property_name",
    "deprecated",
    "deprecation_reasons",
    "last_updated",
    "origins",
    "warnings",
    "task_ids",
    "uncorrected_energy_per_atom",
    "equilibrium_reaction_energy_per_atom",
    "decomposes_to",
    "xas",
    "grain_boundaries",
    "cbm",
    "vbm",
    "is_gap_direct",
    "is_metal",
    "es_source_calc_id",
    "bandstructure",
    "dos",
    "dos_energy_up",
    "dos_energy_down",
    "is_magnetic",
    "ordering",
    "total_magnetization_normalized_vol",
    "total_magnetization_normalized_formula_units",
    "num_magnetic_sites",
    "num_unique_magnetic_sites",
    "types_of_magnetic_species",
    "bulk_modulus",
    "shear_modulus",
    "universal_anisotropy",
    "homogeneous_poisson",
    "e_total",
    "e_ionic",
    "e_electronic",
    "n",
    "e_ij_max",
    "weighted_surface_energy_EV_PER_ANG2",
    "weighted_surface_energy",
    "weighted_work_function",
    "surface_anisotropy",
    "shape_factor",
    "has_reconstructed",
    "possible_species",
    "has_props",
    "theoretical",
    "database_IDs"
  ]
}
