{"builder_meta": null, "nsites": null, "elements": null, "nelements": null, "composition": null, "composition_reduced": null, "formula_pretty": "Nb3P", "formula_anonymous": "AB3", "chemsys": null, "volume": 531.9478400298611, "density": 7.73394868776393, "density_atomic": 16.62337000093316, "symmetry": null, "property_name": null, "material_id": "mp-505528", "deprecated": null, "deprecation_reasons": null, "last_updated": null, "origins": null, "warnings": null, "structure": {"@module": "pymatgen.core.structure", "@class": "Structure", "charge": 0, "lattice": {"matrix": [[5.13398559, 0.0, 0.0], [-0.0, 10.17904881, 0.00159526], [-0.0, -0.00159526, 10.17904881]], "pbc": [true, true, true], "a": 5.13398559, "b": 10.17904893500453, "c": 10.17904893500453, "alpha": 90.0, "beta": 90.0, "gamma": 90.0, "volume": 531.9478400298611}, "properties": {}, "sites": [{"species": [{"element": "Nb", "occu": 1}], "abc": [0.72425239, 0.16373394, 0.65297785], "properties": {"magmom": -0.0}, "label": "Nb", "xyz": [3.7183013337830597, 1.6656140976686202, 6.646954605203982]}, {"species": [{"element": "Nb", "occu": 1}], "abc": [0.22425239, 0.34702215000000003, 0.66373394], "properties": {"magmom": -0.0}, "label": "Nb", "xyz": [1.1513085387830602, 3.531296574796017, 6.75673376266862]}, {"species": [{"element": "Nb", "occu": 1}], "abc": [0.22425239, 0.15297785, 0.83626606], "properties": {"magmom": -0.0}, "label": "Nb", "xyz": [1.1513085387830602, 1.5558349402039828, 8.51263708233138]}, {"species": [{"element": "Nb", "occu": 1}], "abc": [0.72425239, 0.33626606000000003, 0.84702215], "properties": {"magmom": -0.0}, "label": "Nb", "xyz": [3.7183013337830597, 3.42151741733138, 8.622416239796017]}, {"species": [{"element": "Nb", "occu": 1}], "abc": [0.27574761000000003, 0.83626606, 0.34702215000000003], "properties": {"magmom": -0.0}, "label": "Nb", "xyz": [1.41568425621694, 8.51183945233138, 3.533689464796017]}, {"species": [{"element": "Nb", "occu": 1}], "abc": [0.77574761, 0.65297785, 0.33626606000000003], "properties": {"magmom": -0.0}, "label": "Nb", "xyz": [3.9826770512169403, 6.646156975203982, 3.4239103073313797]}, {"species": [{"element": "Nb", "occu": 1}], "abc": [0.77574761, 0.84702215, 0.16373394], "properties": {"magmom": -0.0}, "label": "Nb", "xyz": [3.9826770512169403, 8.621618609796016, 1.6680069876686203]}, {"species": [{"element": "Nb", "occu": 1}], "abc": [0.27574761000000003, 0.66373394, 0.15297785], "properties": {"magmom": -0.0}, "label": "Nb", "xyz": [1.41568425621694, 6.75593613266862, 1.558227830203983]}, {"species": [{"element": "Nb", "occu": 1}], "abc": [0.51712893, 0.10479566, 0.26292205], "properties": {"magmom": -0.0}, "label": "Nb", "xyz": [2.654932474792119, 1.0663007091866816, 2.676463556499832]}, {"species": [{"element": "Nb", "occu": 1}], "abc": [0.01712893, 0.73707795, 0.60479566], "properties": {"magmom": -0.0}, "label": "Nb", "xyz": [0.0879396797921187, 7.501787623500167, 6.157420374186681]}, {"species": [{"element": "Nb", "occu": 1}], "abc": [0.01712893, 0.76292205, 0.89520434], "properties": {"magmom": -0.0}, "label": "Nb", "xyz": [0.0879396797921187, 7.764392701499832, 9.113545730813318]}, {"species": [{"element": "Nb", "occu": 1}], "abc": [0.51712893, 0.39520434, 0.23707795], "properties": {"magmom": -0.0}, "label": "Nb", "xyz": [2.654932474792119, 4.022426065813318, 2.4138584785001678]}, {"species": [{"element": "Nb", "occu": 1}], "abc": [0.48287107, 0.89520434, 0.73707795], "properties": {"magmom": -0.0}, "label": "Nb", "xyz": [2.4790531152078814, 9.111152840813318, 7.504180513500167]}, {"species": [{"element": "Nb", "occu": 1}], "abc": [0.9828710700000001, 0.26292205, 0.39520434], "properties": {"magmom": -0.0}, "label": "Nb", "xyz": [5.046045910207882, 2.675665926499832, 4.023223695813318]}, {"species": [{"element": "Nb", "occu": 1}], "abc": [0.9828710700000001, 0.23707795, 0.10479566], "properties": {"magmom": -0.0}, "label": "Nb", "xyz": [5.046045910207882, 2.4130608485001677, 1.0670983391866817]}, {"species": [{"element": "Nb", "occu": 1}], "abc": [0.48287107, 0.60479566, 0.76292205], "properties": {"magmom": -0.0}, "label": "Nb", "xyz": [2.4790531152078814, 6.1550274841866806, 7.766785591499832]}, {"species": [{"element": "Nb", "occu": 1}], "abc": [0.23860077000000002, 0.0590307, 0.53673517], "properties": {"magmom": 0.0}, "label": "Nb", "xyz": [1.2249729149429043, 0.6000201444411727, 5.46354766278813]}, {"species": [{"element": "Nb", "occu": 1}], "abc": [0.73860077, 0.46326483, 0.5590307], "properties": {"magmom": 0.0}, "label": "Nb", "xyz": [3.7919657099429043, 4.71470351721187, 5.6911398094411725]}, {"species": [{"element": "Nb", "occu": 1}], "abc": [0.73860077, 0.03673517, 0.9409693], "properties": {"magmom": 0.0}, "label": "Nb", "xyz": [3.7919657099429043, 0.3724279977881296, 9.578231035558828]}, {"species": [{"element": "Nb", "occu": 1}], "abc": [0.23860077000000002, 0.440969299999999, 0.9632648300000001], "properties": {"magmom": 0.0}, "label": "Nb", "xyz": [1.2249729149429043, 4.487111370558817, 9.80582318221187]}, {"species": [{"element": "Nb", "occu": 1}], "abc": [0.76139923, 0.9409693, 0.46326483], "properties": {"magmom": 0.0}, "label": "Nb", "xyz": [3.9090126750570957, 9.577433405558827, 4.71709640721187]}, {"species": [{"element": "Nb", "occu": 1}], "abc": [0.26139923, 0.53673517, 0.440969299999999], "properties": {"magmom": 0.0}, "label": "Nb", "xyz": [1.3420198800570957, 5.46275003278813, 4.4895042605588165]}, {"species": [{"element": "Nb", "occu": 1}], "abc": [0.26139923, 0.9632648300000001, 0.0590307], "properties": {"magmom": 0.0}, "label": "Nb", "xyz": [1.3420198800570957, 9.805025552211871, 0.6024130344411728]}, {"species": [{"element": "Nb", "occu": 1}], "abc": [0.76139923, 0.5590307, 0.03673517], "properties": {"magmom": 0.0}, "label": "Nb", "xyz": [3.9090126750570957, 5.690342179441172, 0.37482088778812966]}, {"species": [{"element": "P", "occu": 1}], "abc": [0.02127923, 0.043068010000000004, 0.27467541], "properties": {"magmom": -0.0}, "label": "P", "xyz": [0.1092472601862957, 0.4379531972450115, 2.7960031099703944]}, {"species": [{"element": "P", "occu": 1}], "abc": [0.52127923, 0.72532459, 0.54306801], "properties": {"magmom": -0.0}, "label": "P", "xyz": [2.6762400551862955, 7.382248070029606, 5.529072862245012]}, {"species": [{"element": "P", "occu": 1}], "abc": [0.52127923, 0.7746754100000001, 0.9569319900000001], "properties": {"magmom": -0.0}, "label": "P", "xyz": [2.6762400551862955, 7.883932254970395, 9.741893242754989]}, {"species": [{"element": "P", "occu": 1}], "abc": [0.02127923, 0.45693199, 0.22532459], "properties": {"magmom": -0.0}, "label": "P", "xyz": [0.1092472601862957, 4.650773577754989, 2.2943189250296054]}, {"species": [{"element": "P", "occu": 1}], "abc": [0.97872077, 0.9569319900000001, 0.72532459], "properties": {"magmom": -0.0}, "label": "P", "xyz": [5.0247383298137045, 9.73950035275499, 7.384640960029605]}, {"species": [{"element": "P", "occu": 1}], "abc": [0.47872077, 0.27467541, 0.45693199], "properties": {"magmom": -0.0}, "label": "P", "xyz": [2.4577455348137045, 2.7952054799703943, 4.651571207754989]}, {"species": [{"element": "P", "occu": 1}], "abc": [0.47872077, 0.22532459, 0.043068010000000004], "properties": {"magmom": -0.0}, "label": "P", "xyz": [2.4577455348137045, 2.2935212950296053, 0.4387508272450115]}, {"species": [{"element": "P", "occu": 1}], "abc": [0.97872077, 0.54306801, 0.7746754100000001], "properties": {"magmom": -0.0}, "label": "P", "xyz": [5.0247383298137045, 5.526679972245011, 7.886325144970394]}]}, "task_ids": null, "uncorrected_energy_per_atom": null, "energy_per_atom": -9.566405766875, "formation_energy_per_atom": -0.6365586055357141, "energy_above_hull": 0.0, "is_stable": true, "equilibrium_reaction_energy_per_atom": null, "decomposes_to": null, "xas": null, "grain_boundaries": null, "band_gap": 0.0, "cbm": null, "vbm": null, "efermi": 6.62904186, "is_gap_direct": null, "is_metal": null, "es_source_calc_id": null, "bandstructure": null, "dos": null, "dos_energy_up": null, "dos_energy_down": null, "is_magnetic": null, "ordering": null, "total_magnetization": 0.0, "total_magnetization_normalized_vol": null, "total_magnetization_normalized_formula_units": null, "num_magnetic_sites": null, "num_unique_magnetic_sites": null, "types_of_magnetic_species": null, "bulk_modulus": null, "shear_modulus": null, "universal_anisotropy": null, "homogeneous_poisson": null, "e_total": null, "e_ionic": null, "e_electronic": null, "n": null, "e_ij_max": null, "weighted_surface_energy_EV_PER_ANG2": null, "weighted_surface_energy": null, "weighted_work_function": null, "surface_anisotropy": null, "shape_factor": null, "has_reconstructed": null, "possible_species": null, "has_props": null, "theoretical": null, "database_IDs": null, "fields_not_requested": ["builder_meta", "nsites", "elements", "nelements", "composition", "composition_reduced", "chemsys", "symmetry", "property_name", "deprecated", "deprecation_reasons", "last_updated", "origins", "warnings", "task_ids", "uncorrected_energy_per_atom", "equilibrium_reaction_energy_per_atom", "decomposes_to", "xas", "grain_boundaries", "cbm", "vbm", "is_gap_direct", "is_metal", "es_source_calc_id", "bandstructure", "dos", "dos_energy_up", "dos_energy_down", "is_magnetic", "ordering", "total_magnetization_normalized_vol", "total_magnetization_normalized_formula_units", "num_magnetic_sites", "num_unique_magnetic_sites", "types_of_magnetic_species", "bulk_modulus", "shear_modulus", "universal_anisotropy", "homogeneous_poisson", "e_total", "e_ionic", "e_electronic", "n", "e_ij_max", "weighted_surface_energy_EV_PER_ANG2", "weighted_surface_energy", "weighted_work_function", "surface_anisotropy", "shape_factor", "has_reconstructed", "possible_species", "has_props", "theoretical", "database_IDs"]}