{"builder_meta": null, "nsites": null, "elements": null, "nelements": null, "composition": null, "composition_reduced": null, "formula_pretty": "Nb3Si2", "formula_anonymous": "A2B3", "chemsys": null, "volume": 160.2357484030191, "density": 6.940999945785698, "density_atomic": 16.02357484030191, "symmetry": null, "property_name": null, "material_id": "mp-1078996", "deprecated": null, "deprecation_reasons": null, "last_updated": null, "origins": null, "warnings": null, "structure": {"@module": "pymatgen.core.structure", "@class": "Structure", "charge": 0, "lattice": {"matrix": [[6.74561363, 0.0, -0.0], [-0.0, 6.74561363, -0.0], [-0.0, -0.0, 3.52140915]], "pbc": [true, true, true], "a": 6.74561363, "b": 6.74561363, "c": 3.52140915, "alpha": 90.0, "beta": 90.0, "gamma": 90.0, "volume": 160.2357484030191}, "properties": {}, "sites": [{"species": [{"element": "Nb", "occu": 1}], "abc": [0.5, 0.5, 0.0], "properties": {"magmom": -0.0}, "label": "Nb", "xyz": [3.372806815, 3.372806815, 0.0]}, {"species": [{"element": "Nb", "occu": 1}], "abc": [0.0, 0.0, 0.0], "properties": {"magmom": -0.0}, "label": "Nb", "xyz": [0.0, 0.0, 0.0]}, {"species": [{"element": "Nb", "occu": 1}], "abc": [0.67145248, 0.17144854, 0.5], "properties": {"magmom": -0.0}, "label": "Nb", "xyz": [4.529359000985303, 1.1565256082676003, 1.760704575]}, {"species": [{"element": "Nb", "occu": 1}], "abc": [0.32854752, 0.82855146, 0.5], "properties": {"magmom": -0.0}, "label": "Nb", "xyz": [2.2162546290146974, 5.5890880217324, 1.760704575]}, {"species": [{"element": "Nb", "occu": 1}], "abc": [0.17144854, 0.32854752, 0.5], "properties": {"magmom": -0.0}, "label": "Nb", "xyz": [1.1565256082676003, 2.2162546290146974, 1.760704575]}, {"species": [{"element": "Nb", "occu": 1}], "abc": [0.82855146, 0.67145248, 0.5], "properties": {"magmom": -0.0}, "label": "Nb", "xyz": [5.5890880217324, 4.529359000985303, 1.760704575]}, {"species": [{"element": "Si", "occu": 1}], "abc": [0.12727802, 0.6272710300000001, 0.0], "properties": {"magmom": 0.0}, "label": "Si", "xyz": [0.8585683465114126, 4.231328009672139, 0.0]}, {"species": [{"element": "Si", "occu": 1}], "abc": [0.87272198, 0.37272897, -0.0], "properties": {"magmom": 0.0}, "label": "Si", "xyz": [5.887045283488588, 2.514285620327861, 0.0]}, {"species": [{"element": "Si", "occu": 1}], "abc": [0.6272710300000001, 0.87272198, -0.0], "properties": {"magmom": 0.0}, "label": "Si", "xyz": [4.231328009672139, 5.887045283488588, 0.0]}, {"species": [{"element": "Si", "occu": 1}], "abc": [0.37272897, 0.12727802, 0.0], "properties": {"magmom": 0.0}, "label": "Si", "xyz": [2.514285620327861, 0.8585683465114126, 0.0]}]}, "task_ids": null, "uncorrected_energy_per_atom": null, "energy_per_atom": -19.036285554, "formation_energy_per_atom": -0.686334926, "energy_above_hull": 0.019349318666662, "is_stable": false, "equilibrium_reaction_energy_per_atom": null, "decomposes_to": null, "xas": null, "grain_boundaries": null, "band_gap": 0.0, "cbm": null, "vbm": null, "efermi": 7.3646505, "is_gap_direct": null, "is_metal": null, "es_source_calc_id": null, "bandstructure": null, "dos": null, "dos_energy_up": null, "dos_energy_down": null, "is_magnetic": null, "ordering": null, "total_magnetization": 2.1e-06, "total_magnetization_normalized_vol": null, "total_magnetization_normalized_formula_units": null, "num_magnetic_sites": null, "num_unique_magnetic_sites": null, "types_of_magnetic_species": null, "bulk_modulus": null, "shear_modulus": null, "universal_anisotropy": null, "homogeneous_poisson": null, "e_total": null, "e_ionic": null, "e_electronic": null, "n": null, "e_ij_max": null, "weighted_surface_energy_EV_PER_ANG2": null, "weighted_surface_energy": null, "weighted_work_function": null, "surface_anisotropy": null, "shape_factor": null, "has_reconstructed": null, "possible_species": null, "has_props": null, "theoretical": null, "database_IDs": null, "fields_not_requested": ["builder_meta", "nsites", "elements", "nelements", "composition", "composition_reduced", "chemsys", "symmetry", "property_name", "deprecated", "deprecation_reasons", "last_updated", "origins", "warnings", "task_ids", "uncorrected_energy_per_atom", "equilibrium_reaction_energy_per_atom", "decomposes_to", "xas", "grain_boundaries", "cbm", "vbm", "is_gap_direct", "is_metal", "es_source_calc_id", "bandstructure", "dos", "dos_energy_up", "dos_energy_down", "is_magnetic", "ordering", "total_magnetization_normalized_vol", "total_magnetization_normalized_formula_units", "num_magnetic_sites", "num_unique_magnetic_sites", "types_of_magnetic_species", "bulk_modulus", "shear_modulus", "universal_anisotropy", "homogeneous_poisson", "e_total", "e_ionic", "e_electronic", "n", "e_ij_max", "weighted_surface_energy_EV_PER_ANG2", "weighted_surface_energy", "weighted_work_function", "surface_anisotropy", "shape_factor", "has_reconstructed", "possible_species", "has_props", "theoretical", "database_IDs"]}