{"builder_meta": null, "nsites": null, "elements": null, "nelements": null, "composition": null, "composition_reduced": null, "formula_pretty": "Nb3Se4", "formula_anonymous": "A3B4", "chemsys": null, "volume": 311.81062341108566, "density": 6.33261733403146, "density_atomic": 22.27218738650612, "symmetry": null, "property_name": null, "material_id": "mp-561", "deprecated": null, "deprecation_reasons": null, "last_updated": null, "origins": null, "warnings": null, "structure": {"@module": "pymatgen.core.structure", "@class": "Structure", "charge": 0, "lattice": {"matrix": [[10.15657147, -0.00076302, -0.0], [-5.07762526, 8.796229929999999, 0.0], [-0.0, -0.0, 3.49032638]], "pbc": [true, true, true], "a": 10.156571498661222, "b": 10.156571235531105, "c": 3.49032638, "alpha": 90.0, "beta": 90.0, "gamma": 120.00000293930563, "volume": 311.8106234110856}, "properties": {}, "sites": [{"species": [{"element": "Nb", "occu": 1}], "abc": [0.51302686, 0.89396382, 0.75], "properties": {"magmom": -0.0}, "label": "Nb", "xyz": [0.6713806956615906, 7.863119860066414, 2.617744785]}, {"species": [{"element": "Nb", "occu": 1}], "abc": [0.61906304, 0.51302686, 0.25], "properties": {"magmom": -0.0}, "label": "Nb", "xyz": [3.682599866800985, 4.512229863345138, 0.872581595]}, {"species": [{"element": "Nb", "occu": 1}], "abc": [0.89396382, 0.38093696, 0.25], "properties": {"magmom": -0.0}, "label": "Nb", "xyz": [7.1453522988606055, 3.3501269767212762, 0.872581595]}, {"species": [{"element": "Nb", "occu": 1}], "abc": [0.10603618000000001, 0.61906304, 0.75], "properties": {"magmom": -0.0}, "label": "Nb", "xyz": [-2.0664060888606057, 5.445339933278723, 2.617744785]}, {"species": [{"element": "Nb", "occu": 1}], "abc": [0.38093696, 0.48697314, 0.75], "properties": {"magmom": -0.0}, "label": "Nb", "xyz": [1.3963463431990144, 4.28323704665486, 2.617744785]}, {"species": [{"element": "Nb", "occu": 1}], "abc": [0.48697314, 0.10603618000000001, 0.25], "properties": {"magmom": -0.0}, "label": "Nb", "xyz": [4.407565514338409, 0.9323470499335846, 0.872581595]}, {"species": [{"element": "Se", "occu": 1}], "abc": [0.65870954, 0.71894183, 0.75], "properties": {"magmom": -0.0}, "label": "Se", "xyz": [3.039713324502198, 6.323475034421761, 2.617744785]}, {"species": [{"element": "Se", "occu": 1}], "abc": [0.9397707, 0.65870954, 0.25], "properties": {"magmom": -0.0}, "label": "Se", "xyz": [6.200168080654947, 5.793443507085018, 0.872581595]}, {"species": [{"element": "Se", "occu": 1}], "abc": [0.71894183, 0.0602293, 0.25], "properties": {"magmom": -0.0}, "label": "Se", "xyz": [6.996162264095472, 0.5292422043278223, 0.872581595]}, {"species": [{"element": "Se", "occu": 1}], "abc": [0.28105817, 0.9397707, 0.75], "properties": {"magmom": -0.0}, "label": "Se", "xyz": [-1.917216054095472, 8.266224705672176, 2.617744785]}, {"species": [{"element": "Se", "occu": 1}], "abc": [0.0602293, 0.34129046, 0.75], "properties": {"magmom": -0.0}, "label": "Se", "xyz": [-1.1212218706549484, 3.0020234029149817, 2.617744785]}, {"species": [{"element": "Se", "occu": 1}], "abc": [0.34129046, 0.28105817, 0.25], "properties": {"magmom": -0.0}, "label": "Se", "xyz": [2.0392328854978024, 2.471991875578239, 0.872581595]}, {"species": [{"element": "Se", "occu": 1}], "abc": [0.666667, 0.333333, 0.75], "properties": {"magmom": 0.0}, "label": "Se", "xyz": [5.078510971398909, 2.9315650310023496, 2.617744785]}, {"species": [{"element": "Se", "occu": 1}], "abc": [0.333333, 0.666667, 0.25], "properties": {"magmom": 0.0}, "label": "Se", "xyz": [0.00043523860108996004, 5.863901878997649, 0.872581595]}]}, "task_ids": null, "uncorrected_energy_per_atom": null, "energy_per_atom": -19.77621285142857, "formation_energy_per_atom": -0.9978607266071431, "energy_above_hull": 0.0, "is_stable": true, "equilibrium_reaction_energy_per_atom": null, "decomposes_to": null, "xas": null, "grain_boundaries": null, "band_gap": 0.0, "cbm": null, "vbm": null, "efermi": 4.2766687, "is_gap_direct": null, "is_metal": null, "es_source_calc_id": null, "bandstructure": null, "dos": null, "dos_energy_up": null, "dos_energy_down": null, "is_magnetic": null, "ordering": null, "total_magnetization": 1e-07, "total_magnetization_normalized_vol": null, "total_magnetization_normalized_formula_units": null, "num_magnetic_sites": null, "num_unique_magnetic_sites": null, "types_of_magnetic_species": null, "bulk_modulus": null, "shear_modulus": null, "universal_anisotropy": null, "homogeneous_poisson": null, "e_total": null, "e_ionic": null, "e_electronic": null, "n": null, "e_ij_max": null, "weighted_surface_energy_EV_PER_ANG2": null, "weighted_surface_energy": null, "weighted_work_function": null, "surface_anisotropy": null, "shape_factor": null, "has_reconstructed": null, "possible_species": null, "has_props": null, "theoretical": null, "database_IDs": null, "fields_not_requested": ["builder_meta", "nsites", "elements", "nelements", "composition", "composition_reduced", "chemsys", "symmetry", "property_name", "deprecated", "deprecation_reasons", "last_updated", "origins", "warnings", "task_ids", "uncorrected_energy_per_atom", "equilibrium_reaction_energy_per_atom", "decomposes_to", "xas", "grain_boundaries", "cbm", "vbm", "is_gap_direct", "is_metal", "es_source_calc_id", "bandstructure", "dos", "dos_energy_up", "dos_energy_down", "is_magnetic", "ordering", "total_magnetization_normalized_vol", "total_magnetization_normalized_formula_units", "num_magnetic_sites", "num_unique_magnetic_sites", "types_of_magnetic_species", "bulk_modulus", "shear_modulus", "universal_anisotropy", "homogeneous_poisson", "e_total", "e_ionic", "e_electronic", "n", "e_ij_max", "weighted_surface_energy_EV_PER_ANG2", "weighted_surface_energy", "weighted_work_function", "surface_anisotropy", "shape_factor", "has_reconstructed", "possible_species", "has_props", "theoretical", "database_IDs"]}