{
  "builder_meta": null,
  "nsites": null,
  "elements": null,
  "nelements": null,
  "composition": null,
  "composition_reduced": null,
  "formula_pretty": "Nb3S4",
  "formula_anonymous": "A3B4",
  "chemsys": null,
  "volume": 276.40309123624985,
  "density": 4.889994234425116,
  "density_atomic": 19.74307794544642,
  "symmetry": null,
  "property_name": null,
  "material_id": "mp-12627",
  "deprecated": null,
  "deprecation_reasons": null,
  "last_updated": null,
  "origins": null,
  "warnings": null,
  "structure": {
    "@module": "pymatgen.core.structure",
    "@class": "Structure",
    "charge": 0,
    "lattice": {
      "matrix": [
        [9.67466313, 0.00082888, -0.0],
        [-4.83805041, 8.378091359999999, 0.0],
        [0.0, -0.0, 3.40989076]
      ],
      "pbc": [true, true, true],
      "a": 9.674663165507287,
      "b": 9.674665193494182,
      "c": 3.40989076,
      "alpha": 90.0,
      "beta": 90.0,
      "gamma": 119.99999999808101,
      "volume": 276.4030912362498
    },
    "properties": {},
    "sites": [
      {
        "species": [{ "element": "Nb", "occu": 1 }],
        "abc": [0.51483784, 0.88793127, 0.75],
        "properties": { "magmom": 0.0 },
        "label": "Nb",
        "xyz": [0.685026423701518, 7.439596040249646, 2.55741807]
      },
      {
        "species": [{ "element": "Nb", "occu": 1 }],
        "abc": [0.62690658, 0.51483784, 0.25],
        "properties": { "magmom": 0.0 },
        "label": "Nb",
        "xyz": [3.574298552584881, 4.313878089431092, 0.85247269]
      },
      {
        "species": [{ "element": "Nb", "occu": 1 }],
        "abc": [0.88793127, 0.37309342, 0.25],
        "properties": { "magmom": 0.0 },
        "label": "Nb",
        "xyz": [6.785391146243773, 3.1265467470459285, 0.85247269]
      },
      {
        "species": [{ "element": "Nb", "occu": 1 }],
        "abc": [0.11206873, 0.62690658, 0.75],
        "properties": { "magmom": 0.0 },
        "label": "Nb",
        "xyz": [-1.9487784262437726, 5.25237349295407, 2.55741807]
      },
      {
        "species": [{ "element": "Nb", "occu": 1 }],
        "abc": [0.37309342, 0.48516216, 0.75],
        "properties": { "magmom": 0.0 },
        "label": "Nb",
        "xyz": [1.2623141674151195, 4.065042150568907, 2.55741807]
      },
      {
        "species": [{ "element": "Nb", "occu": 1 }],
        "abc": [0.48516216, 0.11206873, 0.25],
        "properties": { "magmom": 0.0 },
        "label": "Nb",
        "xyz": [4.151586296298482, 0.9393241997503535, 0.85247269]
      },
      {
        "species": [{ "element": "S", "occu": 1 }],
        "abc": [0.6538858, 0.71154077, 0.75],
        "properties": { "magmom": -0.0 },
        "label": "S",
        "xyz": [2.8836547264603385, 5.961895570286651, 2.55741807]
      },
      {
        "species": [{ "element": "S", "occu": 1 }],
        "abc": [0.9423460300000001, 0.6538858, 0.25],
        "properties": { "magmom": -0.0 },
        "label": "S",
        "xyz": [5.953347929359697, 5.479096063184033, 0.85247269]
      },
      {
        "species": [{ "element": "S", "occu": 1 }],
        "abc": [0.71154077, 0.05765397, 0.25],
        "properties": { "magmom": -0.0 },
        "label": "S",
        "xyz": [6.604984439814183, 0.48362000984013676, 0.85247269]
      },
      {
        "species": [{ "element": "S", "occu": 1 }],
        "abc": [0.28845923, 0.9423460300000001, 0.75],
        "properties": { "magmom": -0.0 },
        "label": "S",
        "xyz": [-1.7683717198141822, 7.895300230159863, 2.55741807]
      },
      {
        "species": [{ "element": "S", "occu": 1 }],
        "abc": [0.05765397, 0.3461142, 0.75],
        "properties": { "magmom": -0.0 },
        "label": "S",
        "xyz": [-1.1167352093596956, 2.899824176815965, 2.55741807]
      },
      {
        "species": [{ "element": "S", "occu": 1 }],
        "abc": [0.3461142, 0.28845923, 0.25],
        "properties": { "magmom": -0.0 },
        "label": "S",
        "xyz": [1.9529579935396617, 2.4170246697133484, 0.85247269]
      },
      {
        "species": [{ "element": "S", "occu": 1 }],
        "abc": [0.333333, 0.666667, 0.25],
        "properties": { "magmom": 0.0 },
        "label": "S",
        "xyz": [-0.0004840675711799136, 5.5856733257541595, 0.85247269]
      },
      {
        "species": [{ "element": "S", "occu": 1 }],
        "abc": [0.666667, 0.333333, 0.75],
        "properties": { "magmom": 0.0 },
        "label": "S",
        "xyz": [4.837096787571181, 2.7932469142458394, 2.55741807]
      }
    ]
  },
  "task_ids": null,
  "uncorrected_energy_per_atom": null,
  "energy_per_atom": -8.080218082142858,
  "formation_energy_per_atom": -1.3863104550000012,
  "energy_above_hull": 0.0,
  "is_stable": true,
  "equilibrium_reaction_energy_per_atom": null,
  "decomposes_to": null,
  "xas": null,
  "grain_boundaries": null,
  "band_gap": 0.0,
  "cbm": null,
  "vbm": null,
  "efermi": 5.09100075,
  "is_gap_direct": null,
  "is_metal": null,
  "es_source_calc_id": null,
  "bandstructure": null,
  "dos": null,
  "dos_energy_up": null,
  "dos_energy_down": null,
  "is_magnetic": null,
  "ordering": null,
  "total_magnetization": 1.7e-6,
  "total_magnetization_normalized_vol": null,
  "total_magnetization_normalized_formula_units": null,
  "num_magnetic_sites": null,
  "num_unique_magnetic_sites": null,
  "types_of_magnetic_species": null,
  "bulk_modulus": null,
  "shear_modulus": null,
  "universal_anisotropy": null,
  "homogeneous_poisson": null,
  "e_total": null,
  "e_ionic": null,
  "e_electronic": null,
  "n": null,
  "e_ij_max": null,
  "weighted_surface_energy_EV_PER_ANG2": null,
  "weighted_surface_energy": null,
  "weighted_work_function": null,
  "surface_anisotropy": null,
  "shape_factor": null,
  "has_reconstructed": null,
  "possible_species": null,
  "has_props": null,
  "theoretical": null,
  "database_IDs": null,
  "fields_not_requested": [
    "builder_meta",
    "nsites",
    "elements",
    "nelements",
    "composition",
    "composition_reduced",
    "chemsys",
    "symmetry",
    "property_name",
    "deprecated",
    "deprecation_reasons",
    "last_updated",
    "origins",
    "warnings",
    "task_ids",
    "uncorrected_energy_per_atom",
    "equilibrium_reaction_energy_per_atom",
    "decomposes_to",
    "xas",
    "grain_boundaries",
    "cbm",
    "vbm",
    "is_gap_direct",
    "is_metal",
    "es_source_calc_id",
    "bandstructure",
    "dos",
    "dos_energy_up",
    "dos_energy_down",
    "is_magnetic",
    "ordering",
    "total_magnetization_normalized_vol",
    "total_magnetization_normalized_formula_units",
    "num_magnetic_sites",
    "num_unique_magnetic_sites",
    "types_of_magnetic_species",
    "bulk_modulus",
    "shear_modulus",
    "universal_anisotropy",
    "homogeneous_poisson",
    "e_total",
    "e_ionic",
    "e_electronic",
    "n",
    "e_ij_max",
    "weighted_surface_energy_EV_PER_ANG2",
    "weighted_surface_energy",
    "weighted_work_function",
    "surface_anisotropy",
    "shape_factor",
    "has_reconstructed",
    "possible_species",
    "has_props",
    "theoretical",
    "database_IDs"
  ]
}
