{
  "builder_meta": null,
  "nsites": null,
  "elements": null,
  "nelements": null,
  "composition": null,
  "composition_reduced": null,
  "formula_pretty": "Nb3S5",
  "formula_anonymous": "A3B5",
  "chemsys": null,
  "volume": 595.5523650085518,
  "density": 4.896630350356049,
  "density_atomic": 18.611011406517243,
  "symmetry": null,
  "property_name": null,
  "material_id": "mp-32983",
  "deprecated": null,
  "deprecation_reasons": null,
  "last_updated": null,
  "origins": null,
  "warnings": null,
  "structure": {
    "@module": "pymatgen.core.structure",
    "@class": "Structure",
    "charge": 0,
    "lattice": {
      "matrix": [
        [7.92714701, -0.00039344, 0.00561896],
        [-3.56126707, 8.18763646, 0.00201424],
        [-0.77613865, -1.03704595, 9.1748847]
      ],
      "pbc": [true, true, true],
      "a": 7.927149011193018,
      "b": 8.928606722336387,
      "c": 9.265870966332809,
      "alpha": 93.95653649727443,
      "beta": 94.7642305216817,
      "gamma": 113.50977929044167,
      "volume": 595.5523650085518
    },
    "properties": {},
    "sites": [
      {
        "species": [{ "element": "Nb", "occu": 1 }],
        "abc": [0.00686593, 0.0051056800000000005, 5.627e-5],
        "properties": { "magmom": 0.0 },
        "label": "Nb",
        "xyz": [0.0362008730945762, 0.04174239581398711, 0.000565134212985]
      },
      {
        "species": [{ "element": "Nb", "occu": 1 }],
        "abc": [0.60485741, 0.40306542, 0.59731251],
        "properties": { "magmom": 0.0 },
        "label": "Nb",
        "xyz": [2.895772676716614, 2.6804746340779886, 5.484483949201671]
      },
      {
        "species": [{ "element": "Nb", "occu": 1 }],
        "abc": [0.50344042, -0.00013099, 0.5035722],
        "properties": { "magmom": 0.0 },
        "label": "Nb",
        "xyz": [3.600470863004113, -0.5234980826413301, 4.623045420862406]
      },
      {
        "species": [{ "element": "Nb", "occu": 1 }],
        "abc": [0.20473372, 0.8006466, 0.19811274],
        "properties": { "magmom": 0.0 },
        "label": "Nb",
        "xyz": [-1.3821250295146856, 6.349870728639837, 1.8204246320919932]
      },
      {
        "species": [{ "element": "Nb", "occu": 1 }],
        "abc": [0.09805658, 0.40169214000000003, 0.09943987],
        "properties": { "magmom": 0.0 },
        "label": "Nb",
        "xyz": [-0.7304031919599796, 3.185746917326563, 0.9137094222098194]
      },
      {
        "species": [{ "element": "Nb", "occu": 1 }],
        "abc": [0.79976212, 0.20008294000000001, 0.80038899],
        "properties": { "magmom": 0.0 },
        "label": "Nb",
        "xyz": [5.006070282605012, 0.8078515556554094, 7.348373544822314]
      },
      {
        "species": [{ "element": "Nb", "occu": 1 }],
        "abc": [0.7042833, 0.79963481, 0.6967133600000001],
        "properties": { "magmom": 0.0 },
        "label": "Nb",
        "xyz": [2.1944979722418614, 5.82431826352073, 6.397832743060655]
      },
      {
        "species": [{ "element": "Nb", "occu": 1 }],
        "abc": [0.40955479, 0.6048393, 0.39889862],
        "properties": { "magmom": 0.0 },
        "label": "Nb",
        "xyz": [0.7830061108341642, 4.538366971552711, 3.663368408983564]
      },
      {
        "species": [{ "element": "Nb", "occu": 1 }],
        "abc": [0.2999898, 0.199366799999999, 0.29189468],
        "properties": { "magmom": 0.0 },
        "label": "Nb",
        "xyz": [1.4415140835318432, 1.3295166568860621, 2.6801872368132362]
      },
      {
        "species": [{ "element": "Nb", "occu": 1 }],
        "abc": [0.89600693, 0.5928946900000001, 0.89991117],
        "properties": { "magmom": 0.0 },
        "label": "Nb",
        "xyz": [4.292866480010199, 3.9208044216095974, 8.262810084291877]
      },
      {
        "species": [{ "element": "Nb", "occu": 1 }],
        "abc": [0.86355554, 0.69585937, 0.39701851],
        "properties": { "magmom": -0.0 },
        "label": "Nb",
        "xyz": [4.059249246771579, 5.285377353682438, 3.648852964830264]
      },
      {
        "species": [{ "element": "Nb", "occu": 1 }],
        "abc": [0.45619895, 0.09034353, 0.99417964],
        "properties": { "magmom": -0.0 },
        "label": "Nb",
        "xyz": [2.522997460433996, -0.2914894759962422, 9.124228905291467]
      },
      {
        "species": [{ "element": "S", "occu": 1 }],
        "abc": [0.07345852, 0.55081178, 0.33033741],
        "properties": { "magmom": 0.0 },
        "label": "S",
        "xyz": [-1.6356589981469558, 4.1672426378314, 3.032329876451913]
      },
      {
        "species": [{ "element": "S", "occu": 1 }],
        "abc": [0.39661703, 0.65102097, 0.13702913],
        "properties": { "magmom": -0.0 },
        "label": "S",
        "xyz": [0.7192283571702472, 5.18806148089376, 1.2607663559968125]
      },
      {
        "species": [{ "element": "S", "occu": 1 }],
        "abc": [0.6701247300000001, 0.94748072, 0.92688492],
        "properties": { "magmom": 0.0 },
        "label": "S",
        "xyz": [1.2185541516365093, 6.796141781943207, 8.509736128787058]
      },
      {
        "species": [{ "element": "S", "occu": 1 }],
        "abc": [0.5690909200000001, 0.54850668, 0.82326482],
        "properties": { "magmom": -0.0 },
        "label": "S",
        "xyz": [1.918920961749829, 3.636985941231509, 7.55766232427722]
      },
      {
        "species": [{ "element": "S", "occu": 1 }],
        "abc": [-0.00290879, 0.05341307, 0.73880586],
        "properties": { "magmom": 0.0 },
        "label": "S",
        "xyz": [-0.7866923960423118, -0.32884768114239726, 6.778549823551801]
      },
      {
        "species": [{ "element": "S", "occu": 1 }],
        "abc": [0.90973291, 0.6492777200000001, 0.64561316],
        "properties": { "magmom": 0.0 },
        "label": "S",
        "xyz": [4.398249827459785, 4.64616149477686, 5.929845857789359]
      },
      {
        "species": [{ "element": "S", "occu": 1 }],
        "abc": [0.27723367, 0.35323128, 0.52273918],
        "properties": { "magmom": -0.0 },
        "label": "S",
        "xyz": [0.5340030511865699, 2.349915682600023, 4.798340962148356]
      },
      {
        "species": [{ "element": "S", "occu": 1 }],
        "abc": [0.16885395, 0.9500353300000001, 0.42757145],
        "properties": { "magmom": -0.0 },
        "label": "S",
        "xyz": [-2.3766541791779363, 7.335066231739917, 3.925781137515806]
      },
      {
        "species": [{ "element": "S", "occu": 1 }],
        "abc": [0.59636411, 0.44346877, 0.328492599999999],
        "properties": { "magmom": -0.0 },
        "label": "S",
        "xyz": [2.8931994411844175, 3.2900645161929467, 3.018125928418021]
      },
      {
        "species": [{ "element": "S", "occu": 1 }],
        "abc": [0.50589423, 0.05076997, 0.24545517],
        "properties": { "magmom": -0.0 },
        "label": "S",
        "xyz": [3.6389852661355433, 0.16093872846419344, 2.254967746115873]
      },
      {
        "species": [{ "element": "S", "occu": 1 }],
        "abc": [0.8698371500000001, 0.750311, 0.12986107],
        "properties": { "magmom": 0.0 },
        "label": "S",
        "xyz": [4.122478910693296, 6.0082595745045975, 1.197859230849633]
      },
      {
        "species": [{ "element": "S", "occu": 1 }],
        "abc": [0.76379649, 0.34554093, 0.03104869],
        "properties": { "magmom": 0.0 },
        "label": "S",
        "xyz": [4.8000654382649515, 2.7966640905819773, 0.2898558951243366]
      },
      {
        "species": [{ "element": "S", "occu": 1 }],
        "abc": [0.18961231, 0.83831864, 0.93195923],
        "properties": { "magmom": -0.0 },
        "label": "S",
        "xyz": [-2.205721489150731, 5.89728911585775, 8.553372479273612]
      },
      {
        "species": [{ "element": "S", "occu": 1 }],
        "abc": [0.09418478, 0.44872695, 0.83978469],
        "properties": { "magmom": -0.0 },
        "label": "S",
        "xyz": [-1.5032092688792975, 2.8030807687082486, 7.70636076785844]
      },
      {
        "species": [{ "element": "S", "occu": 1 }],
        "abc": [0.46705214, 0.14934017, 0.72868055],
        "properties": { "magmom": 0.0 },
        "label": "S",
        "xyz": [2.6049936071076423, 0.4668840506193641, 6.68848518361918]
      },
      {
        "species": [{ "element": "S", "occu": 1 }],
        "abc": [0.37414883, 0.74675622, 0.62789757],
        "properties": { "magmom": -0.0 },
        "label": "S",
        "xyz": [-0.18080112889225775, 5.462862616504765, 5.7644942817185685]
      },
      {
        "species": [{ "element": "S", "occu": 1 }],
        "abc": [0.79829636, 0.25189667, 0.54136459],
        "properties": { "magmom": 0.0 },
        "label": "S",
        "xyz": [5.010967305313823, 1.5007043221917993, 4.97195066957634]
      },
      {
        "species": [{ "element": "S", "occu": 1 }],
        "abc": [0.7029228, 0.8668717300000001, 0.43714996],
        "properties": { "magmom": 0.0 },
        "label": "S",
        "xyz": [2.145721646515942, 6.644009429184183, 4.016496262419335]
      },
      {
        "species": [{ "element": "S", "occu": 1 }],
        "abc": [0.97141349, 0.14905184, 0.22756582],
        "properties": { "magmom": -0.0 },
        "label": "S",
        "xyz": [6.993101504891313, 0.9840038747011519, 2.093648719882926]
      },
      {
        "species": [{ "element": "S", "occu": 1 }],
        "abc": [0.29536787000000003, 0.26337028, 0.031394570000000004],
        "properties": { "magmom": 0.0 },
        "label": "S",
        "xyz": [1.3791260829627587, 2.1237062858031446, 0.29023171115568147]
      }
    ]
  },
  "task_ids": null,
  "uncorrected_energy_per_atom": null,
  "energy_per_atom": -7.7939708840625,
  "formation_energy_per_atom": -1.419506764375,
  "energy_above_hull": 0.0,
  "is_stable": true,
  "equilibrium_reaction_energy_per_atom": null,
  "decomposes_to": null,
  "xas": null,
  "grain_boundaries": null,
  "band_gap": 0.0,
  "cbm": null,
  "vbm": null,
  "efermi": 5.72940448,
  "is_gap_direct": null,
  "is_metal": null,
  "es_source_calc_id": null,
  "bandstructure": null,
  "dos": null,
  "dos_energy_up": null,
  "dos_energy_down": null,
  "is_magnetic": null,
  "ordering": null,
  "total_magnetization": 1.5700000000000002e-5,
  "total_magnetization_normalized_vol": null,
  "total_magnetization_normalized_formula_units": null,
  "num_magnetic_sites": null,
  "num_unique_magnetic_sites": null,
  "types_of_magnetic_species": null,
  "bulk_modulus": null,
  "shear_modulus": null,
  "universal_anisotropy": null,
  "homogeneous_poisson": null,
  "e_total": null,
  "e_ionic": null,
  "e_electronic": null,
  "n": null,
  "e_ij_max": null,
  "weighted_surface_energy_EV_PER_ANG2": null,
  "weighted_surface_energy": null,
  "weighted_work_function": null,
  "surface_anisotropy": null,
  "shape_factor": null,
  "has_reconstructed": null,
  "possible_species": null,
  "has_props": null,
  "theoretical": null,
  "database_IDs": null,
  "fields_not_requested": [
    "builder_meta",
    "nsites",
    "elements",
    "nelements",
    "composition",
    "composition_reduced",
    "chemsys",
    "symmetry",
    "property_name",
    "deprecated",
    "deprecation_reasons",
    "last_updated",
    "origins",
    "warnings",
    "task_ids",
    "uncorrected_energy_per_atom",
    "equilibrium_reaction_energy_per_atom",
    "decomposes_to",
    "xas",
    "grain_boundaries",
    "cbm",
    "vbm",
    "is_gap_direct",
    "is_metal",
    "es_source_calc_id",
    "bandstructure",
    "dos",
    "dos_energy_up",
    "dos_energy_down",
    "is_magnetic",
    "ordering",
    "total_magnetization_normalized_vol",
    "total_magnetization_normalized_formula_units",
    "num_magnetic_sites",
    "num_unique_magnetic_sites",
    "types_of_magnetic_species",
    "bulk_modulus",
    "shear_modulus",
    "universal_anisotropy",
    "homogeneous_poisson",
    "e_total",
    "e_ionic",
    "e_electronic",
    "n",
    "e_ij_max",
    "weighted_surface_energy_EV_PER_ANG2",
    "weighted_surface_energy",
    "weighted_work_function",
    "surface_anisotropy",
    "shape_factor",
    "has_reconstructed",
    "possible_species",
    "has_props",
    "theoretical",
    "database_IDs"
  ]
}
