{
  "builder_meta": null,
  "nsites": null,
  "elements": null,
  "nelements": null,
  "composition": null,
  "composition_reduced": null,
  "formula_pretty": "Nb3Tl",
  "formula_anonymous": "AB3",
  "chemsys": null,
  "volume": 154.25066143022502,
  "density": 10.401387810614487,
  "density_atomic": 19.281332678778128,
  "symmetry": null,
  "property_name": null,
  "material_id": "mp-569366",
  "deprecated": null,
  "deprecation_reasons": null,
  "last_updated": null,
  "origins": null,
  "warnings": null,
  "structure": {
    "@module": "pymatgen.core.structure",
    "@class": "Structure",
    "charge": 0,
    "lattice": {
      "matrix": [
        [5.363015, 0.0, 0.0],
        [0.0, 5.363015, 0.0],
        [0.0, 0.0, 5.363015]
      ],
      "pbc": [true, true, true],
      "a": 5.363015,
      "b": 5.363015,
      "c": 5.363015,
      "alpha": 90.0,
      "beta": 90.0,
      "gamma": 90.0,
      "volume": 154.25066143022502
    },
    "properties": {},
    "sites": [
      {
        "species": [{ "element": "Nb", "occu": 1 }],
        "abc": [0.5, 0.75, 0.0],
        "properties": { "magmom": -0.002 },
        "label": "Nb",
        "xyz": [2.6815075, 4.02226125, 0.0]
      },
      {
        "species": [{ "element": "Nb", "occu": 1 }],
        "abc": [0.0, 0.5, 0.75],
        "properties": { "magmom": -0.003 },
        "label": "Nb",
        "xyz": [0.0, 2.6815075, 4.02226125]
      },
      {
        "species": [{ "element": "Nb", "occu": 1 }],
        "abc": [0.5, 0.25, 0.0],
        "properties": { "magmom": 0.001 },
        "label": "Nb",
        "xyz": [2.6815075, 1.34075375, 0.0]
      },
      {
        "species": [{ "element": "Nb", "occu": 1 }],
        "abc": [0.0, 0.5, 0.25],
        "properties": { "magmom": 0.006 },
        "label": "Nb",
        "xyz": [0.0, 2.6815075, 1.34075375]
      },
      {
        "species": [{ "element": "Nb", "occu": 1 }],
        "abc": [0.25, 0.0, 0.5],
        "properties": { "magmom": 0.001 },
        "label": "Nb",
        "xyz": [1.34075375, 0.0, 2.6815075]
      },
      {
        "species": [{ "element": "Nb", "occu": 1 }],
        "abc": [0.75, 0.0, 0.5],
        "properties": { "magmom": -0.003 },
        "label": "Nb",
        "xyz": [4.02226125, 0.0, 2.6815075]
      },
      {
        "species": [{ "element": "Tl", "occu": 1 }],
        "abc": [0.5, 0.5, 0.5],
        "properties": { "magmom": -0.0 },
        "label": "Tl",
        "xyz": [2.6815075, 2.6815075, 2.6815075]
      },
      {
        "species": [{ "element": "Tl", "occu": 1 }],
        "abc": [0.0, 0.0, 0.0],
        "properties": { "magmom": 0.0 },
        "label": "Tl",
        "xyz": [0.0, 0.0, 0.0]
      }
    ]
  },
  "task_ids": null,
  "uncorrected_energy_per_atom": null,
  "energy_per_atom": -31.63705280958333,
  "formation_energy_per_atom": 0.208329322916668,
  "energy_above_hull": 0.208329322916668,
  "is_stable": false,
  "equilibrium_reaction_energy_per_atom": null,
  "decomposes_to": null,
  "xas": null,
  "grain_boundaries": null,
  "band_gap": 0.0,
  "cbm": null,
  "vbm": null,
  "efermi": 6.33221161,
  "is_gap_direct": null,
  "is_metal": null,
  "es_source_calc_id": null,
  "bandstructure": null,
  "dos": null,
  "dos_energy_up": null,
  "dos_energy_down": null,
  "is_magnetic": null,
  "ordering": null,
  "total_magnetization": 2.9100000000000003e-5,
  "total_magnetization_normalized_vol": null,
  "total_magnetization_normalized_formula_units": null,
  "num_magnetic_sites": null,
  "num_unique_magnetic_sites": null,
  "types_of_magnetic_species": null,
  "bulk_modulus": null,
  "shear_modulus": null,
  "universal_anisotropy": null,
  "homogeneous_poisson": null,
  "e_total": null,
  "e_ionic": null,
  "e_electronic": null,
  "n": null,
  "e_ij_max": null,
  "weighted_surface_energy_EV_PER_ANG2": null,
  "weighted_surface_energy": null,
  "weighted_work_function": null,
  "surface_anisotropy": null,
  "shape_factor": null,
  "has_reconstructed": null,
  "possible_species": null,
  "has_props": null,
  "theoretical": null,
  "database_IDs": null,
  "fields_not_requested": [
    "builder_meta",
    "nsites",
    "elements",
    "nelements",
    "composition",
    "composition_reduced",
    "chemsys",
    "symmetry",
    "property_name",
    "deprecated",
    "deprecation_reasons",
    "last_updated",
    "origins",
    "warnings",
    "task_ids",
    "uncorrected_energy_per_atom",
    "equilibrium_reaction_energy_per_atom",
    "decomposes_to",
    "xas",
    "grain_boundaries",
    "cbm",
    "vbm",
    "is_gap_direct",
    "is_metal",
    "es_source_calc_id",
    "bandstructure",
    "dos",
    "dos_energy_up",
    "dos_energy_down",
    "is_magnetic",
    "ordering",
    "total_magnetization_normalized_vol",
    "total_magnetization_normalized_formula_units",
    "num_magnetic_sites",
    "num_unique_magnetic_sites",
    "types_of_magnetic_species",
    "bulk_modulus",
    "shear_modulus",
    "universal_anisotropy",
    "homogeneous_poisson",
    "e_total",
    "e_ionic",
    "e_electronic",
    "n",
    "e_ij_max",
    "weighted_surface_energy_EV_PER_ANG2",
    "weighted_surface_energy",
    "weighted_work_function",
    "surface_anisotropy",
    "shape_factor",
    "has_reconstructed",
    "possible_species",
    "has_props",
    "theoretical",
    "database_IDs"
  ]
}
