{"builder_meta": null, "nsites": null, "elements": null, "nelements": null, "composition": null, "composition_reduced": null, "formula_pretty": "Nb3Te4", "formula_anonymous": "A3B4", "chemsys": null, "volume": 373.60034419200065, "density": 7.014785615392115, "density_atomic": 26.68573887085719, "symmetry": null, "property_name": null, "material_id": "mp-7564", "deprecated": null, "deprecation_reasons": null, "last_updated": null, "origins": null, "warnings": null, "structure": {"@module": "pymatgen.core.structure", "@class": "Structure", "charge": 0, "lattice": {"matrix": [[10.83890677, -0.006026699999999, 0.0], [-5.41453376, 9.38922051, 0.0], [0.0, 0.0, 3.67224396]], "pbc": [true, true, true], "a": 10.838908445496932, "b": 10.838571752015318, "c": 3.67224396, "alpha": 90.0, "beta": 90.0, "gamma": 120.00285482478952, "volume": 373.60034419200065}, "properties": {}, "sites": [{"species": [{"element": "Nb", "occu": 1}], "abc": [0.48828717, 0.10075182, 0.25], "properties": {"magmom": 0.0}, "label": "Nb", "xyz": [4.746974981845698, 0.9430382944763896, 0.91806099]}, {"species": [{"element": "Nb", "occu": 1}], "abc": [0.38753575, 0.48828448, 0.75], "properties": {"magmom": 0.0}, "label": "Nb", "xyz": [1.5566310628479822, 4.58227509262616, 2.75418297]}, {"species": [{"element": "Nb", "occu": 1}], "abc": [0.10075863, 0.61246598, 0.75], "properties": {"magmom": -0.0}, "label": "Nb", "xyz": [-2.2241043287185596, 5.749970899057828, 2.75418297]}, {"species": [{"element": "Nb", "occu": 1}], "abc": [0.89924137, 0.38753402000000003, 0.25], "properties": {"magmom": -0.0}, "label": "Nb", "xyz": [7.64847733871856, 3.6332229109421723, 0.91806099]}, {"species": [{"element": "Nb", "occu": 1}], "abc": [0.61246425, 0.51171552, 0.25], "properties": {"magmom": 0.0}, "label": "Nb", "xyz": [3.867741947152018, 4.800918717373841, 0.91806099]}, {"species": [{"element": "Nb", "occu": 1}], "abc": [0.51171283, 0.8992481800000001, 0.75], "properties": {"magmom": 0.0}, "label": "Nb", "xyz": [0.6773980281543013, 8.440155515523612, 2.75418297]}, {"species": [{"element": "Te", "occu": 1}], "abc": [0.6666679600000001, 0.33332394, 0.75], "properties": {"magmom": -0.0}, "label": "Te", "xyz": [5.421158138839875, 3.125634166127478, 2.75418297]}, {"species": [{"element": "Te", "occu": 1}], "abc": [0.33333204, 0.66667606, 0.25], "properties": {"magmom": -0.0}, "label": "Te", "xyz": [0.003214871160124755, 6.257559643872523, 0.91806099]}, {"species": [{"element": "Te", "occu": 1}], "abc": [0.33806312, 0.27401974, 0.25], "properties": {"magmom": -0.0}, "label": "Te", "xyz": [2.1805455069188993, 2.570794357947564, 0.91806099]}, {"species": [{"element": "Te", "occu": 1}], "abc": [0.06403162, 0.33807357, 0.75], "properties": {"magmom": -0.0}, "label": "Te", "xyz": [-1.1364779986166558, 3.1738613979686665, 2.75418297]}, {"species": [{"element": "Te", "occu": 1}], "abc": [0.27404065, 0.9359710800000001, 0.75], "properties": {"magmom": -0.0}, "label": "Te", "xyz": [-2.0975459545034614, 8.786387300317497, 2.75418297]}, {"species": [{"element": "Te", "occu": 1}], "abc": [0.72595935, 0.06402892, 0.25], "properties": {"magmom": -0.0}, "label": "Te", "xyz": [7.52191896450346, 0.5968065096825049, 0.91806099]}, {"species": [{"element": "Te", "occu": 1}], "abc": [0.93596838, 0.6619264300000001, 0.25], "properties": {"magmom": -0.0}, "label": "Te", "xyz": [6.5608510086166545, 6.209332412031334, 0.91806099]}, {"species": [{"element": "Te", "occu": 1}], "abc": [0.6619368800000001, 0.72598026, 0.75], "properties": {"magmom": -0.0}, "label": "Te", "xyz": [3.2438275030811003, 6.812399452052437, 2.75418297]}]}, "task_ids": null, "uncorrected_energy_per_atom": null, "energy_per_atom": -6.828285532857145, "formation_energy_per_atom": -0.702980005238097, "energy_above_hull": 0.0, "is_stable": true, "equilibrium_reaction_energy_per_atom": null, "decomposes_to": null, "xas": null, "grain_boundaries": null, "band_gap": 0.0, "cbm": null, "vbm": null, "efermi": 6.09661013, "is_gap_direct": null, "is_metal": null, "es_source_calc_id": null, "bandstructure": null, "dos": null, "dos_energy_up": null, "dos_energy_down": null, "is_magnetic": null, "ordering": null, "total_magnetization": 0.0, "total_magnetization_normalized_vol": null, "total_magnetization_normalized_formula_units": null, "num_magnetic_sites": null, "num_unique_magnetic_sites": null, "types_of_magnetic_species": null, "bulk_modulus": null, "shear_modulus": null, "universal_anisotropy": null, "homogeneous_poisson": null, "e_total": null, "e_ionic": null, "e_electronic": null, "n": null, "e_ij_max": null, "weighted_surface_energy_EV_PER_ANG2": null, "weighted_surface_energy": null, "weighted_work_function": null, "surface_anisotropy": null, "shape_factor": null, "has_reconstructed": null, "possible_species": null, "has_props": null, "theoretical": null, "database_IDs": null, "fields_not_requested": ["builder_meta", "nsites", "elements", "nelements", "composition", "composition_reduced", "chemsys", "symmetry", "property_name", "deprecated", "deprecation_reasons", "last_updated", "origins", "warnings", "task_ids", "uncorrected_energy_per_atom", "equilibrium_reaction_energy_per_atom", "decomposes_to", "xas", "grain_boundaries", "cbm", "vbm", "is_gap_direct", "is_metal", "es_source_calc_id", "bandstructure", "dos", "dos_energy_up", "dos_energy_down", "is_magnetic", "ordering", "total_magnetization_normalized_vol", "total_magnetization_normalized_formula_units", "num_magnetic_sites", "num_unique_magnetic_sites", "types_of_magnetic_species", "bulk_modulus", "shear_modulus", "universal_anisotropy", "homogeneous_poisson", "e_total", "e_ionic", "e_electronic", "n", "e_ij_max", "weighted_surface_energy_EV_PER_ANG2", "weighted_surface_energy", "weighted_work_function", "surface_anisotropy", "shape_factor", "has_reconstructed", "possible_species", "has_props", "theoretical", "database_IDs"]}