{"builder_meta": null, "nsites": null, "elements": null, "nelements": null, "composition": null, "composition_reduced": null, "formula_pretty": "Nb4Al", "formula_anonymous": "AB4", "chemsys": null, "volume": 89.38495403709868, "density": 7.405078406742782, "density_atomic": 17.876990807419737, "symmetry": null, "property_name": null, "material_id": "mp-1220481", "deprecated": null, "deprecation_reasons": null, "last_updated": null, "origins": null, "warnings": null, "structure": {"@module": "pymatgen.core.structure", "@class": "Structure", "charge": 0, "lattice": {"matrix": [[0.0, 2.259205, 11.55108], [1.712600999999999, 0.0, 11.55108], [1.712600999999999, 2.259205, 0.0]], "pbc": [true, true, true], "a": 11.769938674369762, "b": 11.677347787558654, "c": 2.834961978091769, "alpha": 84.91707884269253, "beta": 81.20125355911725, "gamma": 13.881667598190218, "volume": 89.38495403709862}, "properties": {}, "sites": [{"species": [{"element": "Nb", "occu": 1}], "abc": [0.404142, 0.404142, 0.595858], "properties": {"magmom": -0.0}, "label": "Nb", "xyz": [1.712600999999999, 2.259205, 9.33655314672]}, {"species": [{"element": "Nb", "occu": 1}], "abc": [0.800705, 0.800705, 0.199295], "properties": {"magmom": 0.001}, "label": "Nb", "xyz": [1.712600999999999, 2.259205, 18.4980150228]}, {"species": [{"element": "Nb", "occu": 1}], "abc": [0.199295, 0.199295, 0.800705], "properties": {"magmom": 0.001}, "label": "Nb", "xyz": [1.712600999999999, 2.259205, 4.604144977200001]}, {"species": [{"element": "Nb", "occu": 1}], "abc": [0.595858, 0.595858, 0.404142], "properties": {"magmom": -0.0}, "label": "Nb", "xyz": [1.712600999999999, 2.259205, 13.765606853280001]}, {"species": [{"element": "Al", "occu": 1}], "abc": [0.0, 0.0, 0.0], "properties": {"magmom": 0.0}, "label": "Al", "xyz": [0.0, 0.0, 0.0]}]}, "task_ids": null, "uncorrected_energy_per_atom": null, "energy_per_atom": -21.236708156200002, "formation_energy_per_atom": -0.10302877020000001, "energy_above_hull": 0.10445434519999701, "is_stable": false, "equilibrium_reaction_energy_per_atom": null, "decomposes_to": null, "xas": null, "grain_boundaries": null, "band_gap": 0.0, "cbm": null, "vbm": null, "efermi": 5.63181939, "is_gap_direct": null, "is_metal": null, "es_source_calc_id": null, "bandstructure": null, "dos": null, "dos_energy_up": null, "dos_energy_down": null, "is_magnetic": null, "ordering": null, "total_magnetization": 0.0032908, "total_magnetization_normalized_vol": null, "total_magnetization_normalized_formula_units": null, "num_magnetic_sites": null, "num_unique_magnetic_sites": null, "types_of_magnetic_species": null, "bulk_modulus": null, "shear_modulus": null, "universal_anisotropy": null, "homogeneous_poisson": null, "e_total": null, "e_ionic": null, "e_electronic": null, "n": null, "e_ij_max": null, "weighted_surface_energy_EV_PER_ANG2": null, "weighted_surface_energy": null, "weighted_work_function": null, "surface_anisotropy": null, "shape_factor": null, "has_reconstructed": null, "possible_species": null, "has_props": null, "theoretical": null, "database_IDs": null, "fields_not_requested": ["builder_meta", "nsites", "elements", "nelements", "composition", "composition_reduced", "chemsys", "symmetry", "property_name", "deprecated", "deprecation_reasons", "last_updated", "origins", "warnings", "task_ids", "uncorrected_energy_per_atom", "equilibrium_reaction_energy_per_atom", "decomposes_to", "xas", "grain_boundaries", "cbm", "vbm", "is_gap_direct", "is_metal", "es_source_calc_id", "bandstructure", "dos", "dos_energy_up", "dos_energy_down", "is_magnetic", "ordering", "total_magnetization_normalized_vol", "total_magnetization_normalized_formula_units", "num_magnetic_sites", "num_unique_magnetic_sites", "types_of_magnetic_species", "bulk_modulus", "shear_modulus", "universal_anisotropy", "homogeneous_poisson", "e_total", "e_ionic", "e_electronic", "n", "e_ij_max", "weighted_surface_energy_EV_PER_ANG2", "weighted_surface_energy", "weighted_work_function", "surface_anisotropy", "shape_factor", "has_reconstructed", "possible_species", "has_props", "theoretical", "database_IDs"]}