{"builder_meta": null, "nsites": null, "elements": null, "nelements": null, "composition": null, "composition_reduced": null, "formula_pretty": "Nb4C3", "formula_anonymous": "A3B4", "chemsys": null, "volume": 88.9250815667437, "density": 7.612378778636251, "density_atomic": 12.703583080963385, "symmetry": null, "property_name": null, "material_id": "mp-1220515", "deprecated": null, "deprecation_reasons": null, "last_updated": null, "origins": null, "warnings": null, "structure": {"@module": "pymatgen.core.structure", "@class": "Structure", "charge": 0, "lattice": {"matrix": [[10.3115147, -1.5809190100000001, -0.00243217], [10.3115147, 1.5809190100000001, -0.00243217], [10.06977795, -0.0, 2.725108709999999]], "pbc": [true, true, true], "a": 10.432001065948295, "b": 10.432001065948295, "c": 10.432001027781011, "alpha": 17.43296108288596, "beta": 17.43296108288596, "gamma": 17.432960031624795, "volume": 88.92508156674367}, "properties": {}, "sites": [{"species": [{"element": "Nb", "occu": 1}], "abc": [0.62282045, 0.62282045, 0.62282045], "properties": {"magmom": 0.0}, "label": "Nb", "xyz": [19.116108085490307, 0.0, 1.6942238226333657]}, {"species": [{"element": "Nb", "occu": 1}], "abc": [0.37717955000000003, 0.37717955000000003, 0.37717955000000003], "properties": {"magmom": 0.0}, "label": "Nb", "xyz": [11.576699264509694, 0.0, 1.0260205473666333]}, {"species": [{"element": "Nb", "occu": 1}], "abc": [0.87542343, 0.87542343, 0.87542343], "properties": {"magmom": -0.0}, "label": "Nb", "xyz": [26.869202686666213, 0.0, 2.381365656823588]}, {"species": [{"element": "Nb", "occu": 1}], "abc": [0.12457657, 0.12457657, 0.12457657], "properties": {"magmom": -0.0}, "label": "Nb", "xyz": [3.8236046633337892, 0.0, 0.3388787131764108]}, {"species": [{"element": "C", "occu": 1}], "abc": [0.75270161, 0.75270161, 0.75270161], "properties": {"magmom": 0.0}, "label": "C", "xyz": [23.102525507764835, 0.0, 2.047532316892435]}, {"species": [{"element": "C", "occu": 1}], "abc": [-0.0, -0.0, 0.0], "properties": {"magmom": -0.0}, "label": "C", "xyz": [0.0, 0.0, 0.0]}, {"species": [{"element": "C", "occu": 1}], "abc": [0.24729839, 0.24729839, 0.24729839], "properties": {"magmom": 0.0}, "label": "C", "xyz": [7.590281842235167, 0.0, 0.672712053107564]}]}, "task_ids": null, "uncorrected_energy_per_atom": null, "energy_per_atom": -10.200968132857144, "formation_energy_per_atom": -0.47365147035714406, "energy_above_hull": 0.054110071428569, "is_stable": false, "equilibrium_reaction_energy_per_atom": null, "decomposes_to": null, "xas": null, "grain_boundaries": null, "band_gap": 0.0, "cbm": null, "vbm": null, "efermi": 6.40928096, "is_gap_direct": null, "is_metal": null, "es_source_calc_id": null, "bandstructure": null, "dos": null, "dos_energy_up": null, "dos_energy_down": null, "is_magnetic": null, "ordering": null, "total_magnetization": 1e-07, "total_magnetization_normalized_vol": null, "total_magnetization_normalized_formula_units": null, "num_magnetic_sites": null, "num_unique_magnetic_sites": null, "types_of_magnetic_species": null, "bulk_modulus": null, "shear_modulus": null, "universal_anisotropy": null, "homogeneous_poisson": null, "e_total": null, "e_ionic": null, "e_electronic": null, "n": null, "e_ij_max": null, "weighted_surface_energy_EV_PER_ANG2": null, "weighted_surface_energy": null, "weighted_work_function": null, "surface_anisotropy": null, "shape_factor": null, "has_reconstructed": null, "possible_species": null, "has_props": null, "theoretical": null, "database_IDs": null, "fields_not_requested": ["builder_meta", "nsites", "elements", "nelements", "composition", "composition_reduced", "chemsys", "symmetry", "property_name", "deprecated", "deprecation_reasons", "last_updated", "origins", "warnings", "task_ids", "uncorrected_energy_per_atom", "equilibrium_reaction_energy_per_atom", "decomposes_to", "xas", "grain_boundaries", "cbm", "vbm", "is_gap_direct", "is_metal", "es_source_calc_id", "bandstructure", "dos", "dos_energy_up", "dos_energy_down", "is_magnetic", "ordering", "total_magnetization_normalized_vol", "total_magnetization_normalized_formula_units", "num_magnetic_sites", "num_unique_magnetic_sites", "types_of_magnetic_species", "bulk_modulus", "shear_modulus", "universal_anisotropy", "homogeneous_poisson", "e_total", "e_ionic", "e_electronic", "n", "e_ij_max", "weighted_surface_energy_EV_PER_ANG2", "weighted_surface_energy", "weighted_work_function", "surface_anisotropy", "shape_factor", "has_reconstructed", "possible_species", "has_props", "theoretical", "database_IDs"]}