{"builder_meta": null, "nsites": null, "elements": null, "nelements": null, "composition": null, "composition_reduced": null, "formula_pretty": "Nb4N5", "formula_anonymous": "A4B5", "chemsys": null, "volume": 103.67595399011233, "density": 7.073887710704981, "density_atomic": 11.519550443345814, "symmetry": null, "property_name": null, "material_id": "mp-7927", "deprecated": null, "deprecation_reasons": null, "last_updated": null, "origins": null, "warnings": null, "structure": {"@module": "pymatgen.core.structure", "@class": "Structure", "charge": 0, "lattice": {"matrix": [[3.94317388, -0.0, 1.74361625], [1.9706239600000002, 4.90372358, 0.87398531], [-0.01154261, -0.00237996, 5.35663945]], "pbc": [true, true, true], "a": 4.311475139111707, "b": 5.356651385228452, "c": 5.3566524148344286, "alpha": 80.67937555575134, "beta": 66.26912164666902, "gamma": 66.26911994076072, "volume": 103.67595399011233}, "properties": {}, "sites": [{"species": [{"element": "Nb", "occu": 1}], "abc": [0.60510377, 0.17801938, 0.61177207], "properties": {"magmom": 0.0}, "label": "Nb", "xyz": [2.7297771897129697, 0.8715018383472632, 4.487697493893732]}, {"species": [{"element": "Nb", "occu": 1}], "abc": [0.21687684000000002, 0.38822793, 0.17801938], "properties": {"magmom": 0.0}, "label": "Nb", "xyz": [1.6181795431883603, 1.9033387757519649, 1.6710411239968996]}, {"species": [{"element": "Nb", "occu": 1}], "abc": [0.78312316, 0.61177207, 0.82198062], "properties": {"magmom": 0.0}, "label": "Nb", "xyz": [4.284075686811639, 2.9980048442480354, 6.303199886003101]}, {"species": [{"element": "Nb", "occu": 1}], "abc": [0.39489623, 0.82198062, 0.38822793], "properties": {"magmom": 0.0}, "label": "Nb", "xyz": [3.1724780402870305, 4.029841781652737, 3.4865435161062686]}, {"species": [{"element": "N", "occu": 1}], "abc": [0.5, 0.0, -0.0], "properties": {"magmom": -0.0}, "label": "N", "xyz": [1.97158694, 0.0, 0.871808125]}, {"species": [{"element": "N", "occu": 1}], "abc": [0.90740444, 0.78452876, 0.40066235], "properties": {"magmom": -0.0}, "label": "N", "xyz": [5.119439968921383, 3.846158619233655, 4.4140354885583735]}, {"species": [{"element": "N", "occu": 1}], "abc": [0.30806679, 0.59933765, 0.78452876], "properties": {"magmom": -0.0}, "label": "N", "xyz": [2.386774543333076, 2.937119019619138, 5.263400268434841]}, {"species": [{"element": "N", "occu": 1}], "abc": [0.69193321, 0.40066235, 0.21547124], "properties": {"magmom": -0.0}, "label": "N", "xyz": [3.515480686666924, 1.9642246003808628, 2.710840741565159]}, {"species": [{"element": "N", "occu": 1}], "abc": [0.09259556000000001, 0.21547124, 0.59933765], "properties": {"magmom": -0.0}, "label": "N", "xyz": [0.7828152610786168, 1.0551850007663452, 3.560205521441627]}]}, "task_ids": null, "uncorrected_energy_per_atom": null, "energy_per_atom": -17.184654944444443, "formation_energy_per_atom": -1.120204727083331, "energy_above_hull": 0.031857427361110004, "is_stable": false, "equilibrium_reaction_energy_per_atom": null, "decomposes_to": null, "xas": null, "grain_boundaries": null, "band_gap": 0.0, "cbm": null, "vbm": null, "efermi": 6.48741957, "is_gap_direct": null, "is_metal": null, "es_source_calc_id": null, "bandstructure": null, "dos": null, "dos_energy_up": null, "dos_energy_down": null, "is_magnetic": null, "ordering": null, "total_magnetization": 0.0, "total_magnetization_normalized_vol": null, "total_magnetization_normalized_formula_units": null, "num_magnetic_sites": null, "num_unique_magnetic_sites": null, "types_of_magnetic_species": null, "bulk_modulus": null, "shear_modulus": null, "universal_anisotropy": null, "homogeneous_poisson": null, "e_total": null, "e_ionic": null, "e_electronic": null, "n": null, "e_ij_max": null, "weighted_surface_energy_EV_PER_ANG2": null, "weighted_surface_energy": null, "weighted_work_function": null, "surface_anisotropy": null, "shape_factor": null, "has_reconstructed": null, "possible_species": null, "has_props": null, "theoretical": null, "database_IDs": null, "fields_not_requested": ["builder_meta", "nsites", "elements", "nelements", "composition", "composition_reduced", "chemsys", "symmetry", "property_name", "deprecated", "deprecation_reasons", "last_updated", "origins", "warnings", "task_ids", "uncorrected_energy_per_atom", "equilibrium_reaction_energy_per_atom", "decomposes_to", "xas", "grain_boundaries", "cbm", "vbm", "is_gap_direct", "is_metal", "es_source_calc_id", "bandstructure", "dos", "dos_energy_up", "dos_energy_down", "is_magnetic", "ordering", "total_magnetization_normalized_vol", "total_magnetization_normalized_formula_units", "num_magnetic_sites", "num_unique_magnetic_sites", "types_of_magnetic_species", "bulk_modulus", "shear_modulus", "universal_anisotropy", "homogeneous_poisson", "e_total", "e_ionic", "e_electronic", "n", "e_ij_max", "weighted_surface_energy_EV_PER_ANG2", "weighted_surface_energy", "weighted_work_function", "surface_anisotropy", "shape_factor", "has_reconstructed", "possible_species", "has_props", "theoretical", "database_IDs"]}