{"builder_meta": null, "nsites": null, "elements": null, "nelements": null, "composition": null, "composition_reduced": null, "formula_pretty": "Nb4N3", "formula_anonymous": "A3B4", "chemsys": null, "volume": 85.45369441366209, "density": 8.037975613002434, "density_atomic": 12.207670630523156, "symmetry": null, "property_name": null, "material_id": "mp-569167", "deprecated": null, "deprecation_reasons": null, "last_updated": null, "origins": null, "warnings": null, "structure": {"@module": "pymatgen.core.structure", "@class": "Structure", "charge": 0, "lattice": {"matrix": [[-2.214605, 2.214605, 4.355904], [2.214605, -2.214605, 4.355904], [2.214605, 2.214605, -4.355904]], "pbc": [true, true, true], "a": 5.364965076239173, "b": 5.364965076239173, "c": 5.364965076239173, "alpha": 131.2395366862262, "beta": 131.2395366862262, "gamma": 71.43278081894383, "volume": 85.45369441366209}, "properties": {}, "sites": [{"species": [{"element": "Nb", "occu": 1}], "abc": [0.0, 0.5, 0.5], "properties": {"magmom": 0.0}, "label": "Nb", "xyz": [2.214605, 0.0, 0.0]}, {"species": [{"element": "Nb", "occu": 1}], "abc": [0.746122, 0.746122, 0.0], "properties": {"magmom": -0.0}, "label": "Nb", "xyz": [0.0, 0.0, 6.5000716085759995]}, {"species": [{"element": "Nb", "occu": 1}], "abc": [0.253878, 0.253878, 0.0], "properties": {"magmom": -0.0}, "label": "Nb", "xyz": [0.0, 0.0, 2.211736391424]}, {"species": [{"element": "Nb", "occu": 1}], "abc": [0.5, 0.0, 0.5], "properties": {"magmom": 0.001}, "label": "Nb", "xyz": [0.0, 2.214605, 0.0]}, {"species": [{"element": "N", "occu": 1}], "abc": [0.25, 0.75, 0.5], "properties": {"magmom": -0.0}, "label": "N", "xyz": [2.2146049999999997, 2.220446049250313e-16, 2.177952]}, {"species": [{"element": "N", "occu": 1}], "abc": [0.75, 0.25, 0.5], "properties": {"magmom": -0.0}, "label": "N", "xyz": [2.220446049250313e-16, 2.2146049999999997, 2.177952]}, {"species": [{"element": "N", "occu": 1}], "abc": [0.0, 0.0, 0.0], "properties": {"magmom": -0.0}, "label": "N", "xyz": [0.0, 0.0, 0.0]}]}, "task_ids": null, "uncorrected_energy_per_atom": null, "energy_per_atom": -19.11037582666666, "formation_energy_per_atom": -1.06429716755952, "energy_above_hull": 0.06939945571429, "is_stable": false, "equilibrium_reaction_energy_per_atom": null, "decomposes_to": null, "xas": null, "grain_boundaries": null, "band_gap": 0.0, "cbm": null, "vbm": null, "efermi": 7.43176564, "is_gap_direct": null, "is_metal": null, "es_source_calc_id": null, "bandstructure": null, "dos": null, "dos_energy_up": null, "dos_energy_down": null, "is_magnetic": null, "ordering": null, "total_magnetization": 0.002854299999999, "total_magnetization_normalized_vol": null, "total_magnetization_normalized_formula_units": null, "num_magnetic_sites": null, "num_unique_magnetic_sites": null, "types_of_magnetic_species": null, "bulk_modulus": null, "shear_modulus": null, "universal_anisotropy": null, "homogeneous_poisson": null, "e_total": null, "e_ionic": null, "e_electronic": null, "n": null, "e_ij_max": null, "weighted_surface_energy_EV_PER_ANG2": null, "weighted_surface_energy": null, "weighted_work_function": null, "surface_anisotropy": null, "shape_factor": null, "has_reconstructed": null, "possible_species": null, "has_props": null, "theoretical": null, "database_IDs": null, "fields_not_requested": ["builder_meta", "nsites", "elements", "nelements", "composition", "composition_reduced", "chemsys", "symmetry", "property_name", "deprecated", "deprecation_reasons", "last_updated", "origins", "warnings", "task_ids", "uncorrected_energy_per_atom", "equilibrium_reaction_energy_per_atom", "decomposes_to", "xas", "grain_boundaries", "cbm", "vbm", "is_gap_direct", "is_metal", "es_source_calc_id", "bandstructure", "dos", "dos_energy_up", "dos_energy_down", "is_magnetic", "ordering", "total_magnetization_normalized_vol", "total_magnetization_normalized_formula_units", "num_magnetic_sites", "num_unique_magnetic_sites", "types_of_magnetic_species", "bulk_modulus", "shear_modulus", "universal_anisotropy", "homogeneous_poisson", "e_total", "e_ionic", "e_electronic", "n", "e_ij_max", "weighted_surface_energy_EV_PER_ANG2", "weighted_surface_energy", "weighted_work_function", "surface_anisotropy", "shape_factor", "has_reconstructed", "possible_species", "has_props", "theoretical", "database_IDs"]}