{"builder_meta": null, "nsites": null, "elements": null, "nelements": null, "composition": null, "composition_reduced": null, "formula_pretty": "Nb4Pd", "formula_anonymous": "AB4", "chemsys": null, "volume": 87.7490213187004, "density": 9.04640587032895, "density_atomic": 17.54980426374008, "symmetry": null, "property_name": null, "material_id": "mp-1220401", "deprecated": null, "deprecation_reasons": null, "last_updated": null, "origins": null, "warnings": null, "structure": {"@module": "pymatgen.core.structure", "@class": "Structure", "charge": 0, "lattice": {"matrix": [[-0.0, 2.22822411, 11.4926352], [1.7133015, -0.0, 11.4926352], [1.7133015, 2.22822411, 0.0]], "pbc": [true, true, true], "a": 11.70664967121953, "b": 11.619641383028192, "c": 2.810762301278346, "alpha": 84.84344303832115, "beta": 81.32148230180692, "gamma": 13.835074659871902, "volume": 87.74902131870041}, "properties": {}, "sites": [{"species": [{"element": "Nb", "occu": 1}], "abc": [0.40512314, 0.40512314, 0.5948768600000001], "properties": {"magmom": 0.0}, "label": "Nb", "xyz": [1.7133015, 2.22822411, 9.311864918197056]}, {"species": [{"element": "Nb", "occu": 1}], "abc": [0.80253474, 0.80253474, 0.19746526], "properties": {"magmom": 0.0}, "label": "Nb", "xyz": [1.7133015, 2.22822411, 18.4464780042937]}, {"species": [{"element": "Nb", "occu": 1}], "abc": [0.19746526, 0.19746526, 0.80253474], "properties": {"magmom": 0.0}, "label": "Nb", "xyz": [1.7133015, 2.22822411, 4.538792395706304]}, {"species": [{"element": "Nb", "occu": 1}], "abc": [0.5948768600000001, 0.5948768600000001, 0.40512314], "properties": {"magmom": 0.0}, "label": "Nb", "xyz": [1.7133015, 2.22822411, 13.673405481802947]}, {"species": [{"element": "Pd", "occu": 1}], "abc": [0.0, 0.0, -0.0], "properties": {"magmom": 0.0}, "label": "Pd", "xyz": [0.0, 0.0, 0.0]}]}, "task_ids": null, "uncorrected_energy_per_atom": null, "energy_per_atom": -24.494971748, "formation_energy_per_atom": -0.11562130599999901, "energy_above_hull": 0.021967692, "is_stable": false, "equilibrium_reaction_energy_per_atom": null, "decomposes_to": null, "xas": null, "grain_boundaries": null, "band_gap": 0.0, "cbm": null, "vbm": null, "efermi": 5.23863416, "is_gap_direct": null, "is_metal": null, "es_source_calc_id": null, "bandstructure": null, "dos": null, "dos_energy_up": null, "dos_energy_down": null, "is_magnetic": null, "ordering": null, "total_magnetization": 3e-07, "total_magnetization_normalized_vol": null, "total_magnetization_normalized_formula_units": null, "num_magnetic_sites": null, "num_unique_magnetic_sites": null, "types_of_magnetic_species": null, "bulk_modulus": null, "shear_modulus": null, "universal_anisotropy": null, "homogeneous_poisson": null, "e_total": null, "e_ionic": null, "e_electronic": null, "n": null, "e_ij_max": null, "weighted_surface_energy_EV_PER_ANG2": null, "weighted_surface_energy": null, "weighted_work_function": null, "surface_anisotropy": null, "shape_factor": null, "has_reconstructed": null, "possible_species": null, "has_props": null, "theoretical": null, "database_IDs": null, "fields_not_requested": ["builder_meta", "nsites", "elements", "nelements", "composition", "composition_reduced", "chemsys", "symmetry", "property_name", "deprecated", "deprecation_reasons", "last_updated", "origins", "warnings", "task_ids", "uncorrected_energy_per_atom", "equilibrium_reaction_energy_per_atom", "decomposes_to", "xas", "grain_boundaries", "cbm", "vbm", "is_gap_direct", "is_metal", "es_source_calc_id", "bandstructure", "dos", "dos_energy_up", "dos_energy_down", "is_magnetic", "ordering", "total_magnetization_normalized_vol", "total_magnetization_normalized_formula_units", "num_magnetic_sites", "num_unique_magnetic_sites", "types_of_magnetic_species", "bulk_modulus", "shear_modulus", "universal_anisotropy", "homogeneous_poisson", "e_total", "e_ionic", "e_electronic", "n", "e_ij_max", "weighted_surface_energy_EV_PER_ANG2", "weighted_surface_energy", "weighted_work_function", "surface_anisotropy", "shape_factor", "has_reconstructed", "possible_species", "has_props", "theoretical", "database_IDs"]}