{
  "builder_meta": null,
  "nsites": null,
  "elements": null,
  "nelements": null,
  "composition": null,
  "composition_reduced": null,
  "formula_pretty": "Nb5As3",
  "formula_anonymous": "A3B5",
  "chemsys": null,
  "volume": 1108.1433326575163,
  "density": 8.263220578756755,
  "density_atomic": 17.314739572773693,
  "symmetry": null,
  "property_name": null,
  "material_id": "mp-623038",
  "deprecated": null,
  "deprecation_reasons": null,
  "last_updated": null,
  "origins": null,
  "warnings": null,
  "structure": {
    "@module": "pymatgen.core.structure",
    "@class": "Structure",
    "charge": 0,
    "lattice": {
      "matrix": [
        [3.540661, 0.0, 0.0],
        [0.0, 11.886265, 0.0],
        [0.0, 0.0, 26.330929]
      ],
      "pbc": [true, true, true],
      "a": 3.540661,
      "b": 11.886265,
      "c": 26.330929,
      "alpha": 90.0,
      "beta": 90.0,
      "gamma": 90.0,
      "volume": 1108.1433326575163
    },
    "properties": {},
    "sites": [
      {
        "species": [{ "element": "Nb", "occu": 1 }],
        "abc": [0.25, 0.416632, 0.533095],
        "properties": { "magmom": -0.0 },
        "label": "Nb",
        "xyz": [0.88516525, 4.95219835948, 14.036886595255]
      },
      {
        "species": [{ "element": "Nb", "occu": 1 }],
        "abc": [0.25, 0.9327400000000001, 0.39736899999999903],
        "properties": { "magmom": -0.0 },
        "label": "Nb",
        "xyz": [0.88516525, 11.086794816100001, 10.463094925800975]
      },
      {
        "species": [{ "element": "Nb", "occu": 1 }],
        "abc": [0.25, 0.28902, 0.876527],
        "properties": { "magmom": 0.0 },
        "label": "Nb",
        "xyz": [0.88516525, 3.4353683103, 23.079770203583]
      },
      {
        "species": [{ "element": "Nb", "occu": 1 }],
        "abc": [0.75, 0.78902, 0.6234729999999991],
        "properties": { "magmom": -0.0 },
        "label": "Nb",
        "xyz": [2.65549575, 9.3785008103, 16.416623296416976]
      },
      {
        "species": [{ "element": "Nb", "occu": 1 }],
        "abc": [0.75, 0.05575000000000001, 0.84906],
        "properties": { "magmom": 0.0 },
        "label": "Nb",
        "xyz": [2.65549575, 0.6626592737500001, 22.35653857674]
      },
      {
        "species": [{ "element": "Nb", "occu": 1 }],
        "abc": [0.25, 0.5557500000000001, 0.6509400000000001],
        "properties": { "magmom": -0.0 },
        "label": "Nb",
        "xyz": [0.88516525, 6.605791773750001, 17.139854923260003]
      },
      {
        "species": [{ "element": "Nb", "occu": 1 }],
        "abc": [0.75, 0.381069, 0.224090999999999],
        "properties": { "magmom": -0.0 },
        "label": "Nb",
        "xyz": [2.65549575, 4.529487117285, 5.900524210538975]
      },
      {
        "species": [{ "element": "Nb", "occu": 1 }],
        "abc": [0.75, 0.147637, 0.13672499999999901],
        "properties": { "magmom": -0.001 },
        "label": "Nb",
        "xyz": [2.65549575, 1.754852505805, 3.6000962675249744]
      },
      {
        "species": [{ "element": "Nb", "occu": 1 }],
        "abc": [0.75, 0.30331, 0.453824],
        "properties": { "magmom": -0.0 },
        "label": "Nb",
        "xyz": [2.65549575, 3.60522303715, 11.949607522496]
      },
      {
        "species": [{ "element": "Nb", "occu": 1 }],
        "abc": [0.75, 0.44425000000000003, 0.34906000000000004],
        "properties": { "magmom": 0.0 },
        "label": "Nb",
        "xyz": [2.65549575, 5.280473226250001, 9.191074076740001]
      },
      {
        "species": [{ "element": "Nb", "occu": 1 }],
        "abc": [0.25, 0.94425, 0.15094000000000002],
        "properties": { "magmom": -0.0 },
        "label": "Nb",
        "xyz": [0.88516525, 11.22360572625, 3.9743904232600005]
      },
      {
        "species": [{ "element": "Nb", "occu": 1 }],
        "abc": [0.75, 0.894411, 0.498345],
        "properties": { "magmom": -0.001 },
        "label": "Nb",
        "xyz": [2.65549575, 10.631206164915, 13.121886812505]
      },
      {
        "species": [{ "element": "Nb", "occu": 1 }],
        "abc": [0.75, 0.039538, 0.323123999999999],
        "properties": { "magmom": -0.0 },
        "label": "Nb",
        "xyz": [2.65549575, 0.46995914556999996, 8.508155102195975]
      },
      {
        "species": [{ "element": "Nb", "occu": 1 }],
        "abc": [0.25, 0.344937, 0.738785999999999],
        "properties": { "magmom": 0.0 },
        "label": "Nb",
        "xyz": [0.88516525, 4.100012590305, 19.452921712193977]
      },
      {
        "species": [{ "element": "Nb", "occu": 1 }],
        "abc": [0.75, 0.19669, 0.953824],
        "properties": { "magmom": 0.0 },
        "label": "Nb",
        "xyz": [2.65549575, 2.33790946285, 25.115072022496]
      },
      {
        "species": [{ "element": "Nb", "occu": 1 }],
        "abc": [0.75, 0.43274, 0.102631],
        "properties": { "magmom": 0.0 },
        "label": "Nb",
        "xyz": [2.65549575, 5.1436623161, 2.702369574199]
      },
      {
        "species": [{ "element": "Nb", "occu": 1 }],
        "abc": [0.25, 0.881069, 0.275908999999999],
        "properties": { "magmom": 0.0 },
        "label": "Nb",
        "xyz": [0.88516525, 10.472619617285, 7.2649402894609745]
      },
      {
        "species": [{ "element": "Nb", "occu": 1 }],
        "abc": [0.25, 0.155063, 0.238786],
        "properties": { "magmom": 0.0 },
        "label": "Nb",
        "xyz": [0.88516525, 1.843119909695, 6.287457212194]
      },
      {
        "species": [{ "element": "Nb", "occu": 1 }],
        "abc": [0.75, 0.916632, 0.9669049999999991],
        "properties": { "magmom": -0.0 },
        "label": "Nb",
        "xyz": [2.65549575, 10.89533085948, 25.459506904744977]
      },
      {
        "species": [{ "element": "Nb", "occu": 1 }],
        "abc": [0.25, 0.8033100000000001, 0.046175999999999],
        "properties": { "magmom": 0.0 },
        "label": "Nb",
        "xyz": [0.88516525, 9.54835553715, 1.2158569775039738]
      },
      {
        "species": [{ "element": "Nb", "occu": 1 }],
        "abc": [0.25, 0.852363, 0.863275],
        "properties": { "magmom": -0.0 },
        "label": "Nb",
        "xyz": [0.88516525, 10.131412494194999, 22.730832732475]
      },
      {
        "species": [{ "element": "Nb", "occu": 1 }],
        "abc": [0.25, 0.960461999999999, 0.676875999999999],
        "properties": { "magmom": -0.0 },
        "label": "Nb",
        "xyz": [0.88516525, 11.416305854429988, 17.822773897803977]
      },
      {
        "species": [{ "element": "Nb", "occu": 1 }],
        "abc": [0.75, 0.352363, 0.636725],
        "properties": { "magmom": 0.0 },
        "label": "Nb",
        "xyz": [2.65549575, 4.188279994195, 16.765560767525]
      },
      {
        "species": [{ "element": "Nb", "occu": 1 }],
        "abc": [0.25, 0.083368, 0.033095],
        "properties": { "magmom": 0.0 },
        "label": "Nb",
        "xyz": [0.88516525, 0.99093414052, 0.871422095255]
      },
      {
        "species": [{ "element": "Nb", "occu": 1 }],
        "abc": [0.75, 0.7109800000000001, 0.123473],
        "properties": { "magmom": -0.0 },
        "label": "Nb",
        "xyz": [2.65549575, 8.4508966897, 3.251158796417]
      },
      {
        "species": [{ "element": "Nb", "occu": 1 }],
        "abc": [0.75, 0.118931, 0.724090999999999],
        "properties": { "magmom": 0.0 },
        "label": "Nb",
        "xyz": [2.65549575, 1.413645382715, 19.065988710538974]
      },
      {
        "species": [{ "element": "Nb", "occu": 1 }],
        "abc": [0.75, 0.460462, 0.823124],
        "properties": { "magmom": -0.0 },
        "label": "Nb",
        "xyz": [2.65549575, 5.47317335443, 21.673619602196]
      },
      {
        "species": [{ "element": "Nb", "occu": 1 }],
        "abc": [0.75, 0.844936999999999, 0.761214],
        "properties": { "magmom": -0.0 },
        "label": "Nb",
        "xyz": [2.65549575, 10.04314509030499, 20.043471787806]
      },
      {
        "species": [{ "element": "Nb", "occu": 1 }],
        "abc": [0.75, 0.655063, 0.261214],
        "properties": { "magmom": 0.0 },
        "label": "Nb",
        "xyz": [2.65549575, 7.786252409694999, 6.878007287806001]
      },
      {
        "species": [{ "element": "Nb", "occu": 1 }],
        "abc": [0.25, 0.618931, 0.775909],
        "properties": { "magmom": -0.0 },
        "label": "Nb",
        "xyz": [0.88516525, 7.356777882715, 20.430404789461]
      },
      {
        "species": [{ "element": "Nb", "occu": 1 }],
        "abc": [0.75, 0.605588999999999, 0.998344999999999],
        "properties": { "magmom": -0.0 },
        "label": "Nb",
        "xyz": [2.65549575, 7.198191335084989, 26.287351312504978]
      },
      {
        "species": [{ "element": "Nb", "occu": 1 }],
        "abc": [0.75, 0.583368, 0.466904999999999],
        "properties": { "magmom": -0.0 },
        "label": "Nb",
        "xyz": [2.65549575, 6.93406664052, 12.294042404744975]
      },
      {
        "species": [{ "element": "Nb", "occu": 1 }],
        "abc": [0.75, 0.06726, 0.602631],
        "properties": { "magmom": -0.0 },
        "label": "Nb",
        "xyz": [2.65549575, 0.7994701839, 15.867834074199001]
      },
      {
        "species": [{ "element": "Nb", "occu": 1 }],
        "abc": [0.25, 0.539538, 0.176876],
        "properties": { "magmom": 0.0 },
        "label": "Nb",
        "xyz": [0.88516525, 6.41309164557, 4.657309397804]
      },
      {
        "species": [{ "element": "Nb", "occu": 1 }],
        "abc": [0.25, 0.394410999999999, 0.001655],
        "properties": { "magmom": 0.0 },
        "label": "Nb",
        "xyz": [0.88516525, 4.688073664914988, 0.043577687495]
      },
      {
        "species": [{ "element": "Nb", "occu": 1 }],
        "abc": [0.25, 0.5672600000000001, 0.897369],
        "properties": { "magmom": -0.0 },
        "label": "Nb",
        "xyz": [0.88516525, 6.742602683900001, 23.628559425801]
      },
      {
        "species": [{ "element": "Nb", "occu": 1 }],
        "abc": [0.25, 0.647637, 0.363274999999999],
        "properties": { "magmom": 0.001 },
        "label": "Nb",
        "xyz": [0.88516525, 7.697985005805, 9.565368232474974]
      },
      {
        "species": [{ "element": "Nb", "occu": 1 }],
        "abc": [0.25, 0.105588999999999, 0.501655],
        "properties": { "magmom": 0.0 },
        "label": "Nb",
        "xyz": [0.88516525, 1.255058835084988, 13.209042187495]
      },
      {
        "species": [{ "element": "Nb", "occu": 1 }],
        "abc": [0.25, 0.69669, 0.546176],
        "properties": { "magmom": -0.0 },
        "label": "Nb",
        "xyz": [0.88516525, 8.28104196285, 14.381321477504]
      },
      {
        "species": [{ "element": "Nb", "occu": 1 }],
        "abc": [0.25, 0.21098000000000003, 0.376527],
        "properties": { "magmom": 0.0 },
        "label": "Nb",
        "xyz": [0.88516525, 2.5077641897000005, 9.914305703583]
      },
      {
        "species": [{ "element": "As", "occu": 1 }],
        "abc": [0.25, 0.051850999999999, 0.923616],
        "properties": { "magmom": 0.0 },
        "label": "As",
        "xyz": [0.88516525, 0.6163147265149881, 24.319667319264]
      },
      {
        "species": [{ "element": "As", "occu": 1 }],
        "abc": [0.75, 0.807685, 0.343275],
        "properties": { "magmom": 0.0 },
        "label": "As",
        "xyz": [2.65549575, 9.600357946525, 9.038749652475]
      },
      {
        "species": [{ "element": "As", "occu": 1 }],
        "abc": [0.75, 0.692315, 0.843275],
        "properties": { "magmom": 0.0 },
        "label": "As",
        "xyz": [2.65549575, 8.229039553475, 22.204214152475]
      },
      {
        "species": [{ "element": "As", "occu": 1 }],
        "abc": [0.75, 0.24696, 0.802388],
        "properties": { "magmom": 0.0 },
        "label": "As",
        "xyz": [2.65549575, 2.9354320044, 21.127621458452]
      },
      {
        "species": [{ "element": "As", "occu": 1 }],
        "abc": [0.75, 0.503458, 0.720177],
        "properties": { "magmom": -0.0 },
        "label": "As",
        "xyz": [2.65549575, 5.984235204369999, 18.962929454433]
      },
      {
        "species": [{ "element": "As", "occu": 1 }],
        "abc": [0.75, 0.080399, 0.427508],
        "properties": { "magmom": -0.0 },
        "label": "As",
        "xyz": [2.65549575, 0.955643819735, 11.256682794932]
      },
      {
        "species": [{ "element": "As", "occu": 1 }],
        "abc": [0.25, 0.003457999999999, 0.779822999999999],
        "properties": { "magmom": 0.0 },
        "label": "As",
        "xyz": [0.88516525, 0.04110270436998811, 20.533464045566976]
      },
      {
        "species": [{ "element": "As", "occu": 1 }],
        "abc": [0.25, 0.7469600000000001, 0.697612],
        "properties": { "magmom": -0.0 },
        "label": "As",
        "xyz": [0.88516525, 8.8785645044, 18.368772041548002]
      },
      {
        "species": [{ "element": "As", "occu": 1 }],
        "abc": [0.25, 0.919601, 0.572492],
        "properties": { "magmom": -0.0 },
        "label": "As",
        "xyz": [0.88516525, 10.930621180265, 15.074246205068]
      },
      {
        "species": [{ "element": "As", "occu": 1 }],
        "abc": [0.75, 0.948148999999999, 0.076384],
        "properties": { "magmom": -0.0 },
        "label": "As",
        "xyz": [2.65549575, 11.269950273484989, 2.0112616807359998]
      },
      {
        "species": [{ "element": "As", "occu": 1 }],
        "abc": [0.75, 0.419601, 0.927508],
        "properties": { "magmom": 0.0 },
        "label": "As",
        "xyz": [2.65549575, 4.987488680265, 24.422147294932]
      },
      {
        "species": [{ "element": "As", "occu": 1 }],
        "abc": [0.75, 0.24908699999999903, 0.549144],
        "properties": { "magmom": 0.0 },
        "label": "As",
        "xyz": [2.65549575, 2.9607140900549886, 14.459471674776]
      },
      {
        "species": [{ "element": "As", "occu": 1 }],
        "abc": [0.75, 0.250913, 0.049144],
        "properties": { "magmom": 0.0 },
        "label": "As",
        "xyz": [2.65549575, 2.9824184099449997, 1.294007174776]
      },
      {
        "species": [{ "element": "As", "occu": 1 }],
        "abc": [0.75, 0.996541999999999, 0.220176999999999],
        "properties": { "magmom": -0.0 },
        "label": "As",
        "xyz": [2.65549575, 11.845162295629988, 5.797464954432974]
      },
      {
        "species": [{ "element": "As", "occu": 1 }],
        "abc": [0.25, 0.749087, 0.950855999999999],
        "properties": { "magmom": -0.0 },
        "label": "As",
        "xyz": [0.88516525, 8.903846590055, 25.036921825223974]
      },
      {
        "species": [{ "element": "As", "occu": 1 }],
        "abc": [0.75, 0.551851, 0.576384],
        "properties": { "magmom": -0.0 },
        "label": "As",
        "xyz": [2.65549575, 6.559447226515, 15.176726180736]
      },
      {
        "species": [{ "element": "As", "occu": 1 }],
        "abc": [0.25, 0.75304, 0.197611999999999],
        "properties": { "magmom": -0.0 },
        "label": "As",
        "xyz": [0.88516525, 8.9508329956, 5.203307541547974]
      },
      {
        "species": [{ "element": "As", "occu": 1 }],
        "abc": [0.25, 0.580399, 0.072492],
        "properties": { "magmom": 0.0 },
        "label": "As",
        "xyz": [0.88516525, 6.898776319735, 1.908781705068]
      },
      {
        "species": [{ "element": "As", "occu": 1 }],
        "abc": [0.25, 0.448148999999999, 0.423616],
        "properties": { "magmom": 0.0 },
        "label": "As",
        "xyz": [0.88516525, 5.326817773484988, 11.154202819264]
      },
      {
        "species": [{ "element": "As", "occu": 1 }],
        "abc": [0.25, 0.750912999999999, 0.450856],
        "properties": { "magmom": -0.0 },
        "label": "As",
        "xyz": [0.88516525, 8.925550909944988, 11.871457325224]
      },
      {
        "species": [{ "element": "As", "occu": 1 }],
        "abc": [0.25, 0.19231499999999901, 0.656725],
        "properties": { "magmom": -0.0 },
        "label": "As",
        "xyz": [0.88516525, 2.2859070534749883, 17.292179347525]
      },
      {
        "species": [{ "element": "As", "occu": 1 }],
        "abc": [0.25, 0.307685, 0.156725],
        "properties": { "magmom": -0.0 },
        "label": "As",
        "xyz": [0.88516525, 3.6572254465249996, 4.126714847525]
      },
      {
        "species": [{ "element": "As", "occu": 1 }],
        "abc": [0.75, 0.25304000000000004, 0.302388],
        "properties": { "magmom": 0.0 },
        "label": "As",
        "xyz": [2.65549575, 3.0077004956000004, 7.962156958452]
      },
      {
        "species": [{ "element": "As", "occu": 1 }],
        "abc": [0.25, 0.496542, 0.279823],
        "properties": { "magmom": -0.0 },
        "label": "As",
        "xyz": [0.88516525, 5.90202979563, 7.367999545567]
      }
    ]
  },
  "task_ids": null,
  "uncorrected_energy_per_atom": null,
  "energy_per_atom": -8.62586281859375,
  "formation_energy_per_atom": -0.5612512189062511,
  "energy_above_hull": 0.0,
  "is_stable": true,
  "equilibrium_reaction_energy_per_atom": null,
  "decomposes_to": null,
  "xas": null,
  "grain_boundaries": null,
  "band_gap": 0.0,
  "cbm": null,
  "vbm": null,
  "efermi": 6.7955736600000005,
  "is_gap_direct": null,
  "is_metal": null,
  "es_source_calc_id": null,
  "bandstructure": null,
  "dos": null,
  "dos_energy_up": null,
  "dos_energy_down": null,
  "is_magnetic": null,
  "ordering": null,
  "total_magnetization": 0.009161899999999001,
  "total_magnetization_normalized_vol": null,
  "total_magnetization_normalized_formula_units": null,
  "num_magnetic_sites": null,
  "num_unique_magnetic_sites": null,
  "types_of_magnetic_species": null,
  "bulk_modulus": null,
  "shear_modulus": null,
  "universal_anisotropy": null,
  "homogeneous_poisson": null,
  "e_total": null,
  "e_ionic": null,
  "e_electronic": null,
  "n": null,
  "e_ij_max": null,
  "weighted_surface_energy_EV_PER_ANG2": null,
  "weighted_surface_energy": null,
  "weighted_work_function": null,
  "surface_anisotropy": null,
  "shape_factor": null,
  "has_reconstructed": null,
  "possible_species": null,
  "has_props": null,
  "theoretical": null,
  "database_IDs": null,
  "fields_not_requested": [
    "builder_meta",
    "nsites",
    "elements",
    "nelements",
    "composition",
    "composition_reduced",
    "chemsys",
    "symmetry",
    "property_name",
    "deprecated",
    "deprecation_reasons",
    "last_updated",
    "origins",
    "warnings",
    "task_ids",
    "uncorrected_energy_per_atom",
    "equilibrium_reaction_energy_per_atom",
    "decomposes_to",
    "xas",
    "grain_boundaries",
    "cbm",
    "vbm",
    "is_gap_direct",
    "is_metal",
    "es_source_calc_id",
    "bandstructure",
    "dos",
    "dos_energy_up",
    "dos_energy_down",
    "is_magnetic",
    "ordering",
    "total_magnetization_normalized_vol",
    "total_magnetization_normalized_formula_units",
    "num_magnetic_sites",
    "num_unique_magnetic_sites",
    "types_of_magnetic_species",
    "bulk_modulus",
    "shear_modulus",
    "universal_anisotropy",
    "homogeneous_poisson",
    "e_total",
    "e_ionic",
    "e_electronic",
    "n",
    "e_ij_max",
    "weighted_surface_energy_EV_PER_ANG2",
    "weighted_surface_energy",
    "weighted_work_function",
    "surface_anisotropy",
    "shape_factor",
    "has_reconstructed",
    "possible_species",
    "has_props",
    "theoretical",
    "database_IDs"
  ]
}
