{
  "builder_meta": null,
  "nsites": null,
  "elements": null,
  "nelements": null,
  "composition": null,
  "composition_reduced": null,
  "formula_pretty": "Nb5B6",
  "formula_anonymous": "A5B6",
  "chemsys": null,
  "volume": 120.21911931014243,
  "density": 7.312363455750544,
  "density_atomic": 10.929010846376585,
  "symmetry": null,
  "property_name": null,
  "material_id": "mp-1102394",
  "deprecated": null,
  "deprecation_reasons": null,
  "last_updated": null,
  "origins": null,
  "warnings": null,
  "structure": {
    "@module": "pymatgen.core.structure",
    "@class": "Structure",
    "charge": 0,
    "lattice": {
      "matrix": [
        [-0.0, 3.1667063, 0.0],
        [0.0, 0.0, 3.31689087],
        [11.44549482, -1.58335365, 0.0]
      ],
      "pbc": [true, true, true],
      "a": 3.1667063,
      "b": 3.31689087,
      "c": 11.55449524884645,
      "alpha": 90.0,
      "beta": 97.87622745651288,
      "gamma": 90.0,
      "volume": 120.21911931014243
    },
    "properties": {},
    "sites": [
      {
        "species": [{ "element": "Nb", "occu": 1 }],
        "abc": [0.0, 0.0, 0.0],
        "properties": { "magmom": 0.0 },
        "label": "Nb",
        "xyz": [0.0, 0.0, 0.0]
      },
      {
        "species": [{ "element": "Nb", "occu": 1 }],
        "abc": [0.38575815, 0.0, 0.77151529],
        "properties": { "magmom": -0.0 },
        "label": "Nb",
        "xyz": [8.830374255245797, 1.2134290365839462e-6, 0.0]
      },
      {
        "species": [{ "element": "Nb", "occu": 1 }],
        "abc": [0.61424185, -0.0, 0.22848471],
        "properties": { "magmom": -0.0 },
        "label": "Nb",
        "xyz": [2.615120564754202, 1.5833514365709633, 0.0]
      },
      {
        "species": [{ "element": "Nb", "occu": 1 }],
        "abc": [0.19433672, 0.5, 0.38867044],
        "properties": { "magmom": 0.0 },
        "label": "Nb",
        "xyz": [4.448525507707121, 4.55572422997097e-6, 1.658445435]
      },
      {
        "species": [{ "element": "Nb", "occu": 1 }],
        "abc": [0.80566328, 0.5, 0.61132956],
        "properties": { "magmom": 0.0 },
        "label": "Nb",
        "xyz": [6.99696931229288, 1.5833480942757698, 1.658445435]
      },
      {
        "species": [{ "element": "B", "occu": 1 }],
        "abc": [0.08164881, 0.5, 0.16329861],
        "properties": { "magmom": -0.0 },
        "label": "B",
        "xyz": [1.8690333948682003, -1.6491689235342832e-6, 1.658445435]
      },
      {
        "species": [{ "element": "B", "occu": 1 }],
        "abc": [0.91835119, 0.5, 0.83670139],
        "properties": { "magmom": -0.0 },
        "label": "B",
        "xyz": [9.5764614251318, 1.5833542991689236, 1.658445435]
      },
      {
        "species": [{ "element": "B", "occu": 1 }],
        "abc": [0.27251454, 0.0, 0.54502708],
        "properties": { "magmom": -0.0 },
        "label": "B",
        "xyz": [6.238104620899726, 2.894192760005687e-6, 0.0]
      },
      {
        "species": [{ "element": "B", "occu": 1 }],
        "abc": [0.72748546, 0.0, 0.45497292],
        "properties": { "magmom": -0.0 },
        "label": "B",
        "xyz": [5.207390199100274, 1.58334975580724, 0.0]
      },
      {
        "species": [{ "element": "B", "occu": 1 }],
        "abc": [0.46037294, 0.5, 0.9207458900000001],
        "properties": { "magmom": 0.0 },
        "label": "B",
        "xyz": [10.538392314531292, -4.7620647669610605e-7, 1.658445435]
      },
      {
        "species": [{ "element": "B", "occu": 1 }],
        "abc": [0.53962706, 0.5, 0.07925411],
        "properties": { "magmom": 0.0 },
        "label": "B",
        "xyz": [0.9071025054687103, 1.5833531262064766, 1.658445435]
      }
    ]
  },
  "task_ids": null,
  "uncorrected_energy_per_atom": null,
  "energy_per_atom": -16.04805701181818,
  "formation_energy_per_atom": -0.7981935177272721,
  "energy_above_hull": 0.0,
  "is_stable": true,
  "equilibrium_reaction_energy_per_atom": null,
  "decomposes_to": null,
  "xas": null,
  "grain_boundaries": null,
  "band_gap": 0.0,
  "cbm": null,
  "vbm": null,
  "efermi": 7.21024751,
  "is_gap_direct": null,
  "is_metal": null,
  "es_source_calc_id": null,
  "bandstructure": null,
  "dos": null,
  "dos_energy_up": null,
  "dos_energy_down": null,
  "is_magnetic": null,
  "ordering": null,
  "total_magnetization": 0.0,
  "total_magnetization_normalized_vol": null,
  "total_magnetization_normalized_formula_units": null,
  "num_magnetic_sites": null,
  "num_unique_magnetic_sites": null,
  "types_of_magnetic_species": null,
  "bulk_modulus": null,
  "shear_modulus": null,
  "universal_anisotropy": null,
  "homogeneous_poisson": null,
  "e_total": null,
  "e_ionic": null,
  "e_electronic": null,
  "n": null,
  "e_ij_max": null,
  "weighted_surface_energy_EV_PER_ANG2": null,
  "weighted_surface_energy": null,
  "weighted_work_function": null,
  "surface_anisotropy": null,
  "shape_factor": null,
  "has_reconstructed": null,
  "possible_species": null,
  "has_props": null,
  "theoretical": null,
  "database_IDs": null,
  "fields_not_requested": [
    "builder_meta",
    "nsites",
    "elements",
    "nelements",
    "composition",
    "composition_reduced",
    "chemsys",
    "symmetry",
    "property_name",
    "deprecated",
    "deprecation_reasons",
    "last_updated",
    "origins",
    "warnings",
    "task_ids",
    "uncorrected_energy_per_atom",
    "equilibrium_reaction_energy_per_atom",
    "decomposes_to",
    "xas",
    "grain_boundaries",
    "cbm",
    "vbm",
    "is_gap_direct",
    "is_metal",
    "es_source_calc_id",
    "bandstructure",
    "dos",
    "dos_energy_up",
    "dos_energy_down",
    "is_magnetic",
    "ordering",
    "total_magnetization_normalized_vol",
    "total_magnetization_normalized_formula_units",
    "num_magnetic_sites",
    "num_unique_magnetic_sites",
    "types_of_magnetic_species",
    "bulk_modulus",
    "shear_modulus",
    "universal_anisotropy",
    "homogeneous_poisson",
    "e_total",
    "e_ionic",
    "e_electronic",
    "n",
    "e_ij_max",
    "weighted_surface_energy_EV_PER_ANG2",
    "weighted_surface_energy",
    "weighted_work_function",
    "surface_anisotropy",
    "shape_factor",
    "has_reconstructed",
    "possible_species",
    "has_props",
    "theoretical",
    "database_IDs"
  ]
}
