{
  "builder_meta": null,
  "nsites": null,
  "elements": null,
  "nelements": null,
  "composition": null,
  "composition_reduced": null,
  "formula_pretty": "Nb5Ga4",
  "formula_anonymous": "A4B5",
  "chemsys": null,
  "volume": 300.56560824788795,
  "density": 8.21440906822583,
  "density_atomic": 16.698089347104887,
  "symmetry": null,
  "property_name": null,
  "material_id": "mp-18032",
  "deprecated": null,
  "deprecation_reasons": null,
  "last_updated": null,
  "origins": null,
  "warnings": null,
  "structure": {
    "@module": "pymatgen.core.structure",
    "@class": "Structure",
    "charge": 0,
    "lattice": {
      "matrix": [
        [7.97533614, 0.0, -0.0],
        [-3.98766756, 6.90684292, 0.0],
        [0.0, 0.0, 5.45645666]
      ],
      "pbc": [true, true, true],
      "a": 7.97533614,
      "b": 7.9753352086686915,
      "c": 5.45645666,
      "alpha": 90.0,
      "beta": 90.0,
      "gamma": 119.99999963222403,
      "volume": 300.56560824788795
    },
    "properties": {},
    "sites": [
      {
        "species": [{ "element": "Nb", "occu": 1 }],
        "abc": [0.333333, 0.666667, -0.0],
        "properties": { "magmom": 0.0 },
        "label": "Nb",
        "xyz": [-3.6476679006192114e-6, 4.60456424894764, 0.0]
      },
      {
        "species": [{ "element": "Nb", "occu": 1 }],
        "abc": [0.666667, 0.333333, 0.5],
        "properties": { "magmom": 0.0 },
        "label": "Nb",
        "xyz": [3.9876722276679, 2.3022786710523597, 2.72822833]
      },
      {
        "species": [{ "element": "Nb", "occu": 1 }],
        "abc": [0.666667, 0.333333, -0.0],
        "properties": { "magmom": 0.0 },
        "label": "Nb",
        "xyz": [3.9876722276679, 2.3022786710523597, 0.0]
      },
      {
        "species": [{ "element": "Nb", "occu": 1 }],
        "abc": [0.333333, 0.666667, 0.5],
        "properties": { "magmom": 0.0 },
        "label": "Nb",
        "xyz": [-3.6476679006192114e-6, 4.60456424894764, 2.72822833]
      },
      {
        "species": [{ "element": "Nb", "occu": 1 }],
        "abc": [0.27997216, 1.0, 0.25],
        "properties": { "magmom": 0.0 },
        "label": "Nb",
        "xyz": [-1.7547954741581377, 6.90684292, 1.364114165]
      },
      {
        "species": [{ "element": "Nb", "occu": 1 }],
        "abc": [0.27997216, 0.27997216, 0.75],
        "properties": { "magmom": 0.0 },
        "label": "Nb",
        "xyz": [1.1164361857067326, 1.9337237310931072, 4.092342495]
      },
      {
        "species": [{ "element": "Nb", "occu": 1 }],
        "abc": [1.0, 0.72002784, 0.75],
        "properties": { "magmom": 0.0 },
        "label": "Nb",
        "xyz": [5.104104480135129, 4.973119188906892, 4.092342495]
      },
      {
        "species": [{ "element": "Nb", "occu": 1 }],
        "abc": [0.0, 0.27997216, 0.25],
        "properties": { "magmom": 0.0 },
        "label": "Nb",
        "xyz": [-1.1164359001351298, 1.9337237310931072, 1.364114165]
      },
      {
        "species": [{ "element": "Nb", "occu": 1 }],
        "abc": [0.72002784, 0.72002784, 0.25],
        "properties": { "magmom": 0.0 },
        "label": "Nb",
        "xyz": [2.871232394293266, 4.973119188906892, 1.364114165]
      },
      {
        "species": [{ "element": "Nb", "occu": 1 }],
        "abc": [0.72002784, 0.0, 0.75],
        "properties": { "magmom": 0.0 },
        "label": "Nb",
        "xyz": [5.742464054158137, 0.0, 4.092342495]
      },
      {
        "species": [{ "element": "Ga", "occu": 1 }],
        "abc": [-0.0, -0.0, -0.0],
        "properties": { "magmom": 0.0 },
        "label": "Ga",
        "xyz": [0.0, 0.0, 0.0]
      },
      {
        "species": [{ "element": "Ga", "occu": 1 }],
        "abc": [-0.0, -0.0, 0.5],
        "properties": { "magmom": 0.0 },
        "label": "Ga",
        "xyz": [0.0, 0.0, 2.72822833]
      },
      {
        "species": [{ "element": "Ga", "occu": 1 }],
        "abc": [0.61560147, 1.0, 0.25],
        "properties": { "magmom": 0.0 },
        "label": "Ga",
        "xyz": [0.9219610915281251, 6.90684292, 1.364114165]
      },
      {
        "species": [{ "element": "Ga", "occu": 1 }],
        "abc": [0.61560147, 0.61560147, 0.75],
        "properties": { "magmom": 0.0 },
        "label": "Ga",
        "xyz": [2.454814639720812, 4.2518626546110925, 4.092342495]
      },
      {
        "species": [{ "element": "Ga", "occu": 1 }],
        "abc": [1.0, 0.38439853, 0.75],
        "properties": { "magmom": 0.0 },
        "label": "Ga",
        "xyz": [6.4424825918073125, 2.654980265388908, 4.092342495]
      },
      {
        "species": [{ "element": "Ga", "occu": 1 }],
        "abc": [0.0, 0.61560147, 0.25],
        "properties": { "magmom": 0.0 },
        "label": "Ga",
        "xyz": [-2.454814011807313, 4.2518626546110925, 1.364114165]
      },
      {
        "species": [{ "element": "Ga", "occu": 1 }],
        "abc": [0.38439853, 0.38439853, 0.25],
        "properties": { "magmom": 0.0 },
        "label": "Ga",
        "xyz": [1.5328539402791872, 2.654980265388908, 1.364114165]
      },
      {
        "species": [{ "element": "Ga", "occu": 1 }],
        "abc": [0.38439853, 0.0, 0.75],
        "properties": { "magmom": 0.0 },
        "label": "Ga",
        "xyz": [3.0657074884718742, 0.0, 4.092342495]
      }
    ]
  },
  "task_ids": null,
  "uncorrected_energy_per_atom": null,
  "energy_per_atom": -19.24466799388889,
  "formation_energy_per_atom": -0.41783721055555606,
  "energy_above_hull": 0.021052528412699,
  "is_stable": false,
  "equilibrium_reaction_energy_per_atom": null,
  "decomposes_to": null,
  "xas": null,
  "grain_boundaries": null,
  "band_gap": 0.0,
  "cbm": null,
  "vbm": null,
  "efermi": 4.88931118,
  "is_gap_direct": null,
  "is_metal": null,
  "es_source_calc_id": null,
  "bandstructure": null,
  "dos": null,
  "dos_energy_up": null,
  "dos_energy_down": null,
  "is_magnetic": null,
  "ordering": null,
  "total_magnetization": 1e-7,
  "total_magnetization_normalized_vol": null,
  "total_magnetization_normalized_formula_units": null,
  "num_magnetic_sites": null,
  "num_unique_magnetic_sites": null,
  "types_of_magnetic_species": null,
  "bulk_modulus": null,
  "shear_modulus": null,
  "universal_anisotropy": null,
  "homogeneous_poisson": null,
  "e_total": null,
  "e_ionic": null,
  "e_electronic": null,
  "n": null,
  "e_ij_max": null,
  "weighted_surface_energy_EV_PER_ANG2": null,
  "weighted_surface_energy": null,
  "weighted_work_function": null,
  "surface_anisotropy": null,
  "shape_factor": null,
  "has_reconstructed": null,
  "possible_species": null,
  "has_props": null,
  "theoretical": null,
  "database_IDs": null,
  "fields_not_requested": [
    "builder_meta",
    "nsites",
    "elements",
    "nelements",
    "composition",
    "composition_reduced",
    "chemsys",
    "symmetry",
    "property_name",
    "deprecated",
    "deprecation_reasons",
    "last_updated",
    "origins",
    "warnings",
    "task_ids",
    "uncorrected_energy_per_atom",
    "equilibrium_reaction_energy_per_atom",
    "decomposes_to",
    "xas",
    "grain_boundaries",
    "cbm",
    "vbm",
    "is_gap_direct",
    "is_metal",
    "es_source_calc_id",
    "bandstructure",
    "dos",
    "dos_energy_up",
    "dos_energy_down",
    "is_magnetic",
    "ordering",
    "total_magnetization_normalized_vol",
    "total_magnetization_normalized_formula_units",
    "num_magnetic_sites",
    "num_unique_magnetic_sites",
    "types_of_magnetic_species",
    "bulk_modulus",
    "shear_modulus",
    "universal_anisotropy",
    "homogeneous_poisson",
    "e_total",
    "e_ionic",
    "e_electronic",
    "n",
    "e_ij_max",
    "weighted_surface_energy_EV_PER_ANG2",
    "weighted_surface_energy",
    "weighted_work_function",
    "surface_anisotropy",
    "shape_factor",
    "has_reconstructed",
    "possible_species",
    "has_props",
    "theoretical",
    "database_IDs"
  ]
}
