{"builder_meta": null, "nsites": null, "elements": null, "nelements": null, "composition": null, "composition_reduced": null, "formula_pretty": "Nb5Ge4", "formula_anonymous": "A4B5", "chemsys": null, "volume": 614.4641947485039, "density": 8.162295603482098, "density_atomic": 17.06844985412511, "symmetry": null, "property_name": null, "material_id": "mp-21681", "deprecated": null, "deprecation_reasons": null, "last_updated": null, "origins": null, "warnings": null, "structure": {"@module": "pymatgen.core.structure", "@class": "Structure", "charge": 0, "lattice": {"matrix": [[6.778209, 0.0, 0.0], [0.0, 6.84453, 0.0], [0.0, 0.0, 13.244574]], "pbc": [true, true, true], "a": 6.778209, "b": 6.84453, "c": 13.244574, "alpha": 90.0, "beta": 90.0, "gamma": 90.0, "volume": 614.4641947485039}, "properties": {}, "sites": [{"species": [{"element": "Nb", "occu": 1}], "abc": [0.019532, 0.324768, 0.913825999999999], "properties": {"magmom": 0.0}, "label": "Nb", "xyz": [0.13239197818800003, 2.22288431904, 12.103236080123986]}, {"species": [{"element": "Nb", "occu": 1}], "abc": [0.519532, 0.175232, 0.586174], "properties": {"magmom": 0.0}, "label": "Nb", "xyz": [3.5214964781880003, 1.19938068096, 7.7636249198759995]}, {"species": [{"element": "Nb", "occu": 1}], "abc": [0.48046799999999906, 0.824768, 0.086174], "properties": {"magmom": 0.0}, "label": "Nb", "xyz": [3.256712521811994, 5.64514931904, 1.141337919876]}, {"species": [{"element": "Nb", "occu": 1}], "abc": [0.980468, 0.675231999999999, 0.41382599999999903], "properties": {"magmom": 0.0}, "label": "Nb", "xyz": [6.645817021812, 4.621645680959993, 5.480949080123987]}, {"species": [{"element": "Nb", "occu": 1}], "abc": [0.019532, 0.324768, 0.586174], "properties": {"magmom": 0.0}, "label": "Nb", "xyz": [0.13239197818800003, 2.22288431904, 7.7636249198759995]}, {"species": [{"element": "Nb", "occu": 1}], "abc": [0.519532, 0.175232, 0.913825999999999], "properties": {"magmom": 0.0}, "label": "Nb", "xyz": [3.5214964781880003, 1.19938068096, 12.103236080123986]}, {"species": [{"element": "Nb", "occu": 1}], "abc": [0.48046799999999906, 0.824768, 0.41382599999999903], "properties": {"magmom": 0.0}, "label": "Nb", "xyz": [3.256712521811994, 5.64514931904, 5.480949080123987]}, {"species": [{"element": "Nb", "occu": 1}], "abc": [0.980468, 0.675231999999999, 0.086174], "properties": {"magmom": 0.0}, "label": "Nb", "xyz": [6.645817021812, 4.621645680959993, 1.141337919876]}, {"species": [{"element": "Nb", "occu": 1}], "abc": [0.846394, 0.835774999999999, 0.8755269999999991], "properties": {"magmom": -0.0}, "label": "Nb", "xyz": [5.737035428346, 5.720487060749993, 11.595982140497988]}, {"species": [{"element": "Nb", "occu": 1}], "abc": [0.346394, 0.664225, 0.624473], "properties": {"magmom": -0.0}, "label": "Nb", "xyz": [2.347930928346, 4.546307939249999, 8.270878859502]}, {"species": [{"element": "Nb", "occu": 1}], "abc": [0.653606, 0.335775, 0.124473], "properties": {"magmom": -0.0}, "label": "Nb", "xyz": [4.4302780716540004, 2.2982220607499997, 1.648591859502]}, {"species": [{"element": "Nb", "occu": 1}], "abc": [0.153606, 0.164224999999999, 0.375527], "properties": {"magmom": -0.0}, "label": "Nb", "xyz": [1.041173571654, 1.124042939249993, 4.973695140498]}, {"species": [{"element": "Nb", "occu": 1}], "abc": [0.153606, 0.164224999999999, 0.124473], "properties": {"magmom": -0.0}, "label": "Nb", "xyz": [1.041173571654, 1.124042939249993, 1.648591859502]}, {"species": [{"element": "Nb", "occu": 1}], "abc": [0.653606, 0.335775, 0.375527], "properties": {"magmom": -0.0}, "label": "Nb", "xyz": [4.4302780716540004, 2.2982220607499997, 4.973695140498]}, {"species": [{"element": "Nb", "occu": 1}], "abc": [0.346394, 0.664225, 0.8755269999999991], "properties": {"magmom": -0.0}, "label": "Nb", "xyz": [2.347930928346, 4.546307939249999, 11.595982140497988]}, {"species": [{"element": "Nb", "occu": 1}], "abc": [0.846394, 0.835774999999999, 0.624473], "properties": {"magmom": -0.0}, "label": "Nb", "xyz": [5.737035428346, 5.720487060749993, 8.270878859502]}, {"species": [{"element": "Nb", "occu": 1}], "abc": [0.172057, 0.991852, 0.75], "properties": {"magmom": -0.0}, "label": "Nb", "xyz": [1.166238305913, 6.78876076956, 9.9334305]}, {"species": [{"element": "Nb", "occu": 1}], "abc": [0.672057, 0.508147999999999, 0.75], "properties": {"magmom": -0.0}, "label": "Nb", "xyz": [4.555342805913001, 3.4780342304399934, 9.9334305]}, {"species": [{"element": "Nb", "occu": 1}], "abc": [0.327943, 0.491851999999999, 0.25], "properties": {"magmom": -0.0}, "label": "Nb", "xyz": [2.222866194087, 3.366495769559993, 3.3111435]}, {"species": [{"element": "Nb", "occu": 1}], "abc": [0.827943, 0.008147999999999, 0.25], "properties": {"magmom": -0.0}, "label": "Nb", "xyz": [5.611970694087, 0.05576923043999315, 3.3111435]}, {"species": [{"element": "Ge", "occu": 1}], "abc": [0.689249, 0.534623, 0.958815], "properties": {"magmom": 0.0}, "label": "Ge", "xyz": [4.671873775041, 3.6592431621899997, 12.69909621981]}, {"species": [{"element": "Ge", "occu": 1}], "abc": [0.189249, 0.965376999999999, 0.541185], "properties": {"magmom": 0.0}, "label": "Ge", "xyz": [1.282769275041, 6.607551837809993, 7.167764780190001]}, {"species": [{"element": "Ge", "occu": 1}], "abc": [0.810751, 0.034623, 0.041185], "properties": {"magmom": 0.0}, "label": "Ge", "xyz": [5.495439724959001, 0.23697816219, 0.54547778019]}, {"species": [{"element": "Ge", "occu": 1}], "abc": [0.310751, 0.465377, 0.458815], "properties": {"magmom": 0.0}, "label": "Ge", "xyz": [2.106335224959, 3.1852868378099997, 6.076809219809999]}, {"species": [{"element": "Ge", "occu": 1}], "abc": [0.310751, 0.465377, 0.041185], "properties": {"magmom": 0.0}, "label": "Ge", "xyz": [2.106335224959, 3.1852868378099997, 0.54547778019]}, {"species": [{"element": "Ge", "occu": 1}], "abc": [0.810751, 0.034623, 0.458815], "properties": {"magmom": 0.0}, "label": "Ge", "xyz": [5.495439724959001, 0.23697816219, 6.076809219809999]}, {"species": [{"element": "Ge", "occu": 1}], "abc": [0.189249, 0.965376999999999, 0.958815], "properties": {"magmom": 0.0}, "label": "Ge", "xyz": [1.282769275041, 6.607551837809993, 12.69909621981]}, {"species": [{"element": "Ge", "occu": 1}], "abc": [0.689249, 0.534623, 0.541185], "properties": {"magmom": 0.0}, "label": "Ge", "xyz": [4.671873775041, 3.6592431621899997, 7.167764780190001]}, {"species": [{"element": "Ge", "occu": 1}], "abc": [0.318778, 0.339636, 0.75], "properties": {"magmom": -0.0}, "label": "Ge", "xyz": [2.160743908602, 2.32464879108, 9.9334305]}, {"species": [{"element": "Ge", "occu": 1}], "abc": [0.818778, 0.160364, 0.75], "properties": {"magmom": -0.0}, "label": "Ge", "xyz": [5.549848408602, 1.0976162089200001, 9.9334305]}, {"species": [{"element": "Ge", "occu": 1}], "abc": [0.181222, 0.839635999999999, 0.25], "properties": {"magmom": -0.0}, "label": "Ge", "xyz": [1.228360591398, 5.746913791079994, 3.3111435]}, {"species": [{"element": "Ge", "occu": 1}], "abc": [0.681222, 0.660364, 0.25], "properties": {"magmom": -0.0}, "label": "Ge", "xyz": [4.617465091398, 4.519881208919999, 3.3111435]}, {"species": [{"element": "Ge", "occu": 1}], "abc": [0.046208, 0.603739, 0.75], "properties": {"magmom": 0.0}, "label": "Ge", "xyz": [0.313207481472, 4.13230969767, 9.9334305]}, {"species": [{"element": "Ge", "occu": 1}], "abc": [0.546208, 0.896261, 0.75], "properties": {"magmom": 0.0}, "label": "Ge", "xyz": [3.7023119814720005, 6.13448530233, 9.9334305]}, {"species": [{"element": "Ge", "occu": 1}], "abc": [0.453792, 0.103739, 0.25], "properties": {"magmom": 0.0}, "label": "Ge", "xyz": [3.075897018528, 0.71004469767, 3.3111435]}, {"species": [{"element": "Ge", "occu": 1}], "abc": [0.953792, 0.396261, 0.25], "properties": {"magmom": 0.0}, "label": "Ge", "xyz": [6.465001518528, 2.7122203023299996, 3.3111435]}]}, "task_ids": null, "uncorrected_energy_per_atom": null, "energy_per_atom": -8.06474206138889, "formation_energy_per_atom": -0.398226881388888, "energy_above_hull": 0.04922298517195801, "is_stable": false, "equilibrium_reaction_energy_per_atom": null, "decomposes_to": null, "xas": null, "grain_boundaries": null, "band_gap": 0.0, "cbm": null, "vbm": null, "efermi": 5.78625563, "is_gap_direct": null, "is_metal": null, "es_source_calc_id": null, "bandstructure": null, "dos": null, "dos_energy_up": null, "dos_energy_down": null, "is_magnetic": null, "ordering": null, "total_magnetization": 0.0019164, "total_magnetization_normalized_vol": null, "total_magnetization_normalized_formula_units": null, "num_magnetic_sites": null, "num_unique_magnetic_sites": null, "types_of_magnetic_species": null, "bulk_modulus": null, "shear_modulus": null, "universal_anisotropy": null, "homogeneous_poisson": null, "e_total": null, "e_ionic": null, "e_electronic": null, "n": null, "e_ij_max": null, "weighted_surface_energy_EV_PER_ANG2": null, "weighted_surface_energy": null, "weighted_work_function": null, "surface_anisotropy": null, "shape_factor": null, "has_reconstructed": null, "possible_species": null, "has_props": null, "theoretical": null, "database_IDs": null, "fields_not_requested": ["builder_meta", "nsites", "elements", "nelements", "composition", "composition_reduced", "chemsys", "symmetry", "property_name", "deprecated", "deprecation_reasons", "last_updated", "origins", "warnings", "task_ids", "uncorrected_energy_per_atom", "equilibrium_reaction_energy_per_atom", "decomposes_to", "xas", "grain_boundaries", "cbm", "vbm", "is_gap_direct", "is_metal", "es_source_calc_id", "bandstructure", "dos", "dos_energy_up", "dos_energy_down", "is_magnetic", "ordering", "total_magnetization_normalized_vol", "total_magnetization_normalized_formula_units", "num_magnetic_sites", "num_unique_magnetic_sites", "types_of_magnetic_species", "bulk_modulus", "shear_modulus", "universal_anisotropy", "homogeneous_poisson", "e_total", "e_ionic", "e_electronic", "n", "e_ij_max", "weighted_surface_energy_EV_PER_ANG2", "weighted_surface_energy", "weighted_work_function", "surface_anisotropy", "shape_factor", "has_reconstructed", "possible_species", "has_props", "theoretical", "database_IDs"]}