{
  "builder_meta": null,
  "nsites": null,
  "elements": null,
  "nelements": null,
  "composition": null,
  "composition_reduced": null,
  "formula_pretty": "Nb5Ga3",
  "formula_anonymous": "A3B5",
  "chemsys": null,
  "volume": 271.5599644674047,
  "density": 8.23911334535366,
  "density_atomic": 16.972497779212794,
  "symmetry": null,
  "property_name": null,
  "material_id": "mp-570293",
  "deprecated": null,
  "deprecation_reasons": null,
  "last_updated": null,
  "origins": null,
  "warnings": null,
  "structure": {
    "@module": "pymatgen.core.structure",
    "@class": "Structure",
    "charge": 0,
    "lattice": {
      "matrix": [
        [4.80764919, -0.00260894, 1.6640586800000001],
        [2.40013749, 7.3047205, 0.8306601],
        [0.00685456, -0.00139005, 7.73366214]
      ],
      "pbc": [true, true, true],
      "a": 5.0874933740653585,
      "b": 7.733666514387323,
      "c": 7.733665302616941,
      "alpha": 83.82799633248831,
      "beta": 70.85708026639035,
      "gamma": 70.85707864559076,
      "volume": 271.55996446740465
    },
    "properties": {},
    "sites": [
      {
        "species": [{ "element": "Nb", "occu": 1 }],
        "abc": [0.57560791, 0.70295798, 0.14488701],
        "properties": { "magmom": -0.0 },
        "label": "Nb",
        "xyz": [4.455509840665029, 5.133208440455624, 2.6622716686895584]
      },
      {
        "species": [{ "element": "Nb", "occu": 1 }],
        "abc": [0.25, 0.49898025, 0.50101975],
        "properties": { "magmom": -0.0 },
        "label": "Nb",
        "xyz": [2.4029677722321328, 3.6435625837666374, 4.70521512633029]
      },
      {
        "species": [{ "element": "Nb", "occu": 1 }],
        "abc": [0.07560791, 0.14488701, 0.70295798],
        "properties": { "magmom": -0.0 },
        "label": "Nb",
        "xyz": [0.7160635194354866, 1.0571847088898907, 5.682607373064337]
      },
      {
        "species": [{ "element": "Nb", "occu": 1 }],
        "abc": [0.92439209, 0.8551129900000001, 0.29704202],
        "properties": { "magmom": -0.0 },
        "label": "Nb",
        "xyz": [6.498577720564513, 6.2435368011101104, 4.5457735469356635]
      },
      {
        "species": [{ "element": "Nb", "occu": 1 }],
        "abc": [0.75, 0.50101975, 0.49898025],
        "properties": { "magmom": -0.0 },
        "label": "Nb",
        "xyz": [4.811673467767868, 3.6571589262333624, 5.52316579366971]
      },
      {
        "species": [{ "element": "Nb", "occu": 1 }],
        "abc": [0.7208461700000001, 0.85514383, 0.7030102300000001],
        "properties": { "magmom": 0.0 },
        "label": "Nb",
        "xyz": [5.522857096842438, 6.243728801672544, 7.346707785259131]
      },
      {
        "species": [{ "element": "Nb", "occu": 1 }],
        "abc": [0.42439209, 0.29704202, 0.8551129900000001],
        "properties": { "magmom": -0.0 },
        "label": "Nb",
        "xyz": [2.7591313993349718, 2.1675130695443756, 7.566109251310443]
      },
      {
        "species": [{ "element": "Nb", "occu": 1 }],
        "abc": [0.77915383, 0.29698977, 0.14485617],
        "properties": { "magmom": 0.0 },
        "label": "Nb",
        "xyz": [4.4597074861170105, 2.1671931382969363, 2.6635239235883255]
      },
      {
        "species": [{ "element": "Nb", "occu": 1 }],
        "abc": [0.27915383, 0.14485617, 0.29698977],
        "properties": { "magmom": 0.0 },
        "label": "Nb",
        "xyz": [1.6917841431575622, 1.0569927083274564, 2.8816731347408693]
      },
      {
        "species": [{ "element": "Nb", "occu": 1 }],
        "abc": [0.22084617, 0.7030102300000001, 0.85514383],
        "properties": { "magmom": 0.0 },
        "label": "Nb",
        "xyz": [2.75493375388299, 5.133528371703065, 7.564856996411676]
      },
      {
        "species": [{ "element": "Ga", "occu": 1 }],
        "abc": [0.16465371, 0.50000829, 0.16970649000000002],
        "properties": { "magmom": 0.0 },
        "label": "Ga",
        "xyz": [1.9928491809698818, 3.6517553339763533, 2.0017830281172206]
      },
      {
        "species": [{ "element": "Ga", "occu": 1 }],
        "abc": [0.25, 0.00016924, 0.99983076],
        "properties": { "magmom": 0.0 },
        "label": "Ga",
        "xyz": [1.2091718967030733, -0.0008057988505180003, 8.148508545934751]
      },
      {
        "species": [{ "element": "Ga", "occu": 1 }],
        "abc": [0.6646537100000001, 0.16970649000000002, 0.50000829],
        "properties": { "magmom": 0.0 },
        "label": "Ga",
        "xyz": [3.606168116281608, 1.2372293983123632, 5.113886367332892]
      },
      {
        "species": [{ "element": "Ga", "occu": 1 }],
        "abc": [0.83534629, 0.49999171000000003, 0.8302935100000001],
        "properties": { "magmom": 0.0 },
        "label": "Ga",
        "xyz": [5.221792059030119, 3.6489661760236474, 8.226597891882781]
      },
      {
        "species": [{ "element": "Ga", "occu": 1 }],
        "abc": [0.75, 0.99983076, 0.00016924],
        "properties": { "magmom": 0.0 },
        "label": "Ga",
        "xyz": [6.005469343296927, 7.301527308850519, 2.07987237406525]
      },
      {
        "species": [{ "element": "Ga", "occu": 1 }],
        "abc": [0.33534629, 0.8302935100000001, 0.49999171000000003],
        "properties": { "magmom": 0.0 },
        "label": "Ga",
        "xyz": [3.608473123718393, 6.063492111687638, 5.114494552667108]
      }
    ]
  },
  "task_ids": null,
  "uncorrected_energy_per_atom": null,
  "energy_per_atom": -20.15688605875,
  "formation_energy_per_atom": -0.407048421249999,
  "energy_above_hull": 0.0162660659375,
  "is_stable": false,
  "equilibrium_reaction_energy_per_atom": null,
  "decomposes_to": null,
  "xas": null,
  "grain_boundaries": null,
  "band_gap": 0.0,
  "cbm": null,
  "vbm": null,
  "efermi": 4.87004593,
  "is_gap_direct": null,
  "is_metal": null,
  "es_source_calc_id": null,
  "bandstructure": null,
  "dos": null,
  "dos_energy_up": null,
  "dos_energy_down": null,
  "is_magnetic": null,
  "ordering": null,
  "total_magnetization": 1e-7,
  "total_magnetization_normalized_vol": null,
  "total_magnetization_normalized_formula_units": null,
  "num_magnetic_sites": null,
  "num_unique_magnetic_sites": null,
  "types_of_magnetic_species": null,
  "bulk_modulus": null,
  "shear_modulus": null,
  "universal_anisotropy": null,
  "homogeneous_poisson": null,
  "e_total": null,
  "e_ionic": null,
  "e_electronic": null,
  "n": null,
  "e_ij_max": null,
  "weighted_surface_energy_EV_PER_ANG2": null,
  "weighted_surface_energy": null,
  "weighted_work_function": null,
  "surface_anisotropy": null,
  "shape_factor": null,
  "has_reconstructed": null,
  "possible_species": null,
  "has_props": null,
  "theoretical": null,
  "database_IDs": null,
  "fields_not_requested": [
    "builder_meta",
    "nsites",
    "elements",
    "nelements",
    "composition",
    "composition_reduced",
    "chemsys",
    "symmetry",
    "property_name",
    "deprecated",
    "deprecation_reasons",
    "last_updated",
    "origins",
    "warnings",
    "task_ids",
    "uncorrected_energy_per_atom",
    "equilibrium_reaction_energy_per_atom",
    "decomposes_to",
    "xas",
    "grain_boundaries",
    "cbm",
    "vbm",
    "is_gap_direct",
    "is_metal",
    "es_source_calc_id",
    "bandstructure",
    "dos",
    "dos_energy_up",
    "dos_energy_down",
    "is_magnetic",
    "ordering",
    "total_magnetization_normalized_vol",
    "total_magnetization_normalized_formula_units",
    "num_magnetic_sites",
    "num_unique_magnetic_sites",
    "types_of_magnetic_species",
    "bulk_modulus",
    "shear_modulus",
    "universal_anisotropy",
    "homogeneous_poisson",
    "e_total",
    "e_ionic",
    "e_electronic",
    "n",
    "e_ij_max",
    "weighted_surface_energy_EV_PER_ANG2",
    "weighted_surface_energy",
    "weighted_work_function",
    "surface_anisotropy",
    "shape_factor",
    "has_reconstructed",
    "possible_species",
    "has_props",
    "theoretical",
    "database_IDs"
  ]
}
