{
  "builder_meta": null,
  "nsites": null,
  "elements": null,
  "nelements": null,
  "composition": null,
  "composition_reduced": null,
  "formula_pretty": "Nb5Ge3",
  "formula_anonymous": "A3B5",
  "chemsys": null,
  "volume": 273.2471764979311,
  "density": 8.294600189831986,
  "density_atomic": 17.077948531120693,
  "symmetry": null,
  "property_name": null,
  "material_id": "mp-1188215",
  "deprecated": null,
  "deprecation_reasons": null,
  "last_updated": null,
  "origins": null,
  "warnings": null,
  "structure": {
    "@module": "pymatgen.core.structure",
    "@class": "Structure",
    "charge": 0,
    "lattice": {
      "matrix": [
        [-6.73465, 0.0, 0.0],
        [0.0, 6.73465, 0.0],
        [3.367325, -3.367325, -6.024564]
      ],
      "pbc": [true, true, true],
      "a": 6.73465,
      "b": 6.73465,
      "c": 7.6793962458871725,
      "alpha": 116.00746508828709,
      "beta": 116.00746508828709,
      "gamma": 90.0,
      "volume": 273.2471764979311
    },
    "properties": {},
    "sites": [
      {
        "species": [{ "element": "Nb", "occu": 1 }],
        "abc": [0.5, 0.5, 0.0],
        "properties": { "magmom": 0.0 },
        "label": "Nb",
        "xyz": [-3.367325, 3.367325, 0.0]
      },
      {
        "species": [{ "element": "Nb", "occu": 1 }],
        "abc": [0.0, 0.0, 0.0],
        "properties": { "magmom": 0.0 },
        "label": "Nb",
        "xyz": [0.0, 0.0, 0.0]
      },
      {
        "species": [{ "element": "Nb", "occu": 1 }],
        "abc": [0.988532, 0.815906999999999, 0.304438],
        "properties": { "magmom": 0.0 },
        "label": "Nb",
        "xyz": [-5.63227534545, 4.469706389199994, -1.8341062150319998]
      },
      {
        "species": [{ "element": "Nb", "occu": 1 }],
        "abc": [0.315907, 0.488531999999999, 0.304438],
        "properties": { "magmom": 0.0 },
        "label": "Nb",
        "xyz": [-1.1023813892000003, 2.2649503454499937, -1.8341062150319998]
      },
      {
        "species": [{ "element": "Nb", "occu": 1 }],
        "abc": [0.815906999999999, 0.315907, 0.304438],
        "properties": { "magmom": 0.0 },
        "label": "Nb",
        "xyz": [-4.469706389199994, 1.1023813892000003, -1.8341062150319998]
      },
      {
        "species": [{ "element": "Nb", "occu": 1 }],
        "abc": [0.488531999999999, 0.988532, 0.304438],
        "properties": { "magmom": 0.0 },
        "label": "Nb",
        "xyz": [-2.2649503454499937, 5.63227534545, -1.8341062150319998]
      },
      {
        "species": [{ "element": "Nb", "occu": 1 }],
        "abc": [0.011467999999999002, 0.184092999999999, 0.695562],
        "properties": { "magmom": 0.0 },
        "label": "Nb",
        "xyz": [2.2649503454500066, -1.1023813892000065, -4.190457784968]
      },
      {
        "species": [{ "element": "Nb", "occu": 1 }],
        "abc": [0.684093, 0.511467999999999, 0.695562],
        "properties": { "magmom": 0.0 },
        "label": "Nb",
        "xyz": [-2.2649436108, 1.1023746545499935, -4.190457784968]
      },
      {
        "species": [{ "element": "Nb", "occu": 1 }],
        "abc": [0.184092999999999, 0.684093, 0.695562],
        "properties": { "magmom": 0.0 },
        "label": "Nb",
        "xyz": [1.1023813892000065, 2.2649436108, -4.190457784968]
      },
      {
        "species": [{ "element": "Nb", "occu": 1 }],
        "abc": [0.511467999999999, 0.011467999999999002, 0.695562],
        "properties": { "magmom": 0.0 },
        "label": "Nb",
        "xyz": [-1.1023746545499935, -2.2649503454500066, -4.190457784968]
      },
      {
        "species": [{ "element": "Ge", "occu": 1 }],
        "abc": [0.75, 0.75, 0.5],
        "properties": { "magmom": -0.0 },
        "label": "Ge",
        "xyz": [-3.3673249999999997, 3.3673249999999997, -3.012282]
      },
      {
        "species": [{ "element": "Ge", "occu": 1 }],
        "abc": [0.25, 0.25, 0.5],
        "properties": { "magmom": -0.0 },
        "label": "Ge",
        "xyz": [0.0, 0.0, -3.012282]
      },
      {
        "species": [{ "element": "Ge", "occu": 1 }],
        "abc": [0.634633999999999, 0.865366, 0.0],
        "properties": { "magmom": -0.0 },
        "label": "Ge",
        "xyz": [-4.2740378680999935, 5.8279371319, 0.0]
      },
      {
        "species": [{ "element": "Ge", "occu": 1 }],
        "abc": [0.365365999999999, 0.134634, 0.0],
        "properties": { "magmom": -0.0 },
        "label": "Ge",
        "xyz": [-2.4606121318999934, 0.9067128681000001, 0.0]
      },
      {
        "species": [{ "element": "Ge", "occu": 1 }],
        "abc": [0.865366, 0.365365999999999, 0.0],
        "properties": { "magmom": -0.0 },
        "label": "Ge",
        "xyz": [-5.8279371319, 2.4606121318999934, 0.0]
      },
      {
        "species": [{ "element": "Ge", "occu": 1 }],
        "abc": [0.134634, 0.634633999999999, 0.0],
        "properties": { "magmom": -0.0 },
        "label": "Ge",
        "xyz": [-0.9067128681000001, 4.2740378680999935, 0.0]
      }
    ]
  },
  "task_ids": null,
  "uncorrected_energy_per_atom": null,
  "energy_per_atom": -8.526929284375,
  "formation_energy_per_atom": -0.47997818875000103,
  "energy_above_hull": 0.0,
  "is_stable": true,
  "equilibrium_reaction_energy_per_atom": null,
  "decomposes_to": null,
  "xas": null,
  "grain_boundaries": null,
  "band_gap": 0.0,
  "cbm": null,
  "vbm": null,
  "efermi": 5.70224483,
  "is_gap_direct": null,
  "is_metal": null,
  "es_source_calc_id": null,
  "bandstructure": null,
  "dos": null,
  "dos_energy_up": null,
  "dos_energy_down": null,
  "is_magnetic": null,
  "ordering": null,
  "total_magnetization": 0.0035708999999990005,
  "total_magnetization_normalized_vol": null,
  "total_magnetization_normalized_formula_units": null,
  "num_magnetic_sites": null,
  "num_unique_magnetic_sites": null,
  "types_of_magnetic_species": null,
  "bulk_modulus": null,
  "shear_modulus": null,
  "universal_anisotropy": null,
  "homogeneous_poisson": null,
  "e_total": null,
  "e_ionic": null,
  "e_electronic": null,
  "n": null,
  "e_ij_max": null,
  "weighted_surface_energy_EV_PER_ANG2": null,
  "weighted_surface_energy": null,
  "weighted_work_function": null,
  "surface_anisotropy": null,
  "shape_factor": null,
  "has_reconstructed": null,
  "possible_species": null,
  "has_props": null,
  "theoretical": null,
  "database_IDs": null,
  "fields_not_requested": [
    "builder_meta",
    "nsites",
    "elements",
    "nelements",
    "composition",
    "composition_reduced",
    "chemsys",
    "symmetry",
    "property_name",
    "deprecated",
    "deprecation_reasons",
    "last_updated",
    "origins",
    "warnings",
    "task_ids",
    "uncorrected_energy_per_atom",
    "equilibrium_reaction_energy_per_atom",
    "decomposes_to",
    "xas",
    "grain_boundaries",
    "cbm",
    "vbm",
    "is_gap_direct",
    "is_metal",
    "es_source_calc_id",
    "bandstructure",
    "dos",
    "dos_energy_up",
    "dos_energy_down",
    "is_magnetic",
    "ordering",
    "total_magnetization_normalized_vol",
    "total_magnetization_normalized_formula_units",
    "num_magnetic_sites",
    "num_unique_magnetic_sites",
    "types_of_magnetic_species",
    "bulk_modulus",
    "shear_modulus",
    "universal_anisotropy",
    "homogeneous_poisson",
    "e_total",
    "e_ionic",
    "e_electronic",
    "n",
    "e_ij_max",
    "weighted_surface_energy_EV_PER_ANG2",
    "weighted_surface_energy",
    "weighted_work_function",
    "surface_anisotropy",
    "shape_factor",
    "has_reconstructed",
    "possible_species",
    "has_props",
    "theoretical",
    "database_IDs"
  ]
}
