{"builder_meta": null, "nsites": null, "elements": null, "nelements": null, "composition": null, "composition_reduced": null, "formula_pretty": "Nb5Ir7", "formula_anonymous": "A5B7", "chemsys": null, "volume": 191.14086867322914, "density": 15.724843424892613, "density_atomic": 15.928405722769094, "symmetry": null, "property_name": null, "material_id": "mp-1220502", "deprecated": null, "deprecation_reasons": null, "last_updated": null, "origins": null, "warnings": null, "structure": {"@module": "pymatgen.core.structure", "@class": "Structure", "charge": 0, "lattice": {"matrix": [[2.853673, 0.0, 0.0], [0.0, 4.862855, 0.0], [0.0, 0.0, 13.773935]], "pbc": [true, true, true], "a": 2.853673, "b": 4.862855, "c": 13.773935, "alpha": 90.0, "beta": 90.0, "gamma": 90.0, "volume": 191.14086867322914}, "properties": {}, "sites": [{"species": [{"element": "Nb", "occu": 1}], "abc": [0.0, 0.691755999999999, 0.340462], "properties": {"magmom": 0.0}, "label": "Nb", "xyz": [0.0, 3.363909123379995, 4.68950145797]}, {"species": [{"element": "Nb", "occu": 1}], "abc": [0.0, 0.329995, 0.166124], "properties": {"magmom": 0.0}, "label": "Nb", "xyz": [0.0, 1.6047178357249998, 2.28818117794]}, {"species": [{"element": "Nb", "occu": 1}], "abc": [0.0, 0.691755999999999, 0.659538], "properties": {"magmom": 0.0}, "label": "Nb", "xyz": [0.0, 3.363909123379995, 9.084433542029998]}, {"species": [{"element": "Nb", "occu": 1}], "abc": [0.0, 0.329995, 0.833876], "properties": {"magmom": 0.0}, "label": "Nb", "xyz": [0.0, 1.6047178357249998, 11.48575382206]}, {"species": [{"element": "Nb", "occu": 1}], "abc": [0.0, 0.953318, 0.0], "properties": {"magmom": 0.0}, "label": "Nb", "xyz": [0.0, 4.63584720289, 0.0]}, {"species": [{"element": "Ir", "occu": 1}], "abc": [0.5, 0.462889, 0.0], "properties": {"magmom": -0.0}, "label": "Ir", "xyz": [1.4268365, 2.2509620880949996, 0.0]}, {"species": [{"element": "Ir", "occu": 1}], "abc": [0.5, 0.509639, 0.5], "properties": {"magmom": 0.0}, "label": "Ir", "xyz": [1.4268365, 2.4783005593449996, 6.8869675]}, {"species": [{"element": "Ir", "occu": 1}], "abc": [0.5, 0.17805, 0.335957], "properties": {"magmom": -0.0}, "label": "Ir", "xyz": [1.4268365, 0.86583133275, 4.627449880795]}, {"species": [{"element": "Ir", "occu": 1}], "abc": [0.5, 0.826295999999999, 0.170136999999999], "properties": {"magmom": -0.0}, "label": "Ir", "xyz": [1.4268365, 4.018157635079995, 2.3434559790949865]}, {"species": [{"element": "Ir", "occu": 1}], "abc": [0.5, 0.17805, 0.664042999999999], "properties": {"magmom": -0.0}, "label": "Ir", "xyz": [1.4268365, 0.86583133275, 9.146485119204987]}, {"species": [{"element": "Ir", "occu": 1}], "abc": [0.5, 0.826295999999999, 0.829863], "properties": {"magmom": 0.0}, "label": "Ir", "xyz": [1.4268365, 4.018157635079995, 11.430479020905]}, {"species": [{"element": "Ir", "occu": 1}], "abc": [0.0, 0.02196, 0.5], "properties": {"magmom": -0.0}, "label": "Ir", "xyz": [0.0, 0.1067882958, 6.8869675]}]}, "task_ids": null, "uncorrected_energy_per_atom": null, "energy_per_atom": -9.83548632, "formation_energy_per_atom": -0.47085594833333305, "energy_above_hull": 0.079589335416667, "is_stable": false, "equilibrium_reaction_energy_per_atom": null, "decomposes_to": null, "xas": null, "grain_boundaries": null, "band_gap": 0.0, "cbm": null, "vbm": null, "efermi": 7.62059828, "is_gap_direct": null, "is_metal": null, "es_source_calc_id": null, "bandstructure": null, "dos": null, "dos_energy_up": null, "dos_energy_down": null, "is_magnetic": null, "ordering": null, "total_magnetization": 0.0017163999999990002, "total_magnetization_normalized_vol": null, "total_magnetization_normalized_formula_units": null, "num_magnetic_sites": null, "num_unique_magnetic_sites": null, "types_of_magnetic_species": null, "bulk_modulus": null, "shear_modulus": null, "universal_anisotropy": null, "homogeneous_poisson": null, "e_total": null, "e_ionic": null, "e_electronic": null, "n": null, "e_ij_max": null, "weighted_surface_energy_EV_PER_ANG2": null, "weighted_surface_energy": null, "weighted_work_function": null, "surface_anisotropy": null, "shape_factor": null, "has_reconstructed": null, "possible_species": null, "has_props": null, "theoretical": null, "database_IDs": null, "fields_not_requested": ["builder_meta", "nsites", "elements", "nelements", "composition", "composition_reduced", "chemsys", "symmetry", "property_name", "deprecated", "deprecation_reasons", "last_updated", "origins", "warnings", "task_ids", "uncorrected_energy_per_atom", "equilibrium_reaction_energy_per_atom", "decomposes_to", "xas", "grain_boundaries", "cbm", "vbm", "is_gap_direct", "is_metal", "es_source_calc_id", "bandstructure", "dos", "dos_energy_up", "dos_energy_down", "is_magnetic", "ordering", "total_magnetization_normalized_vol", "total_magnetization_normalized_formula_units", "num_magnetic_sites", "num_unique_magnetic_sites", "types_of_magnetic_species", "bulk_modulus", "shear_modulus", "universal_anisotropy", "homogeneous_poisson", "e_total", "e_ionic", "e_electronic", "n", "e_ij_max", "weighted_surface_energy_EV_PER_ANG2", "weighted_surface_energy", "weighted_work_function", "surface_anisotropy", "shape_factor", "has_reconstructed", "possible_species", "has_props", "theoretical", "database_IDs"]}