{
  "builder_meta": null,
  "nsites": null,
  "elements": null,
  "nelements": null,
  "composition": null,
  "composition_reduced": null,
  "formula_pretty": "Nb5N6",
  "formula_anonymous": "A5B6",
  "chemsys": null,
  "volume": 250.35606148235573,
  "density": 7.277038930099967,
  "density_atomic": 11.379820976470715,
  "symmetry": null,
  "property_name": null,
  "material_id": "mp-7234",
  "deprecated": null,
  "deprecation_reasons": null,
  "last_updated": null,
  "origins": null,
  "warnings": null,
  "structure": {
    "@module": "pymatgen.core.structure",
    "@class": "Structure",
    "charge": 0,
    "lattice": {
      "matrix": [
        [5.25040736, 1e-8, -0.0],
        [-2.62520267, 4.54698531, 0.0],
        [-0.0, 0.0, 10.48676556]
      ],
      "pbc": [true, true, true],
      "a": 5.25040736,
      "b": 5.250406124094681,
      "c": 10.48676556,
      "alpha": 90.0,
      "beta": 90.0,
      "gamma": 119.99999495075247,
      "volume": 250.35606148235573
    },
    "properties": {},
    "sites": [
      {
        "species": [{ "element": "Nb", "occu": 1 }],
        "abc": [0.333333, 0.666667, 0.5],
        "properties": { "magmom": -0.0 },
        "label": "Nb",
        "xyz": [-1.9518700105081166e-6, 3.0313250589951, 5.24338278]
      },
      {
        "species": [{ "element": "Nb", "occu": 1 }],
        "abc": [0.666667, 0.333333, -0.0],
        "properties": { "magmom": -0.0 },
        "label": "Nb",
        "xyz": [2.62520664187001, 1.5156602610049001, 0.0]
      },
      {
        "species": [{ "element": "Nb", "occu": 1 }],
        "abc": [0.666667, 0.333333, 0.5],
        "properties": { "magmom": -0.0 },
        "label": "Nb",
        "xyz": [2.62520664187001, 1.5156602610049001, 5.24338278]
      },
      {
        "species": [{ "element": "Nb", "occu": 1 }],
        "abc": [0.333333, 0.666667, -0.0],
        "properties": { "magmom": -0.0 },
        "label": "Nb",
        "xyz": [-1.9518700105081166e-6, 3.0313250589951, 0.0]
      },
      {
        "species": [{ "element": "Nb", "occu": 1 }],
        "abc": [0.67583928, 0.0, 0.75],
        "properties": { "magmom": 0.0 },
        "label": "Nb",
        "xyz": [3.548431529889101, 6.7583928e-9, 7.86507417]
      },
      {
        "species": [{ "element": "Nb", "occu": 1 }],
        "abc": [0.67583928, 0.67583928, 0.25],
        "properties": { "magmom": 0.0 },
        "label": "Nb",
        "xyz": [1.774216447542223, 3.07303128483937, 2.62169139]
      },
      {
        "species": [{ "element": "Nb", "occu": 1 }],
        "abc": [0.0, 0.32416072, 0.25],
        "properties": { "magmom": 0.0 },
        "label": "Nb",
        "xyz": [-0.8509875876531225, 1.4739540319190234, 2.62169139]
      },
      {
        "species": [{ "element": "Nb", "occu": 1 }],
        "abc": [-0.0, 0.67583928, 0.75],
        "properties": { "magmom": 0.0 },
        "label": "Nb",
        "xyz": [-1.7742150823468779, 3.073031278080977, 7.86507417]
      },
      {
        "species": [{ "element": "Nb", "occu": 1 }],
        "abc": [0.32416072, 0.32416072, 0.75],
        "properties": { "magmom": 0.0 },
        "label": "Nb",
        "xyz": [0.8509882424577766, 1.4739540351606306, 7.86507417]
      },
      {
        "species": [{ "element": "Nb", "occu": 1 }],
        "abc": [0.32416072, -0.0, 0.25],
        "properties": { "magmom": 0.0 },
        "label": "Nb",
        "xyz": [1.7019758301108991, 3.2416072000000003e-9, 2.62169139]
      },
      {
        "species": [{ "element": "N", "occu": 1 }],
        "abc": [0.34086608, 0.34086608, 0.37790654],
        "properties": { "magmom": 0.0 },
        "label": "N",
        "xyz": [0.8948432318779151, 1.5499130618459458, 3.9630172885707626]
      },
      {
        "species": [{ "element": "N", "occu": 1 }],
        "abc": [0.65913392, -0.0, 0.37790654],
        "properties": { "magmom": 0.0 },
        "label": "N",
        "xyz": [3.460721584793651, 6.591339200000001e-9, 3.9630172885707626]
      },
      {
        "species": [{ "element": "N", "occu": 1 }],
        "abc": [0.0, 0.65913392, 0.37790654],
        "properties": { "magmom": 0.0 },
        "label": "N",
        "xyz": [-1.7303601266715667, 2.9970722515627153, 3.9630172885707626]
      },
      {
        "species": [{ "element": "N", "occu": 1 }],
        "abc": [-0.0, 0.34086608, 0.87790554],
        "properties": { "magmom": 0.0 },
        "label": "N",
        "xyz": [-0.8948425433284337, 1.5499130584372849, 9.206389581805203]
      },
      {
        "species": [{ "element": "N", "occu": 1 }],
        "abc": [0.65913392, -0.0, 0.12209346],
        "properties": { "magmom": 0.0 },
        "label": "N",
        "xyz": [3.460721584793651, 6.591339200000001e-9, 1.2803654914292377]
      },
      {
        "species": [{ "element": "N", "occu": 1 }],
        "abc": [0.65913392, 0.65913392, 0.87790554],
        "properties": { "magmom": 0.0 },
        "label": "N",
        "xyz": [1.7303614581220845, 2.9970722581540543, 9.206389581805203]
      },
      {
        "species": [{ "element": "N", "occu": 1 }],
        "abc": [0.34086608, 0.0, 0.87790554],
        "properties": { "magmom": 0.0 },
        "label": "N",
        "xyz": [1.7896857752063489, 3.4086608000000004e-9, 9.206389581805203]
      },
      {
        "species": [{ "element": "N", "occu": 1 }],
        "abc": [0.65913392, 0.65913392, 0.62209446],
        "properties": { "magmom": 0.0 },
        "label": "N",
        "xyz": [1.7303614581220845, 2.9970722581540543, 6.523758758194798]
      },
      {
        "species": [{ "element": "N", "occu": 1 }],
        "abc": [-0.0, 0.34086608, 0.62209446],
        "properties": { "magmom": 0.0 },
        "label": "N",
        "xyz": [-0.8948425433284337, 1.5499130584372849, 6.523758758194798]
      },
      {
        "species": [{ "element": "N", "occu": 1 }],
        "abc": [0.0, 0.65913392, 0.12209346],
        "properties": { "magmom": 0.0 },
        "label": "N",
        "xyz": [-1.7303601266715667, 2.9970722515627153, 1.2803654914292377]
      },
      {
        "species": [{ "element": "N", "occu": 1 }],
        "abc": [0.34086608, 0.0, 0.62209446],
        "properties": { "magmom": 0.0 },
        "label": "N",
        "xyz": [1.7896857752063489, 3.4086608000000004e-9, 6.523758758194798]
      },
      {
        "species": [{ "element": "N", "occu": 1 }],
        "abc": [0.34086608, 0.34086608, 0.12209346],
        "properties": { "magmom": 0.0 },
        "label": "N",
        "xyz": [0.8948432318779151, 1.5499130618459458, 1.2803654914292377]
      }
    ]
  },
  "task_ids": null,
  "uncorrected_energy_per_atom": null,
  "energy_per_atom": -17.400325137727272,
  "formation_energy_per_atom": -1.178245385227272,
  "energy_above_hull": 0.0,
  "is_stable": true,
  "equilibrium_reaction_energy_per_atom": null,
  "decomposes_to": null,
  "xas": null,
  "grain_boundaries": null,
  "band_gap": 0.0,
  "cbm": null,
  "vbm": null,
  "efermi": 6.92956339,
  "is_gap_direct": null,
  "is_metal": null,
  "es_source_calc_id": null,
  "bandstructure": null,
  "dos": null,
  "dos_energy_up": null,
  "dos_energy_down": null,
  "is_magnetic": null,
  "ordering": null,
  "total_magnetization": 4.599999999999997e-6,
  "total_magnetization_normalized_vol": null,
  "total_magnetization_normalized_formula_units": null,
  "num_magnetic_sites": null,
  "num_unique_magnetic_sites": null,
  "types_of_magnetic_species": null,
  "bulk_modulus": null,
  "shear_modulus": null,
  "universal_anisotropy": null,
  "homogeneous_poisson": null,
  "e_total": null,
  "e_ionic": null,
  "e_electronic": null,
  "n": null,
  "e_ij_max": null,
  "weighted_surface_energy_EV_PER_ANG2": null,
  "weighted_surface_energy": null,
  "weighted_work_function": null,
  "surface_anisotropy": null,
  "shape_factor": null,
  "has_reconstructed": null,
  "possible_species": null,
  "has_props": null,
  "theoretical": null,
  "database_IDs": null,
  "fields_not_requested": [
    "builder_meta",
    "nsites",
    "elements",
    "nelements",
    "composition",
    "composition_reduced",
    "chemsys",
    "symmetry",
    "property_name",
    "deprecated",
    "deprecation_reasons",
    "last_updated",
    "origins",
    "warnings",
    "task_ids",
    "uncorrected_energy_per_atom",
    "equilibrium_reaction_energy_per_atom",
    "decomposes_to",
    "xas",
    "grain_boundaries",
    "cbm",
    "vbm",
    "is_gap_direct",
    "is_metal",
    "es_source_calc_id",
    "bandstructure",
    "dos",
    "dos_energy_up",
    "dos_energy_down",
    "is_magnetic",
    "ordering",
    "total_magnetization_normalized_vol",
    "total_magnetization_normalized_formula_units",
    "num_magnetic_sites",
    "num_unique_magnetic_sites",
    "types_of_magnetic_species",
    "bulk_modulus",
    "shear_modulus",
    "universal_anisotropy",
    "homogeneous_poisson",
    "e_total",
    "e_ionic",
    "e_electronic",
    "n",
    "e_ij_max",
    "weighted_surface_energy_EV_PER_ANG2",
    "weighted_surface_energy",
    "weighted_work_function",
    "surface_anisotropy",
    "shape_factor",
    "has_reconstructed",
    "possible_species",
    "has_props",
    "theoretical",
    "database_IDs"
  ]
}
