{
  "builder_meta": null,
  "nsites": null,
  "elements": null,
  "nelements": null,
  "composition": null,
  "composition_reduced": null,
  "formula_pretty": "Nb5Ni",
  "formula_anonymous": "AB5",
  "chemsys": null,
  "volume": 424.49063239224415,
  "density": 8.187092811797742,
  "density_atomic": 17.687109683010174,
  "symmetry": null,
  "property_name": null,
  "material_id": "mp-669699",
  "deprecated": null,
  "deprecation_reasons": null,
  "last_updated": null,
  "origins": null,
  "warnings": null,
  "structure": {
    "@module": "pymatgen.core.structure",
    "@class": "Structure",
    "charge": 0,
    "lattice": {
      "matrix": [
        [0.0, 5.965031, 5.965031],
        [5.965031, 0.0, 5.965031],
        [5.965031, 5.965031, 0.0]
      ],
      "pbc": [true, true, true],
      "a": 8.435827740175945,
      "b": 8.435827740175945,
      "c": 8.435827740175945,
      "alpha": 59.99999999999999,
      "beta": 59.99999999999999,
      "gamma": 59.99999999999999,
      "volume": 424.49063239224415
    },
    "properties": {},
    "sites": [
      {
        "species": [{ "element": "Nb", "occu": 1 }],
        "abc": [0.33944799999999903, 0.9816549999999991, 0.33944799999999903],
        "properties": { "magmom": 0.018000000000000002 },
        "label": "Nb",
        "xyz": [7.880420349192988, 4.049635685775988, 7.880420349192988]
      },
      {
        "species": [{ "element": "Nb", "occu": 1 }],
        "abc": [0.315550999999999, 0.315550999999999, 0.684449],
        "properties": { "magmom": 0.015 },
        "label": "Nb",
        "xyz": [5.965030999999994, 5.965030999999994, 3.7645429941619883]
      },
      {
        "species": [{ "element": "Nb", "occu": 1 }],
        "abc": [0.33944799999999903, 0.33944799999999903, 0.9816549999999991],
        "properties": { "magmom": 0.013000000000000001 },
        "label": "Nb",
        "xyz": [7.880420349192988, 7.880420349192988, 4.049635685775988]
      },
      {
        "species": [{ "element": "Nb", "occu": 1 }],
        "abc": [0.934449, 0.934449, 0.565551],
        "properties": { "magmom": 0.015 },
        "label": "Nb",
        "xyz": [8.9475465, 8.9475465, 11.148034505838]
      },
      {
        "species": [{ "element": "Nb", "occu": 1 }],
        "abc": [0.910551999999999, 0.268345, 0.910551999999999],
        "properties": { "magmom": 0.018000000000000002 },
        "label": "Nb",
        "xyz": [7.032157150806993, 10.862941814223987, 7.032157150806993]
      },
      {
        "species": [{ "element": "Nb", "occu": 1 }],
        "abc": [0.565551, 0.934449, 0.565551],
        "properties": { "magmom": 0.022 },
        "label": "Nb",
        "xyz": [8.9475465, 6.747058494162, 8.9475465]
      },
      {
        "species": [{ "element": "Nb", "occu": 1 }],
        "abc": [0.934449, 0.565551, 0.934449],
        "properties": { "magmom": 0.025 },
        "label": "Nb",
        "xyz": [8.9475465, 11.148034505838, 8.9475465]
      },
      {
        "species": [{ "element": "Nb", "occu": 1 }],
        "abc": [0.910551999999999, 0.910551999999999, 0.268345],
        "properties": { "magmom": 0.013000000000000001 },
        "label": "Nb",
        "xyz": [7.032157150806993, 7.032157150806993, 10.862941814223987]
      },
      {
        "species": [{ "element": "Nb", "occu": 1 }],
        "abc": [0.9816549999999991, 0.33944799999999903, 0.33944799999999903],
        "properties": { "magmom": 0.017 },
        "label": "Nb",
        "xyz": [4.049635685775988, 7.880420349192988, 7.880420349192988]
      },
      {
        "species": [{ "element": "Nb", "occu": 1 }],
        "abc": [0.910551999999999, 0.910551999999999, 0.910551999999999],
        "properties": { "magmom": 0.013000000000000001 },
        "label": "Nb",
        "xyz": [10.862941814223987, 10.862941814223987, 10.862941814223987]
      },
      {
        "species": [{ "element": "Nb", "occu": 1 }],
        "abc": [0.934449, 0.565551, 0.565551],
        "properties": { "magmom": 0.025 },
        "label": "Nb",
        "xyz": [6.747058494162, 8.9475465, 8.9475465]
      },
      {
        "species": [{ "element": "Nb", "occu": 1 }],
        "abc": [0.565551, 0.934449, 0.934449],
        "properties": { "magmom": 0.022 },
        "label": "Nb",
        "xyz": [11.148034505838, 8.9475465, 8.9475465]
      },
      {
        "species": [{ "element": "Nb", "occu": 1 }],
        "abc": [0.684449, 0.315550999999999, 0.315550999999999],
        "properties": { "magmom": 0.022 },
        "label": "Nb",
        "xyz": [3.7645429941619883, 5.965030999999994, 5.965030999999994]
      },
      {
        "species": [{ "element": "Nb", "occu": 1 }],
        "abc": [0.315550999999999, 0.684449, 0.315550999999999],
        "properties": { "magmom": 0.025 },
        "label": "Nb",
        "xyz": [5.965030999999994, 3.7645429941619883, 5.965030999999994]
      },
      {
        "species": [{ "element": "Nb", "occu": 1 }],
        "abc": [0.565551, 0.565551, 0.934449],
        "properties": { "magmom": 0.012 },
        "label": "Nb",
        "xyz": [8.9475465, 8.9475465, 6.747058494162]
      },
      {
        "species": [{ "element": "Nb", "occu": 1 }],
        "abc": [0.268345, 0.910551999999999, 0.910551999999999],
        "properties": { "magmom": 0.017 },
        "label": "Nb",
        "xyz": [10.862941814223987, 7.032157150806993, 7.032157150806993]
      },
      {
        "species": [{ "element": "Nb", "occu": 1 }],
        "abc": [0.33944799999999903, 0.33944799999999903, 0.33944799999999903],
        "properties": { "magmom": 0.013000000000000001 },
        "label": "Nb",
        "xyz": [4.049635685775988, 4.049635685775988, 4.049635685775988]
      },
      {
        "species": [{ "element": "Nb", "occu": 1 }],
        "abc": [0.684449, 0.315550999999999, 0.684449],
        "properties": { "magmom": 0.022 },
        "label": "Nb",
        "xyz": [5.965030999999994, 8.165519005838, 5.965030999999994]
      },
      {
        "species": [{ "element": "Nb", "occu": 1 }],
        "abc": [0.684449, 0.684449, 0.315550999999999],
        "properties": { "magmom": 0.012 },
        "label": "Nb",
        "xyz": [5.965030999999994, 5.965030999999994, 8.165519005838]
      },
      {
        "species": [{ "element": "Nb", "occu": 1 }],
        "abc": [0.315550999999999, 0.684449, 0.684449],
        "properties": { "magmom": 0.025 },
        "label": "Nb",
        "xyz": [8.165519005838, 5.965030999999994, 5.965030999999994]
      },
      {
        "species": [{ "element": "Ni", "occu": 1 }],
        "abc": [0.125, 0.125, 0.625],
        "properties": { "magmom": 0.031 },
        "label": "Ni",
        "xyz": [4.47377325, 4.47377325, 1.49125775]
      },
      {
        "species": [{ "element": "Ni", "occu": 1 }],
        "abc": [0.125, 0.625, 0.125],
        "properties": { "magmom": 0.023 },
        "label": "Ni",
        "xyz": [4.47377325, 1.49125775, 4.47377325]
      },
      {
        "species": [{ "element": "Ni", "occu": 1 }],
        "abc": [0.125, 0.125, 0.125],
        "properties": { "magmom": 0.031 },
        "label": "Ni",
        "xyz": [1.49125775, 1.49125775, 1.49125775]
      },
      {
        "species": [{ "element": "Ni", "occu": 1 }],
        "abc": [0.625, 0.125, 0.125],
        "properties": { "magmom": 0.025 },
        "label": "Ni",
        "xyz": [1.49125775, 4.47377325, 4.47377325]
      }
    ]
  },
  "task_ids": null,
  "uncorrected_energy_per_atom": null,
  "energy_per_atom": -9.24210696125,
  "formation_energy_per_atom": 0.139003352083333,
  "energy_above_hull": 0.21345821791666503,
  "is_stable": false,
  "equilibrium_reaction_energy_per_atom": null,
  "decomposes_to": null,
  "xas": null,
  "grain_boundaries": null,
  "band_gap": 0.0,
  "cbm": null,
  "vbm": null,
  "efermi": 5.12045555,
  "is_gap_direct": null,
  "is_metal": null,
  "es_source_calc_id": null,
  "bandstructure": null,
  "dos": null,
  "dos_energy_up": null,
  "dos_energy_down": null,
  "is_magnetic": null,
  "ordering": null,
  "total_magnetization": 0.653706,
  "total_magnetization_normalized_vol": null,
  "total_magnetization_normalized_formula_units": null,
  "num_magnetic_sites": null,
  "num_unique_magnetic_sites": null,
  "types_of_magnetic_species": null,
  "bulk_modulus": null,
  "shear_modulus": null,
  "universal_anisotropy": null,
  "homogeneous_poisson": null,
  "e_total": null,
  "e_ionic": null,
  "e_electronic": null,
  "n": null,
  "e_ij_max": null,
  "weighted_surface_energy_EV_PER_ANG2": null,
  "weighted_surface_energy": null,
  "weighted_work_function": null,
  "surface_anisotropy": null,
  "shape_factor": null,
  "has_reconstructed": null,
  "possible_species": null,
  "has_props": null,
  "theoretical": null,
  "database_IDs": null,
  "fields_not_requested": [
    "builder_meta",
    "nsites",
    "elements",
    "nelements",
    "composition",
    "composition_reduced",
    "chemsys",
    "symmetry",
    "property_name",
    "deprecated",
    "deprecation_reasons",
    "last_updated",
    "origins",
    "warnings",
    "task_ids",
    "uncorrected_energy_per_atom",
    "equilibrium_reaction_energy_per_atom",
    "decomposes_to",
    "xas",
    "grain_boundaries",
    "cbm",
    "vbm",
    "is_gap_direct",
    "is_metal",
    "es_source_calc_id",
    "bandstructure",
    "dos",
    "dos_energy_up",
    "dos_energy_down",
    "is_magnetic",
    "ordering",
    "total_magnetization_normalized_vol",
    "total_magnetization_normalized_formula_units",
    "num_magnetic_sites",
    "num_unique_magnetic_sites",
    "types_of_magnetic_species",
    "bulk_modulus",
    "shear_modulus",
    "universal_anisotropy",
    "homogeneous_poisson",
    "e_total",
    "e_ionic",
    "e_electronic",
    "n",
    "e_ij_max",
    "weighted_surface_energy_EV_PER_ANG2",
    "weighted_surface_energy",
    "weighted_work_function",
    "surface_anisotropy",
    "shape_factor",
    "has_reconstructed",
    "possible_species",
    "has_props",
    "theoretical",
    "database_IDs"
  ]
}
