{
  "builder_meta": null,
  "nsites": null,
  "elements": null,
  "nelements": null,
  "composition": null,
  "composition_reduced": null,
  "formula_pretty": "Nb5P3",
  "formula_anonymous": "A3B5",
  "chemsys": null,
  "volume": 1015.7115293165404,
  "density": 7.290832221046144,
  "density_atomic": 15.870492645570943,
  "symmetry": null,
  "property_name": null,
  "material_id": "mp-648999",
  "deprecated": null,
  "deprecation_reasons": null,
  "last_updated": null,
  "origins": null,
  "warnings": null,
  "structure": {
    "@module": "pymatgen.core.structure",
    "@class": "Structure",
    "charge": 0,
    "lattice": {
      "matrix": [
        [3.44476756, 0.0, 0.0],
        [0.0, 11.54525737, 0.0],
        [0.0, 0.0, 25.53917363]
      ],
      "pbc": [true, true, true],
      "a": 3.44476756,
      "b": 11.54525737,
      "c": 25.53917363,
      "alpha": 90.0,
      "beta": 90.0,
      "gamma": 90.0,
      "volume": 1015.7115293165404
    },
    "properties": {},
    "sites": [
      {
        "species": [{ "element": "Nb", "occu": 1 }],
        "abc": [0.25, 0.93210578, 0.6009659900000001],
        "properties": { "magmom": 0.0 },
        "label": "Nb",
        "xyz": [0.86119189, 10.761401126164598, 15.348174764334846]
      },
      {
        "species": [{ "element": "Nb", "occu": 1 }],
        "abc": [0.25, 0.34434672, 0.25978468],
        "properties": { "magmom": 0.0 },
        "label": "Nb",
        "xyz": [0.86119189, 3.975571506915326, 6.634686048933989]
      },
      {
        "species": [{ "element": "Nb", "occu": 1 }],
        "abc": [0.75, 0.43210578, 0.89903401],
        "properties": { "magmom": 0.0 },
        "label": "Nb",
        "xyz": [2.58357567, 4.988772441164598, 22.960585680665158]
      },
      {
        "species": [{ "element": "Nb", "occu": 1 }],
        "abc": [0.25, 0.21175896, 0.62436524],
        "properties": { "magmom": 0.0 },
        "label": "Nb",
        "xyz": [0.86119189, 2.444811693603535, 15.945772272896622]
      },
      {
        "species": [{ "element": "Nb", "occu": 1 }],
        "abc": [0.75, 0.06789422, 0.39903401],
        "properties": { "magmom": 0.0 },
        "label": "Nb",
        "xyz": [2.58357567, 0.7838562438354014, 10.190998865665156]
      },
      {
        "species": [{ "element": "Nb", "occu": 1 }],
        "abc": [0.25, 0.56789422, 0.10096599],
        "properties": { "magmom": 0.0 },
        "label": "Nb",
        "xyz": [0.86119189, 6.556484928835402, 2.578587949334844]
      },
      {
        "species": [{ "element": "Nb", "occu": 1 }],
        "abc": [0.75, 0.60744849, 0.00074003],
        "properties": { "magmom": 0.0 },
        "label": "Nb",
        "xyz": [2.58357567, 7.013149156067871, 0.0188997546614089]
      },
      {
        "species": [{ "element": "Nb", "occu": 1 }],
        "abc": [0.75, 0.379627799999999, 0.77424867],
        "properties": { "magmom": -0.0 },
        "label": "Nb",
        "xyz": [2.58357567, 4.382900655806875, 19.773671215926573]
      },
      {
        "species": [{ "element": "Nb", "occu": 1 }],
        "abc": [0.25, 0.15565328, 0.75978468],
        "properties": { "magmom": 0.0 },
        "label": "Nb",
        "xyz": [0.86119189, 1.7970571780846736, 19.40427286393399]
      },
      {
        "species": [{ "element": "Nb", "occu": 1 }],
        "abc": [0.25, 0.10744849000000001, 0.49925997],
        "properties": { "magmom": 0.0 },
        "label": "Nb",
        "xyz": [0.86119189, 1.2405204710678714, 12.750687060338592]
      },
      {
        "species": [{ "element": "Nb", "occu": 1 }],
        "abc": [0.75, 0.0563272, 0.15173542],
        "properties": { "magmom": 0.0 },
        "label": "Nb",
        "xyz": [2.58357567, 0.650312020931464, 3.875197237200975]
      },
      {
        "species": [{ "element": "Nb", "occu": 1 }],
        "abc": [0.75, 0.45915821, 0.17700137],
        "properties": { "magmom": -0.0 },
        "label": "Nb",
        "xyz": [2.58357567, 5.301099707998508, 4.520468721177873]
      },
      {
        "species": [{ "element": "Nb", "occu": 1 }],
        "abc": [0.75, 0.19365939000000001, 0.04548248],
        "properties": { "magmom": -0.0 },
        "label": "Nb",
        "xyz": [2.58357567, 2.2358474996672046, 1.1615849538430023]
      },
      {
        "species": [{ "element": "Nb", "occu": 1 }],
        "abc": [0.25, 0.9436728, 0.84826458],
        "properties": { "magmom": 0.0 },
        "label": "Nb",
        "xyz": [0.86119189, 10.894945349068536, 21.66397639279903]
      },
      {
        "species": [{ "element": "Nb", "occu": 1 }],
        "abc": [0.25, 0.41443317, 0.46438958],
        "properties": { "magmom": -0.0 },
        "label": "Nb",
        "xyz": [0.86119189, 4.784737610314963, 11.860126115582776]
      },
      {
        "species": [{ "element": "Nb", "occu": 1 }],
        "abc": [0.25, 0.80634061, 0.95451752],
        "properties": { "magmom": -0.0 },
        "label": "Nb",
        "xyz": [0.86119189, 9.309409870332797, 24.377588676157]
      },
      {
        "species": [{ "element": "Nb", "occu": 1 }],
        "abc": [0.75, 0.343177099999999, 0.36245883],
        "properties": { "magmom": -0.0 },
        "label": "Nb",
        "xyz": [2.58357567, 3.9620679429902155, 9.256898993096653]
      },
      {
        "species": [{ "element": "Nb", "occu": 1 }],
        "abc": [0.75, 0.89255151, 0.50074003],
        "properties": { "magmom": 0.0 },
        "label": "Nb",
        "xyz": [2.58357567, 10.304736898932129, 12.788486569661409]
      },
      {
        "species": [{ "element": "Nb", "occu": 1 }],
        "abc": [0.25, 0.6568229, 0.63754117],
        "properties": { "magmom": -0.0 },
        "label": "Nb",
        "xyz": [0.86119189, 7.583189427009772, 16.28227463690335]
      },
      {
        "species": [{ "element": "Nb", "occu": 1 }],
        "abc": [0.75, 0.04084179, 0.67700137],
        "properties": { "magmom": -0.0 },
        "label": "Nb",
        "xyz": [2.58357567, 0.4715289770014923, 17.290055536177874]
      },
      {
        "species": [{ "element": "Nb", "occu": 1 }],
        "abc": [0.75, 0.4436728, 0.6517354200000001],
        "properties": { "magmom": 0.0 },
        "label": "Nb",
        "xyz": [2.58357567, 5.122316664068536, 16.644784052200976]
      },
      {
        "species": [{ "element": "Nb", "occu": 1 }],
        "abc": [0.25, 0.08556683, 0.96438958],
        "properties": { "magmom": -0.0 },
        "label": "Nb",
        "xyz": [0.86119189, 0.987891074685037, 24.629712930582777]
      },
      {
        "species": [{ "element": "Nb", "occu": 1 }],
        "abc": [0.75, 0.58556683, 0.53561042],
        "properties": { "magmom": -0.0 },
        "label": "Nb",
        "xyz": [2.58357567, 6.760519759685037, 13.679047514417226]
      },
      {
        "species": [{ "element": "Nb", "occu": 1 }],
        "abc": [0.25, 0.39255151, 0.99925997],
        "properties": { "magmom": 0.0 },
        "label": "Nb",
        "xyz": [0.86119189, 4.532108213932129, 25.520273875338592]
      },
      {
        "species": [{ "element": "Nb", "occu": 1 }],
        "abc": [0.75, 0.1568229, 0.86245883],
        "properties": { "magmom": -0.0 },
        "label": "Nb",
        "xyz": [2.58357567, 1.810560742009773, 22.026485808096652]
      },
      {
        "species": [{ "element": "Nb", "occu": 1 }],
        "abc": [0.25, 0.620372199999999, 0.22575133],
        "properties": { "magmom": -0.0 },
        "label": "Nb",
        "xyz": [0.86119189, 7.162356714193103, 5.765502414073428]
      },
      {
        "species": [{ "element": "Nb", "occu": 1 }],
        "abc": [0.75, 0.7882410400000001, 0.37563476],
        "properties": { "magmom": 0.0 },
        "label": "Nb",
        "xyz": [2.58357567, 9.100445676396465, 9.59340135710338]
      },
      {
        "species": [{ "element": "Nb", "occu": 1 }],
        "abc": [0.25, 0.54084179, 0.8229986300000001],
        "properties": { "magmom": -0.0 },
        "label": "Nb",
        "xyz": [0.86119189, 6.244157662001492, 21.01870490882213]
      },
      {
        "species": [{ "element": "Nb", "occu": 1 }],
        "abc": [0.75, 0.84434672, 0.24021532],
        "properties": { "magmom": 0.0 },
        "label": "Nb",
        "xyz": [2.58357567, 9.748200191915327, 6.1349007660660115]
      },
      {
        "species": [{ "element": "Nb", "occu": 1 }],
        "abc": [0.75, 0.65565328, 0.74021532],
        "properties": { "magmom": 0.0 },
        "label": "Nb",
        "xyz": [2.58357567, 7.569685863084674, 18.90448758106601]
      },
      {
        "species": [{ "element": "Nb", "occu": 1 }],
        "abc": [0.25, 0.8431771, 0.13754117],
        "properties": { "magmom": -0.0 },
        "label": "Nb",
        "xyz": [0.86119189, 9.734696627990227, 3.512687821903347]
      },
      {
        "species": [{ "element": "Nb", "occu": 1 }],
        "abc": [0.25, 0.28824104, 0.12436524],
        "properties": { "magmom": 0.0 },
        "label": "Nb",
        "xyz": [0.86119189, 3.327816991396465, 3.1761854578966213]
      },
      {
        "species": [{ "element": "Nb", "occu": 1 }],
        "abc": [0.75, 0.71175896, 0.8756347600000001],
        "properties": { "magmom": 0.0 },
        "label": "Nb",
        "xyz": [2.58357567, 8.217440378603536, 22.362988172103382]
      },
      {
        "species": [{ "element": "Nb", "occu": 1 }],
        "abc": [0.75, 0.30634061, 0.54548248],
        "properties": { "magmom": -0.0 },
        "label": "Nb",
        "xyz": [2.58357567, 3.5367811853327957, 13.931171768843003]
      },
      {
        "species": [{ "element": "Nb", "occu": 1 }],
        "abc": [0.25, 0.8796278, 0.72575133],
        "properties": { "magmom": -0.0 },
        "label": "Nb",
        "xyz": [0.86119189, 10.155529340806885, 18.535089229073428]
      },
      {
        "species": [{ "element": "Nb", "occu": 1 }],
        "abc": [0.25, 0.95915821, 0.32299863],
        "properties": { "magmom": -0.0 },
        "label": "Nb",
        "xyz": [0.86119189, 11.073728392998508, 8.249118093822128]
      },
      {
        "species": [{ "element": "Nb", "occu": 1 }],
        "abc": [0.25, 0.69365939, 0.45451752],
        "properties": { "magmom": -0.0 },
        "label": "Nb",
        "xyz": [0.86119189, 8.008476184667204, 11.608001861156998]
      },
      {
        "species": [{ "element": "Nb", "occu": 1 }],
        "abc": [0.75, 0.1203722, 0.27424867],
        "properties": { "magmom": -0.0 },
        "label": "Nb",
        "xyz": [2.58357567, 1.389728029193114, 7.004084400926573]
      },
      {
        "species": [{ "element": "Nb", "occu": 1 }],
        "abc": [0.25, 0.5563272, 0.34826458],
        "properties": { "magmom": 0.0 },
        "label": "Nb",
        "xyz": [0.86119189, 6.422940705931464, 8.894389577799025]
      },
      {
        "species": [{ "element": "Nb", "occu": 1 }],
        "abc": [0.75, 0.91443317, 0.035610420000000004],
        "properties": { "magmom": -0.0 },
        "label": "Nb",
        "xyz": [2.58357567, 10.557366295314964, 0.9094606994172247]
      },
      {
        "species": [{ "element": "P", "occu": 1 }],
        "abc": [0.75, 0.25071261, 0.9509877600000001],
        "properties": { "magmom": 0.0 },
        "label": "P",
        "xyz": [2.58357567, 2.8945416083544355, 24.28744152264477]
      },
      {
        "species": [{ "element": "P", "occu": 1 }],
        "abc": [0.75, 0.50029578, 0.28014998],
        "properties": { "magmom": -0.0 },
        "label": "P",
        "xyz": [2.58357567, 5.776043541224898, 7.1547989816610285]
      },
      {
        "species": [{ "element": "P", "occu": 1 }],
        "abc": [0.75, 0.4185893, 0.07285325000000001],
        "properties": { "magmom": 0.0 },
        "label": "P",
        "xyz": [2.58357567, 4.832721200828141, 1.8606118012597979]
      },
      {
        "species": [{ "element": "P", "occu": 1 }],
        "abc": [0.25, 0.74553902, 0.30287488],
        "properties": { "magmom": -0.0 },
        "label": "P",
        "xyz": [0.86119189, 8.607439865277579, 7.735174148485415]
      },
      {
        "species": [{ "element": "P", "occu": 1 }],
        "abc": [0.25, 0.05104021, 0.0767992],
        "properties": { "magmom": 0.0 },
        "label": "P",
        "xyz": [0.86119189, 0.5892723606688477, 1.961388103445096]
      },
      {
        "species": [{ "element": "P", "occu": 1 }],
        "abc": [0.25, 0.00029578, 0.21985002],
        "properties": { "magmom": -0.0 },
        "label": "P",
        "xyz": [0.86119189, 0.0034148562248985997, 5.614787833338973]
      },
      {
        "species": [{ "element": "P", "occu": 1 }],
        "abc": [0.75, 0.25446098, 0.69712512],
        "properties": { "magmom": -0.0 },
        "label": "P",
        "xyz": [2.58357567, 2.9378175047224224, 17.803999481514587]
      },
      {
        "species": [{ "element": "P", "occu": 1 }],
        "abc": [0.75, 0.24553902, 0.19712512000000001],
        "properties": { "magmom": -0.0 },
        "label": "P",
        "xyz": [2.58357567, 2.8348111802775775, 5.034412666514586]
      },
      {
        "species": [{ "element": "P", "occu": 1 }],
        "abc": [0.25, 0.75071261, 0.54901224],
        "properties": { "magmom": 0.0 },
        "label": "P",
        "xyz": [0.86119189, 8.667170293354436, 14.021318922355233]
      },
      {
        "species": [{ "element": "P", "occu": 1 }],
        "abc": [0.75, 0.94895979, 0.923200799999999],
        "properties": { "magmom": 0.0 },
        "label": "P",
        "xyz": [2.58357567, 10.955985009331151, 23.57778552655488]
      },
      {
        "species": [{ "element": "P", "occu": 1 }],
        "abc": [0.25, 0.7544609800000001, 0.8028748800000001],
        "properties": { "magmom": -0.0 },
        "label": "P",
        "xyz": [0.86119189, 8.710446189722424, 20.504760963485417]
      },
      {
        "species": [{ "element": "P", "occu": 1 }],
        "abc": [0.75, 0.68776377, 0.15805286],
        "properties": { "magmom": -0.0 },
        "label": "P",
        "xyz": [2.58357567, 7.940409734411484, 4.036539434258081]
      },
      {
        "species": [{ "element": "P", "occu": 1 }],
        "abc": [0.25, 0.5814107, 0.92714675],
        "properties": { "magmom": 0.0 },
        "label": "P",
        "xyz": [0.86119189, 6.712536169171858, 23.678561828740204]
      },
      {
        "species": [{ "element": "P", "occu": 1 }],
        "abc": [0.75, 0.24928739, 0.45098776],
        "properties": { "magmom": 0.0 },
        "label": "P",
        "xyz": [2.58357567, 2.8780870766455644, 11.51785470764477]
      },
      {
        "species": [{ "element": "P", "occu": 1 }],
        "abc": [0.25, 0.918589299999999, 0.42714675],
        "properties": { "magmom": 0.0 },
        "label": "P",
        "xyz": [0.86119189, 10.60534988582813, 10.908975013740204]
      },
      {
        "species": [{ "element": "P", "occu": 1 }],
        "abc": [0.25, 0.44895979, 0.5767992],
        "properties": { "magmom": 0.0 },
        "label": "P",
        "xyz": [0.86119189, 5.183356324331153, 14.730974918445096]
      },
      {
        "species": [{ "element": "P", "occu": 1 }],
        "abc": [0.75, 0.81223623, 0.65805286],
        "properties": { "magmom": -0.0 },
        "label": "P",
        "xyz": [2.58357567, 9.377476320588515, 16.80612624925808]
      },
      {
        "species": [{ "element": "P", "occu": 1 }],
        "abc": [0.25, 0.18776377, 0.34194714],
        "properties": { "magmom": -0.0 },
        "label": "P",
        "xyz": [0.86119189, 2.167781049411485, 8.733047380741917]
      },
      {
        "species": [{ "element": "P", "occu": 1 }],
        "abc": [0.75, 0.0814107, 0.57285325],
        "properties": { "magmom": 0.0 },
        "label": "P",
        "xyz": [2.58357567, 0.939907484171859, 14.630198616259797]
      },
      {
        "species": [{ "element": "P", "occu": 1 }],
        "abc": [0.25, 0.49970422000000003, 0.71985002],
        "properties": { "magmom": -0.0 },
        "label": "P",
        "xyz": [0.86119189, 5.769213828775102, 18.384374648338973]
      },
      {
        "species": [{ "element": "P", "occu": 1 }],
        "abc": [0.75, 0.99970422, 0.78014998],
        "properties": { "magmom": -0.0 },
        "label": "P",
        "xyz": [2.58357567, 11.541842513775102, 19.924385796661028]
      },
      {
        "species": [{ "element": "P", "occu": 1 }],
        "abc": [0.25, 0.31223623, 0.84194714],
        "properties": { "magmom": -0.0 },
        "label": "P",
        "xyz": [0.86119189, 3.604847635588515, 21.50263419574192]
      },
      {
        "species": [{ "element": "P", "occu": 1 }],
        "abc": [0.75, 0.55104021, 0.4232008],
        "properties": { "magmom": 0.0 },
        "label": "P",
        "xyz": [2.58357567, 6.361901045668848, 10.808198711554905]
      },
      {
        "species": [{ "element": "P", "occu": 1 }],
        "abc": [0.25, 0.74928739, 0.04901224],
        "properties": { "magmom": 0.0 },
        "label": "P",
        "xyz": [0.86119189, 8.650715761645564, 1.2517321073552312]
      }
    ]
  },
  "task_ids": null,
  "uncorrected_energy_per_atom": null,
  "energy_per_atom": -9.21532605703125,
  "formation_energy_per_atom": -0.871207835022321,
  "energy_above_hull": 0.0,
  "is_stable": true,
  "equilibrium_reaction_energy_per_atom": null,
  "decomposes_to": null,
  "xas": null,
  "grain_boundaries": null,
  "band_gap": 0.0,
  "cbm": null,
  "vbm": null,
  "efermi": 7.53673645,
  "is_gap_direct": null,
  "is_metal": null,
  "es_source_calc_id": null,
  "bandstructure": null,
  "dos": null,
  "dos_energy_up": null,
  "dos_energy_down": null,
  "is_magnetic": null,
  "ordering": null,
  "total_magnetization": 6e-7,
  "total_magnetization_normalized_vol": null,
  "total_magnetization_normalized_formula_units": null,
  "num_magnetic_sites": null,
  "num_unique_magnetic_sites": null,
  "types_of_magnetic_species": null,
  "bulk_modulus": null,
  "shear_modulus": null,
  "universal_anisotropy": null,
  "homogeneous_poisson": null,
  "e_total": null,
  "e_ionic": null,
  "e_electronic": null,
  "n": null,
  "e_ij_max": null,
  "weighted_surface_energy_EV_PER_ANG2": null,
  "weighted_surface_energy": null,
  "weighted_work_function": null,
  "surface_anisotropy": null,
  "shape_factor": null,
  "has_reconstructed": null,
  "possible_species": null,
  "has_props": null,
  "theoretical": null,
  "database_IDs": null,
  "fields_not_requested": [
    "builder_meta",
    "nsites",
    "elements",
    "nelements",
    "composition",
    "composition_reduced",
    "chemsys",
    "symmetry",
    "property_name",
    "deprecated",
    "deprecation_reasons",
    "last_updated",
    "origins",
    "warnings",
    "task_ids",
    "uncorrected_energy_per_atom",
    "equilibrium_reaction_energy_per_atom",
    "decomposes_to",
    "xas",
    "grain_boundaries",
    "cbm",
    "vbm",
    "is_gap_direct",
    "is_metal",
    "es_source_calc_id",
    "bandstructure",
    "dos",
    "dos_energy_up",
    "dos_energy_down",
    "is_magnetic",
    "ordering",
    "total_magnetization_normalized_vol",
    "total_magnetization_normalized_formula_units",
    "num_magnetic_sites",
    "num_unique_magnetic_sites",
    "types_of_magnetic_species",
    "bulk_modulus",
    "shear_modulus",
    "universal_anisotropy",
    "homogeneous_poisson",
    "e_total",
    "e_ionic",
    "e_electronic",
    "n",
    "e_ij_max",
    "weighted_surface_energy_EV_PER_ANG2",
    "weighted_surface_energy",
    "weighted_work_function",
    "surface_anisotropy",
    "shape_factor",
    "has_reconstructed",
    "possible_species",
    "has_props",
    "theoretical",
    "database_IDs"
  ]
}
