{
  "builder_meta": null,
  "nsites": null,
  "elements": null,
  "nelements": null,
  "composition": null,
  "composition_reduced": null,
  "formula_pretty": "Nb5Se4",
  "formula_anonymous": "A4B5",
  "chemsys": null,
  "volume": 172.68874854765627,
  "density": 7.50389378187694,
  "density_atomic": 19.187638727517363,
  "symmetry": null,
  "property_name": null,
  "material_id": "mp-15837",
  "deprecated": null,
  "deprecation_reasons": null,
  "last_updated": null,
  "origins": null,
  "warnings": null,
  "structure": {
    "@module": "pymatgen.core.structure",
    "@class": "Structure",
    "charge": 0,
    "lattice": {
      "matrix": [
        [3.3644624800000003, -0.0, 0.8321928],
        [1.682269349999999, 7.05873426, 0.41593833],
        [-0.01265282, 0.00016264, 7.26832869]
      ],
      "pbc": [true, true, true],
      "a": 3.4658552531373252,
      "b": 7.26833985264932,
      "c": 7.26833970492456,
      "alpha": 86.74127777761116,
      "beta": 76.20660134488098,
      "gamma": 76.20662006902765,
      "volume": 172.6887485476563
    },
    "properties": {},
    "sites": [
      {
        "species": [{ "element": "Nb", "occu": 1 }],
        "abc": [0.69505286, 0.93138705, 0.6785072400000001],
        "properties": { "magmom": -0.0 },
        "label": "Nb",
        "xyz": [3.8967381263121927, 6.574524031572846, 5.897431198736751]
      },
      {
        "species": [{ "element": "Nb", "occu": 1 }],
        "abc": [0.3735591, 0.32149276, 0.93138705],
        "properties": { "magmom": -0.0 },
        "label": "Nb",
        "xyz": [1.7858783197134926, 2.2694834401437696, 7.214221572105435]
      },
      {
        "species": [{ "element": "Nb", "occu": 1 }],
        "abc": [0.6264409, 0.6785072400000001, 0.06861295],
        "properties": { "magmom": -0.0 },
        "label": "Nb",
        "xyz": [3.2482006902865064, 4.78941345985623, 1.3022382478945647]
      },
      {
        "species": [{ "element": "Nb", "occu": 1 }],
        "abc": [0.30494714, 0.06861295, 0.32149276],
        "properties": { "magmom": -0.0 },
        "label": "Nb",
        "xyz": [1.1373408836878065, 0.4843728684271534, 2.61902862126325]
      },
      {
        "species": [{ "element": "Nb", "occu": 1 }],
        "abc": [-0.0, 0.0, -0.0],
        "properties": { "magmom": -0.0 },
        "label": "Nb",
        "xyz": [0.0, 0.0, 0.0]
      },
      {
        "species": [{ "element": "Se", "occu": 1 }],
        "abc": [0.94105413, 0.7779263, 0.33996644],
        "properties": { "magmom": 0.0 },
        "label": "Se",
        "xyz": [4.4705213489115865, 5.491230317706839, 3.5776956669705062]
      },
      {
        "species": [{ "element": "Se", "occu": 1 }],
        "abc": [0.28102057, 0.66003356, 0.7779263],
        "properties": { "magmom": 0.0 },
        "label": "Se",
        "xyz": [2.0459944303854334, 4.659128024655198, 6.162620596691797]
      },
      {
        "species": [{ "element": "Se", "occu": 1 }],
        "abc": [0.71897943, 0.33996644, 0.222073699999999],
        "properties": { "magmom": 0.0 },
        "label": "Se",
        "xyz": [2.9880845796145663, 2.399768875344802, 2.353839223308195]
      },
      {
        "species": [{ "element": "Se", "occu": 1 }],
        "abc": [0.058945870000000004, 0.222073699999999, 0.66003356],
        "properties": { "magmom": 0.0 },
        "label": "Se",
        "xyz": [0.5635576610884115, 1.5676665822931533, 4.938764153029493]
      }
    ]
  },
  "task_ids": null,
  "uncorrected_energy_per_atom": null,
  "energy_per_atom": -20.869476444444444,
  "formation_energy_per_atom": -0.767630425138889,
  "energy_above_hull": 0.017462703999999,
  "is_stable": false,
  "equilibrium_reaction_energy_per_atom": null,
  "decomposes_to": null,
  "xas": null,
  "grain_boundaries": null,
  "band_gap": 0.0,
  "cbm": null,
  "vbm": null,
  "efermi": 6.12708999,
  "is_gap_direct": null,
  "is_metal": null,
  "es_source_calc_id": null,
  "bandstructure": null,
  "dos": null,
  "dos_energy_up": null,
  "dos_energy_down": null,
  "is_magnetic": null,
  "ordering": null,
  "total_magnetization": 0.0,
  "total_magnetization_normalized_vol": null,
  "total_magnetization_normalized_formula_units": null,
  "num_magnetic_sites": null,
  "num_unique_magnetic_sites": null,
  "types_of_magnetic_species": null,
  "bulk_modulus": null,
  "shear_modulus": null,
  "universal_anisotropy": null,
  "homogeneous_poisson": null,
  "e_total": null,
  "e_ionic": null,
  "e_electronic": null,
  "n": null,
  "e_ij_max": null,
  "weighted_surface_energy_EV_PER_ANG2": null,
  "weighted_surface_energy": null,
  "weighted_work_function": null,
  "surface_anisotropy": null,
  "shape_factor": null,
  "has_reconstructed": null,
  "possible_species": null,
  "has_props": null,
  "theoretical": null,
  "database_IDs": null,
  "fields_not_requested": [
    "builder_meta",
    "nsites",
    "elements",
    "nelements",
    "composition",
    "composition_reduced",
    "chemsys",
    "symmetry",
    "property_name",
    "deprecated",
    "deprecation_reasons",
    "last_updated",
    "origins",
    "warnings",
    "task_ids",
    "uncorrected_energy_per_atom",
    "equilibrium_reaction_energy_per_atom",
    "decomposes_to",
    "xas",
    "grain_boundaries",
    "cbm",
    "vbm",
    "is_gap_direct",
    "is_metal",
    "es_source_calc_id",
    "bandstructure",
    "dos",
    "dos_energy_up",
    "dos_energy_down",
    "is_magnetic",
    "ordering",
    "total_magnetization_normalized_vol",
    "total_magnetization_normalized_formula_units",
    "num_magnetic_sites",
    "num_unique_magnetic_sites",
    "types_of_magnetic_species",
    "bulk_modulus",
    "shear_modulus",
    "universal_anisotropy",
    "homogeneous_poisson",
    "e_total",
    "e_ionic",
    "e_electronic",
    "n",
    "e_ij_max",
    "weighted_surface_energy_EV_PER_ANG2",
    "weighted_surface_energy",
    "weighted_work_function",
    "surface_anisotropy",
    "shape_factor",
    "has_reconstructed",
    "possible_species",
    "has_props",
    "theoretical",
    "database_IDs"
  ]
}
