{"builder_meta": null, "nsites": null, "elements": null, "nelements": null, "composition": null, "composition_reduced": null, "formula_pretty": "Nb5Si3", "formula_anonymous": "A3B5", "chemsys": null, "volume": 259.8692043275881, "density": 7.01340953311384, "density_atomic": 16.241825270474255, "symmetry": null, "property_name": null, "material_id": "mp-13686", "deprecated": null, "deprecation_reasons": null, "last_updated": null, "origins": null, "warnings": null, "structure": {"@module": "pymatgen.core.structure", "@class": "Structure", "charge": 0, "lattice": {"matrix": [[5.94229349, 0.00037597, -2.87488175], [-1.3906533300000001, 5.77735864, -2.87485539], [-0.00257011, -0.0032199200000000002, 7.5726784]], "pbc": [true, true, true], "a": 6.601196644482945, "b": 6.601256172338322, "c": 7.57267952069654, "alpha": 115.8363266681085, "beta": 115.83714312400681, "gamma": 89.99556743498337, "volume": 259.8692043275881}, "properties": {}, "sites": [{"species": [{"element": "Nb", "occu": 1}], "abc": [0.18479995, 0.0175621, 0.7024020400000001], "properties": {"magmom": 0.0}, "label": "Nb", "xyz": [1.071907496483508, 0.09927035103210871, 4.737298254923306]}, {"species": [{"element": "Nb", "occu": 1}], "abc": [0.017619160000000002, 0.51758258, 0.70243519], "properties": {"magmom": -0.0}, "label": "Nb", "xyz": [-0.6168850543658939, 2.988005029635092, 3.780687719295459]}, {"species": [{"element": "Nb", "occu": 1}], "abc": [0.6848221, 0.18479399999999901, 0.70227046], "properties": {"magmom": -0.0}, "label": "Nb", "xyz": [3.8106246028421595, 1.065617430385528, 2.818029759173732]}, {"species": [{"element": "Nb", "occu": 1}], "abc": [0.98238084, 0.48241642, 0.29756281], "properties": {"magmom": -0.0}, "label": "Nb", "xyz": [5.165956500159443, 2.786503889446109, -1.9577587297968697]}, {"species": [{"element": "Nb", "occu": 1}], "abc": [0.5174874700000001, 0.68481722, 0.7023296], "properties": {"magmom": 0.0}, "label": "Nb", "xyz": [2.120914012374972, 3.9543677974262446, 1.8620504321621514]}, {"species": [{"element": "Nb", "occu": 1}], "abc": [0.81520105, 0.9824379, 0.29759796], "properties": {"magmom": 0.0}, "label": "Nb", "xyz": [3.4771684958099813, 5.675244339343862, -2.914359869805055]}, {"species": [{"element": "Nb", "occu": 1}], "abc": [0.48251253, 0.31518378, 0.2976714], "properties": {"magmom": 0.0}, "label": "Nb", "xyz": [2.4281546444015882, 1.8201526667124754, -0.039104474339142214]}, {"species": [{"element": "Nb", "occu": 1}], "abc": [0.3151779, 0.815207, 0.29772954], "properties": {"magmom": -0.0}, "label": "Nb", "xyz": [0.7384440565045114, 4.708903036973107, -0.9950913740291187]}, {"species": [{"element": "Nb", "occu": 1}], "abc": [0.500001, 0.500001, 1e-06], "properties": {"magmom": -0.0}, "label": "Nb", "xyz": [2.27582462907005, 2.8888730795146906, -2.87486674705874]}, {"species": [{"element": "Nb", "occu": 1}], "abc": [1e-06, 1e-06, -0.0], "properties": {"magmom": -0.0}, "label": "Nb", "xyz": [4.55164016e-06, 5.77773461e-06, -5.74973714e-06]}, {"species": [{"element": "Si", "occu": 1}], "abc": [0.628418399999999, 0.12842247, 0.99992477], "properties": {"magmom": -0.0}, "label": "Si", "xyz": [3.5530855151132603, 0.7389592553250705, 5.396284087803158]}, {"species": [{"element": "Si", "occu": 1}], "abc": [0.87149699, 0.62844557, 0.99994065], "properties": {"magmom": 0.0}, "label": "Si", "xyz": [4.302171008123376, 3.6278633714348074, 3.260088035569905]}, {"species": [{"element": "Si", "occu": 1}], "abc": [0.12850301, 0.37155443, 5.835e-05], "properties": {"magmom": 0.0}, "label": "Si", "xyz": [0.24689904444673447, 2.1466513217851126, -1.4371543482483053]}, {"species": [{"element": "Si", "occu": 1}], "abc": [0.3715806, 0.87157753, 7.323000000000004e-05], "properties": {"magmom": -0.0}, "label": "Si", "xyz": [0.9959785977334635, 5.0355554407388, -3.573355098278205]}, {"species": [{"element": "Si", "occu": 1}], "abc": [0.75003379, 0.7499992400000001, 0.49999992], "properties": {"magmom": 0.0}, "label": "Si", "xyz": [3.412646912199167, 4.331686619669054, -0.5260592181785091]}, {"species": [{"element": "Si", "occu": 1}], "abc": [0.24996721, 0.25000176, 0.50000008], "properties": {"magmom": 0.0}, "label": "Si", "xyz": [1.1364276894409933, 1.4428338480655567, 2.348994728441368]}]}, "task_ids": null, "uncorrected_energy_per_atom": null, "energy_per_atom": -19.472173815625, "formation_energy_per_atom": -0.7232154362499971, "energy_above_hull": 0.0, "is_stable": true, "equilibrium_reaction_energy_per_atom": null, "decomposes_to": null, "xas": null, "grain_boundaries": null, "band_gap": 0.0, "cbm": null, "vbm": null, "efermi": 6.97602949, "is_gap_direct": null, "is_metal": null, "es_source_calc_id": null, "bandstructure": null, "dos": null, "dos_energy_up": null, "dos_energy_down": null, "is_magnetic": null, "ordering": null, "total_magnetization": 0.0, "total_magnetization_normalized_vol": null, "total_magnetization_normalized_formula_units": null, "num_magnetic_sites": null, "num_unique_magnetic_sites": null, "types_of_magnetic_species": null, "bulk_modulus": null, "shear_modulus": null, "universal_anisotropy": null, "homogeneous_poisson": null, "e_total": null, "e_ionic": null, "e_electronic": null, "n": null, "e_ij_max": null, "weighted_surface_energy_EV_PER_ANG2": null, "weighted_surface_energy": null, "weighted_work_function": null, "surface_anisotropy": null, "shape_factor": null, "has_reconstructed": null, "possible_species": null, "has_props": null, "theoretical": null, "database_IDs": null, "fields_not_requested": ["builder_meta", "nsites", "elements", "nelements", "composition", "composition_reduced", "chemsys", "symmetry", "property_name", "deprecated", "deprecation_reasons", "last_updated", "origins", "warnings", "task_ids", "uncorrected_energy_per_atom", "equilibrium_reaction_energy_per_atom", "decomposes_to", "xas", "grain_boundaries", "cbm", "vbm", "is_gap_direct", "is_metal", "es_source_calc_id", "bandstructure", "dos", "dos_energy_up", "dos_energy_down", "is_magnetic", "ordering", "total_magnetization_normalized_vol", "total_magnetization_normalized_formula_units", "num_magnetic_sites", "num_unique_magnetic_sites", "types_of_magnetic_species", "bulk_modulus", "shear_modulus", "universal_anisotropy", "homogeneous_poisson", "e_total", "e_ionic", "e_electronic", "n", "e_ij_max", "weighted_surface_energy_EV_PER_ANG2", "weighted_surface_energy", "weighted_work_function", "surface_anisotropy", "shape_factor", "has_reconstructed", "possible_species", "has_props", "theoretical", "database_IDs"]}