{
  "builder_meta": null,
  "nsites": null,
  "elements": null,
  "nelements": null,
  "composition": null,
  "composition_reduced": null,
  "formula_pretty": "Nb5Sb4",
  "formula_anonymous": "A4B5",
  "chemsys": null,
  "volume": 194.3417736385304,
  "density": 8.130636481520265,
  "density_atomic": 21.593530404281157,
  "symmetry": null,
  "property_name": null,
  "material_id": "mp-274",
  "deprecated": null,
  "deprecation_reasons": null,
  "last_updated": null,
  "origins": null,
  "warnings": null,
  "structure": {
    "@module": "pymatgen.core.structure",
    "@class": "Structure",
    "charge": 0,
    "lattice": {
      "matrix": [
        [3.48250543, -0.00060941, 0.84908131],
        [1.7423684, 7.36276971, 0.41443662000000003],
        [-0.00497469, -0.00946143, 7.57785718]
      ],
      "pbc": [true, true, true],
      "a": 3.5845199835335477,
      "b": 7.57746548364353,
      "c": 7.577864719475783,
      "alpha": 86.94301672274592,
      "beta": 76.33546890375776,
      "gamma": 76.33839818350636,
      "volume": 194.3417736385304
    },
    "properties": {},
    "sites": [
      {
        "species": [{ "element": "Nb", "occu": 1 }],
        "abc": [0.0, -0.0, -0.0],
        "properties": { "magmom": 0.0 },
        "label": "Nb",
        "xyz": [0.0, 0.0, 0.0]
      },
      {
        "species": [{ "element": "Nb", "occu": 1 }],
        "abc": [0.311996699999999, 0.06248937, 0.31562907],
        "properties": { "magmom": -0.0 },
        "label": "Nb",
        "xyz": [1.1938395487377473, 0.4569184043722656, 2.682600464356628]
      },
      {
        "species": [{ "element": "Nb", "occu": 1 }],
        "abc": [0.62735081, 0.68326757, 0.0615552],
        "properties": { "magmom": 0.0 },
        "label": "Nb",
        "xyz": [3.3749502070147988, 5.029777054148248, 1.2822994641371106]
      },
      {
        "species": [{ "element": "Nb", "occu": 1 }],
        "abc": [0.37264919, 0.31673243, 0.9384448],
        "properties": { "magmom": 0.0 },
        "label": "Nb",
        "xyz": [1.8449489329852016, 2.3229218158517537, 7.5590756458628885]
      },
      {
        "species": [{ "element": "Nb", "occu": 1 }],
        "abc": [0.6880033, 0.93751063, 0.68437093],
        "properties": { "magmom": -0.0 },
        "label": "Nb",
        "xyz": [4.026059591262249, 6.895780465627735, 6.158774645643371]
      },
      {
        "species": [{ "element": "Sb", "occu": 1 }],
        "abc": [0.053974060000000004, 0.23681441, 0.65507615],
        "properties": { "magmom": 0.0 },
        "label": "Sb",
        "xyz": [0.5973241009051463, 1.737379115369722, 5.108046435942769]
      },
      {
        "species": [{ "element": "Sb", "occu": 1 }],
        "abc": [0.7087463900000001, 0.34589448, 0.23792418],
        "properties": { "magmom": -0.0 },
        "label": "Sb",
        "xyz": [3.0697051643153257, 2.544058380088294, 2.5480901081554412]
      },
      {
        "species": [{ "element": "Sb", "occu": 1 }],
        "abc": [0.29125361, 0.65410552, 0.7620758200000001],
        "properties": { "magmom": -0.0 },
        "label": "Sb",
        "xyz": [2.150193975684674, 4.808640489911707, 6.293285001844559]
      },
      {
        "species": [{ "element": "Sb", "occu": 1 }],
        "abc": [0.9460259400000001, 0.76318559, 0.34492385000000003],
        "properties": { "magmom": 0.0 },
        "label": "Sb",
        "xyz": [4.622575039094854, 5.615319754630278, 3.7333286740572302]
      }
    ]
  },
  "task_ids": null,
  "uncorrected_energy_per_atom": null,
  "energy_per_atom": -25.52666749,
  "formation_energy_per_atom": -0.360485693333332,
  "energy_above_hull": 0.0,
  "is_stable": true,
  "equilibrium_reaction_energy_per_atom": null,
  "decomposes_to": null,
  "xas": null,
  "grain_boundaries": null,
  "band_gap": 0.0,
  "cbm": null,
  "vbm": null,
  "efermi": 7.09810531,
  "is_gap_direct": null,
  "is_metal": null,
  "es_source_calc_id": null,
  "bandstructure": null,
  "dos": null,
  "dos_energy_up": null,
  "dos_energy_down": null,
  "is_magnetic": null,
  "ordering": null,
  "total_magnetization": 0.0,
  "total_magnetization_normalized_vol": null,
  "total_magnetization_normalized_formula_units": null,
  "num_magnetic_sites": null,
  "num_unique_magnetic_sites": null,
  "types_of_magnetic_species": null,
  "bulk_modulus": null,
  "shear_modulus": null,
  "universal_anisotropy": null,
  "homogeneous_poisson": null,
  "e_total": null,
  "e_ionic": null,
  "e_electronic": null,
  "n": null,
  "e_ij_max": null,
  "weighted_surface_energy_EV_PER_ANG2": null,
  "weighted_surface_energy": null,
  "weighted_work_function": null,
  "surface_anisotropy": null,
  "shape_factor": null,
  "has_reconstructed": null,
  "possible_species": null,
  "has_props": null,
  "theoretical": null,
  "database_IDs": null,
  "fields_not_requested": [
    "builder_meta",
    "nsites",
    "elements",
    "nelements",
    "composition",
    "composition_reduced",
    "chemsys",
    "symmetry",
    "property_name",
    "deprecated",
    "deprecation_reasons",
    "last_updated",
    "origins",
    "warnings",
    "task_ids",
    "uncorrected_energy_per_atom",
    "equilibrium_reaction_energy_per_atom",
    "decomposes_to",
    "xas",
    "grain_boundaries",
    "cbm",
    "vbm",
    "is_gap_direct",
    "is_metal",
    "es_source_calc_id",
    "bandstructure",
    "dos",
    "dos_energy_up",
    "dos_energy_down",
    "is_magnetic",
    "ordering",
    "total_magnetization_normalized_vol",
    "total_magnetization_normalized_formula_units",
    "num_magnetic_sites",
    "num_unique_magnetic_sites",
    "types_of_magnetic_species",
    "bulk_modulus",
    "shear_modulus",
    "universal_anisotropy",
    "homogeneous_poisson",
    "e_total",
    "e_ionic",
    "e_electronic",
    "n",
    "e_ij_max",
    "weighted_surface_energy_EV_PER_ANG2",
    "weighted_surface_energy",
    "weighted_work_function",
    "surface_anisotropy",
    "shape_factor",
    "has_reconstructed",
    "possible_species",
    "has_props",
    "theoretical",
    "database_IDs"
  ]
}
