{"builder_meta": null, "nsites": null, "elements": null, "nelements": null, "composition": null, "composition_reduced": null, "formula_pretty": "Nb6C5", "formula_anonymous": "A5B6", "chemsys": null, "volume": 136.6127150490126, "density": 7.505664634704758, "density_atomic": 12.419337731728417, "symmetry": null, "property_name": null, "material_id": "mp-2760", "deprecated": null, "deprecation_reasons": null, "last_updated": null, "origins": null, "warnings": null, "structure": {"@module": "pymatgen.core.structure", "@class": "Structure", "charge": 0, "lattice": {"matrix": [[5.20278971, 0.0, 1.84737891], [2.60139486, 4.76908212, 0.92368945], [0.01151486, 0.0, 5.50988379]], "pbc": [true, true, true], "a": 5.521035193113215, "b": 5.510408486217643, "c": 5.509895822182629, "alpha": 80.29284112248338, "beta": 70.3315979060014, "gamma": 59.936185862102995, "volume": 136.6127150490126}, "properties": {}, "sites": [{"species": [{"element": "Nb", "occu": 1}], "abc": [0.73549272, 0.0, 0.73564776], "properties": {"magmom": 0.0}, "label": "Nb", "xyz": [3.835084836361625, 0.0, 5.412067407360345]}, {"species": [{"element": "Nb", "occu": 1}], "abc": [0.26450728, -0.0, 0.26435224], "properties": {"magmom": 0.0}, "label": "Nb", "xyz": [1.3792197336383754, 0.0, 1.9451952926396543]}, {"species": [{"element": "Nb", "occu": 1}], "abc": [0.43619653, 0.646714799999999, 0.74668305], "properties": {"magmom": -0.0}, "label": "Nb", "xyz": [3.9603973252127553, 3.0842359894193714, 5.517320741518801]}, {"species": [{"element": "Nb", "occu": 1}], "abc": [0.91708867, 0.646714799999999, 0.25331595], "properties": {"magmom": -0.0}, "label": "Nb", "xyz": [6.45669694973953, 3.0842359894193714, 3.687315352130259]}, {"species": [{"element": "Nb", "occu": 1}], "abc": [0.56380347, 0.353285199999999, 0.25331595], "properties": {"magmom": -0.0}, "label": "Nb", "xyz": [3.85530209327238, 1.6848461305806195, 2.7636258985974074]}, {"species": [{"element": "Nb", "occu": 1}], "abc": [0.08291133, 0.353285199999999, 0.74668305], "properties": {"magmom": -0.0}, "label": "Nb", "xyz": [1.3590024687456068, 1.6848461305806195, 4.593631287985949]}, {"species": [{"element": "C", "occu": 1}], "abc": [0.5, -0.0, 0.5], "properties": {"magmom": -0.0}, "label": "C", "xyz": [2.607152285, 0.0, 3.67863135]}, {"species": [{"element": "C", "occu": 1}], "abc": [0.33519673, 0.32960554000000003, -0.0], "properties": {"magmom": 0.0}, "label": "C", "xyz": [2.601392255253173, 1.571915887466945, 0.9236885296625174]}, {"species": [{"element": "C", "occu": 1}], "abc": [0.6648032700000001, 0.67039446, 0.0], "properties": {"magmom": 0.0}, "label": "C", "xyz": [5.202792314746828, 3.1971662325330557, 1.8473798303374829]}, {"species": [{"element": "C", "occu": 1}], "abc": [0.16684861, 0.6663037900000001, 0.5], "properties": {"magmom": 0.0}, "label": "C", "xyz": [2.6071549157403227, 3.1776574913772353, 3.6786322795948307]}, {"species": [{"element": "C", "occu": 1}], "abc": [0.83315139, 0.33369621, 0.5], "properties": {"magmom": 0.0}, "label": "C", "xyz": [5.208544514259678, 1.5914246286227651, 4.60231987040517]}]}, "task_ids": null, "uncorrected_energy_per_atom": null, "energy_per_atom": -10.249247699090908, "formation_energy_per_atom": -0.544596998863636, "energy_above_hull": 0.0, "is_stable": true, "equilibrium_reaction_energy_per_atom": null, "decomposes_to": null, "xas": null, "grain_boundaries": null, "band_gap": 0.0, "cbm": null, "vbm": null, "efermi": 6.95372752, "is_gap_direct": null, "is_metal": null, "es_source_calc_id": null, "bandstructure": null, "dos": null, "dos_energy_up": null, "dos_energy_down": null, "is_magnetic": null, "ordering": null, "total_magnetization": 1e-07, "total_magnetization_normalized_vol": null, "total_magnetization_normalized_formula_units": null, "num_magnetic_sites": null, "num_unique_magnetic_sites": null, "types_of_magnetic_species": null, "bulk_modulus": null, "shear_modulus": null, "universal_anisotropy": null, "homogeneous_poisson": null, "e_total": null, "e_ionic": null, "e_electronic": null, "n": null, "e_ij_max": null, "weighted_surface_energy_EV_PER_ANG2": null, "weighted_surface_energy": null, "weighted_work_function": null, "surface_anisotropy": null, "shape_factor": null, "has_reconstructed": null, "possible_species": null, "has_props": null, "theoretical": null, "database_IDs": null, "fields_not_requested": ["builder_meta", "nsites", "elements", "nelements", "composition", "composition_reduced", "chemsys", "symmetry", "property_name", "deprecated", "deprecation_reasons", "last_updated", "origins", "warnings", "task_ids", "uncorrected_energy_per_atom", "equilibrium_reaction_energy_per_atom", "decomposes_to", "xas", "grain_boundaries", "cbm", "vbm", "is_gap_direct", "is_metal", "es_source_calc_id", "bandstructure", "dos", "dos_energy_up", "dos_energy_down", "is_magnetic", "ordering", "total_magnetization_normalized_vol", "total_magnetization_normalized_formula_units", "num_magnetic_sites", "num_unique_magnetic_sites", "types_of_magnetic_species", "bulk_modulus", "shear_modulus", "universal_anisotropy", "homogeneous_poisson", "e_total", "e_ionic", "e_electronic", "n", "e_ij_max", "weighted_surface_energy_EV_PER_ANG2", "weighted_surface_energy", "weighted_work_function", "surface_anisotropy", "shape_factor", "has_reconstructed", "possible_species", "has_props", "theoretical", "database_IDs"]}