{
  "builder_meta": null,
  "nsites": null,
  "elements": null,
  "nelements": null,
  "composition": null,
  "composition_reduced": null,
  "formula_pretty": "Nb6Co7",
  "formula_anonymous": "A6B7",
  "chemsys": null,
  "volume": 181.26365603115374,
  "density": 8.885808577097624,
  "density_atomic": 13.943358156242596,
  "symmetry": null,
  "property_name": null,
  "material_id": "mp-7250",
  "deprecated": null,
  "deprecation_reasons": null,
  "last_updated": null,
  "origins": null,
  "warnings": null,
  "structure": {
    "@module": "pymatgen.core.structure",
    "@class": "Structure",
    "charge": 0,
    "lattice": {
      "matrix": [
        [8.839449, -2.448845, 0.0],
        [8.839449, 2.448845, 0.0],
        [8.161031, 0.0, 4.186916]
      ],
      "pbc": [true, true, true],
      "a": 9.172387936498652,
      "b": 9.172387936498652,
      "c": 9.172387506751827,
      "alpha": 30.96928206077677,
      "beta": 30.96928206077677,
      "gamma": 30.96928722514962,
      "volume": 181.26365603115374
    },
    "properties": {},
    "sites": [
      {
        "species": [{ "element": "Nb", "occu": 1 }],
        "abc": [0.834619, 0.834619, 0.834619],
        "properties": { "magmom": -0.046 },
        "label": "Nb",
        "xyz": [21.566495702051, 0.0, 3.494479645004]
      },
      {
        "species": [{ "element": "Nb", "occu": 1 }],
        "abc": [0.165381, 0.165381, 0.165381],
        "properties": { "magmom": -0.046 },
        "label": "Nb",
        "xyz": [4.273433297949, 0.0, 0.692436354996]
      },
      {
        "species": [{ "element": "Nb", "occu": 1 }],
        "abc": [0.65624, 0.65624, 0.65624],
        "properties": { "magmom": 0.024 },
        "label": "Nb",
        "xyz": [16.95719500696, 0.0, 2.7476217558400005]
      },
      {
        "species": [{ "element": "Nb", "occu": 1 }],
        "abc": [0.34376, 0.34376, 0.34376],
        "properties": { "magmom": 0.024 },
        "label": "Nb",
        "xyz": [8.88273399304, 0.0, 1.43929424416]
      },
      {
        "species": [{ "element": "Nb", "occu": 1 }],
        "abc": [0.551126, 0.551126, 0.551126],
        "properties": { "magmom": -0.001 },
        "label": "Nb",
        "xyz": [14.241056710054, 0.0, 2.307518267416]
      },
      {
        "species": [{ "element": "Nb", "occu": 1 }],
        "abc": [0.448874, 0.448874, 0.448874],
        "properties": { "magmom": -0.001 },
        "label": "Nb",
        "xyz": [11.598872289946, 0.0, 1.8793977325840001]
      },
      {
        "species": [{ "element": "Co", "occu": 1 }],
        "abc": [0.0, 0.0, 0.0],
        "properties": { "magmom": 0.901 },
        "label": "Co",
        "xyz": [0.0, 0.0, 0.0]
      },
      {
        "species": [{ "element": "Co", "occu": 1 }],
        "abc": [0.910783, 0.406331, 0.910783],
        "properties": { "magmom": 0.046 },
        "label": "Co",
        "xyz": [19.075490327459, -1.23532475794, 3.813371915228]
      },
      {
        "species": [{ "element": "Co", "occu": 1 }],
        "abc": [0.910783, 0.910783, 0.406331],
        "properties": { "magmom": 0.046 },
        "label": "Co",
        "xyz": [19.417719644395, 0.0, 1.701273765196]
      },
      {
        "species": [{ "element": "Co", "occu": 1 }],
        "abc": [0.406331, 0.910783, 0.910783],
        "properties": { "magmom": 0.046 },
        "label": "Co",
        "xyz": [19.075490327459, 1.23532475794, 3.813371915228]
      },
      {
        "species": [{ "element": "Co", "occu": 1 }],
        "abc": [0.089216999999999, 0.593669, 0.089216999999999],
        "properties": { "magmom": 0.046 },
        "label": "Co",
        "xyz": [6.764438672540983, 1.2353247579400024, 0.37354408477199585]
      },
      {
        "species": [{ "element": "Co", "occu": 1 }],
        "abc": [0.089216999999999, 0.089216999999999, 0.593669],
        "properties": { "magmom": 0.046 },
        "label": "Co",
        "xyz": [6.422209355604982, 0.0, 2.485642234804]
      },
      {
        "species": [{ "element": "Co", "occu": 1 }],
        "abc": [0.593669, 0.089216999999999, 0.089216999999999],
        "properties": { "magmom": 0.046 },
        "label": "Co",
        "xyz": [6.764438672540983, -1.2353247579400024, 0.37354408477199585]
      }
    ]
  },
  "task_ids": null,
  "uncorrected_energy_per_atom": null,
  "energy_per_atom": -8.653301153846154,
  "formation_energy_per_atom": -0.150089824615384,
  "energy_above_hull": 0.005622903410255,
  "is_stable": false,
  "equilibrium_reaction_energy_per_atom": null,
  "decomposes_to": null,
  "xas": null,
  "grain_boundaries": null,
  "band_gap": 0.0,
  "cbm": null,
  "vbm": null,
  "efermi": 5.36689819,
  "is_gap_direct": null,
  "is_metal": null,
  "es_source_calc_id": null,
  "bandstructure": null,
  "dos": null,
  "dos_energy_up": null,
  "dos_energy_down": null,
  "is_magnetic": null,
  "ordering": null,
  "total_magnetization": 1.1222784,
  "total_magnetization_normalized_vol": null,
  "total_magnetization_normalized_formula_units": null,
  "num_magnetic_sites": null,
  "num_unique_magnetic_sites": null,
  "types_of_magnetic_species": null,
  "bulk_modulus": null,
  "shear_modulus": null,
  "universal_anisotropy": null,
  "homogeneous_poisson": null,
  "e_total": null,
  "e_ionic": null,
  "e_electronic": null,
  "n": null,
  "e_ij_max": null,
  "weighted_surface_energy_EV_PER_ANG2": null,
  "weighted_surface_energy": null,
  "weighted_work_function": null,
  "surface_anisotropy": null,
  "shape_factor": null,
  "has_reconstructed": null,
  "possible_species": null,
  "has_props": null,
  "theoretical": null,
  "database_IDs": null,
  "fields_not_requested": [
    "builder_meta",
    "nsites",
    "elements",
    "nelements",
    "composition",
    "composition_reduced",
    "chemsys",
    "symmetry",
    "property_name",
    "deprecated",
    "deprecation_reasons",
    "last_updated",
    "origins",
    "warnings",
    "task_ids",
    "uncorrected_energy_per_atom",
    "equilibrium_reaction_energy_per_atom",
    "decomposes_to",
    "xas",
    "grain_boundaries",
    "cbm",
    "vbm",
    "is_gap_direct",
    "is_metal",
    "es_source_calc_id",
    "bandstructure",
    "dos",
    "dos_energy_up",
    "dos_energy_down",
    "is_magnetic",
    "ordering",
    "total_magnetization_normalized_vol",
    "total_magnetization_normalized_formula_units",
    "num_magnetic_sites",
    "num_unique_magnetic_sites",
    "types_of_magnetic_species",
    "bulk_modulus",
    "shear_modulus",
    "universal_anisotropy",
    "homogeneous_poisson",
    "e_total",
    "e_ionic",
    "e_electronic",
    "n",
    "e_ij_max",
    "weighted_surface_energy_EV_PER_ANG2",
    "weighted_surface_energy",
    "weighted_work_function",
    "surface_anisotropy",
    "shape_factor",
    "has_reconstructed",
    "possible_species",
    "has_props",
    "theoretical",
    "database_IDs"
  ]
}
