{
  "builder_meta": null,
  "nsites": null,
  "elements": null,
  "nelements": null,
  "composition": null,
  "composition_reduced": null,
  "formula_pretty": "Nb6Cr7",
  "formula_anonymous": "A6B7",
  "chemsys": null,
  "volume": 193.57875123823484,
  "density": 7.903961147064081,
  "density_atomic": 14.890673172171912,
  "symmetry": null,
  "property_name": null,
  "material_id": "mp-1104033",
  "deprecated": null,
  "deprecation_reasons": null,
  "last_updated": null,
  "origins": null,
  "warnings": null,
  "structure": {
    "@module": "pymatgen.core.structure",
    "@class": "Structure",
    "charge": 0,
    "lattice": {
      "matrix": [
        [-4.754129, 0.0, 1.254719],
        [-2.542638, 4.208449, 0.0],
        [-4.7640709999999995, -0.006006999999999, -8.417004]
      ],
      "pbc": [true, true, true],
      "a": 4.916915935584215,
      "b": 4.916914783138407,
      "c": 9.67173019232371,
      "alpha": 75.27440115931299,
      "beta": 75.27439789808568,
      "gamma": 59.999998011223624,
      "volume": 193.57875123823484
    },
    "properties": {},
    "sites": [
      {
        "species": [{ "element": "Nb", "occu": 1 }],
        "abc": [0.832616999999999, 0.832616999999999, 0.502147999999999],
        "properties": { "magmom": 0.002 },
        "label": "Nb",
        "xyz": [-8.467680973746988, 3.5010097779969964, -3.1818813549689935]
      },
      {
        "species": [{ "element": "Nb", "occu": 1 }],
        "abc": [0.167383, 0.167383, 0.497851999999999],
        "properties": { "magmom": 0.002 },
        "label": "Nb",
        "xyz": [-3.593157026252995, 0.7014322220030005, -3.980403645030992]
      },
      {
        "species": [{ "element": "Nb", "occu": 1 }],
        "abc": [0.649396, 0.649396, 0.051813],
        "properties": { "magmom": -0.002 },
        "label": "Nb",
        "xyz": [-4.985332113455, 2.7326387061129997, 0.37869927147199994]
      },
      {
        "species": [{ "element": "Nb", "occu": 1 }],
        "abc": [0.350603999999999, 0.350603999999999, 0.948187],
        "properties": { "magmom": -0.002 },
        "label": "Nb",
        "xyz": [-7.075505886544993, 1.469803293886997, -7.540984271472002]
      },
      {
        "species": [{ "element": "Nb", "occu": 1 }],
        "abc": [0.547427, 0.547427, 0.357719],
        "properties": { "magmom": -0.001 },
        "label": "Nb",
        "xyz": [-5.698645982558, 2.3016697926900003, -2.324055195863]
      },
      {
        "species": [{ "element": "Nb", "occu": 1 }],
        "abc": [0.452573, 0.452573, 0.642281],
        "properties": { "magmom": -0.001 },
        "label": "Nb",
        "xyz": [-6.362192017442, 1.9007722073100006, -4.838229804137001]
      },
      {
        "species": [{ "element": "Cr", "occu": 1 }],
        "abc": [0.0, 0.0, 0.0],
        "properties": { "magmom": 0.021 },
        "label": "Cr",
        "xyz": [0.0, 0.0, 0.0]
      },
      {
        "species": [{ "element": "Cr", "occu": 1 }],
        "abc": [0.905107999999999, 0.409925999999999, 0.779857999999999],
        "properties": { "magmom": 0.0 },
        "label": "Cr",
        "xyz": [-9.060592497637987, 1.7204680577679967, -5.428411700779994]
      },
      {
        "species": [{ "element": "Cr", "occu": 1 }],
        "abc": [0.409925999999999, 0.905107999999999, 0.779857999999999],
        "properties": { "magmom": 0.0 },
        "label": "Cr",
        "xyz": [-7.965501961275988, 3.8044162504859966, -6.049725964637993]
      },
      {
        "species": [{ "element": "Cr", "occu": 1 }],
        "abc": [0.905107999999999, 0.905107999999999, 0.779857999999999],
        "properties": { "magmom": 0.0 },
        "label": "Cr",
        "xyz": [-10.319661067753989, 3.8044162504859966, -5.428411700779994]
      },
      {
        "species": [{ "element": "Cr", "occu": 1 }],
        "abc": [0.094891999999999, 0.590074, 0.220141999999999],
        "properties": { "magmom": 0.0 },
        "label": "Cr",
        "xyz": [-3.0002455023619907, 2.4819739422320004, -1.733873299219993]
      },
      {
        "species": [{ "element": "Cr", "occu": 1 }],
        "abc": [0.590074, 0.094891999999999, 0.220141999999999],
        "properties": { "magmom": 0.0 },
        "label": "Cr",
        "xyz": [-4.0953360387239925, 0.398025749513996, -1.1125590353619919]
      },
      {
        "species": [{ "element": "Cr", "occu": 1 }],
        "abc": [0.094891999999999, 0.094891999999999, 0.220141999999999],
        "properties": { "magmom": 0.0 },
        "label": "Cr",
        "xyz": [-1.7411769322459878, 0.398025749513996, -1.733873299219993]
      }
    ]
  },
  "task_ids": null,
  "uncorrected_energy_per_atom": null,
  "energy_per_atom": -19.495313833076924,
  "formation_energy_per_atom": 0.036828061538461,
  "energy_above_hull": 0.036828061538461,
  "is_stable": false,
  "equilibrium_reaction_energy_per_atom": null,
  "decomposes_to": null,
  "xas": null,
  "grain_boundaries": null,
  "band_gap": 0.0,
  "cbm": null,
  "vbm": null,
  "efermi": 5.67631437,
  "is_gap_direct": null,
  "is_metal": null,
  "es_source_calc_id": null,
  "bandstructure": null,
  "dos": null,
  "dos_energy_up": null,
  "dos_energy_down": null,
  "is_magnetic": null,
  "ordering": null,
  "total_magnetization": 0.0223555,
  "total_magnetization_normalized_vol": null,
  "total_magnetization_normalized_formula_units": null,
  "num_magnetic_sites": null,
  "num_unique_magnetic_sites": null,
  "types_of_magnetic_species": null,
  "bulk_modulus": null,
  "shear_modulus": null,
  "universal_anisotropy": null,
  "homogeneous_poisson": null,
  "e_total": null,
  "e_ionic": null,
  "e_electronic": null,
  "n": null,
  "e_ij_max": null,
  "weighted_surface_energy_EV_PER_ANG2": null,
  "weighted_surface_energy": null,
  "weighted_work_function": null,
  "surface_anisotropy": null,
  "shape_factor": null,
  "has_reconstructed": null,
  "possible_species": null,
  "has_props": null,
  "theoretical": null,
  "database_IDs": null,
  "fields_not_requested": [
    "builder_meta",
    "nsites",
    "elements",
    "nelements",
    "composition",
    "composition_reduced",
    "chemsys",
    "symmetry",
    "property_name",
    "deprecated",
    "deprecation_reasons",
    "last_updated",
    "origins",
    "warnings",
    "task_ids",
    "uncorrected_energy_per_atom",
    "equilibrium_reaction_energy_per_atom",
    "decomposes_to",
    "xas",
    "grain_boundaries",
    "cbm",
    "vbm",
    "is_gap_direct",
    "is_metal",
    "es_source_calc_id",
    "bandstructure",
    "dos",
    "dos_energy_up",
    "dos_energy_down",
    "is_magnetic",
    "ordering",
    "total_magnetization_normalized_vol",
    "total_magnetization_normalized_formula_units",
    "num_magnetic_sites",
    "num_unique_magnetic_sites",
    "types_of_magnetic_species",
    "bulk_modulus",
    "shear_modulus",
    "universal_anisotropy",
    "homogeneous_poisson",
    "e_total",
    "e_ionic",
    "e_electronic",
    "n",
    "e_ij_max",
    "weighted_surface_energy_EV_PER_ANG2",
    "weighted_surface_energy",
    "weighted_work_function",
    "surface_anisotropy",
    "shape_factor",
    "has_reconstructed",
    "possible_species",
    "has_props",
    "theoretical",
    "database_IDs"
  ]
}
