{
  "builder_meta": null,
  "nsites": null,
  "elements": null,
  "nelements": null,
  "composition": null,
  "composition_reduced": null,
  "formula_pretty": "Nb6Fe7",
  "formula_anonymous": "A6B7",
  "chemsys": null,
  "volume": 180.99759383953554,
  "density": 8.700544780580765,
  "density_atomic": 13.922891833810427,
  "symmetry": null,
  "property_name": null,
  "material_id": "mp-1103885",
  "deprecated": null,
  "deprecation_reasons": null,
  "last_updated": null,
  "origins": null,
  "warnings": null,
  "structure": {
    "@module": "pymatgen.core.structure",
    "@class": "Structure",
    "charge": 0,
    "lattice": {
      "matrix": [
        [-2.442193, -4.230002, 0.0],
        [-4.884386, 0.0, 0.0],
        [-2.442193, -1.410001, -8.760366]
      ],
      "pbc": [true, true, true],
      "a": 4.884385690058986,
      "b": 4.884386,
      "c": 9.203065898014964,
      "alpha": 74.61121942002686,
      "beta": 74.61121788954372,
      "gamma": 59.999997900909776,
      "volume": 180.99759383953554
    },
    "properties": {},
    "sites": [
      {
        "species": [{ "element": "Nb", "occu": 1 }],
        "abc": [0.832971, 0.832971, 0.501087],
        "properties": { "magmom": -0.107 },
        "label": "Nb",
        "xyz": [-7.326579000000001, -4.230002167028999, -4.389705517842]
      },
      {
        "species": [{ "element": "Nb", "occu": 1 }],
        "abc": [0.167028999999999, 0.167028999999999, 0.498913],
        "properties": { "magmom": -0.107 },
        "label": "Nb",
        "xyz": [-2.4421929999999925, -1.4100008329709959, -4.370660482158]
      },
      {
        "species": [{ "element": "Nb", "occu": 1 }],
        "abc": [0.653816, 0.653816, 0.038553],
        "properties": { "magmom": -0.264 },
        "label": "Nb",
        "xyz": [-4.884388442193, -2.820002756185, -0.33773839039799997]
      },
      {
        "species": [{ "element": "Nb", "occu": 1 }],
        "abc": [0.346184, 0.346184, 0.961446999999999],
        "properties": { "magmom": -0.264 },
        "label": "Nb",
        "xyz": [-4.884383557806998, -2.8200002438149987, -8.42262760960199]
      },
      {
        "species": [{ "element": "Nb", "occu": 1 }],
        "abc": [0.550357, 0.550357, 0.348927999999999],
        "properties": { "magmom": -0.216 },
        "label": "Nb",
        "xyz": [-4.884383557806998, -2.8200000396419984, -3.0567369876479913]
      },
      {
        "species": [{ "element": "Nb", "occu": 1 }],
        "abc": [0.449642999999999, 0.449642999999999, 0.651072],
        "properties": { "magmom": -0.216 },
        "label": "Nb",
        "xyz": [-4.884388442192993, -2.820002960357996, -5.703629012352]
      },
      {
        "species": [{ "element": "Fe", "occu": 1 }],
        "abc": [0.0, 0.0, 0.0],
        "properties": { "magmom": 1.441 },
        "label": "Fe",
        "xyz": [0.0, 0.0, 0.0]
      },
      {
        "species": [{ "element": "Fe", "occu": 1 }],
        "abc": [0.909571999999999, 0.404841, 0.776015999999999],
        "properties": { "magmom": 1.374 },
        "label": "Fe",
        "xyz": [-6.093930927109995, -4.941674715159994, -6.798184181855991]
      },
      {
        "species": [{ "element": "Fe", "occu": 1 }],
        "abc": [0.404841, 0.909571999999999, 0.776015999999999],
        "properties": { "magmom": 1.374 },
        "label": "Fe",
        "xyz": [-7.3265814421929925, -2.8066615756979987, -6.798184181855991]
      },
      {
        "species": [{ "element": "Fe", "occu": 1 }],
        "abc": [0.909571999999999, 0.909571999999999, 0.776015999999999],
        "properties": { "magmom": 1.374 },
        "label": "Fe",
        "xyz": [-8.55923195727599, -4.941674715159994, -6.798184181855991]
      },
      {
        "species": [{ "element": "Fe", "occu": 1 }],
        "abc": [0.090428, 0.595159, 0.223984],
        "properties": { "magmom": 1.374 },
        "label": "Fe",
        "xyz": [-3.67484107289, -0.69832828484, -1.9621818181439998]
      },
      {
        "species": [{ "element": "Fe", "occu": 1 }],
        "abc": [0.595159, 0.090428, 0.223984],
        "properties": { "magmom": 1.374 },
        "label": "Fe",
        "xyz": [-2.442190557807, -2.8333414243019996, -1.9621818181439998]
      },
      {
        "species": [{ "element": "Fe", "occu": 1 }],
        "abc": [0.090428, 0.090428, 0.223984],
        "properties": { "magmom": 1.374 },
        "label": "Fe",
        "xyz": [-1.209540042724, -0.69832828484, -1.9621818181439998]
      }
    ]
  },
  "task_ids": null,
  "uncorrected_energy_per_atom": null,
  "energy_per_atom": -9.335470658461539,
  "formation_energy_per_atom": -0.11254921923076801,
  "energy_above_hull": 0.001789943905325,
  "is_stable": false,
  "equilibrium_reaction_energy_per_atom": null,
  "decomposes_to": null,
  "xas": null,
  "grain_boundaries": null,
  "band_gap": 0.0,
  "cbm": null,
  "vbm": null,
  "efermi": 5.62519815,
  "is_gap_direct": null,
  "is_metal": null,
  "es_source_calc_id": null,
  "bandstructure": null,
  "dos": null,
  "dos_energy_up": null,
  "dos_energy_down": null,
  "is_magnetic": null,
  "ordering": null,
  "total_magnetization": 8.4010639,
  "total_magnetization_normalized_vol": null,
  "total_magnetization_normalized_formula_units": null,
  "num_magnetic_sites": null,
  "num_unique_magnetic_sites": null,
  "types_of_magnetic_species": null,
  "bulk_modulus": null,
  "shear_modulus": null,
  "universal_anisotropy": null,
  "homogeneous_poisson": null,
  "e_total": null,
  "e_ionic": null,
  "e_electronic": null,
  "n": null,
  "e_ij_max": null,
  "weighted_surface_energy_EV_PER_ANG2": null,
  "weighted_surface_energy": null,
  "weighted_work_function": null,
  "surface_anisotropy": null,
  "shape_factor": null,
  "has_reconstructed": null,
  "possible_species": null,
  "has_props": null,
  "theoretical": null,
  "database_IDs": null,
  "fields_not_requested": [
    "builder_meta",
    "nsites",
    "elements",
    "nelements",
    "composition",
    "composition_reduced",
    "chemsys",
    "symmetry",
    "property_name",
    "deprecated",
    "deprecation_reasons",
    "last_updated",
    "origins",
    "warnings",
    "task_ids",
    "uncorrected_energy_per_atom",
    "equilibrium_reaction_energy_per_atom",
    "decomposes_to",
    "xas",
    "grain_boundaries",
    "cbm",
    "vbm",
    "is_gap_direct",
    "is_metal",
    "es_source_calc_id",
    "bandstructure",
    "dos",
    "dos_energy_up",
    "dos_energy_down",
    "is_magnetic",
    "ordering",
    "total_magnetization_normalized_vol",
    "total_magnetization_normalized_formula_units",
    "num_magnetic_sites",
    "num_unique_magnetic_sites",
    "types_of_magnetic_species",
    "bulk_modulus",
    "shear_modulus",
    "universal_anisotropy",
    "homogeneous_poisson",
    "e_total",
    "e_ionic",
    "e_electronic",
    "n",
    "e_ij_max",
    "weighted_surface_energy_EV_PER_ANG2",
    "weighted_surface_energy",
    "weighted_work_function",
    "surface_anisotropy",
    "shape_factor",
    "has_reconstructed",
    "possible_species",
    "has_props",
    "theoretical",
    "database_IDs"
  ]
}
