{"builder_meta": null, "nsites": null, "elements": null, "nelements": null, "composition": null, "composition_reduced": null, "formula_pretty": "Nb6Ni7", "formula_anonymous": "A6B7", "chemsys": null, "volume": 179.52212697203254, "density": 8.956482712406045, "density_atomic": 13.809394382464042, "symmetry": null, "property_name": null, "material_id": "mp-1105044", "deprecated": null, "deprecation_reasons": null, "last_updated": null, "origins": null, "warnings": null, "structure": {"@module": "pymatgen.core.structure", "@class": "Structure", "charge": 0, "lattice": {"matrix": [[8.89149087, -2.42947548, 0.0013583999999990002], [8.89149087, 2.42947548, 0.0013583999999990002], [8.22703447, 0.0, 4.15654252]], "pbc": [true, true, true], "a": 9.217427127157835, "b": 9.217427127157835, "c": 9.21742599054292, "alpha": 30.56449562691695, "beta": 30.56449562691695, "gamma": 30.56449100770143, "volume": 179.5221269720326}, "properties": {}, "sites": [{"species": [{"element": "Nb", "occu": 1}], "abc": [0.83115278, 0.83115278, 0.83115278], "properties": {"magmom": 0.0}, "label": "Nb", "xyz": [21.618297280786564, 0.0, 3.456979946558908]}, {"species": [{"element": "Nb", "occu": 1}], "abc": [0.16884722, 0.16884722, 0.16884722], "properties": {"magmom": 0.0}, "label": "Nb", "xyz": [4.391718929213436, 0.0, 0.70227937344109]}, {"species": [{"element": "Nb", "occu": 1}], "abc": [0.65591396, 0.65591396, 0.65591396], "properties": {"magmom": -0.002}, "label": "Nb", "xyz": [17.060332731965293, 0.0, 2.728116251248106]}, {"species": [{"element": "Nb", "occu": 1}], "abc": [0.34408604, 0.34408604, 0.34408604], "properties": {"magmom": -0.002}, "label": "Nb", "xyz": [8.949683478034707, 0.0, 1.4311430687518922]}, {"species": [{"element": "Nb", "occu": 1}], "abc": [0.54938124, 0.54938124, 0.54938124], "properties": {"magmom": 0.0}, "label": "Nb", "xyz": [14.289414957869901, 0.0, 2.285019042703156]}, {"species": [{"element": "Nb", "occu": 1}], "abc": [0.45061876, 0.45061876, 0.45061876], "properties": {"magmom": 0.0}, "label": "Nb", "xyz": [11.720601252130098, 0.0, 1.8742402772968425]}, {"species": [{"element": "Ni", "occu": 1}], "abc": [0.0, -0.0, 0.0], "properties": {"magmom": -0.002}, "label": "Ni", "xyz": [0.0, 0.0, 0.0]}, {"species": [{"element": "Ni", "occu": 1}], "abc": [0.40797097, 0.90963693, 0.90963693], "properties": {"magmom": -0.001}, "label": "Ni", "xyz": [19.19911299138485, 1.2187851489706607, 3.7827344158786227]}, {"species": [{"element": "Ni", "occu": 1}], "abc": [0.90963693, 0.90963693, 0.40797097], "properties": {"magmom": -0.001}, "label": "Ni", "xyz": [19.532448149168992, 0.0, 1.6982199853420668]}, {"species": [{"element": "Ni", "occu": 1}], "abc": [0.90963693, 0.40797097, 0.90963693], "properties": {"magmom": -0.001}, "label": "Ni", "xyz": [19.19911299138485, -1.2187851489706607, 3.7827344158786227]}, {"species": [{"element": "Ni", "occu": 1}], "abc": [0.5920290300000001, 0.09036307, 0.09036307], "properties": {"magmom": -0.001}, "label": "Ni", "xyz": [6.810903218615151, -1.218785148970661, 0.37652490412137574]}, {"species": [{"element": "Ni", "occu": 1}], "abc": [0.09036307, 0.09036307, 0.5920290300000001], "properties": {"magmom": -0.001}, "label": "Ni", "xyz": [6.477568060831007, 0.0, 2.461039334657932]}, {"species": [{"element": "Ni", "occu": 1}], "abc": [0.09036307, 0.5920290300000001, 0.09036307], "properties": {"magmom": -0.001}, "label": "Ni", "xyz": [6.810903218615151, 1.218785148970661, 0.37652490412137574]}]}, "task_ids": null, "uncorrected_energy_per_atom": null, "energy_per_atom": -7.985308393846153, "formation_energy_per_atom": -0.210786316923074, "energy_above_hull": 0.018445997358976, "is_stable": false, "equilibrium_reaction_energy_per_atom": null, "decomposes_to": null, "xas": null, "grain_boundaries": null, "band_gap": 0.0, "cbm": null, "vbm": null, "efermi": 6.48506161, "is_gap_direct": null, "is_metal": null, "es_source_calc_id": null, "bandstructure": null, "dos": null, "dos_energy_up": null, "dos_energy_down": null, "is_magnetic": null, "ordering": null, "total_magnetization": 0.0078436, "total_magnetization_normalized_vol": null, "total_magnetization_normalized_formula_units": null, "num_magnetic_sites": null, "num_unique_magnetic_sites": null, "types_of_magnetic_species": null, "bulk_modulus": null, "shear_modulus": null, "universal_anisotropy": null, "homogeneous_poisson": null, "e_total": null, "e_ionic": null, "e_electronic": null, "n": null, "e_ij_max": null, "weighted_surface_energy_EV_PER_ANG2": null, "weighted_surface_energy": null, "weighted_work_function": null, "surface_anisotropy": null, "shape_factor": null, "has_reconstructed": null, "possible_species": null, "has_props": null, "theoretical": null, "database_IDs": null, "fields_not_requested": ["builder_meta", "nsites", "elements", "nelements", "composition", "composition_reduced", "chemsys", "symmetry", "property_name", "deprecated", "deprecation_reasons", "last_updated", "origins", "warnings", "task_ids", "uncorrected_energy_per_atom", "equilibrium_reaction_energy_per_atom", "decomposes_to", "xas", "grain_boundaries", "cbm", "vbm", "is_gap_direct", "is_metal", "es_source_calc_id", "bandstructure", "dos", "dos_energy_up", "dos_energy_down", "is_magnetic", "ordering", "total_magnetization_normalized_vol", "total_magnetization_normalized_formula_units", "num_magnetic_sites", "num_unique_magnetic_sites", "types_of_magnetic_species", "bulk_modulus", "shear_modulus", "universal_anisotropy", "homogeneous_poisson", "e_total", "e_ionic", "e_electronic", "n", "e_ij_max", "weighted_surface_energy_EV_PER_ANG2", "weighted_surface_energy", "weighted_work_function", "surface_anisotropy", "shape_factor", "has_reconstructed", "possible_species", "has_props", "theoretical", "database_IDs"]}