{
  "builder_meta": null,
  "nsites": null,
  "elements": null,
  "nelements": null,
  "composition": null,
  "composition_reduced": null,
  "formula_pretty": "Nb6Sn5",
  "formula_anonymous": "A5B6",
  "chemsys": null,
  "volume": 446.0591559505752,
  "density": 8.569540513368649,
  "density_atomic": 20.2754161795716,
  "symmetry": null,
  "property_name": null,
  "material_id": "mp-1192223",
  "deprecated": null,
  "deprecation_reasons": null,
  "last_updated": null,
  "origins": null,
  "warnings": null,
  "structure": {
    "@module": "pymatgen.core.structure",
    "@class": "Structure",
    "charge": 0,
    "lattice": {
      "matrix": [
        [-2.838053, 4.64233323, 8.46399999],
        [2.838053, -4.64233323, 8.46399999],
        [2.838053, 4.64233323, -8.46399999]
      ],
      "pbc": [true, true, true],
      "a": 10.062062337308948,
      "b": 10.062062337308948,
      "c": 10.062062337308948,
      "alpha": 147.23423986868568,
      "beta": 125.0489130676753,
      "gamma": 65.4702475445747,
      "volume": 446.05915595057513
    },
    "properties": {},
    "sites": [
      {
        "species": [{ "element": "Nb", "occu": 1 }],
        "abc": [0.65406365, 0.65406365, 0.0],
        "properties": { "magmom": -0.0 },
        "label": "Nb",
        "xyz": [0.0, 0.0, 11.071989454118727]
      },
      {
        "species": [{ "element": "Nb", "occu": 1 }],
        "abc": [0.34593635, 0.34593635, 0.0],
        "properties": { "magmom": -0.0 },
        "label": "Nb",
        "xyz": [0.0, 0.0, 5.856010525881273]
      },
      {
        "species": [{ "element": "Nb", "occu": 1 }],
        "abc": [-0.0, 0.75847338, 0.75847338],
        "properties": { "magmom": 0.0 },
        "label": "Nb",
        "xyz": [4.30517530305828, 0.0, 0.0]
      },
      {
        "species": [{ "element": "Nb", "occu": 1 }],
        "abc": [0.0, 0.24152662, 0.24152662],
        "properties": { "magmom": 0.0 },
        "label": "Nb",
        "xyz": [1.3709306969417199, 0.0, 0.0]
      },
      {
        "species": [{ "element": "Nb", "occu": 1 }],
        "abc": [0.5, 0.0, 0.0],
        "properties": { "magmom": -0.0 },
        "label": "Nb",
        "xyz": [-1.4190265, 2.321166615, 4.231999995]
      },
      {
        "species": [{ "element": "Nb", "occu": 1 }],
        "abc": [0.0, 0.5, 0.0],
        "properties": { "magmom": -0.0 },
        "label": "Nb",
        "xyz": [1.4190265, -2.321166615, 4.231999995]
      },
      {
        "species": [{ "element": "Nb", "occu": 1 }],
        "abc": [0.0, 0.0, 0.5],
        "properties": { "magmom": -0.0 },
        "label": "Nb",
        "xyz": [1.4190265, 2.321166615, -4.231999995]
      },
      {
        "species": [{ "element": "Nb", "occu": 1 }],
        "abc": [0.5, 0.5, 0.5],
        "properties": { "magmom": -0.0 },
        "label": "Nb",
        "xyz": [1.4190265, 2.321166615, 4.231999995]
      },
      {
        "species": [{ "element": "Nb", "occu": 1 }],
        "abc": [0.64487439, 0.91575143, 0.72912295],
        "properties": { "magmom": 0.0 },
        "label": "Nb",
        "xyz": [2.8380529716194705, 2.1273302155045895, 7.0378402833649725]
      },
      {
        "species": [{ "element": "Nb", "occu": 1 }],
        "abc": [0.18662948000000001, 0.91575143, 0.27087705],
        "properties": { "magmom": 0.0 },
        "label": "Nb",
        "xyz": [2.8380501619469998, -2.1273255267480273, 7.0378486627249615]
      },
      {
        "species": [{ "element": "Nb", "occu": 1 }],
        "abc": [0.81337052, 0.08424857, 0.72912295],
        "properties": { "magmom": 0.0 },
        "label": "Nb",
        "xyz": [2.8380530001648197e-6, 6.7696587567480275, 1.4261513272750381]
      },
      {
        "species": [{ "element": "Nb", "occu": 1 }],
        "abc": [0.35512561, 0.08424857, 0.27087705],
        "properties": { "magmom": 0.0 },
        "label": "Nb",
        "xyz": [2.8380530037175333e-8, 2.5150030144954107, 1.4261597066350284]
      },
      {
        "species": [{ "element": "Sn", "occu": 1 }],
        "abc": [0.8324047, 0.8324047, 0.0],
        "properties": { "magmom": 0.0 },
        "label": "Sn",
        "xyz": [0.0, 0.0, 14.090946744951905]
      },
      {
        "species": [{ "element": "Sn", "occu": 1 }],
        "abc": [0.1675953, 0.1675953, 0.0],
        "properties": { "magmom": 0.0 },
        "label": "Sn",
        "xyz": [0.0, 0.0, 2.837053235048094]
      },
      {
        "species": [{ "element": "Sn", "occu": 1 }],
        "abc": [0.29462313, 0.7946231300000001, 0.5],
        "properties": { "magmom": 0.0 },
        "label": "Sn",
        "xyz": [2.838053, -4.440892098500626e-16, 4.9873803387475375]
      },
      {
        "species": [{ "element": "Sn", "occu": 1 }],
        "abc": [0.70537687, 0.20537687000000002, 0.5],
        "properties": { "magmom": 0.0 },
        "label": "Sn",
        "xyz": [-2.220446049250313e-16, 4.64233323, 3.476619651252463]
      },
      {
        "species": [{ "element": "Sn", "occu": 1 }],
        "abc": [0.5, 0.74449577, 0.24449577],
        "properties": { "magmom": -0.0 },
        "label": "Sn",
        "xyz": [1.3877839070716198, 2.220446049250313e-16, 8.46399999]
      },
      {
        "species": [{ "element": "Sn", "occu": 1 }],
        "abc": [0.5, 0.25550423, 0.75550423],
        "properties": { "magmom": -0.0 },
        "label": "Sn",
        "xyz": [1.4502690929283797, 4.64233323, 0.0]
      },
      {
        "species": [{ "element": "Sn", "occu": 1 }],
        "abc": [0.29716897000000003, 0.6039552300000001, 0.69321373],
        "properties": { "magmom": 0.0 },
        "label": "Sn",
        "xyz": [2.83805297161947, 1.7939250849658277, 1.7597542160008963]
      },
      {
        "species": [{ "element": "Sn", "occu": 1 }],
        "abc": [0.9107415, 0.6039552300000001, 0.30678627],
        "properties": { "magmom": 0.0 },
        "label": "Sn",
        "xyz": [3.3306690738754696e-16, 2.848408191457504, 10.223754121360894]
      },
      {
        "species": [{ "element": "Sn", "occu": 1 }],
        "abc": [0.089258499999999, 0.39604477, 0.69321373],
        "properties": { "magmom": 0.0 },
        "label": "Sn",
        "xyz": [2.8380530000000026, 1.793925038542491, -1.7597541313609035]
      },
      {
        "species": [{ "element": "Sn", "occu": 1 }],
        "abc": [0.70283103, 0.39604477, 0.30678627],
        "properties": { "magmom": 0.0 },
        "label": "Sn",
        "xyz": [2.8380530037175333e-8, 2.8484081450341723, 6.704245773999104]
      }
    ]
  },
  "task_ids": null,
  "uncorrected_energy_per_atom": null,
  "energy_per_atom": -24.92242569590909,
  "formation_energy_per_atom": -0.182846895909092,
  "energy_above_hull": 0.0,
  "is_stable": true,
  "equilibrium_reaction_energy_per_atom": null,
  "decomposes_to": null,
  "xas": null,
  "grain_boundaries": null,
  "band_gap": 0.0,
  "cbm": null,
  "vbm": null,
  "efermi": 7.76391343,
  "is_gap_direct": null,
  "is_metal": null,
  "es_source_calc_id": null,
  "bandstructure": null,
  "dos": null,
  "dos_energy_up": null,
  "dos_energy_down": null,
  "is_magnetic": null,
  "ordering": null,
  "total_magnetization": 1e-7,
  "total_magnetization_normalized_vol": null,
  "total_magnetization_normalized_formula_units": null,
  "num_magnetic_sites": null,
  "num_unique_magnetic_sites": null,
  "types_of_magnetic_species": null,
  "bulk_modulus": null,
  "shear_modulus": null,
  "universal_anisotropy": null,
  "homogeneous_poisson": null,
  "e_total": null,
  "e_ionic": null,
  "e_electronic": null,
  "n": null,
  "e_ij_max": null,
  "weighted_surface_energy_EV_PER_ANG2": null,
  "weighted_surface_energy": null,
  "weighted_work_function": null,
  "surface_anisotropy": null,
  "shape_factor": null,
  "has_reconstructed": null,
  "possible_species": null,
  "has_props": null,
  "theoretical": null,
  "database_IDs": null,
  "fields_not_requested": [
    "builder_meta",
    "nsites",
    "elements",
    "nelements",
    "composition",
    "composition_reduced",
    "chemsys",
    "symmetry",
    "property_name",
    "deprecated",
    "deprecation_reasons",
    "last_updated",
    "origins",
    "warnings",
    "task_ids",
    "uncorrected_energy_per_atom",
    "equilibrium_reaction_energy_per_atom",
    "decomposes_to",
    "xas",
    "grain_boundaries",
    "cbm",
    "vbm",
    "is_gap_direct",
    "is_metal",
    "es_source_calc_id",
    "bandstructure",
    "dos",
    "dos_energy_up",
    "dos_energy_down",
    "is_magnetic",
    "ordering",
    "total_magnetization_normalized_vol",
    "total_magnetization_normalized_formula_units",
    "num_magnetic_sites",
    "num_unique_magnetic_sites",
    "types_of_magnetic_species",
    "bulk_modulus",
    "shear_modulus",
    "universal_anisotropy",
    "homogeneous_poisson",
    "e_total",
    "e_ionic",
    "e_electronic",
    "n",
    "e_ij_max",
    "weighted_surface_energy_EV_PER_ANG2",
    "weighted_surface_energy",
    "weighted_work_function",
    "surface_anisotropy",
    "shape_factor",
    "has_reconstructed",
    "possible_species",
    "has_props",
    "theoretical",
    "database_IDs"
  ]
}
