{
  "builder_meta": null,
  "nsites": null,
  "elements": null,
  "nelements": null,
  "composition": null,
  "composition_reduced": null,
  "formula_pretty": "Nb6Zn7",
  "formula_anonymous": "A6B7",
  "chemsys": null,
  "volume": 206.46938538618073,
  "density": 8.165604971679388,
  "density_atomic": 15.882260414321594,
  "symmetry": null,
  "property_name": null,
  "material_id": "mp-1104372",
  "deprecated": null,
  "deprecation_reasons": null,
  "last_updated": null,
  "origins": null,
  "warnings": null,
  "structure": {
    "@module": "pymatgen.core.structure",
    "@class": "Structure",
    "charge": 0,
    "lattice": {
      "matrix": [
        [-2.549212, -4.415364, 0.0],
        [-5.098424, 0.0, 0.0],
        [-2.549212, -1.471788, -9.171771]
      ],
      "pbc": [true, true, true],
      "a": 5.098423390955286,
      "b": 5.098424,
      "c": 9.632550286104351,
      "alpha": 74.65410494667218,
      "beta": 74.65410557277615,
      "gamma": 59.999996048378925,
      "volume": 206.46938538618073
    },
    "properties": {},
    "sites": [
      {
        "species": [{ "element": "Nb", "occu": 1 }],
        "abc": [0.835511999999999, 0.835511999999999, 0.493465],
        "properties": { "magmom": -0.0 },
        "label": "Nb",
        "xyz": [-7.647638549211992, -4.415365471787996, -4.525947976515]
      },
      {
        "species": [{ "element": "Nb", "occu": 1 }],
        "abc": [0.164488, 0.164488, 0.506535],
        "properties": { "magmom": -0.0 },
        "label": "Nb",
        "xyz": [-2.5492094507879997, -1.4717865282120002, -4.645823023485]
      },
      {
        "species": [{ "element": "Nb", "occu": 1 }],
        "abc": [0.649992, 0.649992, 0.050023],
        "properties": { "magmom": 0.001 },
        "label": "Nb",
        "xyz": [-5.098421450787999, -2.9435745282120003, -0.45879950073299997]
      },
      {
        "species": [{ "element": "Nb", "occu": 1 }],
        "abc": [0.350008, 0.350008, 0.949977],
        "properties": { "magmom": 0.001 },
        "label": "Nb",
        "xyz": [-5.098426549211999, -2.943577471788, -8.712971499266999]
      },
      {
        "species": [{ "element": "Nb", "occu": 1 }],
        "abc": [0.544871, 0.544871, 0.365386999999999],
        "properties": { "magmom": -0.003 },
        "label": "Nb",
        "xyz": [-5.098423999999997, -2.943575999999999, -3.351245890376991]
      },
      {
        "species": [{ "element": "Nb", "occu": 1 }],
        "abc": [0.455129, 0.455129, 0.634613],
        "properties": { "magmom": -0.003 },
        "label": "Nb",
        "xyz": [-5.098424, -2.943576, -5.8205251096229995]
      },
      {
        "species": [{ "element": "Zn", "occu": 1 }],
        "abc": [0.0, 0.0, 0.0],
        "properties": { "magmom": 0.0 },
        "label": "Zn",
        "xyz": [0.0, 0.0, 0.0]
      },
      {
        "species": [{ "element": "Zn", "occu": 1 }],
        "abc": [0.906586999999999, 0.906586999999999, 0.772637999999999],
        "properties": { "magmom": 0.0 },
        "label": "Zn",
        "xyz": [-8.90286543958799, -5.140070939411994, -7.086458801897991]
      },
      {
        "species": [{ "element": "Zn", "occu": 1 }],
        "abc": [0.41418699999999903, 0.906586999999999, 0.772637999999999],
        "properties": { "magmom": 0.0 },
        "label": "Zn",
        "xyz": [-7.64763345078799, -2.9659457058119942, -7.086458801897991]
      },
      {
        "species": [{ "element": "Zn", "occu": 1 }],
        "abc": [0.906586999999999, 0.41418699999999903, 0.772637999999999],
        "properties": { "magmom": 0.0 },
        "label": "Zn",
        "xyz": [-6.39240146198799, -5.140070939411994, -7.086458801897991]
      },
      {
        "species": [{ "element": "Zn", "occu": 1 }],
        "abc": [0.093413, 0.093413, 0.227361999999999],
        "properties": { "magmom": 0.0 },
        "label": "Zn",
        "xyz": [-1.2939825604119974, -0.7470810605879985, -2.085312198101991]
      },
      {
        "species": [{ "element": "Zn", "occu": 1 }],
        "abc": [0.585813, 0.093413, 0.227361999999999],
        "properties": { "magmom": 0.0 },
        "label": "Zn",
        "xyz": [-2.5492145492119973, -2.9212062941879986, -2.085312198101991]
      },
      {
        "species": [{ "element": "Zn", "occu": 1 }],
        "abc": [0.093413, 0.585813, 0.227361999999999],
        "properties": { "magmom": 0.0 },
        "label": "Zn",
        "xyz": [-3.804446538011997, -0.7470810605879985, -2.085312198101991]
      }
    ]
  },
  "task_ids": null,
  "uncorrected_energy_per_atom": null,
  "energy_per_atom": -5.477601808461538,
  "formation_energy_per_atom": -0.137137538461539,
  "energy_above_hull": 0.0,
  "is_stable": true,
  "equilibrium_reaction_energy_per_atom": null,
  "decomposes_to": null,
  "xas": null,
  "grain_boundaries": null,
  "band_gap": 0.0,
  "cbm": null,
  "vbm": null,
  "efermi": 4.03979523,
  "is_gap_direct": null,
  "is_metal": null,
  "es_source_calc_id": null,
  "bandstructure": null,
  "dos": null,
  "dos_energy_up": null,
  "dos_energy_down": null,
  "is_magnetic": null,
  "ordering": null,
  "total_magnetization": 0.0081104,
  "total_magnetization_normalized_vol": null,
  "total_magnetization_normalized_formula_units": null,
  "num_magnetic_sites": null,
  "num_unique_magnetic_sites": null,
  "types_of_magnetic_species": null,
  "bulk_modulus": null,
  "shear_modulus": null,
  "universal_anisotropy": null,
  "homogeneous_poisson": null,
  "e_total": null,
  "e_ionic": null,
  "e_electronic": null,
  "n": null,
  "e_ij_max": null,
  "weighted_surface_energy_EV_PER_ANG2": null,
  "weighted_surface_energy": null,
  "weighted_work_function": null,
  "surface_anisotropy": null,
  "shape_factor": null,
  "has_reconstructed": null,
  "possible_species": null,
  "has_props": null,
  "theoretical": null,
  "database_IDs": null,
  "fields_not_requested": [
    "builder_meta",
    "nsites",
    "elements",
    "nelements",
    "composition",
    "composition_reduced",
    "chemsys",
    "symmetry",
    "property_name",
    "deprecated",
    "deprecation_reasons",
    "last_updated",
    "origins",
    "warnings",
    "task_ids",
    "uncorrected_energy_per_atom",
    "equilibrium_reaction_energy_per_atom",
    "decomposes_to",
    "xas",
    "grain_boundaries",
    "cbm",
    "vbm",
    "is_gap_direct",
    "is_metal",
    "es_source_calc_id",
    "bandstructure",
    "dos",
    "dos_energy_up",
    "dos_energy_down",
    "is_magnetic",
    "ordering",
    "total_magnetization_normalized_vol",
    "total_magnetization_normalized_formula_units",
    "num_magnetic_sites",
    "num_unique_magnetic_sites",
    "types_of_magnetic_species",
    "bulk_modulus",
    "shear_modulus",
    "universal_anisotropy",
    "homogeneous_poisson",
    "e_total",
    "e_ionic",
    "e_electronic",
    "n",
    "e_ij_max",
    "weighted_surface_energy_EV_PER_ANG2",
    "weighted_surface_energy",
    "weighted_work_function",
    "surface_anisotropy",
    "shape_factor",
    "has_reconstructed",
    "possible_species",
    "has_props",
    "theoretical",
    "database_IDs"
  ]
}
