{"builder_meta": null, "nsites": null, "elements": null, "nelements": null, "composition": null, "composition_reduced": null, "formula_pretty": "Nb7As4", "formula_anonymous": "A4B7", "chemsys": null, "volume": 382.15467154228367, "density": 8.256152846420763, "density_atomic": 17.370666888285623, "symmetry": null, "property_name": null, "material_id": "mp-1191483", "deprecated": null, "deprecation_reasons": null, "last_updated": null, "origins": null, "warnings": null, "structure": {"@module": "pymatgen.core.structure", "@class": "Structure", "charge": 0, "lattice": {"matrix": [[0.0, -3.551638, 0.0], [-7.78312, 1.775818999999999, 0.0], [3.659649, 0.0, -13.824733]], "pbc": [true, true, true], "a": 3.551638, "b": 7.983137857707394, "c": 14.300918618203866, "alpha": 104.44741845327097, "beta": 90.0, "gamma": 102.85275318904695, "volume": 382.15467154228367}, "properties": {}, "sites": [{"species": [{"element": "Nb", "occu": 1}], "abc": [0.0, 0.0, 0.0], "properties": {"magmom": -0.002}, "label": "Nb", "xyz": [0.0, 0.0, 0.0]}, {"species": [{"element": "Nb", "occu": 1}], "abc": [0.5, 0.0, 0.5], "properties": {"magmom": 0.002}, "label": "Nb", "xyz": [1.8298245, -1.775819, -6.9123665]}, {"species": [{"element": "Nb", "occu": 1}], "abc": [0.430954, 0.861908999999999, 0.825687], "properties": {"magmom": 0.001}, "label": "Nb", "xyz": [-3.6866165722169932, 1.775818997407086e-06, -11.414902316571]}, {"species": [{"element": "Nb", "occu": 1}], "abc": [0.569045999999999, 0.138091, 0.174313], "properties": {"magmom": 0.001}, "label": "Nb", "xyz": [-0.436854427783, -1.7758207758189968, -2.409830683429]}, {"species": [{"element": "Nb", "occu": 1}], "abc": [0.196241, 0.392482, 0.310116], "properties": {"magmom": 0.0}, "label": "Nb", "xyz": [-1.9198187945560001, -3.3306690738754696e-16, -4.287270899028]}, {"species": [{"element": "Nb", "occu": 1}], "abc": [0.803759, 0.607518, 0.689883999999999], "properties": {"magmom": 0.0}, "label": "Nb", "xyz": [-2.203652205444004, -1.7758190000000007, -9.537462100971988]}, {"species": [{"element": "Nb", "occu": 1}], "abc": [0.210868, 0.421736, 0.799754], "properties": {"magmom": -0.0}, "label": "Nb", "xyz": [-0.3556029699740004, -5.551115123125783e-16, -11.056385515681999]}, {"species": [{"element": "Nb", "occu": 1}], "abc": [0.789132, 0.578264, 0.200245999999999], "properties": {"magmom": -0.0}, "label": "Nb", "xyz": [-3.767868030026004, -1.7758190000000007, -2.7683474843179865]}, {"species": [{"element": "Nb", "occu": 1}], "abc": [0.336182, 0.672362999999999, 0.028631999999999002], "properties": {"magmom": -0.0}, "label": "Nb", "xyz": [-5.128298842391996, -1.7758190025141118e-06, -0.3958297552559862]}, {"species": [{"element": "Nb", "occu": 1}], "abc": [0.663818, 0.327637, 0.971368], "properties": {"magmom": -0.0}, "label": "Nb", "xyz": [1.0048278423919994, -1.7758172241810006, -13.428903244744001]}, {"species": [{"element": "Nb", "occu": 1}], "abc": [0.002858, 0.005716, 0.662747], "properties": {"magmom": 0.0}, "label": "Nb", "xyz": [2.3809330818829997, -5.204170427930421e-18, -9.162300321551]}, {"species": [{"element": "Nb", "occu": 1}], "abc": [0.997142, 0.994284, 0.337252999999999], "properties": {"magmom": 0.0}, "label": "Nb", "xyz": [-6.504404081883004, -1.7758190000000014, -4.662432678448987]}, {"species": [{"element": "Nb", "occu": 1}], "abc": [0.17677, 0.353539, 0.541687], "properties": {"magmom": 0.003}, "label": "Nb", "xyz": [-0.769252173817, -1.7758190005157104e-06, -7.488678144571001]}, {"species": [{"element": "Nb", "occu": 1}], "abc": [0.82323, 0.646461, 0.458312999999999], "properties": {"magmom": 0.003}, "label": "Nb", "xyz": [-3.3542188261830033, -1.775817224181001, -6.336054855428987]}, {"species": [{"element": "As", "occu": 1}], "abc": [0.172951, 0.345900999999999, 0.110871], "properties": {"magmom": -0.0}, "label": "As", "xyz": [-2.2864400468409927, -1.7758190020700226e-06, -1.532761972443]}, {"species": [{"element": "As", "occu": 1}], "abc": [0.827048999999999, 0.654099, 0.889129], "properties": {"magmom": -0.0}, "label": "As", "xyz": [-1.8370309531590006, -1.7758172241809973, -12.291971027556999]}, {"species": [{"element": "As", "occu": 1}], "abc": [0.373181999999999, 0.746365, 0.602127], "properties": {"magmom": -0.0}, "label": "As", "xyz": [-3.6054748853770002, 1.7758190027361564e-06, -8.324245007091]}, {"species": [{"element": "As", "occu": 1}], "abc": [0.626818, 0.253635, 0.397873], "properties": {"magmom": -0.0}, "label": "As", "xyz": [-0.5179961146230003, -1.7758207758190003, -5.500487992909]}, {"species": [{"element": "As", "occu": 1}], "abc": [0.370451, 0.740900999999999, 0.33491000000000004], "properties": {"magmom": -0.0}, "label": "As", "xyz": [-4.540868344529992, -1.7758190022920672e-06, -4.630041329030001]}, {"species": [{"element": "As", "occu": 1}], "abc": [0.629549, 0.259098999999999, 0.6650900000000001], "properties": {"magmom": -0.0}, "label": "As", "xyz": [0.4173973445300079, -1.775817224181002, -9.194691670970002]}, {"species": [{"element": "As", "occu": 1}], "abc": [0.064026, 0.128053, 0.8487800000000001], "properties": {"magmom": -0.0}, "label": "As", "xyz": [2.10958501286, 1.7758189998773322e-06, -11.734156875740002]}, {"species": [{"element": "As", "occu": 1}], "abc": [0.935974, 0.871946999999999, 0.15122000000000002], "properties": {"magmom": -0.0}, "label": "As", "xyz": [-6.233056012859993, -1.7758207758190028, -2.0905761242600005]}]}, "task_ids": null, "uncorrected_energy_per_atom": null, "energy_per_atom": -8.672503023636365, "formation_energy_per_atom": -0.546173440909091, "energy_above_hull": 0.004772799886362001, "is_stable": false, "equilibrium_reaction_energy_per_atom": null, "decomposes_to": null, "xas": null, "grain_boundaries": null, "band_gap": 0.0, "cbm": null, "vbm": null, "efermi": 6.74588843, "is_gap_direct": null, "is_metal": null, "es_source_calc_id": null, "bandstructure": null, "dos": null, "dos_energy_up": null, "dos_energy_down": null, "is_magnetic": null, "ordering": null, "total_magnetization": 0.103258499999999, "total_magnetization_normalized_vol": null, "total_magnetization_normalized_formula_units": null, "num_magnetic_sites": null, "num_unique_magnetic_sites": null, "types_of_magnetic_species": null, "bulk_modulus": null, "shear_modulus": null, "universal_anisotropy": null, "homogeneous_poisson": null, "e_total": null, "e_ionic": null, "e_electronic": null, "n": null, "e_ij_max": null, "weighted_surface_energy_EV_PER_ANG2": null, "weighted_surface_energy": null, "weighted_work_function": null, "surface_anisotropy": null, "shape_factor": null, "has_reconstructed": null, "possible_species": null, "has_props": null, "theoretical": null, "database_IDs": null, "fields_not_requested": ["builder_meta", "nsites", "elements", "nelements", "composition", "composition_reduced", "chemsys", "symmetry", "property_name", "deprecated", "deprecation_reasons", "last_updated", "origins", "warnings", "task_ids", "uncorrected_energy_per_atom", "equilibrium_reaction_energy_per_atom", "decomposes_to", "xas", "grain_boundaries", "cbm", "vbm", "is_gap_direct", "is_metal", "es_source_calc_id", "bandstructure", "dos", "dos_energy_up", "dos_energy_down", "is_magnetic", "ordering", "total_magnetization_normalized_vol", "total_magnetization_normalized_formula_units", "num_magnetic_sites", "num_unique_magnetic_sites", "types_of_magnetic_species", "bulk_modulus", "shear_modulus", "universal_anisotropy", "homogeneous_poisson", "e_total", "e_ionic", "e_electronic", "n", "e_ij_max", "weighted_surface_energy_EV_PER_ANG2", "weighted_surface_energy", "weighted_work_function", "surface_anisotropy", "shape_factor", "has_reconstructed", "possible_species", "has_props", "theoretical", "database_IDs"]}