{"builder_meta": null, "nsites": null, "elements": null, "nelements": null, "composition": null, "composition_reduced": null, "formula_pretty": "Nb7Co6", "formula_anonymous": "A6B7", "chemsys": null, "volume": 186.69967277217472, "density": 8.929249449844175, "density_atomic": 14.361513290167286, "symmetry": null, "property_name": null, "material_id": "mp-1104334", "deprecated": null, "deprecation_reasons": null, "last_updated": null, "origins": null, "warnings": null, "structure": {"@module": "pymatgen.core.structure", "@class": "Structure", "charge": 0, "lattice": {"matrix": [[-2.488022, -4.309381, 0.0], [2.488022, -4.309381, 0.0], [0.0, -2.872921, 8.706517]], "pbc": [true, true, true], "a": 4.976044420585994, "b": 4.976044420585994, "c": 9.168266648801724, "alpha": 74.25399833626108, "beta": 74.25399833626108, "gamma": 59.99999440805936, "volume": 186.69967277217472}, "properties": {}, "sites": [{"species": [{"element": "Nb", "occu": 1}], "abc": [0.0, 0.0, 0.0], "properties": {"magmom": 0.0}, "label": "Nb", "xyz": [0.0, 0.0, 0.0]}, {"species": [{"element": "Nb", "occu": 1}], "abc": [0.166628, 0.166628, 0.500115], "properties": {"magmom": -0.0}, "label": "Nb", "xyz": [0.0, -2.872917960451, 4.354259749454999]}, {"species": [{"element": "Nb", "occu": 1}], "abc": [0.833372, 0.833372, 0.499884999999999], "properties": {"magmom": -0.0}, "label": "Nb", "xyz": [0.0, -8.618765039548997, 4.352257250544992]}, {"species": [{"element": "Nb", "occu": 1}], "abc": [0.34738, 0.34738, 0.95786], "properties": {"magmom": -0.0}, "label": "Nb", "xyz": [0.0, -5.74584165262, 8.33962437362]}, {"species": [{"element": "Nb", "occu": 1}], "abc": [0.6526200000000001, 0.6526200000000001, 0.042140000000000004], "properties": {"magmom": -0.0}, "label": "Nb", "xyz": [0.0, -5.745841347380001, 0.36689262638000003]}, {"species": [{"element": "Nb", "occu": 1}], "abc": [0.450366, 0.450366, 0.648902], "properties": {"magmom": -0.0}, "label": "Nb", "xyz": [0.0, -5.745841549634, 5.649676294333999]}, {"species": [{"element": "Nb", "occu": 1}], "abc": [0.549634, 0.549634, 0.351097999999999], "properties": {"magmom": -0.0}, "label": "Nb", "xyz": [0.0, -5.745841450365997, 3.0568407056659916]}, {"species": [{"element": "Co", "occu": 1}], "abc": [0.579425, 0.093328, 0.233919], "properties": {"magmom": -0.0}, "label": "Co", "xyz": [-1.209420030134, -3.571179803292, 2.0366197501229997]}, {"species": [{"element": "Co", "occu": 1}], "abc": [0.093328, 0.093328, 0.233919], "properties": {"magmom": -0.0}, "label": "Co", "xyz": [0.0, -1.4764026273349997, 2.0366197501229997]}, {"species": [{"element": "Co", "occu": 1}], "abc": [0.093328, 0.579425, 0.233919], "properties": {"magmom": -0.0}, "label": "Co", "xyz": [1.209420030134, -3.571179803292, 2.0366197501229997]}, {"species": [{"element": "Co", "occu": 1}], "abc": [0.420575, 0.906671999999999, 0.766081], "properties": {"magmom": -0.0}, "label": "Co", "xyz": [1.2094200301339977, -7.920503196707996, 6.669897249877]}, {"species": [{"element": "Co", "occu": 1}], "abc": [0.906671999999999, 0.906671999999999, 0.766081], "properties": {"magmom": -0.0}, "label": "Co", "xyz": [0.0, -10.015280372664991, 6.669897249877]}, {"species": [{"element": "Co", "occu": 1}], "abc": [0.906671999999999, 0.420575, 0.766081], "properties": {"magmom": -0.0}, "label": "Co", "xyz": [-1.2094200301339977, -7.920503196707996, 6.669897249877]}]}, "task_ids": null, "uncorrected_energy_per_atom": null, "energy_per_atom": -8.892753243076923, "formation_energy_per_atom": -0.16124281230769202, "energy_above_hull": 0.0, "is_stable": true, "equilibrium_reaction_energy_per_atom": null, "decomposes_to": null, "xas": null, "grain_boundaries": null, "band_gap": 0.0, "cbm": null, "vbm": null, "efermi": 5.47943632, "is_gap_direct": null, "is_metal": null, "es_source_calc_id": null, "bandstructure": null, "dos": null, "dos_energy_up": null, "dos_energy_down": null, "is_magnetic": null, "ordering": null, "total_magnetization": 0.0036439999999990005, "total_magnetization_normalized_vol": null, "total_magnetization_normalized_formula_units": null, "num_magnetic_sites": null, "num_unique_magnetic_sites": null, "types_of_magnetic_species": null, "bulk_modulus": null, "shear_modulus": null, "universal_anisotropy": null, "homogeneous_poisson": null, "e_total": null, "e_ionic": null, "e_electronic": null, "n": null, "e_ij_max": null, "weighted_surface_energy_EV_PER_ANG2": null, "weighted_surface_energy": null, "weighted_work_function": null, "surface_anisotropy": null, "shape_factor": null, "has_reconstructed": null, "possible_species": null, "has_props": null, "theoretical": null, "database_IDs": null, "fields_not_requested": ["builder_meta", "nsites", "elements", "nelements", "composition", "composition_reduced", "chemsys", "symmetry", "property_name", "deprecated", "deprecation_reasons", "last_updated", "origins", "warnings", "task_ids", "uncorrected_energy_per_atom", "equilibrium_reaction_energy_per_atom", "decomposes_to", "xas", "grain_boundaries", "cbm", "vbm", "is_gap_direct", "is_metal", "es_source_calc_id", "bandstructure", "dos", "dos_energy_up", "dos_energy_down", "is_magnetic", "ordering", "total_magnetization_normalized_vol", "total_magnetization_normalized_formula_units", "num_magnetic_sites", "num_unique_magnetic_sites", "types_of_magnetic_species", "bulk_modulus", "shear_modulus", "universal_anisotropy", "homogeneous_poisson", "e_total", "e_ionic", "e_electronic", "n", "e_ij_max", "weighted_surface_energy_EV_PER_ANG2", "weighted_surface_energy", "weighted_work_function", "surface_anisotropy", "shape_factor", "has_reconstructed", "possible_species", "has_props", "theoretical", "database_IDs"]}