{"builder_meta": null, "nsites": null, "elements": null, "nelements": null, "composition": null, "composition_reduced": null, "formula_pretty": "Nb7Ni6", "formula_anonymous": "A6B7", "chemsys": null, "volume": 190.13325554502134, "density": 8.755432140591498, "density_atomic": 14.625635041924719, "symmetry": null, "property_name": null, "material_id": "mp-1104237", "deprecated": null, "deprecation_reasons": null, "last_updated": null, "origins": null, "warnings": null, "structure": {"@module": "pymatgen.core.structure", "@class": "Structure", "charge": 0, "lattice": {"matrix": [[-2.472061, -4.281736, 0.0], [2.472061, -4.281736, 0.0], [0.0, -2.854491, 8.981503]], "pbc": [true, true, true], "a": 4.944122648298381, "b": 4.944122648298381, "c": 9.4241983748269, "alpha": 74.79282414414808, "beta": 74.79282414414808, "gamma": 59.99999132483602, "volume": 190.13325554502134}, "properties": {}, "sites": [{"species": [{"element": "Nb", "occu": 1}], "abc": [0.0, 0.0, 0.0], "properties": {"magmom": 0.0}, "label": "Nb", "xyz": [0.0, 0.0, 0.0]}, {"species": [{"element": "Nb", "occu": 1}], "abc": [0.16478399999999901, 0.16478399999999901, 0.505648], "properties": {"magmom": -0.0}, "label": "Nb", "xyz": [0.0, -2.8544908352159917, 4.541479028944]}, {"species": [{"element": "Nb", "occu": 1}], "abc": [0.835216, 0.835216, 0.494351999999999], "properties": {"magmom": -0.0}, "label": "Nb", "xyz": [0.0, -8.563472164783997, 4.440023971055991]}, {"species": [{"element": "Nb", "occu": 1}], "abc": [0.346155999999999, 0.346155999999999, 0.961530999999999], "properties": {"magmom": 0.001}, "label": "Nb", "xyz": [0.0, -5.708978799352989, 8.635993561092992]}, {"species": [{"element": "Nb", "occu": 1}], "abc": [0.653844, 0.653844, 0.038468999999999004], "properties": {"magmom": 0.001}, "label": "Nb", "xyz": [0.0, -5.708984200646998, 0.34550943890699104]}, {"species": [{"element": "Nb", "occu": 1}], "abc": [0.451389, 0.451389, 0.645834], "properties": {"magmom": 0.0}, "label": "Nb", "xyz": [0.0, -5.708984403102001, 5.800560008502]}, {"species": [{"element": "Nb", "occu": 1}], "abc": [0.548611, 0.548611, 0.354166], "properties": {"magmom": -0.0}, "label": "Nb", "xyz": [0.0, -5.708978596898, 3.1809429914979996]}, {"species": [{"element": "Ni", "occu": 1}], "abc": [0.583629, 0.09027, 0.235830999999999], "properties": {"magmom": 0.0}, "label": "Ni", "xyz": [-1.219613542899, -3.5586350756849967, 2.118116833992991]}, {"species": [{"element": "Ni", "occu": 1}], "abc": [0.09027, 0.09027, 0.235830999999999], "properties": {"magmom": 0.0}, "label": "Ni", "xyz": [0.0, -1.4462020844609973, 2.118116833992991]}, {"species": [{"element": "Ni", "occu": 1}], "abc": [0.09027, 0.583629, 0.235830999999999], "properties": {"magmom": 0.0}, "label": "Ni", "xyz": [1.219613542899, -3.5586350756849967, 2.118116833992991]}, {"species": [{"element": "Ni", "occu": 1}], "abc": [0.416371, 0.90973, 0.764169], "properties": {"magmom": 0.0}, "label": "Ni", "xyz": [1.219613542899, -7.859327924315001, 6.8633861660069995]}, {"species": [{"element": "Ni", "occu": 1}], "abc": [0.90973, 0.90973, 0.764169], "properties": {"magmom": 0.0}, "label": "Ni", "xyz": [0.0, -9.971760915539, 6.8633861660069995]}, {"species": [{"element": "Ni", "occu": 1}], "abc": [0.90973, 0.416371, 0.764169], "properties": {"magmom": 0.0}, "label": "Ni", "xyz": [-1.219613542899, -7.859327924315001, 6.8633861660069995]}]}, "task_ids": null, "uncorrected_energy_per_atom": null, "energy_per_atom": -8.31310234846154, "formation_energy_per_atom": -0.20618270538461503, "energy_above_hull": 0.0, "is_stable": true, "equilibrium_reaction_energy_per_atom": null, "decomposes_to": null, "xas": null, "grain_boundaries": null, "band_gap": 0.0, "cbm": null, "vbm": null, "efermi": 6.28042406, "is_gap_direct": null, "is_metal": null, "es_source_calc_id": null, "bandstructure": null, "dos": null, "dos_energy_up": null, "dos_energy_down": null, "is_magnetic": null, "ordering": null, "total_magnetization": 0.002951499999999, "total_magnetization_normalized_vol": null, "total_magnetization_normalized_formula_units": null, "num_magnetic_sites": null, "num_unique_magnetic_sites": null, "types_of_magnetic_species": null, "bulk_modulus": null, "shear_modulus": null, "universal_anisotropy": null, "homogeneous_poisson": null, "e_total": null, "e_ionic": null, "e_electronic": null, "n": null, "e_ij_max": null, "weighted_surface_energy_EV_PER_ANG2": null, "weighted_surface_energy": null, "weighted_work_function": null, "surface_anisotropy": null, "shape_factor": null, "has_reconstructed": null, "possible_species": null, "has_props": null, "theoretical": null, "database_IDs": null, "fields_not_requested": ["builder_meta", "nsites", "elements", "nelements", "composition", "composition_reduced", "chemsys", "symmetry", "property_name", "deprecated", "deprecation_reasons", "last_updated", "origins", "warnings", "task_ids", "uncorrected_energy_per_atom", "equilibrium_reaction_energy_per_atom", "decomposes_to", "xas", "grain_boundaries", "cbm", "vbm", "is_gap_direct", "is_metal", "es_source_calc_id", "bandstructure", "dos", "dos_energy_up", "dos_energy_down", "is_magnetic", "ordering", "total_magnetization_normalized_vol", "total_magnetization_normalized_formula_units", "num_magnetic_sites", "num_unique_magnetic_sites", "types_of_magnetic_species", "bulk_modulus", "shear_modulus", "universal_anisotropy", "homogeneous_poisson", "e_total", "e_ionic", "e_electronic", "n", "e_ij_max", "weighted_surface_energy_EV_PER_ANG2", "weighted_surface_energy", "weighted_work_function", "surface_anisotropy", "shape_factor", "has_reconstructed", "possible_species", "has_props", "theoretical", "database_IDs"]}