{"builder_meta": null, "nsites": null, "elements": null, "nelements": null, "composition": null, "composition_reduced": null, "formula_pretty": "Nb7P4", "formula_anonymous": "A4B7", "chemsys": null, "volume": 350.9678842111526, "density": 7.326341468175409, "density_atomic": 15.953085645961481, "symmetry": null, "property_name": null, "material_id": "mp-18254", "deprecated": null, "deprecation_reasons": null, "last_updated": null, "origins": null, "warnings": null, "structure": {"@module": "pymatgen.core.structure", "@class": "Structure", "charge": 0, "lattice": {"matrix": [[3.46201112, 0.0, -0.0], [-1.73100454, 7.27400086, -1.92057465], [-0.0, -0.00638776, 13.93856691]], "pbc": [true, true, true], "a": 3.46201112, "b": 7.719849235250904, "c": 13.938568373689774, "alpha": 104.43110884272048, "beta": 90.0, "gamma": 102.95747213220463, "volume": 350.9678842111526}, "properties": {}, "sites": [{"species": [{"element": "Nb", "occu": 1}], "abc": [0.33762152, 0.67524503, 0.02751261], "properties": {"magmom": -0.0}, "label": "Nb", "xyz": [-2.755951133748269e-06, 4.911557184981072, -0.9133721318027546]}, {"species": [{"element": "Nb", "occu": 1}], "abc": [0.66237848, 0.32475497000000003, 0.9724873900000001], "properties": {"magmom": -0.0}, "label": "Nb", "xyz": [1.7310093359511338, 2.356055915018928, 12.931364391802756]}, {"species": [{"element": "Nb", "occu": 1}], "abc": [0.00380459, 0.00760919, 0.66559273], "properties": {"magmom": 0.0}, "label": "Nb", "xyz": [-9.548681800114478e-09, 0.0510976079869186, 9.262794784493531]}, {"species": [{"element": "Nb", "occu": 1}], "abc": [0.99619541, 0.9923908100000001, 0.33440727000000003], "properties": {"magmom": 0.0}, "label": "Nb", "xyz": [1.7310065895486815, 7.216515492013082, 2.7551974755064697]}, {"species": [{"element": "Nb", "occu": 1}], "abc": [0.1744771, 0.34895519, 0.54066934], "properties": {"magmom": 0.0}, "label": "Nb", "xyz": [-1.3577612106852044e-06, 2.5348466861781853, 6.865961279875606]}, {"species": [{"element": "Nb", "occu": 1}], "abc": [0.8255229, 0.65104481, 0.45933066], "properties": {"magmom": 0.0}, "label": "Nb", "xyz": [1.7310079377612104, 4.732766413821816, 5.152030980124394]}, {"species": [{"element": "Nb", "occu": 1}], "abc": [0.7902174200000001, 0.58043584, 0.19970412], "properties": {"magmom": -0.0}, "label": "Nb", "xyz": [1.7310044210389972, 4.220815137345252, 1.6688188785672131]}, {"species": [{"element": "Nb", "occu": 1}], "abc": [0.20978258, 0.41956416, 0.8002958800000001], "properties": {"magmom": -0.0}, "label": "Nb", "xyz": [2.1589610031957918e-06, 3.046797962654749, 10.349173381432788]}, {"species": [{"element": "Nb", "occu": 1}], "abc": [0.80495318, 0.6099053600000001, 0.68786295], "properties": {"magmom": -0.0}, "label": "Nb", "xyz": [1.7310079131090275, 4.432058209721118, 8.41645498016986]}, {"species": [{"element": "Nb", "occu": 1}], "abc": [0.19504682, 0.39009464, 0.31213705], "properties": {"magmom": -0.0}, "label": "Nb", "xyz": [-1.3331090271684332e-06, 2.8355548902788823, 3.6015372798301395]}, {"species": [{"element": "Nb", "occu": 1}], "abc": [0.56813481, 0.13626961, 0.17230186], "properties": {"magmom": 0.0}, "label": "Nb", "xyz": [1.7310057163050578, 0.9901246374026311, 2.1399250457960663]}, {"species": [{"element": "Nb", "occu": 1}], "abc": [0.43186519, 0.8637303900000001, 0.82769814], "properties": {"magmom": 0.0}, "label": "Nb", "xyz": [8.636949420104401e-07, 6.277488462597369, 9.878067214203933]}, {"species": [{"element": "Nb", "occu": 1}], "abc": [0.5, 0.0, 0.5], "properties": {"magmom": -0.0}, "label": "Nb", "xyz": [1.73100556, -0.00319388, 6.969283455]}, {"species": [{"element": "Nb", "occu": 1}], "abc": [0.0, 0.0, 0.0], "properties": {"magmom": 0.0}, "label": "Nb", "xyz": [0.0, 0.0, 0.0]}, {"species": [{"element": "P", "occu": 1}], "abc": [0.93569123, 0.87138146, 0.15047151], "properties": {"magmom": -0.0}, "label": "P", "xyz": [1.7310081798146493, 6.3374683135353385, 0.42380406762774503]}, {"species": [{"element": "P", "occu": 1}], "abc": [0.06430877, 0.12861854, 0.84952849], "properties": {"magmom": -0.0}, "label": "P", "xyz": [-1.5998146492002263e-06, 0.930144786464662, 11.594188192372256]}, {"species": [{"element": "P", "occu": 1}], "abc": [0.63071448, 0.26142897, 0.66433509], "properties": {"magmom": 0.0}, "label": "P", "xyz": [1.7310058093474938, 1.8973909394944155, 8.757785250068261]}, {"species": [{"element": "P", "occu": 1}], "abc": [0.36928552000000003, 0.73857103, 0.33566491], "properties": {"magmom": 0.0}, "label": "P", "xyz": [7.706525064765657e-07, 5.370222160505585, 3.260207009931738]}, {"species": [{"element": "P", "occu": 1}], "abc": [0.6262085900000001, 0.25241517, 0.39789005], "properties": {"magmom": -0.0}, "label": "P", "xyz": [1.7310092967846493, 1.8335265375112584, 5.061234907970805]}, {"species": [{"element": "P", "occu": 1}], "abc": [0.37379141, 0.74758483, 0.60210995], "properties": {"magmom": -0.0}, "label": "P", "xyz": [-2.7167846490261383e-06, 5.434086562488742, 6.9567573520291965]}, {"species": [{"element": "P", "occu": 1}], "abc": [0.82599193, 0.65198187, 0.88764539], "properties": {"magmom": -0.0}, "label": "P", "xyz": [1.731009669722572, 4.7368466173679815, 11.120324809086451]}, {"species": [{"element": "P", "occu": 1}], "abc": [0.17400807000000001, 0.34801813, 0.11235461000000001], "properties": {"magmom": -0.0}, "label": "P", "xyz": [-3.0897225716808308e-06, 2.530766482632018, 0.8976674509135508]}]}, "task_ids": null, "uncorrected_energy_per_atom": null, "energy_per_atom": -9.256338836363637, "formation_energy_per_atom": -0.858972528961039, "energy_above_hull": 0.0, "is_stable": true, "equilibrium_reaction_energy_per_atom": null, "decomposes_to": null, "xas": null, "grain_boundaries": null, "band_gap": 0.0, "cbm": null, "vbm": null, "efermi": 7.48941363, "is_gap_direct": null, "is_metal": null, "es_source_calc_id": null, "bandstructure": null, "dos": null, "dos_energy_up": null, "dos_energy_down": null, "is_magnetic": null, "ordering": null, "total_magnetization": 4e-07, "total_magnetization_normalized_vol": null, "total_magnetization_normalized_formula_units": null, "num_magnetic_sites": null, "num_unique_magnetic_sites": null, "types_of_magnetic_species": null, "bulk_modulus": null, "shear_modulus": null, "universal_anisotropy": null, "homogeneous_poisson": null, "e_total": null, "e_ionic": null, "e_electronic": null, "n": null, "e_ij_max": null, "weighted_surface_energy_EV_PER_ANG2": null, "weighted_surface_energy": null, "weighted_work_function": null, "surface_anisotropy": null, "shape_factor": null, "has_reconstructed": null, "possible_species": null, "has_props": null, "theoretical": null, "database_IDs": null, "fields_not_requested": ["builder_meta", "nsites", "elements", "nelements", "composition", "composition_reduced", "chemsys", "symmetry", "property_name", "deprecated", "deprecation_reasons", "last_updated", "origins", "warnings", "task_ids", "uncorrected_energy_per_atom", "equilibrium_reaction_energy_per_atom", "decomposes_to", "xas", "grain_boundaries", "cbm", "vbm", "is_gap_direct", "is_metal", "es_source_calc_id", "bandstructure", "dos", "dos_energy_up", "dos_energy_down", "is_magnetic", "ordering", "total_magnetization_normalized_vol", "total_magnetization_normalized_formula_units", "num_magnetic_sites", "num_unique_magnetic_sites", "types_of_magnetic_species", "bulk_modulus", "shear_modulus", "universal_anisotropy", "homogeneous_poisson", "e_total", "e_ionic", "e_electronic", "n", "e_ij_max", "weighted_surface_energy_EV_PER_ANG2", "weighted_surface_energy", "weighted_work_function", "surface_anisotropy", "shape_factor", "has_reconstructed", "possible_species", "has_props", "theoretical", "database_IDs"]}