{
  "builder_meta": null,
  "nsites": null,
  "elements": null,
  "nelements": null,
  "composition": null,
  "composition_reduced": null,
  "formula_pretty": "Nb7S8",
  "formula_anonymous": "A7B8",
  "chemsys": null,
  "volume": 254.08216443862412,
  "density": 5.9267607365360195,
  "density_atomic": 16.93881096257494,
  "symmetry": null,
  "property_name": null,
  "material_id": "mp-1220475",
  "deprecated": null,
  "deprecation_reasons": null,
  "last_updated": null,
  "origins": null,
  "warnings": null,
  "structure": {
    "@module": "pymatgen.core.structure",
    "@class": "Structure",
    "charge": 0,
    "lattice": {
      "matrix": [
        [3.368877, -5.835066, 0.0],
        [3.368877, 5.835066, 0.0],
        [0.0, 0.0, 6.462689]
      ],
      "pbc": [true, true, true],
      "a": 6.737753888758849,
      "b": 6.737753888758849,
      "c": 6.462689,
      "alpha": 90.0,
      "beta": 90.0,
      "gamma": 119.99999890769901,
      "volume": 254.08216443862412
    },
    "properties": {},
    "sites": [
      {
        "species": [{ "element": "Nb", "occu": 1 }],
        "abc": [0.146305, 0.29261000000000004, 0.500182999999999],
        "properties": { "magmom": 0.005 },
        "label": "Nb",
        "xyz": [1.4786506484550002, 0.8536993311300004, 3.2325271720869937]
      },
      {
        "species": [{ "element": "Nb", "occu": 1 }],
        "abc": [0.146305, 0.853695, 0.500182999999999],
        "properties": { "magmom": 0.004 },
        "label": "Nb",
        "xyz": [3.368877, 4.12766733774, 3.2325271720869937]
      },
      {
        "species": [{ "element": "Nb", "occu": 1 }],
        "abc": [0.7073900000000001, 0.853695, 0.500182999999999],
        "properties": { "magmom": 0.006 },
        "label": "Nb",
        "xyz": [5.259103351545, 0.8536993311299987, 3.2325271720869937]
      },
      {
        "species": [{ "element": "Nb", "occu": 1 }],
        "abc": [0.187238, 0.374476, 0.002685],
        "properties": { "magmom": 0.035 },
        "label": "Nb",
        "xyz": [1.8923453751779997, 1.092546087708, 0.017352319964999998]
      },
      {
        "species": [{ "element": "Nb", "occu": 1 }],
        "abc": [0.187238, 0.812762, 0.002685],
        "properties": { "magmom": 0.037 },
        "label": "Nb",
        "xyz": [3.3688769999999995, 3.649973824584, 0.017352319964999998]
      },
      {
        "species": [{ "element": "Nb", "occu": 1 }],
        "abc": [0.625524, 0.812762, 0.002685],
        "properties": { "magmom": 0.031 },
        "label": "Nb",
        "xyz": [4.845408624821999, 1.092546087708, 0.017352319964999998]
      },
      {
        "species": [{ "element": "Nb", "occu": 1 }],
        "abc": [0.666667, 0.333333, 0.504737],
        "properties": { "magmom": 0.0 },
        "label": "Nb",
        "xyz": [3.3688770000000003, -1.9450258900440003, 3.261958257793]
      },
      {
        "species": [{ "element": "S", "occu": 1 }],
        "abc": [0.0, 0.0, 0.218831],
        "properties": { "magmom": 0.0 },
        "label": "S",
        "xyz": [0.0, 0.0, 1.414236696559]
      },
      {
        "species": [{ "element": "S", "occu": 1 }],
        "abc": [0.333333, 0.666667, 0.719931],
        "properties": { "magmom": 0.001 },
        "label": "S",
        "xyz": [3.3688770000000003, 1.9450258900440003, 4.652690154459]
      },
      {
        "species": [{ "element": "S", "occu": 1 }],
        "abc": [0.505502, 0.494498, 0.252643],
        "properties": { "magmom": 0.0 },
        "label": "S",
        "xyz": [3.368877, -0.06420906626400047, 1.632753137027]
      },
      {
        "species": [{ "element": "S", "occu": 1 }],
        "abc": [0.988996, 0.494498, 0.252643],
        "properties": { "magmom": 0.0 },
        "label": "S",
        "xyz": [4.997708816237999, -2.885428466868, 1.632753137027]
      },
      {
        "species": [{ "element": "S", "occu": 1 }],
        "abc": [0.505502, 0.011004, 0.252643],
        "properties": { "magmom": 0.0 },
        "label": "S",
        "xyz": [1.7400451837620001, -2.8854284668680004, 1.632753137027]
      },
      {
        "species": [{ "element": "S", "occu": 1 }],
        "abc": [0.830247, 0.169753, 0.763227],
        "properties": { "magmom": -0.0 },
        "label": "S",
        "xyz": [3.3688769999999995, -3.8540260826040003, 4.932498737403]
      },
      {
        "species": [{ "element": "S", "occu": 1 }],
        "abc": [0.339505, 0.169753, 0.763227],
        "properties": { "magmom": -0.0 },
        "label": "S",
        "xyz": [1.7156275632659999, -0.9905141236320001, 4.932498737403]
      },
      {
        "species": [{ "element": "S", "occu": 1 }],
        "abc": [0.830247, 0.660494999999999, 0.763227],
        "properties": { "magmom": -0.0 },
        "label": "S",
        "xyz": [5.022126436733997, -0.9905141236320056, 4.932498737403]
      }
    ]
  },
  "task_ids": null,
  "uncorrected_energy_per_atom": null,
  "energy_per_atom": -8.148076502666667,
  "formation_energy_per_atom": -1.227009048,
  "energy_above_hull": 0.069394411162601,
  "is_stable": false,
  "equilibrium_reaction_energy_per_atom": null,
  "decomposes_to": null,
  "xas": null,
  "grain_boundaries": null,
  "band_gap": 0.0,
  "cbm": null,
  "vbm": null,
  "efermi": 7.30197418,
  "is_gap_direct": null,
  "is_metal": null,
  "es_source_calc_id": null,
  "bandstructure": null,
  "dos": null,
  "dos_energy_up": null,
  "dos_energy_down": null,
  "is_magnetic": null,
  "ordering": null,
  "total_magnetization": 0.1622383,
  "total_magnetization_normalized_vol": null,
  "total_magnetization_normalized_formula_units": null,
  "num_magnetic_sites": null,
  "num_unique_magnetic_sites": null,
  "types_of_magnetic_species": null,
  "bulk_modulus": null,
  "shear_modulus": null,
  "universal_anisotropy": null,
  "homogeneous_poisson": null,
  "e_total": null,
  "e_ionic": null,
  "e_electronic": null,
  "n": null,
  "e_ij_max": null,
  "weighted_surface_energy_EV_PER_ANG2": null,
  "weighted_surface_energy": null,
  "weighted_work_function": null,
  "surface_anisotropy": null,
  "shape_factor": null,
  "has_reconstructed": null,
  "possible_species": null,
  "has_props": null,
  "theoretical": null,
  "database_IDs": null,
  "fields_not_requested": [
    "builder_meta",
    "nsites",
    "elements",
    "nelements",
    "composition",
    "composition_reduced",
    "chemsys",
    "symmetry",
    "property_name",
    "deprecated",
    "deprecation_reasons",
    "last_updated",
    "origins",
    "warnings",
    "task_ids",
    "uncorrected_energy_per_atom",
    "equilibrium_reaction_energy_per_atom",
    "decomposes_to",
    "xas",
    "grain_boundaries",
    "cbm",
    "vbm",
    "is_gap_direct",
    "is_metal",
    "es_source_calc_id",
    "bandstructure",
    "dos",
    "dos_energy_up",
    "dos_energy_down",
    "is_magnetic",
    "ordering",
    "total_magnetization_normalized_vol",
    "total_magnetization_normalized_formula_units",
    "num_magnetic_sites",
    "num_unique_magnetic_sites",
    "types_of_magnetic_species",
    "bulk_modulus",
    "shear_modulus",
    "universal_anisotropy",
    "homogeneous_poisson",
    "e_total",
    "e_ionic",
    "e_electronic",
    "n",
    "e_ij_max",
    "weighted_surface_energy_EV_PER_ANG2",
    "weighted_surface_energy",
    "weighted_work_function",
    "surface_anisotropy",
    "shape_factor",
    "has_reconstructed",
    "possible_species",
    "has_props",
    "theoretical",
    "database_IDs"
  ]
}
