{
  "builder_meta": null,
  "nsites": null,
  "elements": null,
  "nelements": null,
  "composition": null,
  "composition_reduced": null,
  "formula_pretty": "Nb7Te6",
  "formula_anonymous": "A6B7",
  "chemsys": null,
  "volume": 1213.6449456096104,
  "density": 7.749322180525003,
  "density_atomic": 23.339325877107893,
  "symmetry": null,
  "property_name": null,
  "material_id": "mp-1173644",
  "deprecated": null,
  "deprecation_reasons": null,
  "last_updated": null,
  "origins": null,
  "warnings": null,
  "structure": {
    "@module": "pymatgen.core.structure",
    "@class": "Structure",
    "charge": 0,
    "lattice": {
      "matrix": [
        [4.614897, -0.190348, 10.536566],
        [-7.897294, 10.302293, 7.7795369999999995],
        [-4.8091729999999995, -0.0901, 14.633805]
      ],
      "pbc": [true, true, true],
      "a": 11.504465644004027,
      "b": 15.13359473207387,
      "c": 15.404042058237637,
      "alpha": 49.66236163826598,
      "beta": 41.84672347210925,
      "gamma": 75.50977394233229,
      "volume": 1213.6449456096104
    },
    "properties": {},
    "sites": [
      {
        "species": [{ "element": "Nb", "occu": 1 }],
        "abc": [0.071852, 0.676763, 0.211876999999999],
        "properties": { "magmom": -0.0 },
        "label": "Nb",
        "xyz": [-6.0319599477989945, 6.939443715363, 9.122542840947986]
      },
      {
        "species": [{ "element": "Nb", "occu": 1 }],
        "abc": [0.990086999999999, 0.003692, 0.498965999999999],
        "properties": { "magmom": -0.0 },
        "label": "Nb",
        "xyz": [2.1403789014730012, -0.19538185111999973, 17.762610217475977]
      },
      {
        "species": [{ "element": "Nb", "occu": 1 }],
        "abc": [0.009913, 0.496307999999999, 0.501034],
        "properties": { "magmom": -0.0 },
        "label": "Nb",
        "xyz": [-6.283301901472992, 5.06608035111999, 11.297529282523993]
      },
      {
        "species": [{ "element": "Nb", "occu": 1 }],
        "abc": [0.064806, 0.127961, 0.5546500000000001],
        "properties": { "magmom": -0.0 },
        "label": "Nb",
        "xyz": [-3.378880427002, 1.255982057085, 9.794949973503002]
      },
      {
        "species": [{ "element": "Nb", "occu": 1 }],
        "abc": [0.385318999999999, 0.175207, 0.220351],
        "properties": { "magmom": 0.0 },
        "label": "Nb",
        "xyz": [-0.6651597724380043, 1.7118355235390001, 8.64754197926799]
      },
      {
        "species": [{ "element": "Nb", "occu": 1 }],
        "abc": [0.055883999999999004, 0.620915, 0.565658],
        "properties": { "magmom": -0.0 },
        "label": "Nb",
        "xyz": [-7.365996580896004, 6.335245064663, 13.69698553938899]
      },
      {
        "species": [{ "element": "Nb", "occu": 1 }],
        "abc": [0.403308, 0.683252, 0.199699],
        "properties": { "magmom": -0.0 },
        "label": "Nb",
        "xyz": [-4.495004079738999, 6.944300545751999, 12.487221799347001]
      },
      {
        "species": [{ "element": "Nb", "occu": 1 }],
        "abc": [0.277188, 0.382612, 0.427071],
        "properties": { "magmom": -0.0 },
        "label": "Nb",
        "xyz": [-3.796263704575, 3.8505396507920002, 12.146827602206999]
      },
      {
        "species": [{ "element": "Nb", "occu": 1 }],
        "abc": [0.327206999999999, 0.996768, 0.504103],
        "properties": { "magmom": 0.0 },
        "label": "Nb",
        "xyz": [-8.786061879932003, 10.161293110688002, 18.57897668949299]
      },
      {
        "species": [{ "element": "Nb", "occu": 1 }],
        "abc": [0.259833, 0.88185, 0.437148],
        "properties": { "magmom": 0.0 },
        "label": "Nb",
        "xyz": [-7.867446540303, 8.996231355366, 15.995270845068]
      },
      {
        "species": [{ "element": "Nb", "occu": 1 }],
        "abc": [0.324812, 0.499164999999999, 0.498164999999999],
        "properties": { "magmom": 0.0 },
        "label": "Nb",
        "xyz": [-4.838840502690987, 5.035832104268991, 14.595725130021977]
      },
      {
        "species": [{ "element": "Nb", "occu": 1 }],
        "abc": [0.40724000000000005, 0.121682, 0.556866],
        "properties": { "magmom": 0.0 },
        "label": "Nb",
        "xyz": [-1.7596528060459993, 1.125912670706, 13.386609214204]
      },
      {
        "species": [{ "element": "Nb", "occu": 1 }],
        "abc": [0.715796, 0.17050099999999901, 0.228123],
        "properties": { "magmom": 0.0 },
        "label": "Nb",
        "xyz": [0.8597453164390079, 1.59974703948499, 12.206758132587993]
      },
      {
        "species": [{ "element": "Nb", "occu": 1 }],
        "abc": [0.39345, 0.613032999999999, 0.565921999999999],
        "properties": { "magmom": 0.001 },
        "label": "Nb",
        "xyz": [-5.747187410557987, 6.18976359186899, 17.19631699163098]
      },
      {
        "species": [{ "element": "Nb", "occu": 1 }],
        "abc": [0.284204, 0.329499, 0.771876999999999],
        "properties": { "magmom": 0.0 },
        "label": "Nb",
        "xyz": [-5.002668316438995, 3.270951460515, 16.853381367411984]
      },
      {
        "species": [{ "element": "Nb", "occu": 1 }],
        "abc": [0.720163999999999, 0.676258999999999, 0.213743],
        "properties": { "magmom": 0.0 },
        "label": "Nb",
        "xyz": [-3.0450605245769973, 6.8106783405149915, 15.976910811021982]
      },
      {
        "species": [{ "element": "Nb", "occu": 1 }],
        "abc": [0.5927600000000001, 0.378318, 0.443134],
        "properties": { "magmom": 0.0 },
        "label": "Nb",
        "xyz": [-2.383270193953999, 3.744785829294, 15.673530285796001]
      },
      {
        "species": [{ "element": "Nb", "occu": 1 }],
        "abc": [0.279836, 0.823741, 0.786257],
        "properties": { "magmom": 0.0 },
        "label": "Nb",
        "xyz": [-8.995156475422998, 8.362313159485, 20.862765688978]
      },
      {
        "species": [{ "element": "Nb", "occu": 1 }],
        "abc": [0.675188, 0.0008349999999990001, 0.501835],
        "properties": { "magmom": 0.0 },
        "label": "Nb",
        "xyz": [0.695917502691008, -0.1651336042690103, 14.464414369977993]
      },
      {
        "species": [{ "element": "Nb", "occu": 1 }],
        "abc": [0.60655, 0.886967, 0.434077999999999],
        "properties": { "magmom": 0.001 },
        "label": "Nb",
        "xyz": [-6.2930295894419945, 8.983227908131, 19.643359508368984]
      },
      {
        "species": [{ "element": "Nb", "occu": 1 }],
        "abc": [0.672793, 0.503232, 0.495897],
        "properties": { "magmom": 0.0 },
        "label": "Nb",
        "xyz": [-3.2541551200679995, 5.0116983893119995, 18.260699810507]
      },
      {
        "species": [{ "element": "Nb", "occu": 1 }],
        "abc": [0.722812, 0.11738799999999901, 0.572929],
        "properties": { "magmom": -0.0 },
        "label": "Nb",
        "xyz": [-0.34665929542499185, 1.0201588492079898, 16.913311897792994]
      },
      {
        "species": [{ "element": "Nb", "occu": 1 }],
        "abc": [0.740167, 0.6181500000000001, 0.562852],
        "properties": { "magmom": 0.0 },
        "label": "Nb",
        "xyz": [-4.172770459697, 6.1767601446340015, 20.844405654932]
      },
      {
        "species": [{ "element": "Nb", "occu": 1 }],
        "abc": [0.614680999999999, 0.324793, 0.779648999999999],
        "properties": { "magmom": 0.0 },
        "label": "Nb",
        "xyz": [-3.4777632275619994, 3.1588629764610006, 20.41259752073198]
      },
      {
        "species": [{ "element": "Nb", "occu": 1 }],
        "abc": [0.935194, 0.372039, 0.44535],
        "properties": { "magmom": -0.0 },
        "label": "Nb",
        "xyz": [-0.764042572998, 3.614716442915, 19.265189526497004]
      },
      {
        "species": [{ "element": "Nb", "occu": 1 }],
        "abc": [0.596692, 0.816747999999999, 0.800300999999999],
        "properties": { "magmom": -0.0 },
        "label": "Nb",
        "xyz": [-7.545212920260987, 8.228690954247991, 24.352454700652977]
      },
      {
        "species": [{ "element": "Nb", "occu": 1 }],
        "abc": [0.944116, 0.879085, 0.434342],
        "properties": { "magmom": -0.0 },
        "label": "Nb",
        "xyz": [-4.6742204191039995, 8.837746435337, 23.142690960611002]
      },
      {
        "species": [{ "element": "Nb", "occu": 1 }],
        "abc": [0.928148, 0.823237, 0.788123],
        "properties": { "magmom": -0.0 },
        "label": "Nb",
        "xyz": [-6.0082570522009995, 8.233547784637, 27.717133659052]
      },
      {
        "species": [{ "element": "Te", "occu": 1 }],
        "abc": [0.128484, 0.287184, 0.265723999999999],
        "properties": { "magmom": 0.0 },
        "label": "Te",
        "xyz": [-2.9529487401999948, 2.91025530808, 7.476491899571986]
      },
      {
        "species": [{ "element": "Te", "occu": 1 }],
        "abc": [0.317428999999999, 0.067395, 0.156718],
        "properties": { "magmom": -0.0 },
        "label": "Te",
        "xyz": [0.17898003646899574, 0.6197807696430002, 6.16229415691899]
      },
      {
        "species": [{ "element": "Te", "occu": 1 }],
        "abc": [0.139814, 0.794393, 0.26376],
        "properties": { "magmom": 0.0 },
        "label": "Te",
        "xyz": [-6.896795333864, 8.133691351877001, 11.512981581565]
      },
      {
        "species": [{ "element": "Te", "occu": 1 }],
        "abc": [0.322975, 0.557972, 0.15495899999999901],
        "properties": { "magmom": 0.0 },
        "label": "Te",
        "xyz": [-3.6611972080999946, 5.672951578596, 10.011451011808987]
      },
      {
        "species": [{ "element": "Te", "occu": 1 }],
        "abc": [0.467037, 0.289516999999999, 0.270121],
        "properties": { "magmom": -0.0 },
        "label": "Te",
        "xyz": [-1.4301318367419922, 2.86945150150499, 11.126172428975993]
      },
      {
        "species": [{ "element": "Te", "occu": 1 }],
        "abc": [0.011222, 0.433401999999999, 0.840685999999999],
        "properties": { "magmom": -0.0 },
        "label": "Te",
        "xyz": [-7.413919052731987, 4.387152496929991, 15.792343228755978]
      },
      {
        "species": [{ "element": "Te", "occu": 1 }],
        "abc": [0.6569400000000001, 0.068063, 0.151041999999999],
        "properties": { "magmom": -0.0 },
        "label": "Te",
        "xyz": [1.7678098053920053, 0.5625488691390002, 9.661709469680988]
      },
      {
        "species": [{ "element": "Te", "occu": 1 }],
        "abc": [0.463987, 0.790345, 0.270424],
        "properties": { "magmom": -0.0 },
        "label": "Te",
        "xyz": [-5.400850411442998, 8.029681561209, 14.994679902227]
      },
      {
        "species": [{ "element": "Te", "occu": 1 }],
        "abc": [0.189882, 0.21515, 0.7296009999999991],
        "properties": { "magmom": 0.0 },
        "label": "Te",
        "xyz": [-4.331594361918995, 2.1146576299140003, 14.351310372566987]
      },
      {
        "species": [{ "element": "Te", "occu": 1 }],
        "abc": [0.013408, 0.939836999999999, 0.839768],
        "properties": { "magmom": -0.0 },
        "label": "Te",
        "xyz": [-11.398882153965992, 9.604260863456991, 19.74177214963699]
      },
      {
        "species": [{ "element": "Te", "occu": 1 }],
        "abc": [0.661571, 0.561052, 0.151485999999999],
        "properties": { "magmom": 0.0 },
        "label": "Te",
        "xyz": [-2.1062329511789946, 5.640544486928001, 13.552227882339984]
      },
      {
        "species": [{ "element": "Te", "occu": 1 }],
        "abc": [0.202147, 0.713673, 0.725904],
        "properties": { "magmom": -0.0 },
        "label": "Te",
        "xyz": [-8.194195834394998, 7.248586124633, 18.304718301323]
      },
      {
        "species": [{ "element": "Te", "occu": 1 }],
        "abc": [0.810118, 0.28485000000000005, 0.270399],
        "properties": { "magmom": 0.0 },
        "label": "Te",
        "xyz": [0.1886713619189999, 2.7560408700860006, 14.708829127432999]
      },
      {
        "species": [{ "element": "Te", "occu": 1 }],
        "abc": [0.34306000000000003, 0.431936999999999, 0.848958],
        "properties": { "magmom": -0.0 },
        "label": "Te",
        "xyz": [-5.910732805391992, 4.30814963086099, 19.39843003031899]
      },
      {
        "species": [{ "element": "Te", "occu": 1 }],
        "abc": [0.988777999999999, 0.066597999999999, 0.159313999999999],
        "properties": { "magmom": -0.0 },
        "label": "Te",
        "xyz": [3.2709960527320083, 0.48354600306999007, 13.267796271243968]
      },
      {
        "species": [{ "element": "Te", "occu": 1 }],
        "abc": [0.797852999999999, 0.786327, 0.274096],
        "properties": { "magmom": -0.0 },
        "label": "Te",
        "xyz": [-3.846021165605004, 7.924405375367001, 18.53495819867699]
      },
      {
        "species": [{ "element": "Te", "occu": 1 }],
        "abc": [0.532963, 0.210483, 0.729879],
        "properties": { "magmom": -0.0 },
        "label": "Te",
        "xyz": [-2.7127911632579993, 2.001246998495, 17.933967071024]
      },
      {
        "species": [{ "element": "Te", "occu": 1 }],
        "abc": [0.338429, 0.938948, 0.848514],
        "properties": { "magmom": 0.0 },
        "label": "Te",
        "xyz": [-9.933984048821, 9.532447013072, 23.287448617659997]
      },
      {
        "species": [{ "element": "Te", "occu": 1 }],
        "abc": [0.986591999999999, 0.560163, 0.16023199999999901],
        "properties": { "magmom": -0.0 },
        "label": "Te",
        "xyz": [-0.6413348460339986, 5.568730636543, 17.097904350362978]
      },
      {
        "species": [{ "element": "Te", "occu": 1 }],
        "abc": [0.536013, 0.709654999999999, 0.729576],
        "properties": { "magmom": -0.0 },
        "label": "Te",
        "xyz": [-6.6393665885569915, 7.143309938790991, 21.84499659777299]
      },
      {
        "species": [{ "element": "Te", "occu": 1 }],
        "abc": [0.682570999999999, 0.432604999999999, 0.843282],
        "properties": { "magmom": -0.0 },
        "label": "Te",
        "xyz": [-4.3219030364689965, 4.25091773035699, 22.89784534308098]
      },
      {
        "species": [{ "element": "Te", "occu": 1 }],
        "abc": [0.871516, 0.212815999999999, 0.734275999999999],
        "properties": { "magmom": 0.0 },
        "label": "Te",
        "xyz": [-1.1899742597999872, 1.96044319191999, 21.58364760042798]
      },
      {
        "species": [{ "element": "Te", "occu": 1 }],
        "abc": [0.677025, 0.942028, 0.845040999999999],
        "properties": { "magmom": 0.0 },
        "label": "Te",
        "xyz": [-8.379019791899996, 9.500039921404, 26.828225488190988]
      },
      {
        "species": [{ "element": "Te", "occu": 1 }],
        "abc": [0.860186, 0.705607, 0.73624],
        "properties": { "magmom": 0.0 },
        "label": "Te",
        "xyz": [-5.143421666136, 7.039300148123, 25.326694918435003]
      }
    ]
  },
  "task_ids": null,
  "uncorrected_energy_per_atom": null,
  "energy_per_atom": -7.456710138653846,
  "formation_energy_per_atom": -0.566789320192307,
  "energy_above_hull": 0.003047133076924,
  "is_stable": false,
  "equilibrium_reaction_energy_per_atom": null,
  "decomposes_to": null,
  "xas": null,
  "grain_boundaries": null,
  "band_gap": 0.0,
  "cbm": null,
  "vbm": null,
  "efermi": 6.95773861,
  "is_gap_direct": null,
  "is_metal": null,
  "es_source_calc_id": null,
  "bandstructure": null,
  "dos": null,
  "dos_energy_up": null,
  "dos_energy_down": null,
  "is_magnetic": null,
  "ordering": null,
  "total_magnetization": 0.0029002,
  "total_magnetization_normalized_vol": null,
  "total_magnetization_normalized_formula_units": null,
  "num_magnetic_sites": null,
  "num_unique_magnetic_sites": null,
  "types_of_magnetic_species": null,
  "bulk_modulus": null,
  "shear_modulus": null,
  "universal_anisotropy": null,
  "homogeneous_poisson": null,
  "e_total": null,
  "e_ionic": null,
  "e_electronic": null,
  "n": null,
  "e_ij_max": null,
  "weighted_surface_energy_EV_PER_ANG2": null,
  "weighted_surface_energy": null,
  "weighted_work_function": null,
  "surface_anisotropy": null,
  "shape_factor": null,
  "has_reconstructed": null,
  "possible_species": null,
  "has_props": null,
  "theoretical": null,
  "database_IDs": null,
  "fields_not_requested": [
    "builder_meta",
    "nsites",
    "elements",
    "nelements",
    "composition",
    "composition_reduced",
    "chemsys",
    "symmetry",
    "property_name",
    "deprecated",
    "deprecation_reasons",
    "last_updated",
    "origins",
    "warnings",
    "task_ids",
    "uncorrected_energy_per_atom",
    "equilibrium_reaction_energy_per_atom",
    "decomposes_to",
    "xas",
    "grain_boundaries",
    "cbm",
    "vbm",
    "is_gap_direct",
    "is_metal",
    "es_source_calc_id",
    "bandstructure",
    "dos",
    "dos_energy_up",
    "dos_energy_down",
    "is_magnetic",
    "ordering",
    "total_magnetization_normalized_vol",
    "total_magnetization_normalized_formula_units",
    "num_magnetic_sites",
    "num_unique_magnetic_sites",
    "types_of_magnetic_species",
    "bulk_modulus",
    "shear_modulus",
    "universal_anisotropy",
    "homogeneous_poisson",
    "e_total",
    "e_ionic",
    "e_electronic",
    "n",
    "e_ij_max",
    "weighted_surface_energy_EV_PER_ANG2",
    "weighted_surface_energy",
    "weighted_work_function",
    "surface_anisotropy",
    "shape_factor",
    "has_reconstructed",
    "possible_species",
    "has_props",
    "theoretical",
    "database_IDs"
  ]
}
