{"builder_meta": null, "nsites": null, "elements": null, "nelements": null, "composition": null, "composition_reduced": null, "formula_pretty": "Nb8N5", "formula_anonymous": "A5B8", "chemsys": null, "volume": 168.822116490898, "density": 7.999489515964109, "density_atomic": 12.986316653146, "symmetry": null, "property_name": null, "material_id": "mp-1220496", "deprecated": null, "deprecation_reasons": null, "last_updated": null, "origins": null, "warnings": null, "structure": {"@module": "pymatgen.core.structure", "@class": "Structure", "charge": 0, "lattice": {"matrix": [[3.070302, -4.407249, 0.0], [3.070302, 4.407249, 0.0], [0.0, 0.0, 6.238076]], "pbc": [true, true, true], "a": 5.371275278665673, "b": 5.371275278665673, "c": 6.238076, "alpha": 90.0, "beta": 90.0, "gamma": 110.27414434277526, "volume": 168.822116490898}, "properties": {}, "sites": [{"species": [{"element": "Nb", "occu": 1}], "abc": [0.24514000000000002, 0.24514000000000002, 0.750732], "properties": {"magmom": -0.0}, "label": "Nb", "xyz": [1.50530766456, 0.0, 4.683123271632]}, {"species": [{"element": "Nb", "occu": 1}], "abc": [0.7548600000000001, 0.7548600000000001, 0.249268], "properties": {"magmom": -0.0}, "label": "Nb", "xyz": [4.6352963354400005, 0.0, 1.554952728368]}, {"species": [{"element": "Nb", "occu": 1}], "abc": [0.7548600000000001, 0.7548600000000001, 0.750732], "properties": {"magmom": -0.0}, "label": "Nb", "xyz": [4.6352963354400005, 0.0, 4.683123271632]}, {"species": [{"element": "Nb", "occu": 1}], "abc": [0.24514000000000002, 0.24514000000000002, 0.249268], "properties": {"magmom": -0.0}, "label": "Nb", "xyz": [1.50530766456, 0.0, 1.554952728368]}, {"species": [{"element": "Nb", "occu": 1}], "abc": [0.747084, 0.252916, 0.5], "properties": {"magmom": 0.0}, "label": "Nb", "xyz": [3.0703019999999994, -2.177921423832, 3.119038]}, {"species": [{"element": "Nb", "occu": 1}], "abc": [0.24833899999999903, 0.751660999999999, 0.0], "properties": {"magmom": 0.0}, "label": "Nb", "xyz": [3.0703019999999936, 2.218265381178, 0.0]}, {"species": [{"element": "Nb", "occu": 1}], "abc": [0.751660999999999, 0.24833899999999903, 0.0], "properties": {"magmom": 0.0}, "label": "Nb", "xyz": [3.0703019999999936, -2.218265381178, 0.0]}, {"species": [{"element": "Nb", "occu": 1}], "abc": [0.252916, 0.747084, 0.5], "properties": {"magmom": 0.0}, "label": "Nb", "xyz": [3.0703019999999994, 2.177921423832, 3.119038]}, {"species": [{"element": "N", "occu": 1}], "abc": [0.5, 0.5, 0.0], "properties": {"magmom": 0.0}, "label": "N", "xyz": [3.070302, 0.0, 0.0]}, {"species": [{"element": "N", "occu": 1}], "abc": [0.5, 0.0, 0.748427], "properties": {"magmom": -0.0}, "label": "N", "xyz": [1.535151, -2.2036245, 4.668744506452]}, {"species": [{"element": "N", "occu": 1}], "abc": [0.0, 0.5, 0.251573], "properties": {"magmom": -0.0}, "label": "N", "xyz": [1.535151, 2.2036245, 1.569331493548]}, {"species": [{"element": "N", "occu": 1}], "abc": [0.0, 0.5, 0.748427], "properties": {"magmom": -0.0}, "label": "N", "xyz": [1.535151, 2.2036245, 4.668744506452]}, {"species": [{"element": "N", "occu": 1}], "abc": [0.5, 0.0, 0.251573], "properties": {"magmom": -0.0}, "label": "N", "xyz": [1.535151, -2.2036245, 1.569331493548]}]}, "task_ids": null, "uncorrected_energy_per_atom": null, "energy_per_atom": -19.69257831461539, "formation_energy_per_atom": -0.960551348750003, "energy_above_hull": 0.10354858461538101, "is_stable": false, "equilibrium_reaction_energy_per_atom": null, "decomposes_to": null, "xas": null, "grain_boundaries": null, "band_gap": 0.0, "cbm": null, "vbm": null, "efermi": 6.73600122, "is_gap_direct": null, "is_metal": null, "es_source_calc_id": null, "bandstructure": null, "dos": null, "dos_energy_up": null, "dos_energy_down": null, "is_magnetic": null, "ordering": null, "total_magnetization": 0.001196099999999, "total_magnetization_normalized_vol": null, "total_magnetization_normalized_formula_units": null, "num_magnetic_sites": null, "num_unique_magnetic_sites": null, "types_of_magnetic_species": null, "bulk_modulus": null, "shear_modulus": null, "universal_anisotropy": null, "homogeneous_poisson": null, "e_total": null, "e_ionic": null, "e_electronic": null, "n": null, "e_ij_max": null, "weighted_surface_energy_EV_PER_ANG2": null, "weighted_surface_energy": null, "weighted_work_function": null, "surface_anisotropy": null, "shape_factor": null, "has_reconstructed": null, "possible_species": null, "has_props": null, "theoretical": null, "database_IDs": null, "fields_not_requested": ["builder_meta", "nsites", "elements", "nelements", "composition", "composition_reduced", "chemsys", "symmetry", "property_name", "deprecated", "deprecation_reasons", "last_updated", "origins", "warnings", "task_ids", "uncorrected_energy_per_atom", "equilibrium_reaction_energy_per_atom", "decomposes_to", "xas", "grain_boundaries", "cbm", "vbm", "is_gap_direct", "is_metal", "es_source_calc_id", "bandstructure", "dos", "dos_energy_up", "dos_energy_down", "is_magnetic", "ordering", "total_magnetization_normalized_vol", "total_magnetization_normalized_formula_units", "num_magnetic_sites", "num_unique_magnetic_sites", "types_of_magnetic_species", "bulk_modulus", "shear_modulus", "universal_anisotropy", "homogeneous_poisson", "e_total", "e_ionic", "e_electronic", "n", "e_ij_max", "weighted_surface_energy_EV_PER_ANG2", "weighted_surface_energy", "weighted_work_function", "surface_anisotropy", "shape_factor", "has_reconstructed", "possible_species", "has_props", "theoretical", "database_IDs"]}