{
  "builder_meta": null,
  "nsites": null,
  "elements": null,
  "nelements": null,
  "composition": null,
  "composition_reduced": null,
  "formula_pretty": "NbAs",
  "formula_anonymous": "AB",
  "chemsys": null,
  "volume": 70.9603258440032,
  "density": 7.854668476895528,
  "density_atomic": 17.7400814610008,
  "symmetry": null,
  "property_name": null,
  "material_id": "mp-2059",
  "deprecated": null,
  "deprecation_reasons": null,
  "last_updated": null,
  "origins": null,
  "warnings": null,
  "structure": {
    "@module": "pymatgen.core.structure",
    "@class": "Structure",
    "charge": 0,
    "lattice": {
      "matrix": [
        [3.33515252, 0.0, -0.94535073],
        [-0.2679602, 3.3243714, -0.94535072],
        [0.01070182, 0.01160004, 6.39355595]
      ],
      "pbc": [true, true, true],
      "a": 3.466544437097826,
      "b": 3.466545233763223,
      "c": 6.393575429730982,
      "alpha": 105.72946673897383,
      "beta": 105.72947861572739,
      "gamma": 90.00000068196366,
      "volume": 70.96032584400321
    },
    "properties": {},
    "sites": [
      {
        "species": [{ "element": "Nb", "occu": 1 }],
        "abc": [0.74972357, 0.24972357, 0.49944715],
        "properties": { "magmom": 0.0 },
        "label": "Nb",
        "xyz": [2.4388714695257954, 0.835967500931784, 2.248415216694866]
      },
      {
        "species": [{ "element": "Nb", "occu": 1 }],
        "abc": [0.99972357, 0.99972357, 0.9994471500000001],
        "properties": { "magmom": 0.0 },
        "label": "Nb",
        "xyz": [3.0770403595257956, 3.335046070931784, 4.499842469194865]
      },
      {
        "species": [{ "element": "As", "occu": 1 }],
        "abc": [0.16727643, 0.66727643, 0.33455285],
        "properties": { "magmom": -0.0 },
        "label": "As",
        "xyz": [0.38266920579420455, 2.222155506228216, 1.350037215955134]
      },
      {
        "species": [{ "element": "As", "occu": 1 }],
        "abc": [0.41727643000000003, 0.41727643000000003, 0.83455285],
        "properties": { "magmom": -0.0 },
        "label": "As",
        "xyz": [1.2887982957942046, 1.3968626762282161, 4.546815188455134]
      }
    ]
  },
  "task_ids": null,
  "uncorrected_energy_per_atom": null,
  "energy_per_atom": -8.0567068425,
  "formation_energy_per_atom": -0.670993056250001,
  "energy_above_hull": 0.0,
  "is_stable": true,
  "equilibrium_reaction_energy_per_atom": null,
  "decomposes_to": null,
  "xas": null,
  "grain_boundaries": null,
  "band_gap": 0.0,
  "cbm": null,
  "vbm": null,
  "efermi": 6.17418946,
  "is_gap_direct": null,
  "is_metal": null,
  "es_source_calc_id": null,
  "bandstructure": null,
  "dos": null,
  "dos_energy_up": null,
  "dos_energy_down": null,
  "is_magnetic": null,
  "ordering": null,
  "total_magnetization": 1e-7,
  "total_magnetization_normalized_vol": null,
  "total_magnetization_normalized_formula_units": null,
  "num_magnetic_sites": null,
  "num_unique_magnetic_sites": null,
  "types_of_magnetic_species": null,
  "bulk_modulus": null,
  "shear_modulus": null,
  "universal_anisotropy": null,
  "homogeneous_poisson": null,
  "e_total": null,
  "e_ionic": null,
  "e_electronic": null,
  "n": null,
  "e_ij_max": null,
  "weighted_surface_energy_EV_PER_ANG2": null,
  "weighted_surface_energy": null,
  "weighted_work_function": null,
  "surface_anisotropy": null,
  "shape_factor": null,
  "has_reconstructed": null,
  "possible_species": null,
  "has_props": null,
  "theoretical": null,
  "database_IDs": null,
  "fields_not_requested": [
    "builder_meta",
    "nsites",
    "elements",
    "nelements",
    "composition",
    "composition_reduced",
    "chemsys",
    "symmetry",
    "property_name",
    "deprecated",
    "deprecation_reasons",
    "last_updated",
    "origins",
    "warnings",
    "task_ids",
    "uncorrected_energy_per_atom",
    "equilibrium_reaction_energy_per_atom",
    "decomposes_to",
    "xas",
    "grain_boundaries",
    "cbm",
    "vbm",
    "is_gap_direct",
    "is_metal",
    "es_source_calc_id",
    "bandstructure",
    "dos",
    "dos_energy_up",
    "dos_energy_down",
    "is_magnetic",
    "ordering",
    "total_magnetization_normalized_vol",
    "total_magnetization_normalized_formula_units",
    "num_magnetic_sites",
    "num_unique_magnetic_sites",
    "types_of_magnetic_species",
    "bulk_modulus",
    "shear_modulus",
    "universal_anisotropy",
    "homogeneous_poisson",
    "e_total",
    "e_ionic",
    "e_electronic",
    "n",
    "e_ij_max",
    "weighted_surface_energy_EV_PER_ANG2",
    "weighted_surface_energy",
    "weighted_work_function",
    "surface_anisotropy",
    "shape_factor",
    "has_reconstructed",
    "possible_species",
    "has_props",
    "theoretical",
    "database_IDs"
  ]
}
