{"builder_meta": null, "nsites": null, "elements": null, "nelements": null, "composition": null, "composition_reduced": null, "formula_pretty": "NbAs2", "formula_anonymous": "AB2", "chemsys": null, "volume": 110.00053430326915, "density": 7.328967328093465, "density_atomic": 18.33342238387819, "symmetry": null, "property_name": null, "material_id": "mp-7598", "deprecated": null, "deprecation_reasons": null, "last_updated": null, "origins": null, "warnings": null, "structure": {"@module": "pymatgen.core.structure", "@class": "Structure", "charge": 0, "lattice": {"matrix": [[3.32416253, 0.0, 0.8244116300000001], [1.52335051, 4.66013668, 0.971595], [0.00353603, -0.01610638, 7.09973275]], "pbc": [true, true, true], "a": 3.424866575727478, "b": 4.998146406081327, "c": 7.09975189991928, "alpha": 78.90553485818425, "beta": 76.04284472834989, "gamma": 69.96379472807163, "volume": 110.00053430326915}, "properties": {}, "sites": [{"species": [{"element": "Nb", "occu": 1}], "abc": [0.15727781, 0.88213074, 0.80331464], "properties": {"magmom": -0.0}, "label": "Nb", "xyz": [1.869451860134616, 4.09791132717814, 6.69005473019769]}, {"species": [{"element": "Nb", "occu": 1}], "abc": [0.84272219, 0.11786926, 0.19668536], "properties": {"magmom": -0.0}, "label": "Nb", "xyz": [2.9815972098653845, 0.5461189728218601, 2.20568464980231]}, {"species": [{"element": "As", "occu": 1}], "abc": [0.85938203, 0.75257323, 0.52866371], "properties": {"magmom": -0.0}, "label": "As", "xyz": [4.005027727552655, 3.4985792549036066, 5.193051983170362]}, {"species": [{"element": "As", "occu": 1}], "abc": [0.14061797, 0.24742677000000002, 0.47133629], "properties": {"magmom": -0.0}, "label": "As", "xyz": [0.8460213424473455, 1.1454510450963935, 3.7026873968296385]}, {"species": [{"element": "As", "occu": 1}], "abc": [0.59492058, 0.70483393, 0.10532691], "properties": {"magmom": 0.0}, "label": "As", "xyz": [3.051694266206239, 3.282926015264867, 1.923065479679998]}, {"species": [{"element": "As", "occu": 1}], "abc": [0.40507942, 0.29516607, 0.8946730900000001], "properties": {"magmom": 0.0}, "label": "As", "xyz": [1.7993548037937612, 1.3611042847351333, 6.972673900320003]}]}, "task_ids": null, "uncorrected_energy_per_atom": null, "energy_per_atom": -6.999606993333333, "formation_energy_per_atom": -0.5190902916666661, "energy_above_hull": 0.0, "is_stable": true, "equilibrium_reaction_energy_per_atom": null, "decomposes_to": null, "xas": null, "grain_boundaries": null, "band_gap": 0.0, "cbm": null, "vbm": null, "efermi": 5.90971688, "is_gap_direct": null, "is_metal": null, "es_source_calc_id": null, "bandstructure": null, "dos": null, "dos_energy_up": null, "dos_energy_down": null, "is_magnetic": null, "ordering": null, "total_magnetization": 0.0, "total_magnetization_normalized_vol": null, "total_magnetization_normalized_formula_units": null, "num_magnetic_sites": null, "num_unique_magnetic_sites": null, "types_of_magnetic_species": null, "bulk_modulus": null, "shear_modulus": null, "universal_anisotropy": null, "homogeneous_poisson": null, "e_total": null, "e_ionic": null, "e_electronic": null, "n": null, "e_ij_max": null, "weighted_surface_energy_EV_PER_ANG2": null, "weighted_surface_energy": null, "weighted_work_function": null, "surface_anisotropy": null, "shape_factor": null, "has_reconstructed": null, "possible_species": null, "has_props": null, "theoretical": null, "database_IDs": null, "fields_not_requested": ["builder_meta", "nsites", "elements", "nelements", "composition", "composition_reduced", "chemsys", "symmetry", "property_name", "deprecated", "deprecation_reasons", "last_updated", "origins", "warnings", "task_ids", "uncorrected_energy_per_atom", "equilibrium_reaction_energy_per_atom", "decomposes_to", "xas", "grain_boundaries", "cbm", "vbm", "is_gap_direct", "is_metal", "es_source_calc_id", "bandstructure", "dos", "dos_energy_up", "dos_energy_down", "is_magnetic", "ordering", "total_magnetization_normalized_vol", "total_magnetization_normalized_formula_units", "num_magnetic_sites", "num_unique_magnetic_sites", "types_of_magnetic_species", "bulk_modulus", "shear_modulus", "universal_anisotropy", "homogeneous_poisson", "e_total", "e_ionic", "e_electronic", "n", "e_ij_max", "weighted_surface_energy_EV_PER_ANG2", "weighted_surface_energy", "weighted_work_function", "surface_anisotropy", "shape_factor", "has_reconstructed", "possible_species", "has_props", "theoretical", "database_IDs"]}