{
  "builder_meta": null,
  "nsites": null,
  "elements": null,
  "nelements": null,
  "composition": null,
  "composition_reduced": null,
  "formula_pretty": "NbAu4",
  "formula_anonymous": "AB4",
  "chemsys": null,
  "volume": 90.3581535316919,
  "density": 16.186225004786873,
  "density_atomic": 18.07163070633838,
  "symmetry": null,
  "property_name": null,
  "material_id": "mp-1220390",
  "deprecated": null,
  "deprecation_reasons": null,
  "last_updated": null,
  "origins": null,
  "warnings": null,
  "structure": {
    "@module": "pymatgen.core.structure",
    "@class": "Structure",
    "charge": 0,
    "lattice": {
      "matrix": [
        [12.082128, -1.471142, 0.0],
        [12.082128, 1.471142, 0.0],
        [11.902999, 0.0, 2.541788]
      ],
      "pbc": [true, true, true],
      "a": 12.171362938987071,
      "b": 12.171362938987071,
      "c": 12.171362759812272,
      "alpha": 13.88452764801584,
      "beta": 13.88452764801584,
      "gamma": 13.884529895961586,
      "volume": 90.3581535316919
    },
    "properties": {},
    "sites": [
      {
        "species": [{ "element": "Nb", "occu": 1 }],
        "abc": [0.0, 0.0, 0.0],
        "properties": { "magmom": -0.0 },
        "label": "Nb",
        "xyz": [0.0, 0.0, 0.0]
      },
      {
        "species": [{ "element": "Au", "occu": 1 }],
        "abc": [0.601298, 0.601298, 0.601298],
        "properties": { "magmom": -0.0 },
        "label": "Au",
        "xyz": [21.687168296990002, 0.0, 1.528372040824]
      },
      {
        "species": [{ "element": "Au", "occu": 1 }],
        "abc": [0.200271, 0.200271, 0.200271],
        "properties": { "magmom": -0.0 },
        "label": "Au",
        "xyz": [7.223225226105001, 0.0, 0.509046424548]
      },
      {
        "species": [{ "element": "Au", "occu": 1 }],
        "abc": [0.799728999999999, 0.799728999999999, 0.799728999999999],
        "properties": { "magmom": -0.0 },
        "label": "Au",
        "xyz": [28.844029773894967, 0.0, 2.0327415754519973]
      },
      {
        "species": [{ "element": "Au", "occu": 1 }],
        "abc": [0.398702, 0.398702, 0.398702],
        "properties": { "magmom": -0.0 },
        "label": "Au",
        "xyz": [14.38008670301, 0.0, 1.013415959176]
      }
    ]
  },
  "task_ids": null,
  "uncorrected_energy_per_atom": null,
  "energy_per_atom": -45.441840012,
  "formation_energy_per_atom": -0.027056962,
  "energy_above_hull": 0.073232636,
  "is_stable": false,
  "equilibrium_reaction_energy_per_atom": null,
  "decomposes_to": null,
  "xas": null,
  "grain_boundaries": null,
  "band_gap": 0.0,
  "cbm": null,
  "vbm": null,
  "efermi": 5.09829693,
  "is_gap_direct": null,
  "is_metal": null,
  "es_source_calc_id": null,
  "bandstructure": null,
  "dos": null,
  "dos_energy_up": null,
  "dos_energy_down": null,
  "is_magnetic": null,
  "ordering": null,
  "total_magnetization": 0.0004900999999990001,
  "total_magnetization_normalized_vol": null,
  "total_magnetization_normalized_formula_units": null,
  "num_magnetic_sites": null,
  "num_unique_magnetic_sites": null,
  "types_of_magnetic_species": null,
  "bulk_modulus": null,
  "shear_modulus": null,
  "universal_anisotropy": null,
  "homogeneous_poisson": null,
  "e_total": null,
  "e_ionic": null,
  "e_electronic": null,
  "n": null,
  "e_ij_max": null,
  "weighted_surface_energy_EV_PER_ANG2": null,
  "weighted_surface_energy": null,
  "weighted_work_function": null,
  "surface_anisotropy": null,
  "shape_factor": null,
  "has_reconstructed": null,
  "possible_species": null,
  "has_props": null,
  "theoretical": null,
  "database_IDs": null,
  "fields_not_requested": [
    "builder_meta",
    "nsites",
    "elements",
    "nelements",
    "composition",
    "composition_reduced",
    "chemsys",
    "symmetry",
    "property_name",
    "deprecated",
    "deprecation_reasons",
    "last_updated",
    "origins",
    "warnings",
    "task_ids",
    "uncorrected_energy_per_atom",
    "equilibrium_reaction_energy_per_atom",
    "decomposes_to",
    "xas",
    "grain_boundaries",
    "cbm",
    "vbm",
    "is_gap_direct",
    "is_metal",
    "es_source_calc_id",
    "bandstructure",
    "dos",
    "dos_energy_up",
    "dos_energy_down",
    "is_magnetic",
    "ordering",
    "total_magnetization_normalized_vol",
    "total_magnetization_normalized_formula_units",
    "num_magnetic_sites",
    "num_unique_magnetic_sites",
    "types_of_magnetic_species",
    "bulk_modulus",
    "shear_modulus",
    "universal_anisotropy",
    "homogeneous_poisson",
    "e_total",
    "e_ionic",
    "e_electronic",
    "n",
    "e_ij_max",
    "weighted_surface_energy_EV_PER_ANG2",
    "weighted_surface_energy",
    "weighted_work_function",
    "surface_anisotropy",
    "shape_factor",
    "has_reconstructed",
    "possible_species",
    "has_props",
    "theoretical",
    "database_IDs"
  ]
}
