{
  "builder_meta": null,
  "nsites": null,
  "elements": null,
  "nelements": null,
  "composition": null,
  "composition_reduced": null,
  "formula_pretty": "NbB",
  "formula_anonymous": "AB",
  "chemsys": null,
  "volume": 46.18050081799542,
  "density": 7.458852040352272,
  "density_atomic": 11.545125204498856,
  "symmetry": null,
  "property_name": null,
  "material_id": "mp-2580",
  "deprecated": null,
  "deprecation_reasons": null,
  "last_updated": null,
  "origins": null,
  "warnings": null,
  "structure": {
    "@module": "pymatgen.core.structure",
    "@class": "Structure",
    "charge": 0,
    "lattice": {
      "matrix": [
        [3.17539516, 0.0, -0.0],
        [0.0, 3.09838032, -1.17130462],
        [-0.0, 0.0033693300000000002, 4.69254306]
      ],
      "pbc": [true, true, true],
      "a": 3.17539516,
      "b": 3.312388129461378,
      "c": 4.692544269619501,
      "alpha": 110.66734353492699,
      "beta": 90.0,
      "gamma": 90.0,
      "volume": 46.18050081799542
    },
    "properties": {},
    "sites": [
      {
        "species": [{ "element": "Nb", "occu": 1 }],
        "abc": [0.75, 0.14535576, 0.29070952],
        "properties": { "magmom": -0.0 },
        "label": "Nb",
        "xyz": [2.3815463699999997, 0.4513469224896648, 1.19391106732032]
      },
      {
        "species": [{ "element": "Nb", "occu": 1 }],
        "abc": [0.25, 0.85464424, 0.7092904800000001],
        "properties": { "magmom": -0.0 },
        "label": "Nb",
        "xyz": [0.79384879, 2.6504027275103352, 2.3273273726796804]
      },
      {
        "species": [{ "element": "B", "occu": 1 }],
        "abc": [0.75, 0.44201387000000003, 0.88402873],
        "properties": { "magmom": 0.0 },
        "label": "B",
        "xyz": [2.3815463699999997, 1.3725056604958894, 3.630609993767035]
      },
      {
        "species": [{ "element": "B", "occu": 1 }],
        "abc": [0.25, 0.55798613, 0.11597127],
        "properties": { "magmom": 0.0 },
        "label": "B",
        "xyz": [0.79384879, 1.7292439895041107, -0.10937155376703422]
      }
    ]
  },
  "task_ids": null,
  "uncorrected_energy_per_atom": null,
  "energy_per_atom": -16.8494188125,
  "formation_energy_per_atom": -0.8092043887500001,
  "energy_above_hull": 0.0,
  "is_stable": true,
  "equilibrium_reaction_energy_per_atom": null,
  "decomposes_to": null,
  "xas": null,
  "grain_boundaries": null,
  "band_gap": 0.0,
  "cbm": null,
  "vbm": null,
  "efermi": 7.03086902,
  "is_gap_direct": null,
  "is_metal": null,
  "es_source_calc_id": null,
  "bandstructure": null,
  "dos": null,
  "dos_energy_up": null,
  "dos_energy_down": null,
  "is_magnetic": null,
  "ordering": null,
  "total_magnetization": 9e-7,
  "total_magnetization_normalized_vol": null,
  "total_magnetization_normalized_formula_units": null,
  "num_magnetic_sites": null,
  "num_unique_magnetic_sites": null,
  "types_of_magnetic_species": null,
  "bulk_modulus": null,
  "shear_modulus": null,
  "universal_anisotropy": null,
  "homogeneous_poisson": null,
  "e_total": null,
  "e_ionic": null,
  "e_electronic": null,
  "n": null,
  "e_ij_max": null,
  "weighted_surface_energy_EV_PER_ANG2": null,
  "weighted_surface_energy": null,
  "weighted_work_function": null,
  "surface_anisotropy": null,
  "shape_factor": null,
  "has_reconstructed": null,
  "possible_species": null,
  "has_props": null,
  "theoretical": null,
  "database_IDs": null,
  "fields_not_requested": [
    "builder_meta",
    "nsites",
    "elements",
    "nelements",
    "composition",
    "composition_reduced",
    "chemsys",
    "symmetry",
    "property_name",
    "deprecated",
    "deprecation_reasons",
    "last_updated",
    "origins",
    "warnings",
    "task_ids",
    "uncorrected_energy_per_atom",
    "equilibrium_reaction_energy_per_atom",
    "decomposes_to",
    "xas",
    "grain_boundaries",
    "cbm",
    "vbm",
    "is_gap_direct",
    "is_metal",
    "es_source_calc_id",
    "bandstructure",
    "dos",
    "dos_energy_up",
    "dos_energy_down",
    "is_magnetic",
    "ordering",
    "total_magnetization_normalized_vol",
    "total_magnetization_normalized_formula_units",
    "num_magnetic_sites",
    "num_unique_magnetic_sites",
    "types_of_magnetic_species",
    "bulk_modulus",
    "shear_modulus",
    "universal_anisotropy",
    "homogeneous_poisson",
    "e_total",
    "e_ionic",
    "e_electronic",
    "n",
    "e_ij_max",
    "weighted_surface_energy_EV_PER_ANG2",
    "weighted_surface_energy",
    "weighted_work_function",
    "surface_anisotropy",
    "shape_factor",
    "has_reconstructed",
    "possible_species",
    "has_props",
    "theoretical",
    "database_IDs"
  ]
}
