{
  "builder_meta": null,
  "nsites": null,
  "elements": null,
  "nelements": null,
  "composition": null,
  "composition_reduced": null,
  "formula_pretty": "NbBr4",
  "formula_anonymous": "AB4",
  "chemsys": null,
  "volume": 310.2093177994072,
  "density": 4.416434249597641,
  "density_atomic": 31.020931779940717,
  "symmetry": null,
  "property_name": null,
  "material_id": "mp-1080428",
  "deprecated": null,
  "deprecation_reasons": null,
  "last_updated": null,
  "origins": null,
  "warnings": null,
  "structure": {
    "@module": "pymatgen.core.structure",
    "@class": "Structure",
    "charge": 0,
    "lattice": {
      "matrix": [
        [0.0, -7.22197287, 0.0],
        [4.41895119, -3.61098644, 4.65500621],
        [-4.452208029999999, -3.61098644, 5.03026293]
      ],
      "pbc": [true, true, true],
      "a": 7.22197287,
      "b": 7.364471162588991,
      "c": 7.626593247131548,
      "alpha": 72.61585830585187,
      "beta": 61.7400224215766,
      "gamma": 60.638035981412024,
      "volume": 310.20931779940713
    },
    "properties": {},
    "sites": [
      {
        "species": [{ "element": "Nb", "occu": 1 }],
        "abc": [0.21610047000000002, 0.0, -0.0],
        "properties": { "magmom": -0.0 },
        "label": "Nb",
        "xyz": [0.0, -1.560671731534249, 0.0]
      },
      {
        "species": [{ "element": "Nb", "occu": 1 }],
        "abc": [0.78389953, 0.0, -0.0],
        "properties": { "magmom": -0.0 },
        "label": "Nb",
        "xyz": [0.0, -5.661301138465752, 0.0]
      },
      {
        "species": [{ "element": "Br", "occu": 1 }],
        "abc": [0.7885880200000001, 0.24726098, 0.17556199],
        "properties": { "magmom": -0.0 },
        "label": "Br",
        "xyz": [0.3109957001707866, -7.221969297237544, 2.0341243676047163]
      },
      {
        "species": [{ "element": "Br", "occu": 1 }],
        "abc": [0.21141198, 0.75273902, 0.82443801],
        "properties": { "magmom": -0.0 },
        "label": "Br",
        "xyz": [-0.3442525401707859, -7.221976452762457, 7.651144772395284]
      },
      {
        "species": [{ "element": "Br", "occu": 1 }],
        "abc": [0.21598971, 0.75323096, 0.30340749],
        "properties": { "magmom": 0.0 },
        "label": "Br",
        "xyz": [1.9776575836966976, -5.375378940751786, 5.032514245995607]
      },
      {
        "species": [{ "element": "Br", "occu": 1 }],
        "abc": [0.27262916, 0.24676904, 0.69659251],
        "properties": { "magmom": 0.0 },
        "label": "Br",
        "xyz": [-2.010914423696697, -5.3753861621582715, 4.652754894004393]
      },
      {
        "species": [{ "element": "Br", "occu": 1 }],
        "abc": [0.78401029, 0.24676904, 0.69659251],
        "properties": { "magmom": 0.0 },
        "label": "Br",
        "xyz": [-2.010914423696697, -9.068566809248214, 4.652754894004393]
      },
      {
        "species": [{ "element": "Br", "occu": 1 }],
        "abc": [0.72737084, 0.75323096, 0.30340749],
        "properties": { "magmom": 0.0 },
        "label": "Br",
        "xyz": [1.9776575836966976, -9.06855958784173, 5.032514245995607]
      },
      {
        "species": [{ "element": "Br", "occu": 1 }],
        "abc": [0.31661613, 0.21412041, 0.15264733],
        "properties": { "magmom": 0.0 },
        "label": "Br",
        "xyz": [0.26656997218872813, -3.610986436833839, 1.764588043700223]
      },
      {
        "species": [{ "element": "Br", "occu": 1 }],
        "abc": [0.68338387, 0.78587959, 0.84735267],
        "properties": { "magmom": 0.0 },
        "label": "Br",
        "xyz": [-0.2998268121887273, -10.832959313166162, 7.920681096299777]
      }
    ]
  },
  "task_ids": null,
  "uncorrected_energy_per_atom": null,
  "energy_per_atom": -4.656139540000007,
  "formation_energy_per_atom": -1.3263213040000061,
  "energy_above_hull": 0.0,
  "is_stable": true,
  "equilibrium_reaction_energy_per_atom": null,
  "decomposes_to": null,
  "xas": null,
  "grain_boundaries": null,
  "band_gap": 0.8728,
  "cbm": null,
  "vbm": null,
  "efermi": 0.18029491,
  "is_gap_direct": null,
  "is_metal": null,
  "es_source_calc_id": null,
  "bandstructure": null,
  "dos": null,
  "dos_energy_up": null,
  "dos_energy_down": null,
  "is_magnetic": null,
  "ordering": null,
  "total_magnetization": 0.0,
  "total_magnetization_normalized_vol": null,
  "total_magnetization_normalized_formula_units": null,
  "num_magnetic_sites": null,
  "num_unique_magnetic_sites": null,
  "types_of_magnetic_species": null,
  "bulk_modulus": null,
  "shear_modulus": null,
  "universal_anisotropy": null,
  "homogeneous_poisson": null,
  "e_total": null,
  "e_ionic": null,
  "e_electronic": null,
  "n": null,
  "e_ij_max": null,
  "weighted_surface_energy_EV_PER_ANG2": null,
  "weighted_surface_energy": null,
  "weighted_work_function": null,
  "surface_anisotropy": null,
  "shape_factor": null,
  "has_reconstructed": null,
  "possible_species": null,
  "has_props": null,
  "theoretical": null,
  "database_IDs": null,
  "fields_not_requested": [
    "builder_meta",
    "nsites",
    "elements",
    "nelements",
    "composition",
    "composition_reduced",
    "chemsys",
    "symmetry",
    "property_name",
    "deprecated",
    "deprecation_reasons",
    "last_updated",
    "origins",
    "warnings",
    "task_ids",
    "uncorrected_energy_per_atom",
    "equilibrium_reaction_energy_per_atom",
    "decomposes_to",
    "xas",
    "grain_boundaries",
    "cbm",
    "vbm",
    "is_gap_direct",
    "is_metal",
    "es_source_calc_id",
    "bandstructure",
    "dos",
    "dos_energy_up",
    "dos_energy_down",
    "is_magnetic",
    "ordering",
    "total_magnetization_normalized_vol",
    "total_magnetization_normalized_formula_units",
    "num_magnetic_sites",
    "num_unique_magnetic_sites",
    "types_of_magnetic_species",
    "bulk_modulus",
    "shear_modulus",
    "universal_anisotropy",
    "homogeneous_poisson",
    "e_total",
    "e_ionic",
    "e_electronic",
    "n",
    "e_ij_max",
    "weighted_surface_energy_EV_PER_ANG2",
    "weighted_surface_energy",
    "weighted_work_function",
    "surface_anisotropy",
    "shape_factor",
    "has_reconstructed",
    "possible_species",
    "has_props",
    "theoretical",
    "database_IDs"
  ]
}
