{"builder_meta": null, "nsites": null, "elements": null, "nelements": null, "composition": null, "composition_reduced": null, "formula_pretty": "NbBr5", "formula_anonymous": "AB5", "chemsys": null, "volume": 1599.9079524719216, "density": 4.08870142885932, "density_atomic": 33.33141567649837, "symmetry": null, "property_name": null, "material_id": "mp-28601", "deprecated": null, "deprecation_reasons": null, "last_updated": null, "origins": null, "warnings": null, "structure": {"@module": "pymatgen.core.structure", "@class": "Structure", "charge": 0, "lattice": {"matrix": [[6.30414697, 0.0, 0.0], [-0.0, 13.30064825, 0.0], [0.0, 0.0, 19.08076837]], "pbc": [true, true, true], "a": 6.30414697, "b": 13.30064825, "c": 19.08076837, "alpha": 90.0, "beta": 90.0, "gamma": 90.0, "volume": 1599.9079524719216}, "properties": {}, "sites": [{"species": [{"element": "Nb", "occu": 1}], "abc": [0.99290961, 0.12482745, 0.1395893], "properties": {"magmom": 0.0}, "label": "Nb", "xyz": [6.2594481093653815, 1.6602860043944625, 2.663471100230441]}, {"species": [{"element": "Nb", "occu": 1}], "abc": [0.49290961, 0.37517255, 0.8604107], "properties": {"magmom": 0.0}, "label": "Nb", "xyz": [3.1073746243653817, 4.990038120605537, 16.41729726976956]}, {"species": [{"element": "Nb", "occu": 1}], "abc": [0.50709039, 0.6248274500000001, 0.3604107], "properties": {"magmom": 0.0}, "label": "Nb", "xyz": [3.196772345634618, 8.310610129394464, 6.8769130847695585]}, {"species": [{"element": "Nb", "occu": 1}], "abc": [0.00709039, 0.87517255, 0.639589299999999], "properties": {"magmom": 0.0}, "label": "Nb", "xyz": [0.0446988606346183, 11.640362245605537, 12.203855285230423]}, {"species": [{"element": "Nb", "occu": 1}], "abc": [0.00709039, 0.87517255, 0.8604107], "properties": {"magmom": 0.0}, "label": "Nb", "xyz": [0.0446988606346183, 11.640362245605537, 16.41729726976956]}, {"species": [{"element": "Nb", "occu": 1}], "abc": [0.50709039, 0.6248274500000001, 0.1395893], "properties": {"magmom": 0.0}, "label": "Nb", "xyz": [3.196772345634618, 8.310610129394464, 2.663471100230441]}, {"species": [{"element": "Nb", "occu": 1}], "abc": [0.49290961, 0.37517255, 0.639589299999999], "properties": {"magmom": 0.0}, "label": "Nb", "xyz": [3.1073746243653817, 4.990038120605537, 12.203855285230423]}, {"species": [{"element": "Nb", "occu": 1}], "abc": [0.99290961, 0.12482745, 0.3604107], "properties": {"magmom": 0.0}, "label": "Nb", "xyz": [6.2594481093653815, 1.6602860043944625, 6.8769130847695585]}, {"species": [{"element": "Br", "occu": 1}], "abc": [0.26294372, 0.70746166, 0.05904193], "properties": {"magmom": -0.0}, "label": "Br", "xyz": [1.6576358557185282, 9.409698690021095, 1.1265653904477542]}, {"species": [{"element": "Br", "occu": 1}], "abc": [0.76294372, 0.79253834, 0.94095807], "properties": {"magmom": -0.0}, "label": "Br", "xyz": [4.809709340718528, 10.541273684978906, 17.954202979552246]}, {"species": [{"element": "Br", "occu": 1}], "abc": [0.23705628, 0.20746266, 0.44095807000000004], "properties": {"magmom": -0.0}, "label": "Br", "xyz": [1.4944376292814716, 2.759387865669345, 8.413818794552247]}, {"species": [{"element": "Br", "occu": 1}], "abc": [0.73705628, 0.29253834, 0.55904193], "properties": {"magmom": -0.0}, "label": "Br", "xyz": [4.646511114281472, 3.890949559978905, 10.666949575447756]}, {"species": [{"element": "Br", "occu": 1}], "abc": [0.73705628, 0.29253834, 0.94095807], "properties": {"magmom": -0.0}, "label": "Br", "xyz": [4.646511114281472, 3.890949559978905, 17.954202979552246]}, {"species": [{"element": "Br", "occu": 1}], "abc": [0.23705628, 0.20746266, 0.05904193], "properties": {"magmom": -0.0}, "label": "Br", "xyz": [1.4944376292814716, 2.759387865669345, 1.1265653904477542]}, {"species": [{"element": "Br", "occu": 1}], "abc": [0.76294372, 0.79253834, 0.55904193], "properties": {"magmom": -0.0}, "label": "Br", "xyz": [4.809709340718528, 10.541273684978906, 10.666949575447756]}, {"species": [{"element": "Br", "occu": 1}], "abc": [0.26294372, 0.70746166, 0.44095807000000004], "properties": {"magmom": -0.0}, "label": "Br", "xyz": [1.6576358557185282, 9.409698690021095, 8.413818794552247]}, {"species": [{"element": "Br", "occu": 1}], "abc": [0.21791193, 0.20116506, 0.25], "properties": {"magmom": -0.0}, "label": "Br", "xyz": [1.373748833236352, 2.675625703250145, 4.7701920925]}, {"species": [{"element": "Br", "occu": 1}], "abc": [0.71791193, 0.29883494, 0.75], "properties": {"magmom": -0.0}, "label": "Br", "xyz": [4.525822318236352, 3.974698421749855, 14.310576277500001]}, {"species": [{"element": "Br", "occu": 1}], "abc": [0.28208807, 0.70116506, 0.25], "properties": {"magmom": -0.0}, "label": "Br", "xyz": [1.778324651763648, 9.325949828250145, 4.7701920925]}, {"species": [{"element": "Br", "occu": 1}], "abc": [0.78208807, 0.79883494, 0.75], "properties": {"magmom": -0.0}, "label": "Br", "xyz": [4.930398136763648, 10.625022546749856, 14.310576277500001]}, {"species": [{"element": "Br", "occu": 1}], "abc": [0.76780879, 0.04876506, 0.25], "properties": {"magmom": -0.0}, "label": "Br", "xyz": [4.840379457017866, 0.648606909950145, 4.7701920925]}, {"species": [{"element": "Br", "occu": 1}], "abc": [0.26780879, 0.45123494000000003, 0.75], "properties": {"magmom": -0.0}, "label": "Br", "xyz": [1.6883059720178664, 6.0017172150498554, 14.310576277500001]}, {"species": [{"element": "Br", "occu": 1}], "abc": [0.73219121, 0.54876506, 0.25], "properties": {"magmom": -0.0}, "label": "Br", "xyz": [4.615840997982134, 7.2989310349501455, 4.7701920925]}, {"species": [{"element": "Br", "occu": 1}], "abc": [0.23219121, 0.95123494, 0.75], "properties": {"magmom": -0.0}, "label": "Br", "xyz": [1.4637675129821337, 12.652041340049855, 14.310576277500001]}, {"species": [{"element": "Br", "occu": 1}], "abc": [0.22167421, 0.97306811, 0.34793245], "properties": {"magmom": 0.0}, "label": "Br", "xyz": [1.3974667992986436, 12.942436654402307, 6.638818486856607]}, {"species": [{"element": "Br", "occu": 1}], "abc": [0.72167421, 0.52693189, 0.65206755], "properties": {"magmom": 0.0}, "label": "Br", "xyz": [4.549540284298644, 7.008535720597692, 12.441949883143396]}, {"species": [{"element": "Br", "occu": 1}], "abc": [0.27832579, 0.47306811, 0.15206755], "properties": {"magmom": 0.0}, "label": "Br", "xyz": [1.7546066857013563, 6.292112529402307, 2.9015656981433935]}, {"species": [{"element": "Br", "occu": 1}], "abc": [0.77832579, 0.02693189, 0.8479324500000001], "properties": {"magmom": 0.0}, "label": "Br", "xyz": [4.906680170701356, 0.3582115955976925, 16.179202671856608]}, {"species": [{"element": "Br", "occu": 1}], "abc": [0.77832579, 0.02693189, 0.65206755], "properties": {"magmom": 0.0}, "label": "Br", "xyz": [4.906680170701356, 0.3582115955976925, 12.441949883143396]}, {"species": [{"element": "Br", "occu": 1}], "abc": [0.27832579, 0.47306811, 0.34793245], "properties": {"magmom": 0.0}, "label": "Br", "xyz": [1.7546066857013563, 6.292112529402307, 6.638818486856607]}, {"species": [{"element": "Br", "occu": 1}], "abc": [0.72167421, 0.52693189, 0.8479324500000001], "properties": {"magmom": 0.0}, "label": "Br", "xyz": [4.549540284298644, 7.008535720597692, 16.179202671856608]}, {"species": [{"element": "Br", "occu": 1}], "abc": [0.22167421, 0.97306811, 0.15206755], "properties": {"magmom": 0.0}, "label": "Br", "xyz": [1.3974667992986436, 12.942436654402307, 2.9015656981433935]}, {"species": [{"element": "Br", "occu": 1}], "abc": [0.26556337, 0.22293946, 0.6519149], "properties": {"magmom": -0.0}, "label": "Br", "xyz": [1.674150514328489, 2.965239338504945, 12.439037203851713]}, {"species": [{"element": "Br", "occu": 1}], "abc": [0.76556337, 0.27706054, 0.3480851], "properties": {"magmom": -0.0}, "label": "Br", "xyz": [4.826223999328488, 3.685084786495055, 6.641731166148287]}, {"species": [{"element": "Br", "occu": 1}], "abc": [0.23443663, 0.72293946, 0.848085099999999], "properties": {"magmom": -0.0}, "label": "Br", "xyz": [1.4779229706715111, 9.615563463504945, 16.18211535114827]}, {"species": [{"element": "Br", "occu": 1}], "abc": [0.73443663, 0.77706054, 0.1519149], "properties": {"magmom": -0.0}, "label": "Br", "xyz": [4.629996455671511, 10.335408911495055, 2.898653018851713]}, {"species": [{"element": "Br", "occu": 1}], "abc": [0.73443663, 0.77706054, 0.3480851], "properties": {"magmom": -0.0}, "label": "Br", "xyz": [4.629996455671511, 10.335408911495055, 6.641731166148287]}, {"species": [{"element": "Br", "occu": 1}], "abc": [0.23443663, 0.72293946, 0.6519149], "properties": {"magmom": -0.0}, "label": "Br", "xyz": [1.4779229706715111, 9.615563463504945, 12.439037203851713]}, {"species": [{"element": "Br", "occu": 1}], "abc": [0.76556337, 0.27706054, 0.1519149], "properties": {"magmom": -0.0}, "label": "Br", "xyz": [4.826223999328488, 3.685084786495055, 2.898653018851713]}, {"species": [{"element": "Br", "occu": 1}], "abc": [0.26556337, 0.22293946, 0.848085099999999], "properties": {"magmom": -0.0}, "label": "Br", "xyz": [1.674150514328489, 2.965239338504945, 16.18211535114827]}, {"species": [{"element": "Br", "occu": 1}], "abc": [0.7479846800000001, 0.04208505, 0.44057455], "properties": {"magmom": 0.0}, "label": "Br", "xyz": [4.7154053540284195, 0.5597584466336625, 8.406500938266984]}, {"species": [{"element": "Br", "occu": 1}], "abc": [0.24798468, 0.45791495, 0.55942545], "properties": {"magmom": 0.0}, "label": "Br", "xyz": [1.5633318690284197, 6.090565678366337, 10.674267431733018]}, {"species": [{"element": "Br", "occu": 1}], "abc": [0.75201532, 0.54208505, 0.059425450000000005], "properties": {"magmom": 0.0}, "label": "Br", "xyz": [4.74081510097158, 7.210082571633662, 1.1338832467330167]}, {"species": [{"element": "Br", "occu": 1}], "abc": [0.25201532, 0.95791495, 0.94057455], "properties": {"magmom": 0.0}, "label": "Br", "xyz": [1.5887416159715801, 12.740889803366338, 17.946885123266984]}, {"species": [{"element": "Br", "occu": 1}], "abc": [0.25201532, 0.95791495, 0.55942545], "properties": {"magmom": 0.0}, "label": "Br", "xyz": [1.5887416159715801, 12.740889803366338, 10.674267431733018]}, {"species": [{"element": "Br", "occu": 1}], "abc": [0.75201532, 0.54208505, 0.44057455], "properties": {"magmom": 0.0}, "label": "Br", "xyz": [4.74081510097158, 7.210082571633662, 8.406500938266984]}, {"species": [{"element": "Br", "occu": 1}], "abc": [0.24798468, 0.45791495, 0.94057455], "properties": {"magmom": 0.0}, "label": "Br", "xyz": [1.5633318690284197, 6.090565678366337, 17.946885123266984]}, {"species": [{"element": "Br", "occu": 1}], "abc": [0.7479846800000001, 0.04208505, 0.059425450000000005], "properties": {"magmom": 0.0}, "label": "Br", "xyz": [4.7154053540284195, 0.5597584466336625, 1.1338832467330167]}]}, "task_ids": null, "uncorrected_energy_per_atom": null, "energy_per_atom": -4.365852622291666, "formation_energy_per_atom": -1.318179669791667, "energy_above_hull": 0.0, "is_stable": true, "equilibrium_reaction_energy_per_atom": null, "decomposes_to": null, "xas": null, "grain_boundaries": null, "band_gap": 1.565, "cbm": null, "vbm": null, "efermi": -1.2422381200000001, "is_gap_direct": null, "is_metal": null, "es_source_calc_id": null, "bandstructure": null, "dos": null, "dos_energy_up": null, "dos_energy_down": null, "is_magnetic": null, "ordering": null, "total_magnetization": 0.0, "total_magnetization_normalized_vol": null, "total_magnetization_normalized_formula_units": null, "num_magnetic_sites": null, "num_unique_magnetic_sites": null, "types_of_magnetic_species": null, "bulk_modulus": null, "shear_modulus": null, "universal_anisotropy": null, "homogeneous_poisson": null, "e_total": null, "e_ionic": null, "e_electronic": null, "n": null, "e_ij_max": null, "weighted_surface_energy_EV_PER_ANG2": null, "weighted_surface_energy": null, "weighted_work_function": null, "surface_anisotropy": null, "shape_factor": null, "has_reconstructed": null, "possible_species": null, "has_props": null, "theoretical": null, "database_IDs": null, "fields_not_requested": ["builder_meta", "nsites", "elements", "nelements", "composition", "composition_reduced", "chemsys", "symmetry", "property_name", "deprecated", "deprecation_reasons", "last_updated", "origins", "warnings", "task_ids", "uncorrected_energy_per_atom", "equilibrium_reaction_energy_per_atom", "decomposes_to", "xas", "grain_boundaries", "cbm", "vbm", "is_gap_direct", "is_metal", "es_source_calc_id", "bandstructure", "dos", "dos_energy_up", "dos_energy_down", "is_magnetic", "ordering", "total_magnetization_normalized_vol", "total_magnetization_normalized_formula_units", "num_magnetic_sites", "num_unique_magnetic_sites", "types_of_magnetic_species", "bulk_modulus", "shear_modulus", "universal_anisotropy", "homogeneous_poisson", "e_total", "e_ionic", "e_electronic", "n", "e_ij_max", "weighted_surface_energy_EV_PER_ANG2", "weighted_surface_energy", "weighted_work_function", "surface_anisotropy", "shape_factor", "has_reconstructed", "possible_species", "has_props", "theoretical", "database_IDs"]}