{"builder_meta": null, "nsites": null, "elements": null, "nelements": null, "composition": null, "composition_reduced": null, "formula_pretty": "NbCl4", "formula_anonymous": "AB4", "chemsys": null, "volume": 264.77104459749734, "density": 2.944121327402491, "density_atomic": 26.477104459749732, "symmetry": null, "property_name": null, "material_id": "mp-31040", "deprecated": null, "deprecation_reasons": null, "last_updated": null, "origins": null, "warnings": null, "structure": {"@module": "pymatgen.core.structure", "@class": "Structure", "charge": 0, "lattice": {"matrix": [[5.9920081, 0.0, 3.34430521], [2.73458503, 6.08518572, 2.14053823], [-0.09545297, 0.02912197, 7.21113007]], "pbc": [true, true, true], "a": 6.862108889262743, "b": 7.006378839834709, "c": 7.211820591575799, "alpha": 72.31252327891784, "beta": 61.591533801980376, "gamma": 60.67884699807029, "volume": 264.77104459749734}, "properties": {}, "sites": [{"species": [{"element": "Nb", "occu": 1}], "abc": [0.21920439, 0.0, 0.0], "properties": {"magmom": -0.0}, "label": "Nb", "xyz": [1.313474480435559, 0.0, 0.7330863835318718]}, {"species": [{"element": "Nb", "occu": 1}], "abc": [0.78079561, -0.0, -0.0], "properties": {"magmom": -0.0}, "label": "Nb", "xyz": [4.6785336195644405, 0.0, 2.6112188264681278]}, {"species": [{"element": "Cl", "occu": 1}], "abc": [0.681246799999999, 0.79258547, 0.84492093], "properties": {"magmom": -0.0}, "label": "Cl", "xyz": [6.168778492772926, 4.847635545899321, 10.067691446708709]}, {"species": [{"element": "Cl", "occu": 1}], "abc": [0.318753199999999, 0.20741453, 0.15507907], "properties": {"magmom": -0.0}, "label": "Cl", "xyz": [2.4623616672270616, 1.2666721441006796, 2.6282820632912856]}, {"species": [{"element": "Cl", "occu": 1}], "abc": [0.79168346, 0.23863029, 0.17800178], "properties": {"magmom": 0.0}, "label": "Cl", "xyz": [5.379337725128298, 1.4572933955645653, 4.442022366801338]}, {"species": [{"element": "Cl", "occu": 1}], "abc": [0.20831654, 0.76136971, 0.82199822], "properties": {"magmom": 0.0}, "label": "Cl", "xyz": [3.251802434871702, 4.6570142944354345, 8.253951143198663]}, {"species": [{"element": "Cl", "occu": 1}], "abc": [0.73202822, 0.7502076, 0.29719505], "properties": {"magmom": 0.0}, "label": "Cl", "xyz": [6.409457345829011, 4.573807479885721, 6.197085999959727]}, {"species": [{"element": "Cl", "occu": 1}], "abc": [0.77942887, 0.2497924, 0.70280495], "properties": {"magmom": 0.0}, "label": "Cl", "xyz": [5.286337840253418, 1.5405002101142795, 8.209356120818711]}, {"species": [{"element": "Cl", "occu": 1}], "abc": [0.26797178, 0.2497924, 0.70280495], "properties": {"magmom": 0.0}, "label": "Cl", "xyz": [2.221682814170988, 1.5405002101142795, 6.498887510040272]}, {"species": [{"element": "Cl", "occu": 1}], "abc": [0.22057113, 0.7502076, 0.29719505], "properties": {"magmom": 0.0}, "label": "Cl", "xyz": [3.344802319746582, 4.573807479885721, 4.486617389181289]}]}, "task_ids": null, "uncorrected_energy_per_atom": null, "energy_per_atom": -11.281181436, "formation_energy_per_atom": -1.412415387999999, "energy_above_hull": 0.0, "is_stable": true, "equilibrium_reaction_energy_per_atom": null, "decomposes_to": null, "xas": null, "grain_boundaries": null, "band_gap": 1.0797, "cbm": null, "vbm": null, "efermi": 0.10127967, "is_gap_direct": null, "is_metal": null, "es_source_calc_id": null, "bandstructure": null, "dos": null, "dos_energy_up": null, "dos_energy_down": null, "is_magnetic": null, "ordering": null, "total_magnetization": 0.0, "total_magnetization_normalized_vol": null, "total_magnetization_normalized_formula_units": null, "num_magnetic_sites": null, "num_unique_magnetic_sites": null, "types_of_magnetic_species": null, "bulk_modulus": null, "shear_modulus": null, "universal_anisotropy": null, "homogeneous_poisson": null, "e_total": null, "e_ionic": null, "e_electronic": null, "n": null, "e_ij_max": null, "weighted_surface_energy_EV_PER_ANG2": null, "weighted_surface_energy": null, "weighted_work_function": null, "surface_anisotropy": null, "shape_factor": null, "has_reconstructed": null, "possible_species": null, "has_props": null, "theoretical": null, "database_IDs": null, "fields_not_requested": ["builder_meta", "nsites", "elements", "nelements", "composition", "composition_reduced", "chemsys", "symmetry", "property_name", "deprecated", "deprecation_reasons", "last_updated", "origins", "warnings", "task_ids", "uncorrected_energy_per_atom", "equilibrium_reaction_energy_per_atom", "decomposes_to", "xas", "grain_boundaries", "cbm", "vbm", "is_gap_direct", "is_metal", "es_source_calc_id", "bandstructure", "dos", "dos_energy_up", "dos_energy_down", "is_magnetic", "ordering", "total_magnetization_normalized_vol", "total_magnetization_normalized_formula_units", "num_magnetic_sites", "num_unique_magnetic_sites", "types_of_magnetic_species", "bulk_modulus", "shear_modulus", "universal_anisotropy", "homogeneous_poisson", "e_total", "e_ionic", "e_electronic", "n", "e_ij_max", "weighted_surface_energy_EV_PER_ANG2", "weighted_surface_energy", "weighted_work_function", "surface_anisotropy", "shape_factor", "has_reconstructed", "possible_species", "has_props", "theoretical", "database_IDs"]}