{
  "builder_meta": null,
  "nsites": null,
  "elements": null,
  "nelements": null,
  "composition": null,
  "composition_reduced": null,
  "formula_pretty": "NbCo3",
  "formula_anonymous": "AB3",
  "chemsys": null,
  "volume": 94.27604740221132,
  "density": 9.500977262376134,
  "density_atomic": 11.784505925276415,
  "symmetry": null,
  "property_name": null,
  "material_id": "mp-977426",
  "deprecated": null,
  "deprecation_reasons": null,
  "last_updated": null,
  "origins": null,
  "warnings": null,
  "structure": {
    "@module": "pymatgen.core.structure",
    "@class": "Structure",
    "charge": 0,
    "lattice": {
      "matrix": [
        [5.14162961, 5.4290000000000024e-5, -2e-8],
        [-2.5707714, 4.4526954100000005, -2e-8],
        [-1e-8, -3.0000000000000004e-8, 4.11789191]
      ],
      "pbc": [true, true, true],
      "a": 5.141629610286621,
      "b": 5.141533040377455,
      "c": 4.11789191,
      "alpha": 90.00000051479736,
      "beta": 90.00000036201314,
      "gamma": 119.99945781081095,
      "volume": 94.27604740221136
    },
    "properties": {},
    "sites": [
      {
        "species": [{ "element": "Nb", "occu": 1 }],
        "abc": [0.66666507, 0.33332962, 0.2499996],
        "properties": { "magmom": -0.0 },
        "label": "Nb",
        "xyz": [2.5708306074958585, 1.4842514547377068, 1.0294713103433422]
      },
      {
        "species": [{ "element": "Nb", "occu": 1 }],
        "abc": [0.3333508, 0.66667763, 0.74999936],
        "properties": { "magmom": -0.0 },
        "label": "Nb",
        "xyz": [9.055207341237942e-5, 2.9685304981656295, 3.088416277048609]
      },
      {
        "species": [{ "element": "Co", "occu": 1 }],
        "abc": [0.31388958, 0.1569487, 0.74999949],
        "properties": { "magmom": 0.0 },
        "label": "Co",
        "xyz": [1.210424722071289, 0.6988617746607806, 3.08841682295836]
      },
      {
        "species": [{ "element": "Co", "occu": 1 }],
        "abc": [0.84305355, 0.68610605, 0.749999499999999],
        "properties": { "magmom": 0.0 },
        "label": "Co",
        "xyz": [2.570847277288651, 3.0550670064854755, 3.088416842970849]
      },
      {
        "species": [{ "element": "Co", "occu": 1 }],
        "abc": [0.15693319, 0.8430488500000001, 0.24999952],
        "properties": { "magmom": 0.0 },
        "label": "Co",
        "xyz": [-1.3603935383871293, 3.753848257203679, 1.0294709809122424]
      },
      {
        "species": [{ "element": "Co", "occu": 1 }],
        "abc": [0.68611341, 0.843054699999999, 0.24999952],
        "properties": { "magmom": 0.0 },
        "label": "Co",
        "xyz": [1.3604401107784974, 3.7539030346659668, 1.029470970328521]
      },
      {
        "species": [{ "element": "Co", "occu": 1 }],
        "abc": [0.15693802, 0.31389179, 0.24999951],
        "properties": { "magmom": 0.0 },
        "label": "Co",
        "xyz": [-2.6868360028853465e-5, 1.3976730452348047, 1.029470950316368]
      },
      {
        "species": [{ "element": "Co", "occu": 1 }],
        "abc": [0.84306038, 0.15694665, 0.74999949],
        "properties": { "magmom": 0.0 },
        "label": "Co",
        "xyz": [3.9312302461800477, 0.698881375317922, 3.088416812374985]
      }
    ]
  },
  "task_ids": null,
  "uncorrected_energy_per_atom": null,
  "energy_per_atom": -8.01589379625,
  "formation_energy_per_atom": -0.14050499624999901,
  "energy_above_hull": 0.0,
  "is_stable": true,
  "equilibrium_reaction_energy_per_atom": null,
  "decomposes_to": null,
  "xas": null,
  "grain_boundaries": null,
  "band_gap": 0.0,
  "cbm": null,
  "vbm": null,
  "efermi": 5.48374267,
  "is_gap_direct": null,
  "is_metal": null,
  "es_source_calc_id": null,
  "bandstructure": null,
  "dos": null,
  "dos_energy_up": null,
  "dos_energy_down": null,
  "is_magnetic": null,
  "ordering": null,
  "total_magnetization": 0.0012407,
  "total_magnetization_normalized_vol": null,
  "total_magnetization_normalized_formula_units": null,
  "num_magnetic_sites": null,
  "num_unique_magnetic_sites": null,
  "types_of_magnetic_species": null,
  "bulk_modulus": null,
  "shear_modulus": null,
  "universal_anisotropy": null,
  "homogeneous_poisson": null,
  "e_total": null,
  "e_ionic": null,
  "e_electronic": null,
  "n": null,
  "e_ij_max": null,
  "weighted_surface_energy_EV_PER_ANG2": null,
  "weighted_surface_energy": null,
  "weighted_work_function": null,
  "surface_anisotropy": null,
  "shape_factor": null,
  "has_reconstructed": null,
  "possible_species": null,
  "has_props": null,
  "theoretical": null,
  "database_IDs": null,
  "fields_not_requested": [
    "builder_meta",
    "nsites",
    "elements",
    "nelements",
    "composition",
    "composition_reduced",
    "chemsys",
    "symmetry",
    "property_name",
    "deprecated",
    "deprecation_reasons",
    "last_updated",
    "origins",
    "warnings",
    "task_ids",
    "uncorrected_energy_per_atom",
    "equilibrium_reaction_energy_per_atom",
    "decomposes_to",
    "xas",
    "grain_boundaries",
    "cbm",
    "vbm",
    "is_gap_direct",
    "is_metal",
    "es_source_calc_id",
    "bandstructure",
    "dos",
    "dos_energy_up",
    "dos_energy_down",
    "is_magnetic",
    "ordering",
    "total_magnetization_normalized_vol",
    "total_magnetization_normalized_formula_units",
    "num_magnetic_sites",
    "num_unique_magnetic_sites",
    "types_of_magnetic_species",
    "bulk_modulus",
    "shear_modulus",
    "universal_anisotropy",
    "homogeneous_poisson",
    "e_total",
    "e_ionic",
    "e_electronic",
    "n",
    "e_ij_max",
    "weighted_surface_energy_EV_PER_ANG2",
    "weighted_surface_energy",
    "weighted_work_function",
    "surface_anisotropy",
    "shape_factor",
    "has_reconstructed",
    "possible_species",
    "has_props",
    "theoretical",
    "database_IDs"
  ]
}
