{"builder_meta": null, "nsites": null, "elements": null, "nelements": null, "composition": null, "composition_reduced": null, "formula_pretty": "NbCo2", "formula_anonymous": "AB2", "chemsys": null, "volume": 315.5360588344357, "density": 8.873696909401847, "density_atomic": 13.147335784768154, "symmetry": null, "property_name": null, "material_id": "mp-1191009", "deprecated": null, "deprecation_reasons": null, "last_updated": null, "origins": null, "warnings": null, "structure": {"@module": "pymatgen.core.structure", "@class": "Structure", "charge": 0, "lattice": {"matrix": [[2.40083422, -4.15836091, 0.0], [2.40083529, 4.15836196, -0.0], [-0.0, -0.0, 15.8028165]], "pbc": [true, true, true], "a": 4.801663296165094, "b": 4.801664740492033, "c": 15.8028165, "alpha": 90.0, "beta": 90.0, "gamma": 119.99992433328897, "volume": 315.5360588344357}, "properties": {}, "sites": [{"species": [{"element": "Nb", "occu": 1}], "abc": [0.0, 0.999999, 0.406103], "properties": {"magmom": 0.434}, "label": "Nb", "xyz": [2.4008328891647097, 4.158357801638039, 6.4175711890995]}, {"species": [{"element": "Nb", "occu": 1}], "abc": [0.0, 1e-06, 0.593897], "properties": {"magmom": 0.434}, "label": "Nb", "xyz": [2.40083529e-06, 4.158361959999999e-06, 9.385245310900501]}, {"species": [{"element": "Nb", "occu": 1}], "abc": [0.0, 1e-06, 0.906103], "properties": {"magmom": 0.434}, "label": "Nb", "xyz": [2.40083529e-06, 4.158361959999999e-06, 14.3189794390995]}, {"species": [{"element": "Nb", "occu": 1}], "abc": [0.0, 0.999999, 0.093897], "properties": {"magmom": 0.434}, "label": "Nb", "xyz": [2.4008328891647097, 4.158357801638039, 1.4838370609005]}, {"species": [{"element": "Nb", "occu": 1}], "abc": [0.333333, 0.666666, 0.65621785], "properties": {"magmom": 0.373}, "label": "Nb", "xyz": [2.4008325324984, 1.3861196172123298, 10.370090267574525]}, {"species": [{"element": "Nb", "occu": 1}], "abc": [0.666667, 0.333333999999999, 0.34378215], "properties": {"magmom": 0.373}, "label": "Nb", "xyz": [2.400836977501598, -1.3861185672123344, 5.432726232425475]}, {"species": [{"element": "Nb", "occu": 1}], "abc": [0.666667, 0.333333999999999, 0.15621785], "properties": {"magmom": 0.373}, "label": "Nb", "xyz": [2.400836977501598, -1.3861185672123344, 2.4686820175745248]}, {"species": [{"element": "Nb", "occu": 1}], "abc": [0.333333, 0.666666, 0.84378215], "properties": {"magmom": 0.373}, "label": "Nb", "xyz": [2.4008325324984, 1.3861196172123298, 13.334134482425476]}, {"species": [{"element": "Co", "occu": 1}], "abc": [0.333333, 0.666667, 0.37630749], "properties": {"magmom": 1.69}, "label": "Co", "xyz": [2.40083493333369, 1.38612377557429, 5.946718212045585]}, {"species": [{"element": "Co", "occu": 1}], "abc": [0.666667, 0.333333, 0.62369251], "properties": {"magmom": 1.69}, "label": "Co", "xyz": [2.40083457666631, -1.3861227255742903, 9.856098287954415]}, {"species": [{"element": "Co", "occu": 1}], "abc": [0.666667, 0.333333, 0.87630749], "properties": {"magmom": 1.69}, "label": "Co", "xyz": [2.40083457666631, -1.3861227255742903, 13.848126462045585]}, {"species": [{"element": "Co", "occu": 1}], "abc": [0.333333, 0.666667, 0.12369251], "properties": {"magmom": 1.69}, "label": "Co", "xyz": [2.40083493333369, 1.38612377557429, 1.9546900379544152]}, {"species": [{"element": "Co", "occu": 1}], "abc": [0.5, 0.5, 0.5], "properties": {"magmom": 1.655}, "label": "Co", "xyz": [2.400834755, 5.249999999179522e-07, 7.90140825]}, {"species": [{"element": "Co", "occu": 1}], "abc": [0.5, 0.0, 0.5], "properties": {"magmom": 1.655}, "label": "Co", "xyz": [1.20041711, -2.079180455, 7.90140825]}, {"species": [{"element": "Co", "occu": 1}], "abc": [0.0, 0.5, 0.5], "properties": {"magmom": 1.655}, "label": "Co", "xyz": [1.200417645, 2.07918098, 7.90140825]}, {"species": [{"element": "Co", "occu": 1}], "abc": [0.5, 0.5, -0.0], "properties": {"magmom": 1.655}, "label": "Co", "xyz": [2.400834755, 5.249999999179522e-07, 0.0]}, {"species": [{"element": "Co", "occu": 1}], "abc": [0.5, 0.0, 0.0], "properties": {"magmom": 1.655}, "label": "Co", "xyz": [1.20041711, -2.079180455, 0.0]}, {"species": [{"element": "Co", "occu": 1}], "abc": [0.0, 0.5, 0.0], "properties": {"magmom": 1.655}, "label": "Co", "xyz": [1.200417645, 2.07918098, 0.0]}, {"species": [{"element": "Co", "occu": 1}], "abc": [0.16514283, 0.83485617, 0.25], "properties": {"magmom": 1.734}, "label": "Co", "xyz": [2.400832712461882, 2.7849106505605175, 3.950704125]}, {"species": [{"element": "Co", "occu": 1}], "abc": [0.16514383, 0.33028666, 0.25], "properties": {"magmom": 1.734}, "label": "Co", "xyz": [1.189446827430094, 0.6867238356397682, 3.950704125]}, {"species": [{"element": "Co", "occu": 1}], "abc": [0.66971334, 0.83485617, 0.25], "properties": {"magmom": 1.734}, "label": "Co", "xyz": [3.612222859272734, 0.6867243654377533, 3.950704125]}, {"species": [{"element": "Co", "occu": 1}], "abc": [0.83485717, 0.16514383, 0.75], "properties": {"magmom": 1.734}, "label": "Co", "xyz": [2.400836797538118, -2.784909600560518, 11.852112375]}, {"species": [{"element": "Co", "occu": 1}], "abc": [0.83485617, 0.66971334, 0.75], "properties": {"magmom": 1.734}, "label": "Co", "xyz": [3.6122226825699064, -0.6867227856397684, 11.852112375]}, {"species": [{"element": "Co", "occu": 1}], "abc": [0.33028666, 0.16514383, 0.75], "properties": {"magmom": 1.734}, "label": "Co", "xyz": [1.1894466507272659, -0.686723315437754, 11.852112375]}]}, "task_ids": null, "uncorrected_energy_per_atom": null, "energy_per_atom": -8.254207078333334, "formation_energy_per_atom": -0.131494251666667, "energy_above_hull": 0.015001669222222002, "is_stable": false, "equilibrium_reaction_energy_per_atom": null, "decomposes_to": null, "xas": null, "grain_boundaries": null, "band_gap": 0.0, "cbm": null, "vbm": null, "efermi": 5.6457567, "is_gap_direct": null, "is_metal": null, "es_source_calc_id": null, "bandstructure": null, "dos": null, "dos_energy_up": null, "dos_energy_down": null, "is_magnetic": null, "ordering": null, "total_magnetization": 29.5612454, "total_magnetization_normalized_vol": null, "total_magnetization_normalized_formula_units": null, "num_magnetic_sites": null, "num_unique_magnetic_sites": null, "types_of_magnetic_species": null, "bulk_modulus": null, "shear_modulus": null, "universal_anisotropy": null, "homogeneous_poisson": null, "e_total": null, "e_ionic": null, "e_electronic": null, "n": null, "e_ij_max": null, "weighted_surface_energy_EV_PER_ANG2": null, "weighted_surface_energy": null, "weighted_work_function": null, "surface_anisotropy": null, "shape_factor": null, "has_reconstructed": null, "possible_species": null, "has_props": null, "theoretical": null, "database_IDs": null, "fields_not_requested": ["builder_meta", "nsites", "elements", "nelements", "composition", "composition_reduced", "chemsys", "symmetry", "property_name", "deprecated", "deprecation_reasons", "last_updated", "origins", "warnings", "task_ids", "uncorrected_energy_per_atom", "equilibrium_reaction_energy_per_atom", "decomposes_to", "xas", "grain_boundaries", "cbm", "vbm", "is_gap_direct", "is_metal", "es_source_calc_id", "bandstructure", "dos", "dos_energy_up", "dos_energy_down", "is_magnetic", "ordering", "total_magnetization_normalized_vol", "total_magnetization_normalized_formula_units", "num_magnetic_sites", "num_unique_magnetic_sites", "types_of_magnetic_species", "bulk_modulus", "shear_modulus", "universal_anisotropy", "homogeneous_poisson", "e_total", "e_ionic", "e_electronic", "n", "e_ij_max", "weighted_surface_energy_EV_PER_ANG2", "weighted_surface_energy", "weighted_work_function", "surface_anisotropy", "shape_factor", "has_reconstructed", "possible_species", "has_props", "theoretical", "database_IDs"]}