{"builder_meta": null, "nsites": null, "elements": null, "nelements": null, "composition": null, "composition_reduced": null, "formula_pretty": "NbCr2", "formula_anonymous": "AB2", "chemsys": null, "volume": 83.13950557442273, "density": 7.865280939285537, "density_atomic": 13.856584262403787, "symmetry": null, "property_name": null, "material_id": "mp-548", "deprecated": null, "deprecation_reasons": null, "last_updated": null, "origins": null, "warnings": null, "structure": {"@module": "pymatgen.core.structure", "@class": "Structure", "charge": 0, "lattice": {"matrix": [[4.24265921, -1e-08, 2.449500259999999], [1.41421872, 4.00001751, 2.449500259999999], [0.0, 0.0, 4.89899951]], "pbc": [true, true, true], "a": 4.89900078546002, "b": 4.899000529908637, "c": 4.89899951, "alpha": 60.00000006690654, "beta": 60.0000017924771, "gamma": 60.000011470004104, "volume": 83.13950557442273}, "properties": {}, "sites": [{"species": [{"element": "Nb", "occu": 1}], "abc": [0.125, 0.125, 0.125], "properties": {"magmom": -0.0}, "label": "Nb", "xyz": [0.70710974125, 0.5000021875, 1.2247500037499996]}, {"species": [{"element": "Nb", "occu": 1}], "abc": [0.875, 0.875, 0.875], "properties": {"magmom": -0.0}, "label": "Nb", "xyz": [4.94976818875, 3.5000153125000004, 8.573250026249998]}, {"species": [{"element": "Cr", "occu": 1}], "abc": [0.5, 0.0, 0.5], "properties": {"magmom": 0.0}, "label": "Cr", "xyz": [2.121329605, -5e-09, 3.6742498849999996]}, {"species": [{"element": "Cr", "occu": 1}], "abc": [0.0, 0.5, 0.5], "properties": {"magmom": 0.0}, "label": "Cr", "xyz": [0.70710936, 2.000008755, 3.6742498849999996]}, {"species": [{"element": "Cr", "occu": 1}], "abc": [0.5, 0.5, 0.5], "properties": {"magmom": 0.0}, "label": "Cr", "xyz": [2.828438965, 2.00000875, 4.899000014999999]}, {"species": [{"element": "Cr", "occu": 1}], "abc": [0.5, 0.5, 0.0], "properties": {"magmom": 0.0}, "label": "Cr", "xyz": [2.828438965, 2.00000875, 2.449500259999999]}]}, "task_ids": null, "uncorrected_energy_per_atom": null, "energy_per_atom": -18.138808273333336, "formation_energy_per_atom": 0.154778203333331, "energy_above_hull": 0.154778203333332, "is_stable": false, "equilibrium_reaction_energy_per_atom": null, "decomposes_to": null, "xas": null, "grain_boundaries": null, "band_gap": 0.0, "cbm": null, "vbm": null, "efermi": 6.178668, "is_gap_direct": null, "is_metal": null, "es_source_calc_id": null, "bandstructure": null, "dos": null, "dos_energy_up": null, "dos_energy_down": null, "is_magnetic": null, "ordering": null, "total_magnetization": 7e-07, "total_magnetization_normalized_vol": null, "total_magnetization_normalized_formula_units": null, "num_magnetic_sites": null, "num_unique_magnetic_sites": null, "types_of_magnetic_species": null, "bulk_modulus": null, "shear_modulus": null, "universal_anisotropy": null, "homogeneous_poisson": null, "e_total": null, "e_ionic": null, "e_electronic": null, "n": null, "e_ij_max": null, "weighted_surface_energy_EV_PER_ANG2": null, "weighted_surface_energy": null, "weighted_work_function": null, "surface_anisotropy": null, "shape_factor": null, "has_reconstructed": null, "possible_species": null, "has_props": null, "theoretical": null, "database_IDs": null, "fields_not_requested": ["builder_meta", "nsites", "elements", "nelements", "composition", "composition_reduced", "chemsys", "symmetry", "property_name", "deprecated", "deprecation_reasons", "last_updated", "origins", "warnings", "task_ids", "uncorrected_energy_per_atom", "equilibrium_reaction_energy_per_atom", "decomposes_to", "xas", "grain_boundaries", "cbm", "vbm", "is_gap_direct", "is_metal", "es_source_calc_id", "bandstructure", "dos", "dos_energy_up", "dos_energy_down", "is_magnetic", "ordering", "total_magnetization_normalized_vol", "total_magnetization_normalized_formula_units", "num_magnetic_sites", "num_unique_magnetic_sites", "types_of_magnetic_species", "bulk_modulus", "shear_modulus", "universal_anisotropy", "homogeneous_poisson", "e_total", "e_ionic", "e_electronic", "n", "e_ij_max", "weighted_surface_energy_EV_PER_ANG2", "weighted_surface_energy", "weighted_work_function", "surface_anisotropy", "shape_factor", "has_reconstructed", "possible_species", "has_props", "theoretical", "database_IDs"]}