{"builder_meta": null, "nsites": null, "elements": null, "nelements": null, "composition": null, "composition_reduced": null, "formula_pretty": "NbF5", "formula_anonymous": "AB5", "chemsys": null, "volume": 334.0703337605872, "density": 3.7358914644972003, "density_atomic": 13.919597240024466, "symmetry": null, "property_name": null, "material_id": "mp-18687", "deprecated": null, "deprecation_reasons": null, "last_updated": null, "origins": null, "warnings": null, "structure": {"@module": "pymatgen.core.structure", "@class": "Structure", "charge": 0, "lattice": {"matrix": [[4.92798507, -0.092690399999999, -0.35253488], [-0.80134645, 7.90350849, -3.34455734], [-0.09494418, -0.04069014, 8.618759]], "pbc": [true, true, true], "a": 4.941448087556084, "b": 8.61937737803477, "c": 8.619377981321513, "alpha": 113.03569135771072, "beta": 94.7169842072517, "gamma": 94.7169906099667, "volume": 334.0703337605872}, "properties": {}, "sites": [{"species": [{"element": "Nb", "occu": 1}], "abc": [0.74193903, 0.26261476, 0.26261476], "properties": {"magmom": -0.0}, "label": "Nb", "xyz": [3.4208853140025837, 1.9961215284425347, 1.1235238162241354]}, {"species": [{"element": "Nb", "occu": 1}], "abc": [0.25806097, 0.73738524, 0.73738524], "properties": {"magmom": -0.0}, "label": "Nb", "xyz": [0.6108091259974167, 5.774006421557466, 3.7981429637758657]}, {"species": [{"element": "Nb", "occu": 1}], "abc": [-0.0, 0.20512689, 0.79487311], "properties": {"magmom": -0.0}, "label": "Nb", "xyz": [-0.23984628073404032, 1.5888786185141608, 6.164761125089619]}, {"species": [{"element": "Nb", "occu": 1}], "abc": [0.0, 0.79487311, 0.20512689], "properties": {"magmom": -0.0}, "label": "Nb", "xyz": [-0.6564443492659598, 6.27393973148584, -0.8905594650896176]}, {"species": [{"element": "F", "occu": 1}], "abc": [0.1269745, 0.16835929, 0.58761235], "properties": {"magmom": 0.0}, "label": "F", "xyz": [0.4350239481760715, 1.2949497319033432, 4.456638990826402]}, {"species": [{"element": "F", "occu": 1}], "abc": [0.8730255, 0.41238765, 0.8316407100000001], "properties": {"magmom": 0.0}, "label": "F", "xyz": [3.892831805112375, 3.14454863322135, 5.480684772466599]}, {"species": [{"element": "F", "occu": 1}], "abc": [0.8730255, 0.8316407100000001, 0.41238765], "properties": {"magmom": 0.0}, "label": "F", "xyz": [3.5966704918239287, 6.475178218096658, 0.465027789173599]}, {"species": [{"element": "F", "occu": 1}], "abc": [0.1269745, 0.58761235, 0.16835929], "properties": {"magmom": 0.0}, "label": "F", "xyz": [0.1388626348876252, 4.625579316778651, -0.559017992466599]}, {"species": [{"element": "F", "occu": 1}], "abc": [0.57727255, 0.87242688, 0.87242688], "properties": {"magmom": -0.0}, "label": "F", "xyz": [2.0628424698166943, 6.806226457528729, 4.397846589583077]}, {"species": [{"element": "F", "occu": 1}], "abc": [0.42272745, 0.12757312, 0.12757312], "properties": {"magmom": -0.0}, "label": "F", "xyz": [1.9688519701833058, 0.9639014924712724, 0.5238201904169233]}, {"species": [{"element": "F", "occu": 1}], "abc": [0.88469487, 0.6531593, 0.6531593], "properties": {"magmom": -0.0}, "label": "F", "xyz": [3.7743425503782326, 5.053670208134908, 3.133008064472372]}, {"species": [{"element": "F", "occu": 1}], "abc": [0.11530513, 0.3468407, 0.3468407], "properties": {"magmom": -0.0}, "label": "F", "xyz": [0.2573518896217681, 2.716457741865093, 1.7886587155276277]}, {"species": [{"element": "F", "occu": 1}], "abc": [0.35375827, 0.52938254, 0.72516334], "properties": {"magmom": 0.0}, "label": "F", "xyz": [1.2502466151456846, 4.12168240597069, 4.35474567400676]}, {"species": [{"element": "F", "occu": 1}], "abc": [0.64624173, 0.27483666, 0.47061746], "properties": {"magmom": 0.0}, "label": "F", "xyz": [2.919747826396731, 2.093123980889008, 2.909108749691513]}, {"species": [{"element": "F", "occu": 1}], "abc": [0.64624173, 0.47061746, 0.27483666], "properties": {"magmom": 0.0}, "label": "F", "xyz": [2.7814478248543146, 3.6484455440293115, 0.5669211059932413]}, {"species": [{"element": "F", "occu": 1}], "abc": [0.35375827, 0.72516334, 0.52938254], "properties": {"magmom": 0.0}, "label": "F", "xyz": [1.1119466136032685, 5.677003969110994, 2.0125580303084867]}, {"species": [{"element": "F", "occu": 1}], "abc": [0.12014003000000001, 0.78019414, 0.97285931], "properties": {"magmom": 0.0}, "label": "F", "xyz": [-0.1255248596937667, 6.115549400377334, 5.733082345175057]}, {"species": [{"element": "F", "occu": 1}], "abc": [0.87985997, 0.027140690000000002, 0.21980586], "properties": {"magmom": 0.0}, "label": "F", "xyz": [4.293318413131702, 0.12400817005995059, 1.4934988112348218]}, {"species": [{"element": "F", "occu": 1}], "abc": [0.87985997, 0.21980586, 0.027140690000000002], "properties": {"magmom": 0.0}, "label": "F", "xyz": [4.157219299693767, 1.6545785496226677, -0.8114155651750559]}, {"species": [{"element": "F", "occu": 1}], "abc": [0.12014003000000001, 0.97285931, 0.78019414], "properties": {"magmom": 0.0}, "label": "F", "xyz": [-0.2616239731317026, 7.646119779940051, 3.428167968765178]}, {"species": [{"element": "F", "occu": 1}], "abc": [0.65664725, 0.70104954, 0.07315948], "properties": {"magmom": -0.0}, "label": "F", "xyz": [2.667218217265598, 5.4769092255556675, -1.945647517506384]}, {"species": [{"element": "F", "occu": 1}], "abc": [0.34335275, 0.9268405200000001, 0.29895046000000003], "properties": {"magmom": -0.0}, "label": "F", "xyz": [0.9209332590399656, 7.281302078886951, -0.6443331170151967]}, {"species": [{"element": "F", "occu": 1}], "abc": [0.34335275, 0.29895046000000003, 0.9268405200000001], "properties": {"magmom": -0.0}, "label": "F", "xyz": [1.3644762227344016, 2.293218724444333, 6.867314297506384]}, {"species": [{"element": "F", "occu": 1}], "abc": [0.65664725, 0.07315948, 0.70104954], "properties": {"magmom": -0.0}, "label": "F", "xyz": [3.1107611809600346, 0.48882587111305026, 5.565999897015197]}]}, "task_ids": null, "uncorrected_energy_per_atom": null, "energy_per_atom": -9.8862623625, "formation_energy_per_atom": -3.158893295833332, "energy_above_hull": 0.0, "is_stable": true, "equilibrium_reaction_energy_per_atom": null, "decomposes_to": null, "xas": null, "grain_boundaries": null, "band_gap": 4.5694, "cbm": null, "vbm": null, "efermi": -4.32416655, "is_gap_direct": null, "is_metal": null, "es_source_calc_id": null, "bandstructure": null, "dos": null, "dos_energy_up": null, "dos_energy_down": null, "is_magnetic": null, "ordering": null, "total_magnetization": 0.0, "total_magnetization_normalized_vol": null, "total_magnetization_normalized_formula_units": null, "num_magnetic_sites": null, "num_unique_magnetic_sites": null, "types_of_magnetic_species": null, "bulk_modulus": null, "shear_modulus": null, "universal_anisotropy": null, "homogeneous_poisson": null, "e_total": null, "e_ionic": null, "e_electronic": null, "n": null, "e_ij_max": null, "weighted_surface_energy_EV_PER_ANG2": null, "weighted_surface_energy": null, "weighted_work_function": null, "surface_anisotropy": null, "shape_factor": null, "has_reconstructed": null, "possible_species": null, "has_props": null, "theoretical": null, "database_IDs": null, "fields_not_requested": ["builder_meta", "nsites", "elements", "nelements", "composition", "composition_reduced", "chemsys", "symmetry", "property_name", "deprecated", "deprecation_reasons", "last_updated", "origins", "warnings", "task_ids", "uncorrected_energy_per_atom", "equilibrium_reaction_energy_per_atom", "decomposes_to", "xas", "grain_boundaries", "cbm", "vbm", "is_gap_direct", "is_metal", "es_source_calc_id", "bandstructure", "dos", "dos_energy_up", "dos_energy_down", "is_magnetic", "ordering", "total_magnetization_normalized_vol", "total_magnetization_normalized_formula_units", "num_magnetic_sites", "num_unique_magnetic_sites", "types_of_magnetic_species", "bulk_modulus", "shear_modulus", "universal_anisotropy", "homogeneous_poisson", "e_total", "e_ionic", "e_electronic", "n", "e_ij_max", "weighted_surface_energy_EV_PER_ANG2", "weighted_surface_energy", "weighted_work_function", "surface_anisotropy", "shape_factor", "has_reconstructed", "possible_species", "has_props", "theoretical", "database_IDs"]}