{"builder_meta": null, "nsites": null, "elements": null, "nelements": null, "composition": null, "composition_reduced": null, "formula_pretty": "NbFe2", "formula_anonymous": "AB2", "chemsys": null, "volume": 82.48109720631143, "density": 8.238015578894167, "density_atomic": 13.74684953438524, "symmetry": null, "property_name": null, "material_id": "mp-1077790", "deprecated": null, "deprecation_reasons": null, "last_updated": null, "origins": null, "warnings": null, "structure": {"@module": "pymatgen.core.structure", "@class": "Structure", "charge": 0, "lattice": {"matrix": [[-3.4549541, -3.45495407, 7.68e-06], [-3.45494754, 1.11e-06, -3.4549475], [-5.5e-06, -3.45493986, -3.45493986]], "pbc": [true, true, true], "a": 4.886042924389363, "b": 4.886033640071417, "c": 4.886022807198498, "alpha": 59.99995815890253, "beta": 60.0000210160453, "gamma": 60.00008382547216, "volume": 82.48109720631143}, "properties": {}, "sites": [{"species": [{"element": "Nb", "occu": 1}], "abc": [0.749999, 0.75, 0.75], "properties": {"magmom": -0.28800000000000003}, "label": "Nb", "xyz": [-5.1824269000459005, -5.18241616004593, -5.18240976000768]}, {"species": [{"element": "Nb", "occu": 1}], "abc": [1e-06, -0.0, 0.0], "properties": {"magmom": -0.28800000000000003}, "label": "Nb", "xyz": [-3.4549541e-06, -3.4549540699999996e-06, 7.68e-12]}, {"species": [{"element": "Fe", "occu": 1}], "abc": [0.875, 0.375, 0.375], "properties": {"magmom": 2.5060000000000002}, "label": "Fe", "xyz": [-4.3186922275, -4.3186868425, -2.59120104]}, {"species": [{"element": "Fe", "occu": 1}], "abc": [0.375, 0.875, 0.375], "properties": {"magmom": 2.5060000000000002}, "label": "Fe", "xyz": [-4.3186889475, -2.5912092525, -4.31867863]}, {"species": [{"element": "Fe", "occu": 1}], "abc": [0.375, 0.375, 0.875], "properties": {"magmom": 2.5060000000000002}, "label": "Fe", "xyz": [-2.5912179275000002, -4.3186797375, -4.31867481]}, {"species": [{"element": "Fe", "occu": 1}], "abc": [0.375, 0.375, 0.375], "properties": {"magmom": 2.5060000000000002}, "label": "Fe", "xyz": [-2.5912151775000005, -2.5912098075000003, -2.5912048800000003]}]}, "task_ids": null, "uncorrected_energy_per_atom": null, "energy_per_atom": -9.148576466666666, "formation_energy_per_atom": -0.134793979999998, "energy_above_hull": 0.0, "is_stable": true, "equilibrium_reaction_energy_per_atom": null, "decomposes_to": null, "xas": null, "grain_boundaries": null, "band_gap": 0.0, "cbm": null, "vbm": null, "efermi": 5.56834865, "is_gap_direct": null, "is_metal": null, "es_source_calc_id": null, "bandstructure": null, "dos": null, "dos_energy_up": null, "dos_energy_down": null, "is_magnetic": null, "ordering": null, "total_magnetization": 8.9966733, "total_magnetization_normalized_vol": null, "total_magnetization_normalized_formula_units": null, "num_magnetic_sites": null, "num_unique_magnetic_sites": null, "types_of_magnetic_species": null, "bulk_modulus": null, "shear_modulus": null, "universal_anisotropy": null, "homogeneous_poisson": null, "e_total": null, "e_ionic": null, "e_electronic": null, "n": null, "e_ij_max": null, "weighted_surface_energy_EV_PER_ANG2": null, "weighted_surface_energy": null, "weighted_work_function": null, "surface_anisotropy": null, "shape_factor": null, "has_reconstructed": null, "possible_species": null, "has_props": null, "theoretical": null, "database_IDs": null, "fields_not_requested": ["builder_meta", "nsites", "elements", "nelements", "composition", "composition_reduced", "chemsys", "symmetry", "property_name", "deprecated", "deprecation_reasons", "last_updated", "origins", "warnings", "task_ids", "uncorrected_energy_per_atom", "equilibrium_reaction_energy_per_atom", "decomposes_to", "xas", "grain_boundaries", "cbm", "vbm", "is_gap_direct", "is_metal", "es_source_calc_id", "bandstructure", "dos", "dos_energy_up", "dos_energy_down", "is_magnetic", "ordering", "total_magnetization_normalized_vol", "total_magnetization_normalized_formula_units", "num_magnetic_sites", "num_unique_magnetic_sites", "types_of_magnetic_species", "bulk_modulus", "shear_modulus", "universal_anisotropy", "homogeneous_poisson", "e_total", "e_ionic", "e_electronic", "n", "e_ij_max", "weighted_surface_energy_EV_PER_ANG2", "weighted_surface_energy", "weighted_work_function", "surface_anisotropy", "shape_factor", "has_reconstructed", "possible_species", "has_props", "theoretical", "database_IDs"]}