{"builder_meta": null, "nsites": null, "elements": null, "nelements": null, "composition": null, "composition_reduced": null, "formula_pretty": "NbFe", "formula_anonymous": "AB", "chemsys": null, "volume": 376.52629258164734, "density": 8.52821508981952, "density_atomic": 14.481780483909514, "symmetry": null, "property_name": null, "material_id": "mp-1221111", "deprecated": null, "deprecation_reasons": null, "last_updated": null, "origins": null, "warnings": null, "structure": {"@module": "pymatgen.core.structure", "@class": "Structure", "charge": 0, "lattice": {"matrix": [[17.971526, -2.463156, 0.0], [17.971526, 2.463156, 0.0], [17.633929, 0.0, 4.252932]], "pbc": [true, true, true], "a": 18.139539251287832, "b": 18.139539251287832, "c": 18.139539205108406, "alpha": 15.608528471959247, "beta": 15.608528471959247, "gamma": 15.608531723384344, "volume": 376.52629258164734}, "properties": {}, "sites": [{"species": [{"element": "Nb", "occu": 1}], "abc": [0.825565, 0.825565, 0.825565], "properties": {"magmom": -0.035}, "label": "Nb", "xyz": [44.231280319265, 0.0, 3.5110718065800004]}, {"species": [{"element": "Nb", "occu": 1}], "abc": [0.326148999999999, 0.326148999999999, 0.326148999999999], "properties": {"magmom": -0.265}, "label": "Nb", "xyz": [17.474078776168945, 0.0, 1.387089518867996]}, {"species": [{"element": "Nb", "occu": 1}], "abc": [0.673851, 0.673851, 0.673851], "properties": {"magmom": -0.265}, "label": "Nb", "xyz": [36.102902223830995, 0.0, 2.8658424811320002]}, {"species": [{"element": "Nb", "occu": 1}], "abc": [0.174434999999999, 0.174434999999999, 0.174434999999999], "properties": {"magmom": -0.035}, "label": "Nb", "xyz": [9.345700680734947, 0.0, 0.7418601934199959]}, {"species": [{"element": "Nb", "occu": 1}], "abc": [0.773544999999999, 0.773544999999999, 0.773544999999999], "properties": {"magmom": -0.201}, "label": "Nb", "xyz": [41.444205767644945, 0.0, 3.2898342839399963]}, {"species": [{"element": "Nb", "occu": 1}], "abc": [0.275493999999999, 0.275493999999999, 0.275493999999999], "properties": {"magmom": -0.242}, "label": "Nb", "xyz": [14.760136803613948, 0.0, 1.171657248407996]}, {"species": [{"element": "Nb", "occu": 1}], "abc": [0.724506, 0.724506, 0.724506], "properties": {"magmom": -0.242}, "label": "Nb", "xyz": [38.816844196386, 0.0, 3.0812747515920003]}, {"species": [{"element": "Nb", "occu": 1}], "abc": [0.226455, 0.226455, 0.226455], "properties": {"magmom": -0.201}, "label": "Nb", "xyz": [12.132775232355, 0.0, 0.96309771606]}, {"species": [{"element": "Nb", "occu": 1}], "abc": [0.415545999999999, 0.415545999999999, 0.415545999999999], "properties": {"magmom": -0.109}, "label": "Nb", "xyz": [22.26370014662595, 0.0, 1.767288880871996]}, {"species": [{"element": "Nb", "occu": 1}], "abc": [0.917694, 0.917694, 0.917694], "properties": {"magmom": -0.17400000000000002}, "label": "Nb", "xyz": [49.167274001814, 0.0, 3.9028901788080006]}, {"species": [{"element": "Nb", "occu": 1}], "abc": [0.082305999999999, 0.082305999999999, 0.082305999999999], "properties": {"magmom": -0.17400000000000002}, "label": "Nb", "xyz": [4.409706998185947, 0.0, 0.3500418211919958]}, {"species": [{"element": "Nb", "occu": 1}], "abc": [0.584454, 0.584454, 0.584454], "properties": {"magmom": -0.109}, "label": "Nb", "xyz": [31.313280853374003, 0.0, 2.4856431191280004]}, {"species": [{"element": "Nb", "occu": 1}], "abc": [0.5, 0.5, 0.5], "properties": {"magmom": -0.257}, "label": "Nb", "xyz": [26.7884905, 0.0, 2.126466]}, {"species": [{"element": "Fe", "occu": 1}], "abc": [0.203568, 0.203568, 0.703419], "properties": {"magmom": 1.42}, "label": "Fe", "xyz": [19.720895912787, 0.0, 2.9915931745080004]}, {"species": [{"element": "Fe", "occu": 1}], "abc": [0.709998, 0.709998, 0.198479], "properties": {"magmom": 1.365}, "label": "Fe", "xyz": [29.019459627887002, 0.0, 0.844117690428]}, {"species": [{"element": "Fe", "occu": 1}], "abc": [0.703419, 0.203568, 0.203568], "properties": {"magmom": 1.393}, "label": "Fe", "xyz": [19.889644110834002, -1.2312109897560002, 0.8657608613760001]}, {"species": [{"element": "Fe", "occu": 1}], "abc": [0.198479, 0.709998, 0.709998], "properties": {"magmom": 1.322}, "label": "Fe", "xyz": [28.846772348044, 1.2599510939640002, 3.0195732141360003]}, {"species": [{"element": "Fe", "occu": 1}], "abc": [0.203568, 0.703419, 0.203568], "properties": {"magmom": 1.5230000000000001}, "label": "Fe", "xyz": [19.889644110834002, 1.2312109897560002, 0.8657608613760001]}, {"species": [{"element": "Fe", "occu": 1}], "abc": [0.709998, 0.198479, 0.709998], "properties": {"magmom": 1.504}, "label": "Fe", "xyz": [28.846772348044, -1.2599510939640002, 3.0195732141360003]}, {"species": [{"element": "Fe", "occu": 1}], "abc": [0.290002, 0.290002, 0.801520999999999], "properties": {"magmom": 1.365}, "label": "Fe", "xyz": [24.55752137211298, 0.0, 3.408814309571996]}, {"species": [{"element": "Fe", "occu": 1}], "abc": [0.796431999999999, 0.796431999999999, 0.296581], "properties": {"magmom": 1.42}, "label": "Fe", "xyz": [33.85608508721296, 0.0, 1.261338825492]}, {"species": [{"element": "Fe", "occu": 1}], "abc": [0.801520999999999, 0.290002, 0.290002], "properties": {"magmom": 1.322}, "label": "Fe", "xyz": [24.730208651955984, -1.2599510939639977, 1.233358785864]}, {"species": [{"element": "Fe", "occu": 1}], "abc": [0.296581, 0.796431999999999, 0.796431999999999], "properties": {"magmom": 1.393}, "label": "Fe", "xyz": [33.68733688916596, 1.231210989755998, 3.387171138623996]}, {"species": [{"element": "Fe", "occu": 1}], "abc": [0.290002, 0.801520999999999, 0.290002], "properties": {"magmom": 1.504}, "label": "Fe", "xyz": [24.730208651955984, 1.2599510939639977, 1.233358785864]}, {"species": [{"element": "Fe", "occu": 1}], "abc": [0.796431999999999, 0.296581, 0.796431999999999], "properties": {"magmom": 1.5230000000000001}, "label": "Fe", "xyz": [33.68733688916596, -1.231210989755998, 3.387171138623996]}, {"species": [{"element": "Fe", "occu": 1}], "abc": [0.0, 0.0, 0.0], "properties": {"magmom": 1.549}, "label": "Fe", "xyz": [0.0, 0.0, 0.0]}]}, "task_ids": null, "uncorrected_energy_per_atom": null, "energy_per_atom": -9.393865843076922, "formation_energy_per_atom": -0.10820271807692201, "energy_above_hull": 0.0, "is_stable": true, "equilibrium_reaction_energy_per_atom": null, "decomposes_to": null, "xas": null, "grain_boundaries": null, "band_gap": 0.0, "cbm": null, "vbm": null, "efermi": 5.39918606, "is_gap_direct": null, "is_metal": null, "es_source_calc_id": null, "bandstructure": null, "dos": null, "dos_energy_up": null, "dos_energy_down": null, "is_magnetic": null, "ordering": null, "total_magnetization": 16.015133, "total_magnetization_normalized_vol": null, "total_magnetization_normalized_formula_units": null, "num_magnetic_sites": null, "num_unique_magnetic_sites": null, "types_of_magnetic_species": null, "bulk_modulus": null, "shear_modulus": null, "universal_anisotropy": null, "homogeneous_poisson": null, "e_total": null, "e_ionic": null, "e_electronic": null, "n": null, "e_ij_max": null, "weighted_surface_energy_EV_PER_ANG2": null, "weighted_surface_energy": null, "weighted_work_function": null, "surface_anisotropy": null, "shape_factor": null, "has_reconstructed": null, "possible_species": null, "has_props": null, "theoretical": null, "database_IDs": null, "fields_not_requested": ["builder_meta", "nsites", "elements", "nelements", "composition", "composition_reduced", "chemsys", "symmetry", "property_name", "deprecated", "deprecation_reasons", "last_updated", "origins", "warnings", "task_ids", "uncorrected_energy_per_atom", "equilibrium_reaction_energy_per_atom", "decomposes_to", "xas", "grain_boundaries", "cbm", "vbm", "is_gap_direct", "is_metal", "es_source_calc_id", "bandstructure", "dos", "dos_energy_up", "dos_energy_down", "is_magnetic", "ordering", "total_magnetization_normalized_vol", "total_magnetization_normalized_formula_units", "num_magnetic_sites", "num_unique_magnetic_sites", "types_of_magnetic_species", "bulk_modulus", "shear_modulus", "universal_anisotropy", "homogeneous_poisson", "e_total", "e_ionic", "e_electronic", "n", "e_ij_max", "weighted_surface_energy_EV_PER_ANG2", "weighted_surface_energy", "weighted_work_function", "surface_anisotropy", "shape_factor", "has_reconstructed", "possible_species", "has_props", "theoretical", "database_IDs"]}