{
  "builder_meta": null,
  "nsites": null,
  "elements": null,
  "nelements": null,
  "composition": null,
  "composition_reduced": null,
  "formula_pretty": "NbGe2",
  "formula_anonymous": "AB2",
  "chemsys": null,
  "volume": 146.23141575498374,
  "density": 8.1142165056667,
  "density_atomic": 16.247935083887082,
  "symmetry": null,
  "property_name": null,
  "material_id": "mp-363",
  "deprecated": null,
  "deprecation_reasons": null,
  "last_updated": null,
  "origins": null,
  "warnings": null,
  "structure": {
    "@module": "pymatgen.core.structure",
    "@class": "Structure",
    "charge": 0,
    "lattice": {
      "matrix": [
        [4.98885442, -0.0, -0.0],
        [-2.49442772, 4.32047396, 0.0],
        [-0.0, 0.0, 6.78435339]
      ],
      "pbc": [true, true, true],
      "a": 4.98885442,
      "b": 4.988854065749216,
      "c": 6.78435339,
      "alpha": 90.0,
      "beta": 90.0,
      "gamma": 120.0000091122834,
      "volume": 146.23141575498374
    },
    "properties": {},
    "sites": [
      {
        "species": [{ "element": "Nb", "occu": 1 }],
        "abc": [-0.0, 0.5, 0.166666999999999],
        "properties": { "magmom": -0.0 },
        "label": "Nb",
        "xyz": [-1.24721386, 2.16023698, 1.1307278264511231]
      },
      {
        "species": [{ "element": "Nb", "occu": 1 }],
        "abc": [0.5, 0.5, 0.833333],
        "properties": { "magmom": -0.0 },
        "label": "Nb",
        "xyz": [1.24721335, 2.16023698, 5.65362556354887]
      },
      {
        "species": [{ "element": "Nb", "occu": 1 }],
        "abc": [0.5, 0.0, 0.5],
        "properties": { "magmom": -0.0 },
        "label": "Nb",
        "xyz": [2.49442721, 0.0, 3.392176695]
      },
      {
        "species": [{ "element": "Ge", "occu": 1 }],
        "abc": [0.83684406, 0.67368511, 0.5],
        "properties": { "magmom": -0.0 },
        "label": "Ge",
        "xyz": [2.4944343746464965, 2.9106389749947357, 3.392176695]
      },
      {
        "species": [{ "element": "Ge", "occu": 1 }],
        "abc": [0.16315594, 0.83684406, 0.833333],
        "properties": { "magmom": -0.0 },
        "label": "Ge",
        "xyz": [-1.2734857881630886, 3.6155629698106777, 5.65362556354887]
      },
      {
        "species": [{ "element": "Ge", "occu": 1 }],
        "abc": [0.67368511, 0.83684406, 0.166666999999999],
        "properties": { "magmom": -0.0 },
        "label": "Ge",
        "xyz": [1.2734699181303428, 3.6155629698106777, 1.1307278264511231]
      },
      {
        "species": [{ "element": "Ge", "occu": 1 }],
        "abc": [0.16315594, 0.32631489, 0.5],
        "properties": { "magmom": -0.0 },
        "label": "Ge",
        "xyz": [-7.674646496091952e-6, 1.4098349850052645, 3.392176695]
      },
      {
        "species": [{ "element": "Ge", "occu": 1 }],
        "abc": [0.83684406, 0.16315594, 0.833333],
        "properties": { "magmom": -0.0 },
        "label": "Ge",
        "xyz": [3.767912488163089, 0.7049109901893225, 5.65362556354887]
      },
      {
        "species": [{ "element": "Ge", "occu": 1 }],
        "abc": [0.32631489, 0.16315594, 0.166666999999999],
        "properties": { "magmom": -0.0 },
        "label": "Ge",
        "xyz": [1.2209567818696572, 0.7049109901893225, 1.1307278264511231]
      }
    ]
  },
  "task_ids": null,
  "uncorrected_energy_per_atom": null,
  "energy_per_atom": -6.792479485555557,
  "formation_energy_per_atom": -0.34335923555555703,
  "energy_above_hull": 0.0,
  "is_stable": true,
  "equilibrium_reaction_energy_per_atom": null,
  "decomposes_to": null,
  "xas": null,
  "grain_boundaries": null,
  "band_gap": 0.0,
  "cbm": null,
  "vbm": null,
  "efermi": 7.57918835,
  "is_gap_direct": null,
  "is_metal": null,
  "es_source_calc_id": null,
  "bandstructure": null,
  "dos": null,
  "dos_energy_up": null,
  "dos_energy_down": null,
  "is_magnetic": null,
  "ordering": null,
  "total_magnetization": 0.0,
  "total_magnetization_normalized_vol": null,
  "total_magnetization_normalized_formula_units": null,
  "num_magnetic_sites": null,
  "num_unique_magnetic_sites": null,
  "types_of_magnetic_species": null,
  "bulk_modulus": null,
  "shear_modulus": null,
  "universal_anisotropy": null,
  "homogeneous_poisson": null,
  "e_total": null,
  "e_ionic": null,
  "e_electronic": null,
  "n": null,
  "e_ij_max": null,
  "weighted_surface_energy_EV_PER_ANG2": null,
  "weighted_surface_energy": null,
  "weighted_work_function": null,
  "surface_anisotropy": null,
  "shape_factor": null,
  "has_reconstructed": null,
  "possible_species": null,
  "has_props": null,
  "theoretical": null,
  "database_IDs": null,
  "fields_not_requested": [
    "builder_meta",
    "nsites",
    "elements",
    "nelements",
    "composition",
    "composition_reduced",
    "chemsys",
    "symmetry",
    "property_name",
    "deprecated",
    "deprecation_reasons",
    "last_updated",
    "origins",
    "warnings",
    "task_ids",
    "uncorrected_energy_per_atom",
    "equilibrium_reaction_energy_per_atom",
    "decomposes_to",
    "xas",
    "grain_boundaries",
    "cbm",
    "vbm",
    "is_gap_direct",
    "is_metal",
    "es_source_calc_id",
    "bandstructure",
    "dos",
    "dos_energy_up",
    "dos_energy_down",
    "is_magnetic",
    "ordering",
    "total_magnetization_normalized_vol",
    "total_magnetization_normalized_formula_units",
    "num_magnetic_sites",
    "num_unique_magnetic_sites",
    "types_of_magnetic_species",
    "bulk_modulus",
    "shear_modulus",
    "universal_anisotropy",
    "homogeneous_poisson",
    "e_total",
    "e_ionic",
    "e_electronic",
    "n",
    "e_ij_max",
    "weighted_surface_energy_EV_PER_ANG2",
    "weighted_surface_energy",
    "weighted_work_function",
    "surface_anisotropy",
    "shape_factor",
    "has_reconstructed",
    "possible_species",
    "has_props",
    "theoretical",
    "database_IDs"
  ]
}
