{
  "builder_meta": null,
  "nsites": null,
  "elements": null,
  "nelements": null,
  "composition": null,
  "composition_reduced": null,
  "formula_pretty": "NbI3",
  "formula_anonymous": "AB3",
  "chemsys": null,
  "volume": 317.970361966021,
  "density": 4.946776543242299,
  "density_atomic": 39.74629524575263,
  "symmetry": null,
  "property_name": null,
  "material_id": "mp-570722",
  "deprecated": null,
  "deprecation_reasons": null,
  "last_updated": null,
  "origins": null,
  "warnings": null,
  "structure": {
    "@module": "pymatgen.core.structure",
    "@class": "Structure",
    "charge": 0,
    "lattice": {
      "matrix": [
        [7.41641792, 0.0045131, 0.01377966],
        [-3.7042392, 6.40770631, -0.04081453],
        [0.01238115, -0.03308971, 6.68882705]
      ],
      "pbc": [true, true, true],
      "a": 7.416432094423737,
      "b": 7.401469721068214,
      "c": 6.688920355826859,
      "alpha": 90.61441829813108,
      "beta": 89.7876645390774,
      "gamma": 119.99708450790149,
      "volume": 317.97036196602096
    },
    "properties": {},
    "sites": [
      {
        "species": [{ "element": "Nb", "occu": 1 }],
        "abc": [-0.0, -0.0, 0.0],
        "properties": { "magmom": 1.373 },
        "label": "Nb",
        "xyz": [0.0, 0.0, 0.0]
      },
      {
        "species": [{ "element": "Nb", "occu": 1 }],
        "abc": [-0.0, -0.0, 0.5],
        "properties": { "magmom": 1.134 },
        "label": "Nb",
        "xyz": [0.006190575, -0.016544855, 3.344413525]
      },
      {
        "species": [{ "element": "I", "occu": 1 }],
        "abc": [0.691083999999999, 0.0019468600000000001, 0.74777972],
        "properties": { "magmom": -0.015 },
        "label": "I",
        "xyz": [5.127414499576639, -0.009149975771594607, 5.011212660952991]
      },
      {
        "species": [{ "element": "I", "occu": 1 }],
        "abc": [-0.00010854, 0.31124852000000003, 0.24924458],
        "properties": { "magmom": -0.011 },
        "label": "I",
        "xyz": [-1.150658012195354, 1.9861411848590156, 1.654448931068597]
      },
      {
        "species": [{ "element": "I", "occu": 1 }],
        "abc": [0.308915999999999, -0.0019468600000000001, 0.25222028],
        "properties": { "magmom": -0.015 },
        "label": "I",
        "xyz": [2.301384570423347, -0.019426634228405407, 1.6913940490470099]
      },
      {
        "species": [{ "element": "I", "occu": 1 }],
        "abc": [0.00010854, 0.68875048, 0.7507554200000001],
        "properties": { "magmom": -0.011 },
        "label": "I",
        "xyz": [-2.5411963335654466, 4.388469007434674, 4.993563629745934]
      },
      {
        "species": [{ "element": "I", "occu": 1 }],
        "abc": [0.68997199, 0.6885462800000001, 0.25120663],
        "properties": { "magmom": -0.015 },
        "label": "I",
        "xyz": [2.5696907365109087, 4.406803901134319, 1.6616825885136164]
      },
      {
        "species": [{ "element": "I", "occu": 1 }],
        "abc": [0.31002801, 0.31145372, 0.74879337],
        "properties": { "magmom": -0.015 },
        "label": "I",
        "xyz": [1.1548691334890908, 1.9723257988656815, 5.000109591486384]
      }
    ]
  },
  "task_ids": null,
  "uncorrected_energy_per_atom": null,
  "energy_per_atom": -4.410235293750002,
  "formation_energy_per_atom": -0.741899572500002,
  "energy_above_hull": 0.046282110468752004,
  "is_stable": false,
  "equilibrium_reaction_energy_per_atom": null,
  "decomposes_to": null,
  "xas": null,
  "grain_boundaries": null,
  "band_gap": 0.0,
  "cbm": null,
  "vbm": null,
  "efermi": 2.25587284,
  "is_gap_direct": null,
  "is_metal": null,
  "es_source_calc_id": null,
  "bandstructure": null,
  "dos": null,
  "dos_energy_up": null,
  "dos_energy_down": null,
  "is_magnetic": null,
  "ordering": null,
  "total_magnetization": 2.8000584,
  "total_magnetization_normalized_vol": null,
  "total_magnetization_normalized_formula_units": null,
  "num_magnetic_sites": null,
  "num_unique_magnetic_sites": null,
  "types_of_magnetic_species": null,
  "bulk_modulus": null,
  "shear_modulus": null,
  "universal_anisotropy": null,
  "homogeneous_poisson": null,
  "e_total": null,
  "e_ionic": null,
  "e_electronic": null,
  "n": null,
  "e_ij_max": null,
  "weighted_surface_energy_EV_PER_ANG2": null,
  "weighted_surface_energy": null,
  "weighted_work_function": null,
  "surface_anisotropy": null,
  "shape_factor": null,
  "has_reconstructed": null,
  "possible_species": null,
  "has_props": null,
  "theoretical": null,
  "database_IDs": null,
  "fields_not_requested": [
    "builder_meta",
    "nsites",
    "elements",
    "nelements",
    "composition",
    "composition_reduced",
    "chemsys",
    "symmetry",
    "property_name",
    "deprecated",
    "deprecation_reasons",
    "last_updated",
    "origins",
    "warnings",
    "task_ids",
    "uncorrected_energy_per_atom",
    "equilibrium_reaction_energy_per_atom",
    "decomposes_to",
    "xas",
    "grain_boundaries",
    "cbm",
    "vbm",
    "is_gap_direct",
    "is_metal",
    "es_source_calc_id",
    "bandstructure",
    "dos",
    "dos_energy_up",
    "dos_energy_down",
    "is_magnetic",
    "ordering",
    "total_magnetization_normalized_vol",
    "total_magnetization_normalized_formula_units",
    "num_magnetic_sites",
    "num_unique_magnetic_sites",
    "types_of_magnetic_species",
    "bulk_modulus",
    "shear_modulus",
    "universal_anisotropy",
    "homogeneous_poisson",
    "e_total",
    "e_ionic",
    "e_electronic",
    "n",
    "e_ij_max",
    "weighted_surface_energy_EV_PER_ANG2",
    "weighted_surface_energy",
    "weighted_work_function",
    "surface_anisotropy",
    "shape_factor",
    "has_reconstructed",
    "possible_species",
    "has_props",
    "theoretical",
    "database_IDs"
  ]
}
