{
  "builder_meta": null,
  "nsites": null,
  "elements": null,
  "nelements": null,
  "composition": null,
  "composition_reduced": null,
  "formula_pretty": "NbI4",
  "formula_anonymous": "AB4",
  "chemsys": null,
  "volume": 776.7787442897354,
  "density": 5.135022045861266,
  "density_atomic": 38.83893721448677,
  "symmetry": null,
  "property_name": null,
  "material_id": "mp-570044",
  "deprecated": null,
  "deprecation_reasons": null,
  "last_updated": null,
  "origins": null,
  "warnings": null,
  "structure": {
    "@module": "pymatgen.core.structure",
    "@class": "Structure",
    "charge": 0,
    "lattice": {
      "matrix": [
        [7.90334925, -0.07117733, 0.0],
        [-3.98887863, 6.8232578, -0.0],
        [-0.0, 0.0, 14.48061254]
      ],
      "pbc": [true, true, true],
      "a": 7.903669753967551,
      "b": 7.903670016525963,
      "c": 14.48061254,
      "alpha": 90.0,
      "beta": 90.0,
      "gamma": 120.82655969357349,
      "volume": 776.7787442897354
    },
    "properties": {},
    "sites": [
      {
        "species": [{ "element": "Nb", "occu": 1 }],
        "abc": [0.66354839, 0.91125701, 0.37709173],
        "properties": { "magmom": -0.0 },
        "label": "Nb",
        "xyz": [1.609361056818511, 6.1705118985611795, 5.460519234168294]
      },
      {
        "species": [{ "element": "Nb", "occu": 1 }],
        "abc": [0.33645161, 0.08874299000000001, 0.8770917300000001],
        "properties": { "magmom": -0.0 },
        "label": "Nb",
        "xyz": [2.305109563181489, 0.5815685714388208, 12.700825504168295]
      },
      {
        "species": [{ "element": "Nb", "occu": 1 }],
        "abc": [0.08874299000000001, 0.33645161, 0.37709173],
        "properties": { "magmom": -0.0 },
        "label": "Nb",
        "xyz": [-0.6406977936988366, 2.289379583170642, 5.460519234168294]
      },
      {
        "species": [{ "element": "Nb", "occu": 1 }],
        "abc": [0.91125701, 0.66354839, 0.8770917300000001],
        "properties": { "magmom": -0.0 },
        "label": "Nb",
        "xyz": [4.555168413698837, 4.462700886829358, 12.700825504168295]
      },
      {
        "species": [{ "element": "I", "occu": 1 }],
        "abc": [0.25867722, 0.23217854000000002, 0.03179723],
        "properties": { "magmom": 0.0 },
        "label": "I",
        "xyz": [1.1182843961284843, 1.5658020801961896, 0.4604433674752642]
      },
      {
        "species": [{ "element": "I", "occu": 1 }],
        "abc": [0.26115863, 0.73884137, 0.45129201],
        "properties": { "magmom": 0.0 },
        "label": "I",
        "xyz": [-0.8831206892113959, 5.022716566825329, 6.534984739207806]
      },
      {
        "species": [{ "element": "I", "occu": 1 }],
        "abc": [0.7678214600000001, 0.7413227800000001, 0.03179723],
        "properties": { "magmom": 0.0 },
        "label": "I",
        "xyz": [3.111314564950714, 5.003584959513184, 0.4604433674752642]
      },
      {
        "species": [{ "element": "I", "occu": 1 }],
        "abc": [0.5093148200000001, 0.49068518, 0.80234602],
        "properties": { "magmom": 0.0 },
        "label": "I",
        "xyz": [2.0680092721011825, 3.3118198127623737, 11.61846183863109]
      },
      {
        "species": [{ "element": "I", "occu": 1 }],
        "abc": [0.7419823, 0.258017699999999, 0.46238999000000003],
        "properties": { "magmom": -0.0 },
        "label": "I",
        "xyz": [4.834943964526527, 1.7077089650417943, 6.695690287564474]
      },
      {
        "species": [{ "element": "I", "occu": 1 }],
        "abc": [0.7413227800000001, 0.7678214600000001, 0.53179723],
        "properties": { "magmom": 0.0 },
        "label": "I",
        "xyz": [2.796186223871515, 5.186278389803811, 7.700749637475264]
      },
      {
        "species": [{ "element": "I", "occu": 1 }],
        "abc": [0.9895369700000001, 0.52261563, 0.72177905],
        "properties": { "magmom": 0.0 },
        "label": "I",
        "xyz": [5.736005951485787, 3.495508574338524, 10.451802762539286]
      },
      {
        "species": [{ "element": "I", "occu": 1 }],
        "abc": [0.99013808, 0.00986192, 0.79133494],
        "properties": { "magmom": 0.0 },
        "label": "I",
        "xyz": [7.78606905002567, -0.0031849623027503937, 11.459014655504147]
      },
      {
        "species": [{ "element": "I", "occu": 1 }],
        "abc": [0.258017699999999, 0.7419823, 0.96238999],
        "properties": { "magmom": -0.0 },
        "label": "I",
        "xyz": [-0.9204733445265316, 5.0443715049582, 13.935996557564474]
      },
      {
        "species": [{ "element": "I", "occu": 1 }],
        "abc": [0.47738437, 0.01046303, 0.72177905],
        "properties": { "magmom": 0.0 },
        "label": "I",
        "xyz": [3.7311996458291734, 0.0374130062188019, 10.451802762539286]
      },
      {
        "species": [{ "element": "I", "occu": 1 }],
        "abc": [0.01046303, 0.47738437, 0.22177905],
        "properties": { "magmom": 0.0 },
        "label": "I",
        "xyz": [-1.8215353314857856, 3.2565718956614766, 3.211496492539287]
      },
      {
        "species": [{ "element": "I", "occu": 1 }],
        "abc": [0.52261563, 0.9895369700000001, 0.22177905],
        "properties": { "magmom": 0.0 },
        "label": "I",
        "xyz": [0.1832709741708265, 6.714667463781199, 3.211496492539287]
      },
      {
        "species": [{ "element": "I", "occu": 1 }],
        "abc": [0.49068518, 0.5093148200000001, 0.30234602],
        "properties": { "magmom": 0.0 },
        "label": "I",
        "xyz": [1.8464613478988183, 3.440260657237627, 4.37815556863109]
      },
      {
        "species": [{ "element": "I", "occu": 1 }],
        "abc": [0.00986192, 0.99013808, 0.29133494],
        "properties": { "magmom": 0.0 },
        "label": "I",
        "xyz": [-3.8715984300256703, 6.7552654323027514, 4.218708385504147]
      },
      {
        "species": [{ "element": "I", "occu": 1 }],
        "abc": [0.23217854000000002, 0.25867722, 0.53179723],
        "properties": { "magmom": 0.0 },
        "label": "I",
        "xyz": [0.8031560550492864, 1.7484955104868178, 7.700749637475264]
      },
      {
        "species": [{ "element": "I", "occu": 1 }],
        "abc": [0.73884137, 0.26115863, 0.95129201],
        "properties": { "magmom": 0.0 },
        "label": "I",
        "xyz": [4.797591309211396, 1.729363903174672, 13.775291009207804]
      }
    ]
  },
  "task_ids": null,
  "uncorrected_energy_per_atom": null,
  "energy_per_atom": -4.006396015500004,
  "formation_energy_per_atom": -0.7669249155000041,
  "energy_above_hull": 0.0,
  "is_stable": true,
  "equilibrium_reaction_energy_per_atom": null,
  "decomposes_to": null,
  "xas": null,
  "grain_boundaries": null,
  "band_gap": 0.47750000000000004,
  "cbm": null,
  "vbm": null,
  "efermi": 2.4138527,
  "is_gap_direct": null,
  "is_metal": null,
  "es_source_calc_id": null,
  "bandstructure": null,
  "dos": null,
  "dos_energy_up": null,
  "dos_energy_down": null,
  "is_magnetic": null,
  "ordering": null,
  "total_magnetization": 0.0,
  "total_magnetization_normalized_vol": null,
  "total_magnetization_normalized_formula_units": null,
  "num_magnetic_sites": null,
  "num_unique_magnetic_sites": null,
  "types_of_magnetic_species": null,
  "bulk_modulus": null,
  "shear_modulus": null,
  "universal_anisotropy": null,
  "homogeneous_poisson": null,
  "e_total": null,
  "e_ionic": null,
  "e_electronic": null,
  "n": null,
  "e_ij_max": null,
  "weighted_surface_energy_EV_PER_ANG2": null,
  "weighted_surface_energy": null,
  "weighted_work_function": null,
  "surface_anisotropy": null,
  "shape_factor": null,
  "has_reconstructed": null,
  "possible_species": null,
  "has_props": null,
  "theoretical": null,
  "database_IDs": null,
  "fields_not_requested": [
    "builder_meta",
    "nsites",
    "elements",
    "nelements",
    "composition",
    "composition_reduced",
    "chemsys",
    "symmetry",
    "property_name",
    "deprecated",
    "deprecation_reasons",
    "last_updated",
    "origins",
    "warnings",
    "task_ids",
    "uncorrected_energy_per_atom",
    "equilibrium_reaction_energy_per_atom",
    "decomposes_to",
    "xas",
    "grain_boundaries",
    "cbm",
    "vbm",
    "is_gap_direct",
    "is_metal",
    "es_source_calc_id",
    "bandstructure",
    "dos",
    "dos_energy_up",
    "dos_energy_down",
    "is_magnetic",
    "ordering",
    "total_magnetization_normalized_vol",
    "total_magnetization_normalized_formula_units",
    "num_magnetic_sites",
    "num_unique_magnetic_sites",
    "types_of_magnetic_species",
    "bulk_modulus",
    "shear_modulus",
    "universal_anisotropy",
    "homogeneous_poisson",
    "e_total",
    "e_ionic",
    "e_electronic",
    "n",
    "e_ij_max",
    "weighted_surface_energy_EV_PER_ANG2",
    "weighted_surface_energy",
    "weighted_work_function",
    "surface_anisotropy",
    "shape_factor",
    "has_reconstructed",
    "possible_species",
    "has_props",
    "theoretical",
    "database_IDs"
  ]
}
