{"builder_meta": null, "nsites": null, "elements": null, "nelements": null, "composition": null, "composition_reduced": null, "formula_pretty": "NbI5", "formula_anonymous": "AB5", "chemsys": null, "volume": 499.99546166591665, "density": 4.831739153421856, "density_atomic": 41.66628847215972, "symmetry": null, "property_name": null, "material_id": "mp-569578", "deprecated": null, "deprecation_reasons": null, "last_updated": null, "origins": null, "warnings": null, "structure": {"@module": "pymatgen.core.structure", "@class": "Structure", "charge": 0, "lattice": {"matrix": [[7.25158583, 0.02163578, -0.13427028], [-3.49654082, 6.51038882, -2.56518415], [-0.02596099, -0.04772565, 10.59349037]], "pbc": [true, true, true], "a": 7.252861067532196, "b": 7.822475951827432, "c": 10.593629686276202, "alpha": 109.30365495194503, "beta": 91.20193132503127, "gamma": 115.99893067304076, "volume": 499.99546166591665}, "properties": {}, "sites": [{"species": [{"element": "Nb", "occu": 1}], "abc": [0.10435988, 0.221135199999999, 0.22304019], "properties": {"magmom": -0.0}, "label": "Nb", "xyz": [-0.022223970652548167, 1.4312893031490905, 1.7815091645325265]}, {"species": [{"element": "Nb", "occu": 1}], "abc": [0.89564012, 0.778864799999999, 0.77695981], "properties": {"magmom": -0.0}, "label": "Nb", "xyz": [3.7513079906525553, 5.053009646850897, 6.112526775467478]}, {"species": [{"element": "I", "occu": 1}], "abc": [0.8757965600000001, 0.38408765, 0.15150164], "properties": {"magmom": 0.0}, "label": "I", "xyz": [5.0040026452148485, 2.5122779699119238, 0.5020821630542223]}, {"species": [{"element": "I", "occu": 1}], "abc": [0.7623032200000001, 0.81596537, 0.044075420000000004], "properties": {"magmom": 0.0}, "label": "I", "xyz": [2.6737067628661038, 5.326641319047852, -1.7285435635434818]}, {"species": [{"element": "I", "occu": 1}], "abc": [0.31154805, 0.010601399999999001, 0.25099989], "properties": {"magmom": 0.0}, "label": "I", "xyz": [2.215632991260696, 0.063780688205392, 2.5899387304312977]}, {"species": [{"element": "I", "occu": 1}], "abc": [0.68845195, 0.9893985999999991, 0.74900011], "properties": {"magmom": 0.0}, "label": "I", "xyz": [1.5134510287393113, 6.420518261794596, 5.304097209568708]}, {"species": [{"element": "I", "occu": 1}], "abc": [0.23769678, 0.18403463, 0.95592458], "properties": {"magmom": 0.0}, "label": "I", "xyz": [1.0553772571338964, 1.157657630952148, 9.622579503543482]}, {"species": [{"element": "I", "occu": 1}], "abc": [0.12420244, 0.61591235, 0.84849836], "properties": {"magmom": 0.0}, "label": "I", "xyz": [-1.2749258768006781, 3.9720209584522963, 7.391953911216058]}, {"species": [{"element": "I", "occu": 1}], "abc": [0.44866256, 0.58214453, 0.33236908], "properties": {"magmom": 0.0}, "label": "I", "xyz": [1.209394319900621, 3.7838318737956493, 1.9673986793438434]}, {"species": [{"element": "I", "occu": 1}], "abc": [0.9262170200000001, 0.18531269, 0.43614977], "properties": {"magmom": 0.0}, "label": "I", "xyz": [6.057265952870349, 1.2056815615865009, 4.020623794574686]}, {"species": [{"element": "I", "occu": 1}], "abc": [0.55133744, 0.41785547, 0.66763092], "properties": {"magmom": 0.0}, "label": "I", "xyz": [2.5196897000993785, 2.700467076204351, 5.926637260656157]}, {"species": [{"element": "I", "occu": 1}], "abc": [0.07378298, 0.81468731, 0.56385023], "properties": {"magmom": 0.0}, "label": "I", "xyz": [-2.3281819328703484, 5.278617388413499, 3.873412145425314]}]}, "task_ids": null, "uncorrected_energy_per_atom": null, "energy_per_atom": -3.700696750000001, "formation_energy_per_atom": -0.747135397500001, "energy_above_hull": 0.0, "is_stable": true, "equilibrium_reaction_energy_per_atom": null, "decomposes_to": null, "xas": null, "grain_boundaries": null, "band_gap": 0.9400000000000001, "cbm": null, "vbm": null, "efermi": 0.98107186, "is_gap_direct": null, "is_metal": null, "es_source_calc_id": null, "bandstructure": null, "dos": null, "dos_energy_up": null, "dos_energy_down": null, "is_magnetic": null, "ordering": null, "total_magnetization": 1e-07, "total_magnetization_normalized_vol": null, "total_magnetization_normalized_formula_units": null, "num_magnetic_sites": null, "num_unique_magnetic_sites": null, "types_of_magnetic_species": null, "bulk_modulus": null, "shear_modulus": null, "universal_anisotropy": null, "homogeneous_poisson": null, "e_total": null, "e_ionic": null, "e_electronic": null, "n": null, "e_ij_max": null, "weighted_surface_energy_EV_PER_ANG2": null, "weighted_surface_energy": null, "weighted_work_function": null, "surface_anisotropy": null, "shape_factor": null, "has_reconstructed": null, "possible_species": null, "has_props": null, "theoretical": null, "database_IDs": null, "fields_not_requested": ["builder_meta", "nsites", "elements", "nelements", "composition", "composition_reduced", "chemsys", "symmetry", "property_name", "deprecated", "deprecation_reasons", "last_updated", "origins", "warnings", "task_ids", "uncorrected_energy_per_atom", "equilibrium_reaction_energy_per_atom", "decomposes_to", "xas", "grain_boundaries", "cbm", "vbm", "is_gap_direct", "is_metal", "es_source_calc_id", "bandstructure", "dos", "dos_energy_up", "dos_energy_down", "is_magnetic", "ordering", "total_magnetization_normalized_vol", "total_magnetization_normalized_formula_units", "num_magnetic_sites", "num_unique_magnetic_sites", "types_of_magnetic_species", "bulk_modulus", "shear_modulus", "universal_anisotropy", "homogeneous_poisson", "e_total", "e_ionic", "e_electronic", "n", "e_ij_max", "weighted_surface_energy_EV_PER_ANG2", "weighted_surface_energy", "weighted_work_function", "surface_anisotropy", "shape_factor", "has_reconstructed", "possible_species", "has_props", "theoretical", "database_IDs"]}