{
  "builder_meta": null,
  "nsites": null,
  "elements": null,
  "nelements": null,
  "composition": null,
  "composition_reduced": null,
  "formula_pretty": "NbNi3",
  "formula_anonymous": "AB3",
  "chemsys": null,
  "volume": 97.08582996236935,
  "density": 9.201398899391465,
  "density_atomic": 12.135728745296168,
  "symmetry": null,
  "property_name": null,
  "material_id": "mp-1451",
  "deprecated": null,
  "deprecation_reasons": null,
  "last_updated": null,
  "origins": null,
  "warnings": null,
  "structure": {
    "@module": "pymatgen.core.structure",
    "@class": "Structure",
    "charge": 0,
    "lattice": {
      "matrix": [
        [4.21909961, -0.0, 0.0],
        [-0.0, 4.52733326, 0.0],
        [0.0, 0.0, 5.08268979]
      ],
      "pbc": [true, true, true],
      "a": 4.21909961,
      "b": 4.52733326,
      "c": 5.08268979,
      "alpha": 90.0,
      "beta": 90.0,
      "gamma": 90.0,
      "volume": 97.08582996236935
    },
    "properties": {},
    "sites": [
      {
        "species": [{ "element": "Nb", "occu": 1 }],
        "abc": [0.25, 0.34969528, 0.75],
        "properties": { "magmom": 0.0 },
        "label": "Nb",
        "xyz": [1.0547749025, 1.5831870720090127, 3.8120173425]
      },
      {
        "species": [{ "element": "Nb", "occu": 1 }],
        "abc": [0.75, 0.6503047200000001, 0.25],
        "properties": { "magmom": 0.0 },
        "label": "Nb",
        "xyz": [3.1643247074999996, 2.944146187990987, 1.2706724475]
      },
      {
        "species": [{ "element": "Ni", "occu": 1 }],
        "abc": [0.25, 0.31511924, 0.25],
        "properties": { "magmom": -0.0 },
        "label": "Ni",
        "xyz": [1.0547749025, 1.4266498161179224, 1.2706724475]
      },
      {
        "species": [{ "element": "Ni", "occu": 1 }],
        "abc": [0.75, 0.68488076, 0.75],
        "properties": { "magmom": -0.0 },
        "label": "Ni",
        "xyz": [3.1643247074999996, 3.1006834438820774, 3.8120173425]
      },
      {
        "species": [{ "element": "Ni", "occu": 1 }],
        "abc": [0.75, 0.15775269, 0.49898026],
        "properties": { "magmom": -0.0 },
        "label": "Ni",
        "xyz": [3.1643247074999996, 0.7141990002914693, 2.5361618729135453]
      },
      {
        "species": [{ "element": "Ni", "occu": 1 }],
        "abc": [0.25, 0.84224731, 0.50101974],
        "properties": { "magmom": -0.0 },
        "label": "Ni",
        "xyz": [1.0547749025, 3.8131342597085305, 2.546527917086455]
      },
      {
        "species": [{ "element": "Ni", "occu": 1 }],
        "abc": [0.25, 0.84224731, 0.9989802600000001],
        "properties": { "magmom": -0.0 },
        "label": "Ni",
        "xyz": [1.0547749025, 3.8131342597085305, 5.077506767913546]
      },
      {
        "species": [{ "element": "Ni", "occu": 1 }],
        "abc": [0.75, 0.15775269, 0.00101974],
        "properties": { "magmom": -0.0 },
        "label": "Ni",
        "xyz": [3.1643247074999996, 0.7141990002914693, 0.0051830220864546]
      }
    ]
  },
  "task_ids": null,
  "uncorrected_energy_per_atom": null,
  "energy_per_atom": -7.153047508750001,
  "formation_energy_per_atom": -0.29261873875,
  "energy_above_hull": 0.0,
  "is_stable": true,
  "equilibrium_reaction_energy_per_atom": null,
  "decomposes_to": null,
  "xas": null,
  "grain_boundaries": null,
  "band_gap": 0.0,
  "cbm": null,
  "vbm": null,
  "efermi": 7.3449671500000004,
  "is_gap_direct": null,
  "is_metal": null,
  "es_source_calc_id": null,
  "bandstructure": null,
  "dos": null,
  "dos_energy_up": null,
  "dos_energy_down": null,
  "is_magnetic": null,
  "ordering": null,
  "total_magnetization": 1e-7,
  "total_magnetization_normalized_vol": null,
  "total_magnetization_normalized_formula_units": null,
  "num_magnetic_sites": null,
  "num_unique_magnetic_sites": null,
  "types_of_magnetic_species": null,
  "bulk_modulus": null,
  "shear_modulus": null,
  "universal_anisotropy": null,
  "homogeneous_poisson": null,
  "e_total": null,
  "e_ionic": null,
  "e_electronic": null,
  "n": null,
  "e_ij_max": null,
  "weighted_surface_energy_EV_PER_ANG2": null,
  "weighted_surface_energy": null,
  "weighted_work_function": null,
  "surface_anisotropy": null,
  "shape_factor": null,
  "has_reconstructed": null,
  "possible_species": null,
  "has_props": null,
  "theoretical": null,
  "database_IDs": null,
  "fields_not_requested": [
    "builder_meta",
    "nsites",
    "elements",
    "nelements",
    "composition",
    "composition_reduced",
    "chemsys",
    "symmetry",
    "property_name",
    "deprecated",
    "deprecation_reasons",
    "last_updated",
    "origins",
    "warnings",
    "task_ids",
    "uncorrected_energy_per_atom",
    "equilibrium_reaction_energy_per_atom",
    "decomposes_to",
    "xas",
    "grain_boundaries",
    "cbm",
    "vbm",
    "is_gap_direct",
    "is_metal",
    "es_source_calc_id",
    "bandstructure",
    "dos",
    "dos_energy_up",
    "dos_energy_down",
    "is_magnetic",
    "ordering",
    "total_magnetization_normalized_vol",
    "total_magnetization_normalized_formula_units",
    "num_magnetic_sites",
    "num_unique_magnetic_sites",
    "types_of_magnetic_species",
    "bulk_modulus",
    "shear_modulus",
    "universal_anisotropy",
    "homogeneous_poisson",
    "e_total",
    "e_ionic",
    "e_electronic",
    "n",
    "e_ij_max",
    "weighted_surface_energy_EV_PER_ANG2",
    "weighted_surface_energy",
    "weighted_work_function",
    "surface_anisotropy",
    "shape_factor",
    "has_reconstructed",
    "possible_species",
    "has_props",
    "theoretical",
    "database_IDs"
  ]
}
