{
  "builder_meta": null,
  "nsites": null,
  "elements": null,
  "nelements": null,
  "composition": null,
  "composition_reduced": null,
  "formula_pretty": "NbNi",
  "formula_anonymous": "AB",
  "chemsys": null,
  "volume": 370.08415918485747,
  "density": 8.842814700639183,
  "density_atomic": 14.234006122494518,
  "symmetry": null,
  "property_name": null,
  "material_id": "mp-1220799",
  "deprecated": null,
  "deprecation_reasons": null,
  "last_updated": null,
  "origins": null,
  "warnings": null,
  "structure": {
    "@module": "pymatgen.core.structure",
    "@class": "Structure",
    "charge": 0,
    "lattice": {
      "matrix": [
        [17.834881, -2.451352, 0.0],
        [17.834881, 2.451352, 0.0],
        [17.49795, 0.0, 4.232477]
      ],
      "pbc": [true, true, true],
      "a": 18.002558343526204,
      "b": 18.002558343526204,
      "c": 18.00255858921251,
      "alpha": 15.65220058470305,
      "beta": 15.65220058470305,
      "gamma": 15.652199325761266,
      "volume": 370.08415918485747
    },
    "properties": {},
    "sites": [
      {
        "species": [{ "element": "Nb", "occu": 1 }],
        "abc": [0.775202, 0.775202, 0.775202],
        "properties": { "magmom": 0.028 },
        "label": "Nb",
        "xyz": [41.21571667782399, 0.0, 3.281024635354]
      },
      {
        "species": [{ "element": "Nb", "occu": 1 }],
        "abc": [0.273651, 0.273651, 0.273651],
        "properties": { "magmom": -0.015 },
        "label": "Nb",
        "xyz": [14.549397556511998, 0.0, 1.158221563527]
      },
      {
        "species": [{ "element": "Nb", "occu": 1 }],
        "abc": [0.726349, 0.726349, 0.726349],
        "properties": { "magmom": -0.015 },
        "label": "Nb",
        "xyz": [38.618314443488, 0.0, 3.0742554364730004]
      },
      {
        "species": [{ "element": "Nb", "occu": 1 }],
        "abc": [0.224798, 0.224798, 0.224798],
        "properties": { "magmom": 0.028 },
        "label": "Nb",
        "xyz": [11.951995322176, 0.0, 0.951452364646]
      },
      {
        "species": [{ "element": "Nb", "occu": 1 }],
        "abc": [0.417966, 0.417966, 0.417966],
        "properties": { "magmom": 0.029 },
        "label": "Nb",
        "xyz": [22.222295913792, 0.0, 1.769031481782]
      },
      {
        "species": [{ "element": "Nb", "occu": 1 }],
        "abc": [0.9155000000000001, 0.9155000000000001, 0.9155000000000001],
        "properties": { "magmom": -0.002 },
        "label": "Nb",
        "xyz": [48.675040336, 0.0, 3.8748326935000006]
      },
      {
        "species": [{ "element": "Nb", "occu": 1 }],
        "abc": [0.0845, 0.0845, 0.0845],
        "properties": { "magmom": -0.002 },
        "label": "Nb",
        "xyz": [4.4926716639999995, 0.0, 0.35764430650000006]
      },
      {
        "species": [{ "element": "Nb", "occu": 1 }],
        "abc": [0.582033999999999, 0.582033999999999, 0.582033999999999],
        "properties": { "magmom": 0.029 },
        "label": "Nb",
        "xyz": [30.94541608620795, 0.0, 2.463445518217996]
      },
      {
        "species": [{ "element": "Nb", "occu": 1 }],
        "abc": [0.8269900000000001, 0.8269900000000001, 0.8269900000000001],
        "properties": { "magmom": 0.154 },
        "label": "Nb",
        "xyz": [43.969166146880006, 0.0, 3.5002161542300008]
      },
      {
        "species": [{ "element": "Nb", "occu": 1 }],
        "abc": [0.326628, 0.326628, 0.326628],
        "properties": { "magmom": 0.002 },
        "label": "Nb",
        "xyz": [17.366063435136, 0.0, 1.3824454975559999]
      },
      {
        "species": [{ "element": "Nb", "occu": 1 }],
        "abc": [0.673372, 0.673372, 0.673372],
        "properties": { "magmom": 0.002 },
        "label": "Nb",
        "xyz": [35.801648564863996, 0.0, 2.850031502444]
      },
      {
        "species": [{ "element": "Nb", "occu": 1 }],
        "abc": [0.17301000000000002, 0.17301000000000002, 0.17301000000000002],
        "properties": { "magmom": 0.154 },
        "label": "Nb",
        "xyz": [9.19854585312, 0.0, 0.7322608457700002]
      },
      {
        "species": [{ "element": "Nb", "occu": 1 }],
        "abc": [0.0, 0.0, 0.0],
        "properties": { "magmom": 0.005 },
        "label": "Nb",
        "xyz": [0.0, 0.0, 0.0]
      },
      {
        "species": [{ "element": "Ni", "occu": 1 }],
        "abc": [0.208452, 0.208452, 0.702411999999999],
        "properties": { "magmom": 0.015 },
        "label": "Ni",
        "xyz": [19.726203283823985, 0.0, 2.972942634523996]
      },
      {
        "species": [{ "element": "Ni", "occu": 1 }],
        "abc": [0.704186, 0.704186, 0.203711],
        "properties": { "magmom": 0.042 },
        "label": "Ni",
        "xyz": [28.682671916182, 0.0, 0.8622021221470001]
      },
      {
        "species": [{ "element": "Ni", "occu": 1 }],
        "abc": [0.702411999999999, 0.208452, 0.208452],
        "properties": { "magmom": 0.015 },
        "label": "Ni",
        "xyz": [19.89263372058398, -1.2108698339199977, 0.882268295604]
      },
      {
        "species": [{ "element": "Ni", "occu": 1 }],
        "abc": [0.203711, 0.704186, 0.704186],
        "properties": { "magmom": 0.042 },
        "label": "Ni",
        "xyz": [28.514046373957, 1.2268403922, 2.980451048722]
      },
      {
        "species": [{ "element": "Ni", "occu": 1 }],
        "abc": [0.208452, 0.702411999999999, 0.208452],
        "properties": { "magmom": 0.015 },
        "label": "Ni",
        "xyz": [19.89263372058398, 1.2108698339199977, 0.882268295604]
      },
      {
        "species": [{ "element": "Ni", "occu": 1 }],
        "abc": [0.704186, 0.203711, 0.704186],
        "properties": { "magmom": 0.042 },
        "label": "Ni",
        "xyz": [28.514046373957, -1.2268403922, 2.980451048722]
      },
      {
        "species": [{ "element": "Ni", "occu": 1 }],
        "abc": [0.295813999999999, 0.295813999999999, 0.796288999999999],
        "properties": { "magmom": 0.042 },
        "label": "Ni",
        "xyz": [24.48504008381795, 0.0, 3.3702748778529963]
      },
      {
        "species": [{ "element": "Ni", "occu": 1 }],
        "abc": [0.791547999999999, 0.791547999999999, 0.297587999999999],
        "properties": { "magmom": 0.015 },
        "label": "Ni",
        "xyz": [33.441508716175946, 0.0, 1.2595343654759958]
      },
      {
        "species": [{ "element": "Ni", "occu": 1 }],
        "abc": [0.796288999999999, 0.295813999999999, 0.295813999999999],
        "properties": { "magmom": 0.042 },
        "label": "Ni",
        "xyz": [24.653665626042947, -1.2268403921999997, 1.2520259512779959]
      },
      {
        "species": [{ "element": "Ni", "occu": 1 }],
        "abc": [0.297587999999999, 0.791547999999999, 0.791547999999999],
        "properties": { "magmom": 0.015 },
        "label": "Ni",
        "xyz": [33.27507827941595, 1.21086983392, 3.350208704395996]
      },
      {
        "species": [{ "element": "Ni", "occu": 1 }],
        "abc": [0.295813999999999, 0.796288999999999, 0.295813999999999],
        "properties": { "magmom": 0.042 },
        "label": "Ni",
        "xyz": [24.653665626042947, 1.2268403921999997, 1.2520259512779959]
      },
      {
        "species": [{ "element": "Ni", "occu": 1 }],
        "abc": [0.791547999999999, 0.297587999999999, 0.791547999999999],
        "properties": { "magmom": 0.015 },
        "label": "Ni",
        "xyz": [33.27507827941595, -1.21086983392, 3.350208704395996]
      },
      {
        "species": [{ "element": "Ni", "occu": 1 }],
        "abc": [0.5, 0.5, 0.5],
        "properties": { "magmom": 0.185 },
        "label": "Ni",
        "xyz": [26.583855999999997, 0.0, 2.1162385]
      }
    ]
  },
  "task_ids": null,
  "uncorrected_energy_per_atom": null,
  "energy_per_atom": -8.144144571923077,
  "formation_energy_per_atom": -0.203423711923077,
  "energy_above_hull": 0.014283797910257,
  "is_stable": false,
  "equilibrium_reaction_energy_per_atom": null,
  "decomposes_to": null,
  "xas": null,
  "grain_boundaries": null,
  "band_gap": 0.0,
  "cbm": null,
  "vbm": null,
  "efermi": 6.46315747,
  "is_gap_direct": null,
  "is_metal": null,
  "es_source_calc_id": null,
  "bandstructure": null,
  "dos": null,
  "dos_energy_up": null,
  "dos_energy_down": null,
  "is_magnetic": null,
  "ordering": null,
  "total_magnetization": 0.949032,
  "total_magnetization_normalized_vol": null,
  "total_magnetization_normalized_formula_units": null,
  "num_magnetic_sites": null,
  "num_unique_magnetic_sites": null,
  "types_of_magnetic_species": null,
  "bulk_modulus": null,
  "shear_modulus": null,
  "universal_anisotropy": null,
  "homogeneous_poisson": null,
  "e_total": null,
  "e_ionic": null,
  "e_electronic": null,
  "n": null,
  "e_ij_max": null,
  "weighted_surface_energy_EV_PER_ANG2": null,
  "weighted_surface_energy": null,
  "weighted_work_function": null,
  "surface_anisotropy": null,
  "shape_factor": null,
  "has_reconstructed": null,
  "possible_species": null,
  "has_props": null,
  "theoretical": null,
  "database_IDs": null,
  "fields_not_requested": [
    "builder_meta",
    "nsites",
    "elements",
    "nelements",
    "composition",
    "composition_reduced",
    "chemsys",
    "symmetry",
    "property_name",
    "deprecated",
    "deprecation_reasons",
    "last_updated",
    "origins",
    "warnings",
    "task_ids",
    "uncorrected_energy_per_atom",
    "equilibrium_reaction_energy_per_atom",
    "decomposes_to",
    "xas",
    "grain_boundaries",
    "cbm",
    "vbm",
    "is_gap_direct",
    "is_metal",
    "es_source_calc_id",
    "bandstructure",
    "dos",
    "dos_energy_up",
    "dos_energy_down",
    "is_magnetic",
    "ordering",
    "total_magnetization_normalized_vol",
    "total_magnetization_normalized_formula_units",
    "num_magnetic_sites",
    "num_unique_magnetic_sites",
    "types_of_magnetic_species",
    "bulk_modulus",
    "shear_modulus",
    "universal_anisotropy",
    "homogeneous_poisson",
    "e_total",
    "e_ionic",
    "e_electronic",
    "n",
    "e_ij_max",
    "weighted_surface_energy_EV_PER_ANG2",
    "weighted_surface_energy",
    "weighted_work_function",
    "surface_anisotropy",
    "shape_factor",
    "has_reconstructed",
    "possible_species",
    "has_props",
    "theoretical",
    "database_IDs"
  ]
}
