{"builder_meta": null, "nsites": null, "elements": null, "nelements": null, "composition": null, "composition_reduced": null, "formula_pretty": "NbNi2", "formula_anonymous": "AB2", "chemsys": null, "volume": 154.84813175894683, "density": 9.020452151741756, "density_atomic": 12.904010979912236, "symmetry": null, "property_name": null, "material_id": "mp-1103618", "deprecated": null, "deprecation_reasons": null, "last_updated": null, "origins": null, "warnings": null, "structure": {"@module": "pymatgen.core.structure", "@class": "Structure", "charge": 0, "lattice": {"matrix": [[-2.395953, -4.150139, 0.0], [-2.395953, 4.150139, 0.0], [0.0, 0.0, -7.78637]], "pbc": [true, true, true], "a": 4.792102304576772, "b": 4.792102304576772, "c": 7.78637, "alpha": 90.0, "beta": 90.0, "gamma": 120.00271015031912, "volume": 154.84813175894683}, "properties": {}, "sites": [{"species": [{"element": "Nb", "occu": 1}], "abc": [0.666715, 0.333285, 0.555178], "properties": {"magmom": 0.001}, "label": "Nb", "xyz": [-2.3959529999999996, -1.38378084677, -4.3228213238599995]}, {"species": [{"element": "Nb", "occu": 1}], "abc": [0.333285, 0.666715, 0.444822], "properties": {"magmom": 0.001}, "label": "Nb", "xyz": [-2.3959529999999996, 1.38378084677, -3.46354867614]}, {"species": [{"element": "Nb", "occu": 1}], "abc": [0.333285, 0.666715, 0.055178], "properties": {"magmom": 0.001}, "label": "Nb", "xyz": [-2.3959529999999996, 1.38378084677, -0.42963632385999995]}, {"species": [{"element": "Nb", "occu": 1}], "abc": [0.666715, 0.333285, 0.944821999999999], "properties": {"magmom": 0.001}, "label": "Nb", "xyz": [-2.3959529999999996, -1.38378084677, -7.356733676139992]}, {"species": [{"element": "Ni", "occu": 1}], "abc": [0.0, 0.0, 0.5], "properties": {"magmom": -0.0}, "label": "Ni", "xyz": [0.0, 0.0, -3.893185]}, {"species": [{"element": "Ni", "occu": 1}], "abc": [0.0, 0.0, 0.0], "properties": {"magmom": -0.0}, "label": "Ni", "xyz": [0.0, 0.0, 0.0]}, {"species": [{"element": "Ni", "occu": 1}], "abc": [0.168811, 0.337634999999999, 0.75], "properties": {"magmom": 0.001}, "label": "Ni", "xyz": [-1.2134208130379975, 0.700643066535996, -5.8397775]}, {"species": [{"element": "Ni", "occu": 1}], "abc": [0.168789, 0.831210999999999, 0.75], "properties": {"magmom": 0.0}, "label": "Ni", "xyz": [-2.395952999999998, 2.749143376657996, -5.8397775]}, {"species": [{"element": "Ni", "occu": 1}], "abc": [0.662365, 0.831189, 0.75], "properties": {"magmom": 0.001}, "label": "Ni", "xyz": [-3.578485186962, 0.7006430665359997, -5.8397775]}, {"species": [{"element": "Ni", "occu": 1}], "abc": [0.831189, 0.662365, 0.25], "properties": {"magmom": 0.001}, "label": "Ni", "xyz": [-3.578485186962, -0.7006430665359997, -1.9465925]}, {"species": [{"element": "Ni", "occu": 1}], "abc": [0.831210999999999, 0.168789, 0.25], "properties": {"magmom": 0.0}, "label": "Ni", "xyz": [-2.395952999999998, -2.749143376657996, -1.9465925]}, {"species": [{"element": "Ni", "occu": 1}], "abc": [0.337634999999999, 0.168811, 0.25], "properties": {"magmom": 0.001}, "label": "Ni", "xyz": [-1.2134208130379975, -0.700643066535996, -1.9465925]}]}, "task_ids": null, "uncorrected_energy_per_atom": null, "energy_per_atom": -7.4119047458333345, "formation_energy_per_atom": -0.19137861249999902, "energy_above_hull": 0.07626971661111201, "is_stable": false, "equilibrium_reaction_energy_per_atom": null, "decomposes_to": null, "xas": null, "grain_boundaries": null, "band_gap": 0.0, "cbm": null, "vbm": null, "efermi": 7.10346618, "is_gap_direct": null, "is_metal": null, "es_source_calc_id": null, "bandstructure": null, "dos": null, "dos_energy_up": null, "dos_energy_down": null, "is_magnetic": null, "ordering": null, "total_magnetization": 0.011426799999999002, "total_magnetization_normalized_vol": null, "total_magnetization_normalized_formula_units": null, "num_magnetic_sites": null, "num_unique_magnetic_sites": null, "types_of_magnetic_species": null, "bulk_modulus": null, "shear_modulus": null, "universal_anisotropy": null, "homogeneous_poisson": null, "e_total": null, "e_ionic": null, "e_electronic": null, "n": null, "e_ij_max": null, "weighted_surface_energy_EV_PER_ANG2": null, "weighted_surface_energy": null, "weighted_work_function": null, "surface_anisotropy": null, "shape_factor": null, "has_reconstructed": null, "possible_species": null, "has_props": null, "theoretical": null, "database_IDs": null, "fields_not_requested": ["builder_meta", "nsites", "elements", "nelements", "composition", "composition_reduced", "chemsys", "symmetry", "property_name", "deprecated", "deprecation_reasons", "last_updated", "origins", "warnings", "task_ids", "uncorrected_energy_per_atom", "equilibrium_reaction_energy_per_atom", "decomposes_to", "xas", "grain_boundaries", "cbm", "vbm", "is_gap_direct", "is_metal", "es_source_calc_id", "bandstructure", "dos", "dos_energy_up", "dos_energy_down", "is_magnetic", "ordering", "total_magnetization_normalized_vol", "total_magnetization_normalized_formula_units", "num_magnetic_sites", "num_unique_magnetic_sites", "types_of_magnetic_species", "bulk_modulus", "shear_modulus", "universal_anisotropy", "homogeneous_poisson", "e_total", "e_ionic", "e_electronic", "n", "e_ij_max", "weighted_surface_energy_EV_PER_ANG2", "weighted_surface_energy", "weighted_work_function", "surface_anisotropy", "shape_factor", "has_reconstructed", "possible_species", "has_props", "theoretical", "database_IDs"]}