{"builder_meta": null, "nsites": null, "elements": null, "nelements": null, "composition": null, "composition_reduced": null, "formula_pretty": "NbO2", "formula_anonymous": "AB2", "chemsys": null, "volume": 288.6331088235784, "density": 5.7487495278992515, "density_atomic": 12.026379534315767, "symmetry": null, "property_name": null, "material_id": "mp-557057", "deprecated": null, "deprecation_reasons": null, "last_updated": null, "origins": null, "warnings": null, "structure": {"@module": "pymatgen.core.structure", "@class": "Structure", "charge": 0, "lattice": {"matrix": [[5.53590884, 0.00032449000000000003, 2.41676533], [2.7683579700000003, 6.9128613, 1.20853211], [0.00183184, 0.0005423, 7.54319984]], "pbc": [true, true, true], "a": 6.040450434394269, "b": 7.544004709966801, "c": 7.543200081921671, "alpha": 80.77263263470726, "beta": 66.40185112867567, "gamma": 66.39344221930786, "volume": 288.6331088235784}, "properties": {}, "sites": [{"species": [{"element": "Nb", "occu": 1}], "abc": [0.23362983, 0.75353803, 0.7300318100000001], "properties": {"magmom": 0.0}, "label": "Nb", "xyz": [3.380753753704127, 5.2095755924593385, 6.982079210945848]}, {"species": [{"element": "Nb", "occu": 1}], "abc": [0.79078887, 0.72979576, 0.24656778000000001], "properties": {"magmom": 0.0}, "label": "Nb", "xyz": [6.398522677396934, 5.0453671829956095, 4.653042772712886]}, {"species": [{"element": "Nb", "occu": 1}], "abc": [0.21379995000000002, 0.76997161, 0.25341802], "properties": {"magmom": 0.0}, "label": "Nb", "xyz": [3.315598297679547, 5.322913749405715, 3.3588224891062475]}, {"species": [{"element": "Nb", "occu": 1}], "abc": [0.7172369200000001, 0.24652678, 0.27007927], "properties": {"magmom": -0.0}, "label": "Nb", "xyz": [4.6535273240437665, 1.704584637071906, 4.068590757508206]}, {"species": [{"element": "Nb", "occu": 1}], "abc": [0.23728751, 0.23008338, 0.7465240200000001], "properties": {"magmom": 0.0}, "label": "Nb", "xyz": [1.9519226955789242, 1.59101633077536, 6.482711248337518]}, {"species": [{"element": "Nb", "occu": 1}], "abc": [0.28763077, 0.25325748, 0.22994491], "properties": {"magmom": 0.0}, "label": "Nb", "xyz": [2.293826307803057, 1.7509518648607743, 2.735726277775701]}, {"species": [{"element": "Nb", "occu": 1}], "abc": [0.76731549, 0.27012607, 0.75348373], "properties": {"magmom": 0.0}, "label": "Nb", "xyz": [4.996974524585172, 1.86800165585422, 7.864555854325673]}, {"species": [{"element": "Nb", "occu": 1}], "abc": [0.77070229, 0.74661806, 0.77003242], "properties": {"magmom": -0.0}, "label": "Nb", "xyz": [6.334854253354434, 5.161934766622527, 8.573426900978326]}, {"species": [{"element": "O", "occu": 1}], "abc": [0.12904323, 0.5257807, 0.74447272], "properties": {"magmom": -0.0}, "label": "O", "xyz": [2.171284503923737, 3.635094654110669, 6.562996565491857]}, {"species": [{"element": "O", "occu": 1}], "abc": [0.60548977, 0.02565926, 0.24442983000000001], "properties": {"magmom": 0.0}, "label": "O", "xyz": [3.423417943537656, 0.1777079351129143, 3.33811977798174]}, {"species": [{"element": "O", "occu": 1}], "abc": [0.41143538, 0.95013561, 0.74593647], "properties": {"magmom": -0.0}, "label": "O", "xyz": [4.909350682018276, 6.568693716135031, 7.769360016612977]}, {"species": [{"element": "O", "occu": 1}], "abc": [0.39939909, 0.47420741, 0.255475299999999], "properties": {"magmom": -0.0}, "label": "O", "xyz": [3.5242808057990653, 3.278398198028137, 3.4654499974144297]}, {"species": [{"element": "O", "occu": 1}], "abc": [0.90494051, 0.24447515, 0.9742916300000001], "properties": {"magmom": 0.0}, "label": "O", "xyz": [5.688247645332054, 1.690844805743734, 9.831761386681924]}, {"species": [{"element": "O", "occu": 1}], "abc": [0.59707972, 0.74599321, 0.0499886], "properties": {"magmom": 0.0}, "label": "O", "xyz": [5.370646719719133, 5.157168446687895, 2.721632314190905]}, {"species": [{"element": "O", "occu": 1}], "abc": [0.39304816000000004, 0.25411956, 0.95001356], "properties": {"magmom": 0.0}, "label": "O", "xyz": [2.8811129655883785, 1.7573360044480546, 8.423158947937194]}, {"species": [{"element": "O", "occu": 1}], "abc": [0.87542281, 0.9743589300000001, 0.75549466], "properties": {"magmom": 0.0}, "label": "O", "xyz": [7.545019127460788, 6.7363019102081445, 8.992082748302273]}, {"species": [{"element": "O", "occu": 1}], "abc": [0.12370803, 0.75537812, 0.02574839], "properties": {"magmom": 0.0}, "label": "O", "xyz": [2.7760405826523398, 5.221878277985309, 1.4060972424862908]}, {"species": [{"element": "O", "occu": 1}], "abc": [0.09976256, 0.25552022, 0.525724899999999], "properties": {"magmom": -0.0}, "label": "O", "xyz": [1.2606109192389998, 1.7666933127718507, 4.515555068428318]}, {"species": [{"element": "O", "occu": 1}], "abc": [0.61158288, 0.24599938000000002, 0.55000355], "properties": {"magmom": 0.0}, "label": "O", "xyz": [4.0676889345257505, 1.7010563132798906, 5.924137140935074]}, {"species": [{"element": "O", "occu": 1}], "abc": [0.8971644400000001, 0.44998608, 0.24594871000000001], "properties": {"magmom": 0.0}, "label": "O", "xyz": [6.212793643971635, 3.111115856845273, 4.5672988105541]}, {"species": [{"element": "O", "occu": 1}], "abc": [0.880935799999999, 0.74452252, 0.47427927000000003], "properties": {"magmom": 0.0}, "label": "O", "xyz": [6.938753938516908, 5.147323971992338, 6.606377785013246]}, {"species": [{"element": "O", "occu": 1}], "abc": [0.59305072, 0.55003941, 0.75403584], "properties": {"magmom": -0.0}, "label": "O", "xyz": [4.807161980917109, 3.802947503527998, 7.785847735420258]}, {"species": [{"element": "O", "occu": 1}], "abc": [0.10764847, 0.04987313, 0.25399331], "properties": {"magmom": 0.0}, "label": "O", "xyz": [0.7344640687148114, 0.34493870171091234, 2.23635666450782]}, {"species": [{"element": "O", "occu": 1}], "abc": [0.40749482000000004, 0.75403314, 0.45007831000000004], "properties": {"magmom": -0.0}, "label": "O", "xyz": [4.344112300506725, 5.212902817885136, 5.291123250804187]}]}, "task_ids": null, "uncorrected_energy_per_atom": null, "energy_per_atom": -9.563370544166666, "formation_energy_per_atom": -2.897628194166666, "energy_above_hull": 0.0, "is_stable": true, "equilibrium_reaction_energy_per_atom": null, "decomposes_to": null, "xas": null, "grain_boundaries": null, "band_gap": 0.28240000000000004, "cbm": null, "vbm": null, "efermi": 4.28043332, "is_gap_direct": null, "is_metal": null, "es_source_calc_id": null, "bandstructure": null, "dos": null, "dos_energy_up": null, "dos_energy_down": null, "is_magnetic": null, "ordering": null, "total_magnetization": 0.0, "total_magnetization_normalized_vol": null, "total_magnetization_normalized_formula_units": null, "num_magnetic_sites": null, "num_unique_magnetic_sites": null, "types_of_magnetic_species": null, "bulk_modulus": null, "shear_modulus": null, "universal_anisotropy": null, "homogeneous_poisson": null, "e_total": null, "e_ionic": null, "e_electronic": null, "n": null, "e_ij_max": null, "weighted_surface_energy_EV_PER_ANG2": null, "weighted_surface_energy": null, "weighted_work_function": null, "surface_anisotropy": null, "shape_factor": null, "has_reconstructed": null, "possible_species": null, "has_props": null, "theoretical": null, "database_IDs": null, "fields_not_requested": ["builder_meta", "nsites", "elements", "nelements", "composition", "composition_reduced", "chemsys", "symmetry", "property_name", "deprecated", "deprecation_reasons", "last_updated", "origins", "warnings", "task_ids", "uncorrected_energy_per_atom", "equilibrium_reaction_energy_per_atom", "decomposes_to", "xas", "grain_boundaries", "cbm", "vbm", "is_gap_direct", "is_metal", "es_source_calc_id", "bandstructure", "dos", "dos_energy_up", "dos_energy_down", "is_magnetic", "ordering", "total_magnetization_normalized_vol", "total_magnetization_normalized_formula_units", "num_magnetic_sites", "num_unique_magnetic_sites", "types_of_magnetic_species", "bulk_modulus", "shear_modulus", "universal_anisotropy", "homogeneous_poisson", "e_total", "e_ionic", "e_electronic", "n", "e_ij_max", "weighted_surface_energy_EV_PER_ANG2", "weighted_surface_energy", "weighted_work_function", "surface_anisotropy", "shape_factor", "has_reconstructed", "possible_species", "has_props", "theoretical", "database_IDs"]}