{"builder_meta": null, "nsites": null, "elements": null, "nelements": null, "composition": null, "composition_reduced": null, "formula_pretty": "NbP", "formula_anonymous": "AB", "chemsys": null, "volume": 64.41246005193307, "density": 6.387205680425864, "density_atomic": 16.103115012983267, "symmetry": null, "property_name": null, "material_id": "mp-9339", "deprecated": null, "deprecation_reasons": null, "last_updated": null, "origins": null, "warnings": null, "structure": {"@module": "pymatgen.core.structure", "@class": "Structure", "charge": 0, "lattice": {"matrix": [[3.22468694, -0.00010058, -0.9071197], [-0.25516882, 3.21457527, -0.90711959], [0.00627781, 0.0067956100000000005, 6.210000799999999]], "pbc": [true, true, true], "a": 3.349846566822276, "b": 3.349846450773159, "c": 6.210007691397354, "alpha": 105.65361399067224, "beta": 105.65361484509874, "gamma": 90.00151560132366, "volume": 64.41246005193305}, "properties": {}, "sites": [{"species": [{"element": "Nb", "occu": 1}], "abc": [0.75011777, 0.25013425, 0.50023698], "properties": {"magmom": 0.0}, "label": "Nb", "xyz": [2.3582089076822523, 0.8073993428083488, 2.1991237611975576]}, {"species": [{"element": "Nb", "occu": 1}], "abc": [0.00013422, 0.00011776, 0.00023697], "properties": {"magmom": -0.0}, "label": "Nb", "xyz": [0.00040425645347929993, 0.00038014523964930005, 0.0012430078805235997]}, {"species": [{"element": "P", "occu": 1}], "abc": [0.16724134000000002, 0.66724668, 0.33450303000000003], "properties": {"magmom": -0.0}, "label": "P", "xyz": [0.3711403634083463, 2.147171007519325, 1.3202836349435645]}, {"species": [{"element": "P", "occu": 1}], "abc": [0.41724667, 0.41724132, 0.83450301], "properties": {"magmom": 0.0}, "label": "P", "xyz": [1.2442617635690554, 1.346882619223874, 4.42528391045655]}]}, "task_ids": null, "uncorrected_energy_per_atom": null, "energy_per_atom": -8.7470525525, "formation_energy_per_atom": -0.988663269821428, "energy_above_hull": 0.0, "is_stable": true, "equilibrium_reaction_energy_per_atom": null, "decomposes_to": null, "xas": null, "grain_boundaries": null, "band_gap": 0.11620000000000001, "cbm": null, "vbm": null, "efermi": 7.0762785, "is_gap_direct": null, "is_metal": null, "es_source_calc_id": null, "bandstructure": null, "dos": null, "dos_energy_up": null, "dos_energy_down": null, "is_magnetic": null, "ordering": null, "total_magnetization": 0.0, "total_magnetization_normalized_vol": null, "total_magnetization_normalized_formula_units": null, "num_magnetic_sites": null, "num_unique_magnetic_sites": null, "types_of_magnetic_species": null, "bulk_modulus": null, "shear_modulus": null, "universal_anisotropy": null, "homogeneous_poisson": null, "e_total": null, "e_ionic": null, "e_electronic": null, "n": null, "e_ij_max": null, "weighted_surface_energy_EV_PER_ANG2": null, "weighted_surface_energy": null, "weighted_work_function": null, "surface_anisotropy": null, "shape_factor": null, "has_reconstructed": null, "possible_species": null, "has_props": null, "theoretical": null, "database_IDs": null, "fields_not_requested": ["builder_meta", "nsites", "elements", "nelements", "composition", "composition_reduced", "chemsys", "symmetry", "property_name", "deprecated", "deprecation_reasons", "last_updated", "origins", "warnings", "task_ids", "uncorrected_energy_per_atom", "equilibrium_reaction_energy_per_atom", "decomposes_to", "xas", "grain_boundaries", "cbm", "vbm", "is_gap_direct", "is_metal", "es_source_calc_id", "bandstructure", "dos", "dos_energy_up", "dos_energy_down", "is_magnetic", "ordering", "total_magnetization_normalized_vol", "total_magnetization_normalized_formula_units", "num_magnetic_sites", "num_unique_magnetic_sites", "types_of_magnetic_species", "bulk_modulus", "shear_modulus", "universal_anisotropy", "homogeneous_poisson", "e_total", "e_ionic", "e_electronic", "n", "e_ij_max", "weighted_surface_energy_EV_PER_ANG2", "weighted_surface_energy", "weighted_work_function", "surface_anisotropy", "shape_factor", "has_reconstructed", "possible_species", "has_props", "theoretical", "database_IDs"]}