{
  "builder_meta": null,
  "nsites": null,
  "elements": null,
  "nelements": null,
  "composition": null,
  "composition_reduced": null,
  "formula_pretty": "NbPd4",
  "formula_anonymous": "AB4",
  "chemsys": null,
  "volume": 80.02342838317708,
  "density": 10.761010379026754,
  "density_atomic": 16.004685676635415,
  "symmetry": null,
  "property_name": null,
  "material_id": "mp-1220368",
  "deprecated": null,
  "deprecation_reasons": null,
  "last_updated": null,
  "origins": null,
  "warnings": null,
  "structure": {
    "@module": "pymatgen.core.structure",
    "@class": "Structure",
    "charge": 0,
    "lattice": {
      "matrix": [
        [11.524365, -1.4176, 0.0],
        [11.524365, 1.4176, 0.0],
        [11.349988, 0.0, 2.449156]
      ],
      "pbc": [true, true, true],
      "a": 11.61122639574412,
      "b": 11.61122639574412,
      "c": 11.611227011495382,
      "alpha": 14.02533254727716,
      "beta": 14.02533254727716,
      "gamma": 14.025330141223836,
      "volume": 80.02342838317708
    },
    "properties": {},
    "sites": [
      {
        "species": [{ "element": "Nb", "occu": 1 }],
        "abc": [0.0, 0.0, 0.0],
        "properties": { "magmom": -0.0 },
        "label": "Nb",
        "xyz": [0.0, 0.0, 0.0]
      },
      {
        "species": [{ "element": "Pd", "occu": 1 }],
        "abc": [0.600621, 0.600621, 0.600621],
        "properties": { "magmom": 0.001 },
        "label": "Pd",
        "xyz": [20.660592403878, 0.0, 1.471014525876]
      },
      {
        "species": [{ "element": "Pd", "occu": 1 }],
        "abc": [0.199915999999999, 0.199915999999999, 0.199915999999999],
        "properties": { "magmom": 0.006 },
        "label": "Pd",
        "xyz": [6.876854107687965, 0.0, 0.48962547089599756]
      },
      {
        "species": [{ "element": "Pd", "occu": 1 }],
        "abc": [0.800084, 0.800084, 0.800084],
        "properties": { "magmom": 0.006 },
        "label": "Pd",
        "xyz": [27.521863892312, 0.0, 1.959530529104]
      },
      {
        "species": [{ "element": "Pd", "occu": 1 }],
        "abc": [0.399379, 0.399379, 0.399379],
        "properties": { "magmom": 0.001 },
        "label": "Pd",
        "xyz": [13.738125596122, 0.0, 0.9781414741239999]
      }
    ]
  },
  "task_ids": null,
  "uncorrected_energy_per_atom": null,
  "energy_per_atom": -23.478342758666667,
  "formation_energy_per_atom": -0.163164940666666,
  "energy_above_hull": 0.175439544666666,
  "is_stable": false,
  "equilibrium_reaction_energy_per_atom": null,
  "decomposes_to": null,
  "xas": null,
  "grain_boundaries": null,
  "band_gap": 0.0,
  "cbm": null,
  "vbm": null,
  "efermi": 4.23197143,
  "is_gap_direct": null,
  "is_metal": null,
  "es_source_calc_id": null,
  "bandstructure": null,
  "dos": null,
  "dos_energy_up": null,
  "dos_energy_down": null,
  "is_magnetic": null,
  "ordering": null,
  "total_magnetization": 0.0235461,
  "total_magnetization_normalized_vol": null,
  "total_magnetization_normalized_formula_units": null,
  "num_magnetic_sites": null,
  "num_unique_magnetic_sites": null,
  "types_of_magnetic_species": null,
  "bulk_modulus": null,
  "shear_modulus": null,
  "universal_anisotropy": null,
  "homogeneous_poisson": null,
  "e_total": null,
  "e_ionic": null,
  "e_electronic": null,
  "n": null,
  "e_ij_max": null,
  "weighted_surface_energy_EV_PER_ANG2": null,
  "weighted_surface_energy": null,
  "weighted_work_function": null,
  "surface_anisotropy": null,
  "shape_factor": null,
  "has_reconstructed": null,
  "possible_species": null,
  "has_props": null,
  "theoretical": null,
  "database_IDs": null,
  "fields_not_requested": [
    "builder_meta",
    "nsites",
    "elements",
    "nelements",
    "composition",
    "composition_reduced",
    "chemsys",
    "symmetry",
    "property_name",
    "deprecated",
    "deprecation_reasons",
    "last_updated",
    "origins",
    "warnings",
    "task_ids",
    "uncorrected_energy_per_atom",
    "equilibrium_reaction_energy_per_atom",
    "decomposes_to",
    "xas",
    "grain_boundaries",
    "cbm",
    "vbm",
    "is_gap_direct",
    "is_metal",
    "es_source_calc_id",
    "bandstructure",
    "dos",
    "dos_energy_up",
    "dos_energy_down",
    "is_magnetic",
    "ordering",
    "total_magnetization_normalized_vol",
    "total_magnetization_normalized_formula_units",
    "num_magnetic_sites",
    "num_unique_magnetic_sites",
    "types_of_magnetic_species",
    "bulk_modulus",
    "shear_modulus",
    "universal_anisotropy",
    "homogeneous_poisson",
    "e_total",
    "e_ionic",
    "e_electronic",
    "n",
    "e_ij_max",
    "weighted_surface_energy_EV_PER_ANG2",
    "weighted_surface_energy",
    "weighted_work_function",
    "surface_anisotropy",
    "shape_factor",
    "has_reconstructed",
    "possible_species",
    "has_props",
    "theoretical",
    "database_IDs"
  ]
}
