{
  "builder_meta": null,
  "nsites": null,
  "elements": null,
  "nelements": null,
  "composition": null,
  "composition_reduced": null,
  "formula_pretty": "NbPd3",
  "formula_anonymous": "AB3",
  "chemsys": null,
  "volume": 370.0732624811343,
  "density": 11.096479189127983,
  "density_atomic": 15.419719270047262,
  "symmetry": null,
  "property_name": null,
  "material_id": "mp-669692",
  "deprecated": null,
  "deprecation_reasons": null,
  "last_updated": null,
  "origins": null,
  "warnings": null,
  "structure": {
    "@module": "pymatgen.core.structure",
    "@class": "Structure",
    "charge": 0,
    "lattice": {
      "matrix": [
        [4.87978248, -0.0, 0.0],
        [0.0, 5.52747631, 0.0],
        [0.0, 0.0, 13.72019726]
      ],
      "pbc": [true, true, true],
      "a": 4.87978248,
      "b": 5.52747631,
      "c": 13.72019726,
      "alpha": 90.0,
      "beta": 90.0,
      "gamma": 90.0,
      "volume": 370.0732624811343
    },
    "properties": {},
    "sites": [
      {
        "species": [{ "element": "Nb", "occu": 1 }],
        "abc": [0.66425468, 0.75, 0.08555946],
        "properties": { "magmom": 0.0 },
        "label": "Nb",
        "xyz": [3.2414183497220064, 4.1456072325, 1.1738926686590798]
      },
      {
        "species": [{ "element": "Nb", "occu": 1 }],
        "abc": [0.33574532, 0.25, 0.91443954],
        "properties": { "magmom": 0.0 },
        "label": "Nb",
        "xyz": [1.6383641302779937, 1.3818690775, 12.546290871143661]
      },
      {
        "species": [{ "element": "Nb", "occu": 1 }],
        "abc": [0.98823722, 0.25, 0.25],
        "properties": { "magmom": -0.0 },
        "label": "Nb",
        "xyz": [4.822382672239906, 1.3818690775, 3.430049315]
      },
      {
        "species": [{ "element": "Nb", "occu": 1 }],
        "abc": [0.33574532, 0.25, 0.5855604600000001],
        "properties": { "magmom": 0.0 },
        "label": "Nb",
        "xyz": [1.6383641302779937, 1.3818690775, 8.034005018856341]
      },
      {
        "species": [{ "element": "Nb", "occu": 1 }],
        "abc": [0.66425468, 0.75, 0.41444054],
        "properties": { "magmom": 0.0 },
        "label": "Nb",
        "xyz": [3.2414183497220064, 4.1456072325, 5.686205961340921]
      },
      {
        "species": [{ "element": "Nb", "occu": 1 }],
        "abc": [0.01176278, 0.75, 0.75],
        "properties": { "magmom": -0.0 },
        "label": "Nb",
        "xyz": [0.05739980776009441, 4.1456072325, 10.290147945000001]
      },
      {
        "species": [{ "element": "Pd", "occu": 1 }],
        "abc": [0.16250127, 0.00125844, 0.08255653],
        "properties": { "magmom": -0.0 },
        "label": "Pd",
        "xyz": [0.7929708503237497, 0.0069559972875564, 1.1326918767011078]
      },
      {
        "species": [{ "element": "Pd", "occu": 1 }],
        "abc": [0.83749873, 0.99874156, 0.58255653],
        "properties": { "magmom": -0.0 },
        "label": "Pd",
        "xyz": [4.086811629676251, 5.520520312712444, 7.992790506701108]
      },
      {
        "species": [{ "element": "Pd", "occu": 1 }],
        "abc": [0.16250127, 0.00125844, 0.41744347],
        "properties": { "magmom": -0.0 },
        "label": "Pd",
        "xyz": [0.7929708503237497, 0.0069559972875564, 5.727406753298892]
      },
      {
        "species": [{ "element": "Pd", "occu": 1 }],
        "abc": [0.51148286, 0.99826646, 0.75],
        "properties": { "magmom": -0.0 },
        "label": "Pd",
        "xyz": [2.495925099048293, 5.517894208717562, 10.290147945000001]
      },
      {
        "species": [{ "element": "Pd", "occu": 1 }],
        "abc": [0.48851714, 0.00173354, 0.25],
        "properties": { "magmom": -0.0 },
        "label": "Pd",
        "xyz": [2.3838573809517074, 0.0095821012824374, 3.430049315]
      },
      {
        "species": [{ "element": "Pd", "occu": 1 }],
        "abc": [0.16250127, 0.49874156000000003, 0.08255653],
        "properties": { "magmom": -0.0 },
        "label": "Pd",
        "xyz": [0.7929708503237497, 2.756782157712444, 1.1326918767011078]
      },
      {
        "species": [{ "element": "Pd", "occu": 1 }],
        "abc": [0.83749873, 0.99874156, 0.91744347],
        "properties": { "magmom": -0.0 },
        "label": "Pd",
        "xyz": [4.086811629676251, 5.520520312712444, 12.587505383298893]
      },
      {
        "species": [{ "element": "Pd", "occu": 1 }],
        "abc": [0.340044199999999, 0.75, 0.9156785900000001],
        "properties": { "magmom": 0.0 },
        "label": "Pd",
        "xyz": [1.6593417295856112, 4.1456072325, 12.563290881558665]
      },
      {
        "species": [{ "element": "Pd", "occu": 1 }],
        "abc": [0.16250127, 0.49874156000000003, 0.41744347],
        "properties": { "magmom": -0.0 },
        "label": "Pd",
        "xyz": [0.7929708503237497, 2.756782157712444, 5.727406753298892]
      },
      {
        "species": [{ "element": "Pd", "occu": 1 }],
        "abc": [0.6599558, 0.25, 0.41567859],
        "properties": { "magmom": 0.0 },
        "label": "Pd",
        "xyz": [3.220440750414384, 1.3818690775, 5.703192251558664]
      },
      {
        "species": [{ "element": "Pd", "occu": 1 }],
        "abc": [0.48851714, 0.49826646, 0.25],
        "properties": { "magmom": -0.0 },
        "label": "Pd",
        "xyz": [2.3838573809517074, 2.754156053717563, 3.430049315]
      },
      {
        "species": [{ "element": "Pd", "occu": 1 }],
        "abc": [0.83749873, 0.50125844, 0.91744347],
        "properties": { "magmom": -0.0 },
        "label": "Pd",
        "xyz": [4.086811629676251, 2.770694152287556, 12.587505383298893]
      },
      {
        "species": [{ "element": "Pd", "occu": 1 }],
        "abc": [0.97794423, 0.75, 0.25],
        "properties": { "magmom": 0.0 },
        "label": "Pd",
        "xyz": [4.7721551199710905, 4.1456072325, 3.430049315]
      },
      {
        "species": [{ "element": "Pd", "occu": 1 }],
        "abc": [0.340044199999999, 0.75, 0.58432141],
        "properties": { "magmom": 0.0 },
        "label": "Pd",
        "xyz": [1.6593417295856112, 4.1456072325, 8.017005008441338]
      },
      {
        "species": [{ "element": "Pd", "occu": 1 }],
        "abc": [0.83749873, 0.50125844, 0.58255653],
        "properties": { "magmom": -0.0 },
        "label": "Pd",
        "xyz": [4.086811629676251, 2.770694152287556, 7.992790506701108]
      },
      {
        "species": [{ "element": "Pd", "occu": 1 }],
        "abc": [0.6599558, 0.25, 0.08432141],
        "properties": { "magmom": 0.0 },
        "label": "Pd",
        "xyz": [3.220440750414384, 1.3818690775, 1.1569063784413367]
      },
      {
        "species": [{ "element": "Pd", "occu": 1 }],
        "abc": [0.02205577, 0.25, 0.75],
        "properties": { "magmom": 0.0 },
        "label": "Pd",
        "xyz": [0.1076273600289096, 1.3818690775, 10.290147945000001]
      },
      {
        "species": [{ "element": "Pd", "occu": 1 }],
        "abc": [0.51148286, 0.50173354, 0.75],
        "properties": { "magmom": -0.0 },
        "label": "Pd",
        "xyz": [2.495925099048293, 2.7733202562824375, 10.290147945000001]
      }
    ]
  },
  "task_ids": null,
  "uncorrected_energy_per_atom": null,
  "energy_per_atom": -23.827114476666665,
  "formation_energy_per_atom": -0.423255606666662,
  "energy_above_hull": 0.0,
  "is_stable": true,
  "equilibrium_reaction_energy_per_atom": null,
  "decomposes_to": null,
  "xas": null,
  "grain_boundaries": null,
  "band_gap": 0.0,
  "cbm": null,
  "vbm": null,
  "efermi": 5.4700073,
  "is_gap_direct": null,
  "is_metal": null,
  "es_source_calc_id": null,
  "bandstructure": null,
  "dos": null,
  "dos_energy_up": null,
  "dos_energy_down": null,
  "is_magnetic": null,
  "ordering": null,
  "total_magnetization": 2e-7,
  "total_magnetization_normalized_vol": null,
  "total_magnetization_normalized_formula_units": null,
  "num_magnetic_sites": null,
  "num_unique_magnetic_sites": null,
  "types_of_magnetic_species": null,
  "bulk_modulus": null,
  "shear_modulus": null,
  "universal_anisotropy": null,
  "homogeneous_poisson": null,
  "e_total": null,
  "e_ionic": null,
  "e_electronic": null,
  "n": null,
  "e_ij_max": null,
  "weighted_surface_energy_EV_PER_ANG2": null,
  "weighted_surface_energy": null,
  "weighted_work_function": null,
  "surface_anisotropy": null,
  "shape_factor": null,
  "has_reconstructed": null,
  "possible_species": null,
  "has_props": null,
  "theoretical": null,
  "database_IDs": null,
  "fields_not_requested": [
    "builder_meta",
    "nsites",
    "elements",
    "nelements",
    "composition",
    "composition_reduced",
    "chemsys",
    "symmetry",
    "property_name",
    "deprecated",
    "deprecation_reasons",
    "last_updated",
    "origins",
    "warnings",
    "task_ids",
    "uncorrected_energy_per_atom",
    "equilibrium_reaction_energy_per_atom",
    "decomposes_to",
    "xas",
    "grain_boundaries",
    "cbm",
    "vbm",
    "is_gap_direct",
    "is_metal",
    "es_source_calc_id",
    "bandstructure",
    "dos",
    "dos_energy_up",
    "dos_energy_down",
    "is_magnetic",
    "ordering",
    "total_magnetization_normalized_vol",
    "total_magnetization_normalized_formula_units",
    "num_magnetic_sites",
    "num_unique_magnetic_sites",
    "types_of_magnetic_species",
    "bulk_modulus",
    "shear_modulus",
    "universal_anisotropy",
    "homogeneous_poisson",
    "e_total",
    "e_ionic",
    "e_electronic",
    "n",
    "e_ij_max",
    "weighted_surface_energy_EV_PER_ANG2",
    "weighted_surface_energy",
    "weighted_work_function",
    "surface_anisotropy",
    "shape_factor",
    "has_reconstructed",
    "possible_species",
    "has_props",
    "theoretical",
    "database_IDs"
  ]
}
