{
  "builder_meta": null,
  "nsites": null,
  "elements": null,
  "nelements": null,
  "composition": null,
  "composition_reduced": null,
  "formula_pretty": "NbPt3",
  "formula_anonymous": "AB3",
  "chemsys": null,
  "volume": 252.25169481019557,
  "density": 17.856902554085874,
  "density_atomic": 15.765730925637223,
  "symmetry": null,
  "property_name": null,
  "material_id": "mp-12700",
  "deprecated": null,
  "deprecation_reasons": null,
  "last_updated": null,
  "origins": null,
  "warnings": null,
  "structure": {
    "@module": "pymatgen.core.structure",
    "@class": "Structure",
    "charge": 0,
    "lattice": {
      "matrix": [
        [4.82655055, 0.0, -0.8891789600000001],
        [0.0, 5.58163898, 0.0],
        [-0.0352188, 0.0, 9.36992951]
      ],
      "pbc": [true, true, true],
      "a": 4.9077723495097025,
      "b": 5.58163898,
      "c": 9.369995698304363,
      "alpha": 90.0,
      "beta": 100.6537225593639,
      "gamma": 90.0,
      "volume": 252.2516948101956
    },
    "properties": {},
    "sites": [
      {
        "species": [{ "element": "Nb", "occu": 1 }],
        "abc": [0.62011302, 0.25, 0.37785134000000004],
        "properties": { "magmom": 0.0 },
        "label": "Nb",
        "xyz": [2.979699366969969, 1.395409745, 2.9890489708529846]
      },
      {
        "species": [{ "element": "Nb", "occu": 1 }],
        "abc": [0.37988698, 0.75, 0.62214866],
        "properties": { "magmom": 0.0 },
        "label": "Nb",
        "xyz": [1.811632383030031, 4.186229235, 5.4917015791470165]
      },
      {
        "species": [{ "element": "Nb", "occu": 1 }],
        "abc": [0.7867206800000001, 0.25, 0.87241892],
        "properties": { "magmom": 0.0 },
        "label": "Nb",
        "xyz": [3.766421583290678, 1.395409745, 7.474968307537437]
      },
      {
        "species": [{ "element": "Nb", "occu": 1 }],
        "abc": [0.21327932, 0.75, 0.12758108],
        "properties": { "magmom": 0.0 },
        "label": "Nb",
        "xyz": [1.024910166709322, 4.186229235, 1.0057822424625638]
      },
      {
        "species": [{ "element": "Pt", "occu": 1 }],
        "abc": [0.20686513, 0.25, 0.12776901000000002],
        "properties": { "magmom": -0.0 },
        "label": "Pt",
        "xyz": [0.9939451357679336, 1.395409745, 1.0132464961088203]
      },
      {
        "species": [{ "element": "Pt", "occu": 1 }],
        "abc": [0.79313487, 0.75, 0.87223099],
        "properties": { "magmom": -0.0 },
        "label": "Pt",
        "xyz": [3.797386614232067, 4.186229235, 7.46750405389118]
      },
      {
        "species": [{ "element": "Pt", "occu": 1 }],
        "abc": [0.39070885, 0.25, 0.62464951],
        "properties": { "magmom": 0.0 },
        "label": "Pt",
        "xyz": [1.8637766086945797, 1.395409745, 5.505511788250245]
      },
      {
        "species": [{ "element": "Pt", "occu": 1 }],
        "abc": [0.60929115, 0.75, 0.37535049],
        "properties": { "magmom": 0.0 },
        "label": "Pt",
        "xyz": [2.9275551413054206, 4.186229235, 2.9752387617497558]
      },
      {
        "species": [{ "element": "Pt", "occu": 1 }],
        "abc": [0.11908038, 0.0009363500000000001, 0.37412191],
        "properties": { "magmom": 0.0 },
        "label": "Pt",
        "xyz": [0.561571348859301, 0.005226367658923, 3.39961215640176]
      },
      {
        "species": [{ "element": "Pt", "occu": 1 }],
        "abc": [0.88091962, 0.50093635, 0.62587809],
        "properties": { "magmom": 0.0 },
        "label": "Pt",
        "xyz": [4.2297604011407, 2.7960458576589233, 5.081138393598241]
      },
      {
        "species": [{ "element": "Pt", "occu": 1 }],
        "abc": [0.88091962, 0.99906365, 0.62587809],
        "properties": { "magmom": 0.0 },
        "label": "Pt",
        "xyz": [4.2297604011407, 5.576412612341077, 5.081138393598241]
      },
      {
        "species": [{ "element": "Pt", "occu": 1 }],
        "abc": [0.11908038, 0.49906365, 0.37412191],
        "properties": { "magmom": 0.0 },
        "label": "Pt",
        "xyz": [0.561571348859301, 2.7855931223410773, 3.39961215640176]
      },
      {
        "species": [{ "element": "Pt", "occu": 1 }],
        "abc": [0.70832723, 0.00164106, 0.12282104],
        "properties": { "magmom": -0.0 },
        "label": "Pt",
        "xyz": [3.4144515718929243, 0.0091598044645188, 0.5209948174338097]
      },
      {
        "species": [{ "element": "Pt", "occu": 1 }],
        "abc": [0.29167277, 0.50164106, 0.8771789600000001],
        "properties": { "magmom": -0.0 },
        "label": "Pt",
        "xyz": [1.3768801781070756, 2.7999792944645185, 7.959755732566191]
      },
      {
        "species": [{ "element": "Pt", "occu": 1 }],
        "abc": [0.29167277, 0.99835894, 0.8771789600000001],
        "properties": { "magmom": -0.0 },
        "label": "Pt",
        "xyz": [1.3768801781070756, 5.572479175535482, 7.959755732566191]
      },
      {
        "species": [{ "element": "Pt", "occu": 1 }],
        "abc": [0.70832723, 0.49835894000000003, 0.12282104],
        "properties": { "magmom": -0.0 },
        "label": "Pt",
        "xyz": [3.4144515718929243, 2.7816596855354816, 0.5209948174338097]
      }
    ]
  },
  "task_ids": null,
  "uncorrected_energy_per_atom": null,
  "energy_per_atom": -45.506798631875,
  "formation_energy_per_atom": -0.707492294375001,
  "energy_above_hull": 0.0,
  "is_stable": true,
  "equilibrium_reaction_energy_per_atom": null,
  "decomposes_to": null,
  "xas": null,
  "grain_boundaries": null,
  "band_gap": 0.0,
  "cbm": null,
  "vbm": null,
  "efermi": 7.23345354,
  "is_gap_direct": null,
  "is_metal": null,
  "es_source_calc_id": null,
  "bandstructure": null,
  "dos": null,
  "dos_energy_up": null,
  "dos_energy_down": null,
  "is_magnetic": null,
  "ordering": null,
  "total_magnetization": 1e-7,
  "total_magnetization_normalized_vol": null,
  "total_magnetization_normalized_formula_units": null,
  "num_magnetic_sites": null,
  "num_unique_magnetic_sites": null,
  "types_of_magnetic_species": null,
  "bulk_modulus": null,
  "shear_modulus": null,
  "universal_anisotropy": null,
  "homogeneous_poisson": null,
  "e_total": null,
  "e_ionic": null,
  "e_electronic": null,
  "n": null,
  "e_ij_max": null,
  "weighted_surface_energy_EV_PER_ANG2": null,
  "weighted_surface_energy": null,
  "weighted_work_function": null,
  "surface_anisotropy": null,
  "shape_factor": null,
  "has_reconstructed": null,
  "possible_species": null,
  "has_props": null,
  "theoretical": null,
  "database_IDs": null,
  "fields_not_requested": [
    "builder_meta",
    "nsites",
    "elements",
    "nelements",
    "composition",
    "composition_reduced",
    "chemsys",
    "symmetry",
    "property_name",
    "deprecated",
    "deprecation_reasons",
    "last_updated",
    "origins",
    "warnings",
    "task_ids",
    "uncorrected_energy_per_atom",
    "equilibrium_reaction_energy_per_atom",
    "decomposes_to",
    "xas",
    "grain_boundaries",
    "cbm",
    "vbm",
    "is_gap_direct",
    "is_metal",
    "es_source_calc_id",
    "bandstructure",
    "dos",
    "dos_energy_up",
    "dos_energy_down",
    "is_magnetic",
    "ordering",
    "total_magnetization_normalized_vol",
    "total_magnetization_normalized_formula_units",
    "num_magnetic_sites",
    "num_unique_magnetic_sites",
    "types_of_magnetic_species",
    "bulk_modulus",
    "shear_modulus",
    "universal_anisotropy",
    "homogeneous_poisson",
    "e_total",
    "e_ionic",
    "e_electronic",
    "n",
    "e_ij_max",
    "weighted_surface_energy_EV_PER_ANG2",
    "weighted_surface_energy",
    "weighted_work_function",
    "surface_anisotropy",
    "shape_factor",
    "has_reconstructed",
    "possible_species",
    "has_props",
    "theoretical",
    "database_IDs"
  ]
}
