{"builder_meta": null, "nsites": null, "elements": null, "nelements": null, "composition": null, "composition_reduced": null, "formula_pretty": "NbPt", "formula_anonymous": "AB", "chemsys": null, "volume": 65.6230222879895, "density": 14.574741001604378, "density_atomic": 16.405755571997375, "symmetry": null, "property_name": null, "material_id": "mp-999376", "deprecated": null, "deprecation_reasons": null, "last_updated": null, "origins": null, "warnings": null, "structure": {"@module": "pymatgen.core.structure", "@class": "Structure", "charge": 0, "lattice": {"matrix": [[4.65333233, 0.0, 0.0], [0.0, 2.79607438, 0.0], [-0.0, 0.0, 5.04363254]], "pbc": [true, true, true], "a": 4.65333233, "b": 2.79607438, "c": 5.04363254, "alpha": 90.0, "beta": 90.0, "gamma": 90.0, "volume": 65.6230222879895}, "properties": {}, "sites": [{"species": [{"element": "Nb", "occu": 1}], "abc": [0.25, 0.0, 0.1794227], "properties": {"magmom": 0.0}, "label": "Nb", "xyz": [1.1633330825, 0.0, 0.9049421681346579]}, {"species": [{"element": "Nb", "occu": 1}], "abc": [0.75, 0.0, 0.8205773], "properties": {"magmom": 0.0}, "label": "Nb", "xyz": [3.4899992474999997, 0.0, 4.138690371865342]}, {"species": [{"element": "Pt", "occu": 1}], "abc": [0.25, 0.5, 0.6739635700000001], "properties": {"magmom": 0.0}, "label": "Pt", "xyz": [1.1633330825, 1.39803719, 3.399224592426568]}, {"species": [{"element": "Pt", "occu": 1}], "abc": [0.75, 0.5, 0.32603643], "properties": {"magmom": 0.0}, "label": "Pt", "xyz": [3.4899992474999997, 1.39803719, 1.6444079475734321]}]}, "task_ids": null, "uncorrected_energy_per_atom": null, "energy_per_atom": -38.775081005, "formation_energy_per_atom": -0.6641852299999941, "energy_above_hull": 0.0, "is_stable": true, "equilibrium_reaction_energy_per_atom": null, "decomposes_to": null, "xas": null, "grain_boundaries": null, "band_gap": 0.0, "cbm": null, "vbm": null, "efermi": 6.7624059800000005, "is_gap_direct": null, "is_metal": null, "es_source_calc_id": null, "bandstructure": null, "dos": null, "dos_energy_up": null, "dos_energy_down": null, "is_magnetic": null, "ordering": null, "total_magnetization": 0.0002653, "total_magnetization_normalized_vol": null, "total_magnetization_normalized_formula_units": null, "num_magnetic_sites": null, "num_unique_magnetic_sites": null, "types_of_magnetic_species": null, "bulk_modulus": null, "shear_modulus": null, "universal_anisotropy": null, "homogeneous_poisson": null, "e_total": null, "e_ionic": null, "e_electronic": null, "n": null, "e_ij_max": null, "weighted_surface_energy_EV_PER_ANG2": null, "weighted_surface_energy": null, "weighted_work_function": null, "surface_anisotropy": null, "shape_factor": null, "has_reconstructed": null, "possible_species": null, "has_props": null, "theoretical": null, "database_IDs": null, "fields_not_requested": ["builder_meta", "nsites", "elements", "nelements", "composition", "composition_reduced", "chemsys", "symmetry", "property_name", "deprecated", "deprecation_reasons", "last_updated", "origins", "warnings", "task_ids", "uncorrected_energy_per_atom", "equilibrium_reaction_energy_per_atom", "decomposes_to", "xas", "grain_boundaries", "cbm", "vbm", "is_gap_direct", "is_metal", "es_source_calc_id", "bandstructure", "dos", "dos_energy_up", "dos_energy_down", "is_magnetic", "ordering", "total_magnetization_normalized_vol", "total_magnetization_normalized_formula_units", "num_magnetic_sites", "num_unique_magnetic_sites", "types_of_magnetic_species", "bulk_modulus", "shear_modulus", "universal_anisotropy", "homogeneous_poisson", "e_total", "e_ionic", "e_electronic", "n", "e_ij_max", "weighted_surface_energy_EV_PER_ANG2", "weighted_surface_energy", "weighted_work_function", "surface_anisotropy", "shape_factor", "has_reconstructed", "possible_species", "has_props", "theoretical", "database_IDs"]}