{
  "builder_meta": null,
  "nsites": null,
  "elements": null,
  "nelements": null,
  "composition": null,
  "composition_reduced": null,
  "formula_pretty": "NbPt4",
  "formula_anonymous": "AB4",
  "chemsys": null,
  "volume": 80.65702236654808,
  "density": 17.978014115261484,
  "density_atomic": 16.131404473309615,
  "symmetry": null,
  "property_name": null,
  "material_id": "mp-1220285",
  "deprecated": null,
  "deprecation_reasons": null,
  "last_updated": null,
  "origins": null,
  "warnings": null,
  "structure": {
    "@module": "pymatgen.core.structure",
    "@class": "Structure",
    "charge": 0,
    "lattice": {
      "matrix": [
        [11.648261, -1.415569, 0.0],
        [11.648261, 1.415569, 0.0],
        [11.476233, 0.0, 2.445795]
      ],
      "pbc": [true, true, true],
      "a": 11.733960112335563,
      "b": 11.733960112335563,
      "c": 11.733960842456993,
      "alpha": 13.857923155401833,
      "beta": 13.857923155401833,
      "gamma": 13.857923559532704,
      "volume": 80.65702236654808
    },
    "properties": {},
    "sites": [
      {
        "species": [{ "element": "Nb", "occu": 1 }],
        "abc": [0.0, 0.0, 0.0],
        "properties": { "magmom": -0.003 },
        "label": "Nb",
        "xyz": [0.0, 0.0, 0.0]
      },
      {
        "species": [{ "element": "Pt", "occu": 1 }],
        "abc": [0.60128, 0.60128, 0.60128],
        "properties": { "magmom": 0.001 },
        "label": "Pt",
        "xyz": [20.9081621264, 0.0, 1.4706076176]
      },
      {
        "species": [{ "element": "Pt", "occu": 1 }],
        "abc": [0.199938, 0.199938, 0.199938],
        "properties": { "magmom": 0.007 },
        "label": "Pt",
        "xyz": [6.95239508919, 0.0, 0.48900736071]
      },
      {
        "species": [{ "element": "Pt", "occu": 1 }],
        "abc": [0.800061999999999, 0.800061999999999, 0.800061999999999],
        "properties": { "magmom": 0.007 },
        "label": "Pt",
        "xyz": [27.82035991080997, 0.0, 1.9567876392899977]
      },
      {
        "species": [{ "element": "Pt", "occu": 1 }],
        "abc": [0.39872, 0.39872, 0.39872],
        "properties": { "magmom": 0.001 },
        "label": "Pt",
        "xyz": [13.864592873600001, 0.0, 0.9751873824]
      }
    ]
  },
  "task_ids": null,
  "uncorrected_energy_per_atom": null,
  "energy_per_atom": -46.449084458499996,
  "formation_energy_per_atom": -0.312096008499997,
  "energy_above_hull": 0.253897827000002,
  "is_stable": false,
  "equilibrium_reaction_energy_per_atom": null,
  "decomposes_to": null,
  "xas": null,
  "grain_boundaries": null,
  "band_gap": 0.0,
  "cbm": null,
  "vbm": null,
  "efermi": 6.8206197,
  "is_gap_direct": null,
  "is_metal": null,
  "es_source_calc_id": null,
  "bandstructure": null,
  "dos": null,
  "dos_energy_up": null,
  "dos_energy_down": null,
  "is_magnetic": null,
  "ordering": null,
  "total_magnetization": 0.026510099999999003,
  "total_magnetization_normalized_vol": null,
  "total_magnetization_normalized_formula_units": null,
  "num_magnetic_sites": null,
  "num_unique_magnetic_sites": null,
  "types_of_magnetic_species": null,
  "bulk_modulus": null,
  "shear_modulus": null,
  "universal_anisotropy": null,
  "homogeneous_poisson": null,
  "e_total": null,
  "e_ionic": null,
  "e_electronic": null,
  "n": null,
  "e_ij_max": null,
  "weighted_surface_energy_EV_PER_ANG2": null,
  "weighted_surface_energy": null,
  "weighted_work_function": null,
  "surface_anisotropy": null,
  "shape_factor": null,
  "has_reconstructed": null,
  "possible_species": null,
  "has_props": null,
  "theoretical": null,
  "database_IDs": null,
  "fields_not_requested": [
    "builder_meta",
    "nsites",
    "elements",
    "nelements",
    "composition",
    "composition_reduced",
    "chemsys",
    "symmetry",
    "property_name",
    "deprecated",
    "deprecation_reasons",
    "last_updated",
    "origins",
    "warnings",
    "task_ids",
    "uncorrected_energy_per_atom",
    "equilibrium_reaction_energy_per_atom",
    "decomposes_to",
    "xas",
    "grain_boundaries",
    "cbm",
    "vbm",
    "is_gap_direct",
    "is_metal",
    "es_source_calc_id",
    "bandstructure",
    "dos",
    "dos_energy_up",
    "dos_energy_down",
    "is_magnetic",
    "ordering",
    "total_magnetization_normalized_vol",
    "total_magnetization_normalized_formula_units",
    "num_magnetic_sites",
    "num_unique_magnetic_sites",
    "types_of_magnetic_species",
    "bulk_modulus",
    "shear_modulus",
    "universal_anisotropy",
    "homogeneous_poisson",
    "e_total",
    "e_ionic",
    "e_electronic",
    "n",
    "e_ij_max",
    "weighted_surface_energy_EV_PER_ANG2",
    "weighted_surface_energy",
    "weighted_work_function",
    "surface_anisotropy",
    "shape_factor",
    "has_reconstructed",
    "possible_species",
    "has_props",
    "theoretical",
    "database_IDs"
  ]
}
