{"builder_meta": null, "nsites": null, "elements": null, "nelements": null, "composition": null, "composition_reduced": null, "formula_pretty": "NbRh3", "formula_anonymous": "AB3", "chemsys": null, "volume": 350.3299559421501, "density": 11.421983264095127, "density_atomic": 14.597081497589587, "symmetry": null, "property_name": null, "material_id": "mp-1191559", "deprecated": null, "deprecation_reasons": null, "last_updated": null, "origins": null, "warnings": null, "structure": {"@module": "pymatgen.core.structure", "@class": "Structure", "charge": 0, "lattice": {"matrix": [[-2.747201549999999, -4.75829418, 7e-08], [-2.747201549999999, 4.75829418, -7e-08], [0.0, 2e-07, -13.40002064]], "pbc": [true, true, true], "a": 5.494404413559697, "b": 5.494404413559697, "c": 13.400020640000001, "alpha": 89.99999852944836, "beta": 90.00000147055162, "gamma": 120.00001581689301, "volume": 350.3299559421499}, "properties": {}, "sites": [{"species": [{"element": "Nb", "occu": 1}], "abc": [1.6e-07, -1.6e-07, 0.7500052700000001], "properties": {"magmom": -0.0}, "label": "Nb", "xyz": [0.0, -1.3726530836e-06, -10.05008609810875]}, {"species": [{"element": "Nb", "occu": 1}], "abc": [-1.2e-07, 1.2e-07, 0.24999573], "properties": {"magmom": -0.0}, "label": "Nb", "xyz": [0.0, 1.1919897492e-06, -3.349947941911884]}, {"species": [{"element": "Nb", "occu": 1}], "abc": [0.66667783, 0.33332217000000003, 0.58909757], "properties": {"magmom": -0.0}, "label": "Nb", "xyz": [-2.747201549999999, -1.586204179028545, -7.893919573638948]}, {"species": [{"element": "Nb", "occu": 1}], "abc": [0.33332225, 0.6666777500000001, 0.41090536], "properties": {"magmom": -0.0}, "label": "Nb", "xyz": [-2.747201549999999, 1.5862036177020622, -5.506140328421515]}, {"species": [{"element": "Nb", "occu": 1}], "abc": [0.33332224, 0.66667776, 0.08908978000000001], "properties": {"magmom": -0.0}, "label": "Nb", "xyz": [-2.747201549999999, 1.5862036485048296, -1.1938049141479457]}, {"species": [{"element": "Nb", "occu": 1}], "abc": [0.66667776, 0.33332224, 0.9109073], "properties": {"magmom": -0.0}, "label": "Nb", "xyz": [-2.747201549999999, -1.5862034485054137, -12.206176597791785]}, {"species": [{"element": "Rh", "occu": 1}], "abc": [0.49538146, 0.99075838, 0.75001123], "properties": {"magmom": 0.0}, "label": "Rh", "xyz": [-4.0827256719647504, 2.357149265344572, -10.050165996908172]}, {"species": [{"element": "Rh", "occu": 1}], "abc": [0.4953862, 0.5046138, 0.75001121], "properties": {"magmom": 0.0}, "label": "Rh", "xyz": [-2.747201549999999, 0.04390778537761024, -10.050165694877306]}, {"species": [{"element": "Rh", "occu": 1}], "abc": [0.00924262, 0.5046185400000001, 0.75001123], "properties": {"magmom": 0.0}, "label": "Rh", "xyz": [-1.4116801752367976, 2.3571445070503922, -10.050165996908103]}, {"species": [{"element": "Rh", "occu": 1}], "abc": [0.50461964, 0.009243930000000001, 0.24998997], "properties": {"magmom": 0.0}, "label": "Rh", "xyz": [-1.411686795992533, -2.3571433078083737, -3.349870723116681]}, {"species": [{"element": "Rh", "occu": 1}], "abc": [0.50461412, 0.49538588, 0.24999000000000002], "properties": {"magmom": 0.0}, "label": "Rh", "xyz": [-2.747201549999999, -0.04391063068564357, -3.3498711591476233]}, {"species": [{"element": "Rh", "occu": 1}], "abc": [0.99075607, 0.49538036, 0.24998997], "properties": {"magmom": 0.0}, "label": "Rh", "xyz": [-4.082716304007465, -2.3571433078083737, -3.349870723116681]}, {"species": [{"element": "Rh", "occu": 1}], "abc": [0.83401198, 0.16598802000000001, 0.08249846], "properties": {"magmom": 0.0}, "label": "Rh", "xyz": [-2.747201549999999, -3.1786545044688608, -1.105481020006537]}, {"species": [{"element": "Rh", "occu": 1}], "abc": [0.33196777, 0.16599222, 0.08250125], "properties": {"magmom": 0.0}, "label": "Rh", "xyz": [-1.3679964563659839, -0.7897604770870489, -1.1055184412075114]}, {"species": [{"element": "Rh", "occu": 1}], "abc": [0.83400778, 0.66803223, 0.08250125], "properties": {"magmom": 0.0}, "label": "Rh", "xyz": [-4.126406643634014, -0.7897604770870488, -1.1055184412075114]}, {"species": [{"element": "Rh", "occu": 1}], "abc": [0.16598803, 0.83401197, 0.91749163], "properties": {"magmom": 0.0}, "label": "Rh", "xyz": [-2.747201549999999, 3.1786546093009953, -12.294406825788919]}, {"species": [{"element": "Rh", "occu": 1}], "abc": [0.66803249, 0.83400809, 0.9174889900000001], "properties": {"magmom": 0.0}, "label": "Rh", "xyz": [-4.126408209538897, 0.7897609149998056, -12.294371414591046]}, {"species": [{"element": "Rh", "occu": 1}], "abc": [0.16599191, 0.33196751, 0.9174889900000001], "properties": {"magmom": 0.0}, "label": "Rh", "xyz": [-1.3679948904611006, 0.7897609149998062, -12.294371414591046]}, {"species": [{"element": "Rh", "occu": 1}], "abc": [0.16598829, 0.8340117100000001, 0.58251911], "properties": {"magmom": -0.0}, "label": "Rh", "xyz": [-2.747201549999999, 3.178652067993518, -7.805768143956069]}, {"species": [{"element": "Rh", "occu": 1}], "abc": [0.66803208, 0.8340071, 0.5825209100000001], "properties": {"magmom": -0.0}, "label": "Rh", "xyz": [-4.126404363456728, 0.7897580881955656, -7.805792228849834]}, {"species": [{"element": "Rh", "occu": 1}], "abc": [0.1659929, 0.33196792, 0.5825209100000001], "properties": {"magmom": -0.0}, "label": "Rh", "xyz": [-1.3679987365432704, 0.7897580881955656, -7.805792228849834]}, {"species": [{"element": "Rh", "occu": 1}], "abc": [0.83401174, 0.16598826, 0.41748962], "properties": {"magmom": 0.0}, "label": "Rh", "xyz": [-2.747201549999999, -3.1786521534894225, -5.594369478224113]}, {"species": [{"element": "Rh", "occu": 1}], "abc": [0.33196931, 0.16599252, 0.41748762], "properties": {"magmom": -0.0}, "label": "Rh", "xyz": [-1.368001511216836, -0.7897663103745584, -5.594342713326101]}, {"species": [{"element": "Rh", "occu": 1}], "abc": [0.83400748, 0.66803069, 0.41748762], "properties": {"magmom": -0.0}, "label": "Rh", "xyz": [-4.126401588783162, -0.7897663103745582, -5.594342713326101]}]}, "task_ids": null, "uncorrected_energy_per_atom": null, "energy_per_atom": -8.556921531250003, "formation_energy_per_atom": -0.508364368750001, "energy_above_hull": 0.0, "is_stable": true, "equilibrium_reaction_energy_per_atom": null, "decomposes_to": null, "xas": null, "grain_boundaries": null, "band_gap": 0.0, "cbm": null, "vbm": null, "efermi": 6.69776811, "is_gap_direct": null, "is_metal": null, "es_source_calc_id": null, "bandstructure": null, "dos": null, "dos_energy_up": null, "dos_energy_down": null, "is_magnetic": null, "ordering": null, "total_magnetization": 1.2600000000000001e-05, "total_magnetization_normalized_vol": null, "total_magnetization_normalized_formula_units": null, "num_magnetic_sites": null, "num_unique_magnetic_sites": null, "types_of_magnetic_species": null, "bulk_modulus": null, "shear_modulus": null, "universal_anisotropy": null, "homogeneous_poisson": null, "e_total": null, "e_ionic": null, "e_electronic": null, "n": null, "e_ij_max": null, "weighted_surface_energy_EV_PER_ANG2": null, "weighted_surface_energy": null, "weighted_work_function": null, "surface_anisotropy": null, "shape_factor": null, "has_reconstructed": null, "possible_species": null, "has_props": null, "theoretical": null, "database_IDs": null, "fields_not_requested": ["builder_meta", "nsites", "elements", "nelements", "composition", "composition_reduced", "chemsys", "symmetry", "property_name", "deprecated", "deprecation_reasons", "last_updated", "origins", "warnings", "task_ids", "uncorrected_energy_per_atom", "equilibrium_reaction_energy_per_atom", "decomposes_to", "xas", "grain_boundaries", "cbm", "vbm", "is_gap_direct", "is_metal", "es_source_calc_id", "bandstructure", "dos", "dos_energy_up", "dos_energy_down", "is_magnetic", "ordering", "total_magnetization_normalized_vol", "total_magnetization_normalized_formula_units", "num_magnetic_sites", "num_unique_magnetic_sites", "types_of_magnetic_species", "bulk_modulus", "shear_modulus", "universal_anisotropy", "homogeneous_poisson", "e_total", "e_ionic", "e_electronic", "n", "e_ij_max", "weighted_surface_energy_EV_PER_ANG2", "weighted_surface_energy", "weighted_work_function", "surface_anisotropy", "shape_factor", "has_reconstructed", "possible_species", "has_props", "theoretical", "database_IDs"]}