{
  "builder_meta": null,
  "nsites": null,
  "elements": null,
  "nelements": null,
  "composition": null,
  "composition_reduced": null,
  "formula_pretty": "NbRh2",
  "formula_anonymous": "AB2",
  "chemsys": null,
  "volume": 93.07151864302041,
  "density": 10.659155165716117,
  "density_atomic": 15.511919773836736,
  "symmetry": null,
  "property_name": null,
  "material_id": "mp-1220414",
  "deprecated": null,
  "deprecation_reasons": null,
  "last_updated": null,
  "origins": null,
  "warnings": null,
  "structure": {
    "@module": "pymatgen.core.structure",
    "@class": "Structure",
    "charge": 0,
    "lattice": {
      "matrix": [
        [2.85334, 0.0, 0.0],
        [0.0, 4.8289349999999995, 0.0],
        [0.0, 1.789140999999999, 6.754791]
      ],
      "pbc": [true, true, true],
      "a": 2.85334,
      "b": 4.8289349999999995,
      "c": 6.9877197261740545,
      "alpha": 75.16473677310019,
      "beta": 90.0,
      "gamma": 90.0,
      "volume": 93.07151864302038
    },
    "properties": {},
    "sites": [
      {
        "species": [{ "element": "Nb", "occu": 1 }],
        "abc": [0.5, 0.269088999999999, 0.653633999999999],
        "properties": { "magmom": -0.0 },
        "label": "Nb",
        "xyz": [1.42667, 2.4688566786089927, 4.415161060493993]
      },
      {
        "species": [{ "element": "Nb", "occu": 1 }],
        "abc": [0.5, 0.518293, 0.014518999999999001],
        "properties": { "magmom": -0.0 },
        "label": "Nb",
        "xyz": [1.42667, 2.5287797461339983, 0.09807281052899325]
      },
      {
        "species": [{ "element": "Rh", "occu": 1 }],
        "abc": [0.0, 0.7602800000000001, 0.669739],
        "properties": { "magmom": 0.0 },
        "label": "Rh",
        "xyz": [0.0, 4.869600205998999, 4.523946969549]
      },
      {
        "species": [{ "element": "Rh", "occu": 1 }],
        "abc": [0.0, 0.212428999999999, 0.33256],
        "properties": { "magmom": 0.0 },
        "label": "Rh",
        "xyz": [0.0, 1.6208025640749948, 2.24637329496]
      },
      {
        "species": [{ "element": "Rh", "occu": 1 }],
        "abc": [0.0, 0.014573, 0.9937300000000001],
        "properties": { "magmom": 0.0 },
        "label": "Rh",
        "xyz": [0.0, 1.8482951556849994, 6.7124384604300005]
      },
      {
        "species": [{ "element": "Rh", "occu": 1 }],
        "abc": [0.5, 0.725336, 0.335818],
        "properties": { "magmom": 0.0 },
        "label": "Rh",
        "xyz": [1.42667, 4.1034261494979996, 2.268380404038]
      }
    ]
  },
  "task_ids": null,
  "uncorrected_energy_per_atom": null,
  "energy_per_atom": -8.645052838333333,
  "formation_energy_per_atom": -0.368412578333333,
  "energy_above_hull": 0.104269357500003,
  "is_stable": false,
  "equilibrium_reaction_energy_per_atom": null,
  "decomposes_to": null,
  "xas": null,
  "grain_boundaries": null,
  "band_gap": 0.0,
  "cbm": null,
  "vbm": null,
  "efermi": 6.30488825,
  "is_gap_direct": null,
  "is_metal": null,
  "es_source_calc_id": null,
  "bandstructure": null,
  "dos": null,
  "dos_energy_up": null,
  "dos_energy_down": null,
  "is_magnetic": null,
  "ordering": null,
  "total_magnetization": 0.000242,
  "total_magnetization_normalized_vol": null,
  "total_magnetization_normalized_formula_units": null,
  "num_magnetic_sites": null,
  "num_unique_magnetic_sites": null,
  "types_of_magnetic_species": null,
  "bulk_modulus": null,
  "shear_modulus": null,
  "universal_anisotropy": null,
  "homogeneous_poisson": null,
  "e_total": null,
  "e_ionic": null,
  "e_electronic": null,
  "n": null,
  "e_ij_max": null,
  "weighted_surface_energy_EV_PER_ANG2": null,
  "weighted_surface_energy": null,
  "weighted_work_function": null,
  "surface_anisotropy": null,
  "shape_factor": null,
  "has_reconstructed": null,
  "possible_species": null,
  "has_props": null,
  "theoretical": null,
  "database_IDs": null,
  "fields_not_requested": [
    "builder_meta",
    "nsites",
    "elements",
    "nelements",
    "composition",
    "composition_reduced",
    "chemsys",
    "symmetry",
    "property_name",
    "deprecated",
    "deprecation_reasons",
    "last_updated",
    "origins",
    "warnings",
    "task_ids",
    "uncorrected_energy_per_atom",
    "equilibrium_reaction_energy_per_atom",
    "decomposes_to",
    "xas",
    "grain_boundaries",
    "cbm",
    "vbm",
    "is_gap_direct",
    "is_metal",
    "es_source_calc_id",
    "bandstructure",
    "dos",
    "dos_energy_up",
    "dos_energy_down",
    "is_magnetic",
    "ordering",
    "total_magnetization_normalized_vol",
    "total_magnetization_normalized_formula_units",
    "num_magnetic_sites",
    "num_unique_magnetic_sites",
    "types_of_magnetic_species",
    "bulk_modulus",
    "shear_modulus",
    "universal_anisotropy",
    "homogeneous_poisson",
    "e_total",
    "e_ionic",
    "e_electronic",
    "n",
    "e_ij_max",
    "weighted_surface_energy_EV_PER_ANG2",
    "weighted_surface_energy",
    "weighted_work_function",
    "surface_anisotropy",
    "shape_factor",
    "has_reconstructed",
    "possible_species",
    "has_props",
    "theoretical",
    "database_IDs"
  ]
}
