{
  "builder_meta": null,
  "nsites": null,
  "elements": null,
  "nelements": null,
  "composition": null,
  "composition_reduced": null,
  "formula_pretty": "NbS2",
  "formula_anonymous": "AB2",
  "chemsys": null,
  "volume": 124.07739745121462,
  "density": 4.203264240289562,
  "density_atomic": 20.679566241869104,
  "symmetry": null,
  "property_name": null,
  "material_id": "mp-10033",
  "deprecated": null,
  "deprecation_reasons": null,
  "last_updated": null,
  "origins": null,
  "warnings": null,
  "structure": {
    "@module": "pymatgen.core.structure",
    "@class": "Structure",
    "charge": 0,
    "lattice": {
      "matrix": [
        [3.3687676, 1e-8, -0.0],
        [-1.68438328, 2.91743872, -0.0],
        [0.0, 0.0, 12.62466552]
      ],
      "pbc": [true, true, true],
      "a": 3.3687676,
      "b": 3.368767685504418,
      "c": 12.62466552,
      "alpha": 90.0,
      "beta": 90.0,
      "gamma": 119.99998877799074,
      "volume": 124.07739745121462
    },
    "properties": {},
    "sites": [
      {
        "species": [{ "element": "Nb", "occu": 1 }],
        "abc": [-0.0, -0.0, 0.75],
        "properties": { "magmom": 0.683 },
        "label": "Nb",
        "xyz": [0.0, 0.0, 9.46849914]
      },
      {
        "species": [{ "element": "Nb", "occu": 1 }],
        "abc": [0.0, 0.0, 0.25],
        "properties": { "magmom": 0.683 },
        "label": "Nb",
        "xyz": [0.0, 0.0, 3.15616638]
      },
      {
        "species": [{ "element": "S", "occu": 1 }],
        "abc": [0.333333, 0.666667, 0.37381142],
        "properties": { "magmom": 0.001 },
        "label": "S",
        "xyz": [-1.3377169598705052e-6, 1.94496012247957, 4.719244145056239]
      },
      {
        "species": [{ "element": "S", "occu": 1 }],
        "abc": [0.666667, 0.333333, 0.87381142],
        "properties": { "magmom": 0.001 },
        "label": "S",
        "xyz": [1.6843856577169602, 0.9724786075204299, 11.03157690505624]
      },
      {
        "species": [{ "element": "S", "occu": 1 }],
        "abc": [0.333333, 0.666667, 0.12618858],
        "properties": { "magmom": 0.001 },
        "label": "S",
        "xyz": [-1.3377169598705052e-6, 1.94496012247957, 1.5930886149437615]
      },
      {
        "species": [{ "element": "S", "occu": 1 }],
        "abc": [0.666667, 0.333333, 0.62618858],
        "properties": { "magmom": 0.001 },
        "label": "S",
        "xyz": [1.6843856577169602, 0.9724786075204299, 7.905421374943762]
      }
    ]
  },
  "task_ids": null,
  "uncorrected_energy_per_atom": null,
  "energy_per_atom": -7.473907361666665,
  "formation_energy_per_atom": -1.347899303333331,
  "energy_above_hull": 0.0,
  "is_stable": true,
  "equilibrium_reaction_energy_per_atom": null,
  "decomposes_to": null,
  "xas": null,
  "grain_boundaries": null,
  "band_gap": 0.0,
  "cbm": null,
  "vbm": null,
  "efermi": 3.52598139,
  "is_gap_direct": null,
  "is_metal": null,
  "es_source_calc_id": null,
  "bandstructure": null,
  "dos": null,
  "dos_energy_up": null,
  "dos_energy_down": null,
  "is_magnetic": null,
  "ordering": null,
  "total_magnetization": 1.7276673,
  "total_magnetization_normalized_vol": null,
  "total_magnetization_normalized_formula_units": null,
  "num_magnetic_sites": null,
  "num_unique_magnetic_sites": null,
  "types_of_magnetic_species": null,
  "bulk_modulus": null,
  "shear_modulus": null,
  "universal_anisotropy": null,
  "homogeneous_poisson": null,
  "e_total": null,
  "e_ionic": null,
  "e_electronic": null,
  "n": null,
  "e_ij_max": null,
  "weighted_surface_energy_EV_PER_ANG2": null,
  "weighted_surface_energy": null,
  "weighted_work_function": null,
  "surface_anisotropy": null,
  "shape_factor": null,
  "has_reconstructed": null,
  "possible_species": null,
  "has_props": null,
  "theoretical": null,
  "database_IDs": null,
  "fields_not_requested": [
    "builder_meta",
    "nsites",
    "elements",
    "nelements",
    "composition",
    "composition_reduced",
    "chemsys",
    "symmetry",
    "property_name",
    "deprecated",
    "deprecation_reasons",
    "last_updated",
    "origins",
    "warnings",
    "task_ids",
    "uncorrected_energy_per_atom",
    "equilibrium_reaction_energy_per_atom",
    "decomposes_to",
    "xas",
    "grain_boundaries",
    "cbm",
    "vbm",
    "is_gap_direct",
    "is_metal",
    "es_source_calc_id",
    "bandstructure",
    "dos",
    "dos_energy_up",
    "dos_energy_down",
    "is_magnetic",
    "ordering",
    "total_magnetization_normalized_vol",
    "total_magnetization_normalized_formula_units",
    "num_magnetic_sites",
    "num_unique_magnetic_sites",
    "types_of_magnetic_species",
    "bulk_modulus",
    "shear_modulus",
    "universal_anisotropy",
    "homogeneous_poisson",
    "e_total",
    "e_ionic",
    "e_electronic",
    "n",
    "e_ij_max",
    "weighted_surface_energy_EV_PER_ANG2",
    "weighted_surface_energy",
    "weighted_work_function",
    "surface_anisotropy",
    "shape_factor",
    "has_reconstructed",
    "possible_species",
    "has_props",
    "theoretical",
    "database_IDs"
  ]
}
