{"builder_meta": null, "nsites": null, "elements": null, "nelements": null, "composition": null, "composition_reduced": null, "formula_pretty": "NbS3", "formula_anonymous": "AB3", "chemsys": null, "volume": 473.56548423398874, "density": 3.978460079867045, "density_atomic": 19.7318951764162, "symmetry": null, "property_name": null, "material_id": "mp-1190583", "deprecated": null, "deprecation_reasons": null, "last_updated": null, "origins": null, "warnings": null, "structure": {"@module": "pymatgen.core.structure", "@class": "Structure", "charge": 0, "lattice": {"matrix": [[0.0, 3.37843681, 0.0], [9.22277533, 0.0, -3.30892247], [-9.32371238, 0.0, -11.85342954]], "pbc": [true, true, true], "a": 3.37843681, "b": 9.798395414562911, "c": 15.080961653843891, "alpha": 108.45117263467294, "beta": 90.0, "gamma": 90.0, "volume": 473.56548423398874}, "properties": {}, "sites": [{"species": [{"element": "Nb", "occu": 1}], "abc": [0.25, 0.5239319100000001, 0.88308631], "properties": {"magmom": -0.0}, "label": "Nb", "xyz": [-3.4015364670077384, 0.8446092025, -12.201251423072616]}, {"species": [{"element": "Nb", "occu": 1}], "abc": [0.75, 0.47606809, 0.11691369], "properties": {"magmom": -0.0}, "label": "Nb", "xyz": [3.300599417007737, 2.5338276075, -2.961100586927385]}, {"species": [{"element": "Nb", "occu": 1}], "abc": [0.75, 0.10997325000000001, 0.79426175], "properties": {"magmom": 0.0}, "label": "Nb", "xyz": [-6.391209534375543, 2.5338276075, -9.778618647966022]}, {"species": [{"element": "Nb", "occu": 1}], "abc": [0.25, 0.89002675, 0.20573825], "properties": {"magmom": 0.0}, "label": "Nb", "xyz": [6.29027248437554, 0.8446092025, -5.383733362033977]}, {"species": [{"element": "Nb", "occu": 1}], "abc": [0.25, 0.84206536, 0.54048195], "properties": {"magmom": 0.0}, "label": "Nb", "xyz": [2.726881380074027, 0.8446092025, -9.192893702879442]}, {"species": [{"element": "Nb", "occu": 1}], "abc": [0.75, 0.15793464000000002, 0.45951805], "properties": {"magmom": 0.0}, "label": "Nb", "xyz": [-2.8278184300740277, 2.5338276075, -5.969458307120558]}, {"species": [{"element": "S", "occu": 1}], "abc": [0.75, 0.72467707, 0.90106438], "properties": {"magmom": -0.0}, "label": "S", "xyz": [-1.7177313115703416, 2.5338276075, -13.078603379750549]}, {"species": [{"element": "S", "occu": 1}], "abc": [0.25, 0.27532293, 0.09893562], "properties": {"magmom": -0.0}, "label": "S", "xyz": [1.6167942615703415, 0.8446092025, -2.083748630249452]}, {"species": [{"element": "S", "occu": 1}], "abc": [0.75, 0.56927064, 0.7704671200000001], "properties": {"magmom": 0.0}, "label": "S", "xyz": [-1.9333586104416343, 2.5338276075, -11.016350132014006]}, {"species": [{"element": "S", "occu": 1}], "abc": [0.25, 0.43072936, 0.22953288], "properties": {"magmom": 0.0}, "label": "S", "xyz": [1.8324215604416345, 0.8446092025, -4.146001877985995]}, {"species": [{"element": "S", "occu": 1}], "abc": [0.75, 0.66654712, 0.56732021], "properties": {"magmom": 0.0}, "label": "S", "xyz": [0.8578838692173498, 2.5338276075, -8.93024287853479]}, {"species": [{"element": "S", "occu": 1}], "abc": [0.25, 0.33345288, 0.43267979], "properties": {"magmom": 0.0}, "label": "S", "xyz": [-0.9588209192173505, 0.8446092025, -6.232109131465211]}, {"species": [{"element": "S", "occu": 1}], "abc": [0.75, 0.67565436, 0.43319816], "properties": {"magmom": 0.0}, "label": "S", "xyz": [2.192393315629717, 2.5338276075, -7.370571760175116]}, {"species": [{"element": "S", "occu": 1}], "abc": [0.25, 0.32434564, 0.56680184], "properties": {"magmom": 0.0}, "label": "S", "xyz": [-2.293330365629718, 0.8446092025, -7.791780249824885]}, {"species": [{"element": "S", "occu": 1}], "abc": [0.75, 0.3745746, 0.93506602], "properties": {"magmom": -0.0}, "label": "S", "xyz": [-5.26366924666671, 2.5338276075, -12.323177493949494]}, {"species": [{"element": "S", "occu": 1}], "abc": [0.25, 0.6254254, 0.06493398], "properties": {"magmom": -0.0}, "label": "S", "xyz": [5.162732196666709, 0.8446092025, -2.8391745160505075]}, {"species": [{"element": "S", "occu": 1}], "abc": [0.25, 0.08845383, 0.90931541], "properties": {"magmom": -0.0}, "label": "S", "xyz": [-7.662405544373762, 0.8446092025, -11.071193007715772]}, {"species": [{"element": "S", "occu": 1}], "abc": [0.75, 0.91154617, 0.09068459], "properties": {"magmom": -0.0}, "label": "S", "xyz": [7.561468494373761, 2.5338276075, -4.091159002284229]}, {"species": [{"element": "S", "occu": 1}], "abc": [0.25, 0.91115265, 0.72102392], "properties": {"magmom": -0.0}, "label": "S", "xyz": [1.6807365331039943, 0.8446092025, -11.561539709559645]}, {"species": [{"element": "S", "occu": 1}], "abc": [0.75, 0.08884735, 0.27897608], "properties": {"magmom": -0.0}, "label": "S", "xyz": [-1.781673583103995, 2.5338276075, -3.600812300440358]}, {"species": [{"element": "S", "occu": 1}], "abc": [0.25, 0.27473921, 0.7532112], "properties": {"magmom": 0.0}, "label": "S", "xyz": [-4.4888665820229665, 0.8446092025, -9.837226633297897]}, {"species": [{"element": "S", "occu": 1}], "abc": [0.75, 0.72526079, 0.2467888], "properties": {"magmom": 0.0}, "label": "S", "xyz": [4.387929532022966, 2.5338276075, -5.325125376702104]}, {"species": [{"element": "S", "occu": 1}], "abc": [0.75, 0.04071141, 0.59359292], "properties": {"magmom": -0.0}, "label": "S", "xyz": [-5.159017469086834, 2.5338276075, -7.17082275199724]}, {"species": [{"element": "S", "occu": 1}], "abc": [0.25, 0.95928859, 0.40640808], "properties": {"magmom": -0.0}, "label": "S", "xyz": [5.058071095374454, 0.8446092025, -7.991541111432301]}]}, "task_ids": null, "uncorrected_energy_per_atom": null, "energy_per_atom": -6.777832690833333, "formation_energy_per_atom": -1.148736755208332, "energy_above_hull": 0.0, "is_stable": true, "equilibrium_reaction_energy_per_atom": null, "decomposes_to": null, "xas": null, "grain_boundaries": null, "band_gap": 0.0, "cbm": null, "vbm": null, "efermi": 4.781879, "is_gap_direct": null, "is_metal": null, "es_source_calc_id": null, "bandstructure": null, "dos": null, "dos_energy_up": null, "dos_energy_down": null, "is_magnetic": null, "ordering": null, "total_magnetization": 3e-07, "total_magnetization_normalized_vol": null, "total_magnetization_normalized_formula_units": null, "num_magnetic_sites": null, "num_unique_magnetic_sites": null, "types_of_magnetic_species": null, "bulk_modulus": null, "shear_modulus": null, "universal_anisotropy": null, "homogeneous_poisson": null, "e_total": null, "e_ionic": null, "e_electronic": null, "n": null, "e_ij_max": null, "weighted_surface_energy_EV_PER_ANG2": null, "weighted_surface_energy": null, "weighted_work_function": null, "surface_anisotropy": null, "shape_factor": null, "has_reconstructed": null, "possible_species": null, "has_props": null, "theoretical": null, "database_IDs": null, "fields_not_requested": ["builder_meta", "nsites", "elements", "nelements", "composition", "composition_reduced", "chemsys", "symmetry", "property_name", "deprecated", "deprecation_reasons", "last_updated", "origins", "warnings", "task_ids", "uncorrected_energy_per_atom", "equilibrium_reaction_energy_per_atom", "decomposes_to", "xas", "grain_boundaries", "cbm", "vbm", "is_gap_direct", "is_metal", "es_source_calc_id", "bandstructure", "dos", "dos_energy_up", "dos_energy_down", "is_magnetic", "ordering", "total_magnetization_normalized_vol", "total_magnetization_normalized_formula_units", "num_magnetic_sites", "num_unique_magnetic_sites", "types_of_magnetic_species", "bulk_modulus", "shear_modulus", "universal_anisotropy", "homogeneous_poisson", "e_total", "e_ionic", "e_electronic", "n", "e_ij_max", "weighted_surface_energy_EV_PER_ANG2", "weighted_surface_energy", "weighted_work_function", "surface_anisotropy", "shape_factor", "has_reconstructed", "possible_species", "has_props", "theoretical", "database_IDs"]}