{"builder_meta": null, "nsites": null, "elements": null, "nelements": null, "composition": null, "composition_reduced": null, "formula_pretty": "NbS6", "formula_anonymous": "AB6", "chemsys": null, "volume": 3967.992039152498, "density": 0.11939181829879401, "density_atomic": 566.856005593214, "symmetry": null, "property_name": null, "material_id": "mp-1210578", "deprecated": null, "deprecation_reasons": null, "last_updated": null, "origins": null, "warnings": null, "structure": {"@module": "pymatgen.core.structure", "@class": "Structure", "charge": 0, "lattice": {"matrix": [[4.555855, -8.419017, 0.0], [4.555855, 8.419017, 0.0], [0.0, 0.0, 51.726074]], "pbc": [true, true, true], "a": 9.572651776144058, "b": 9.572651776144058, "c": 51.726074, "alpha": 90.0, "beta": 90.0, "gamma": 123.16093896680111, "volume": 3967.992039152498}, "properties": {}, "sites": [{"species": [{"element": "Nb", "occu": 1}], "abc": [0.0, 0.0, 0.0], "properties": {"magmom": 0.876}, "label": "Nb", "xyz": [0.0, 0.0, 0.0]}, {"species": [{"element": "S", "occu": 1}], "abc": [0.0, 0.0, 0.249996], "properties": {"magmom": 1.097}, "label": "S", "xyz": [0.0, 0.0, 12.931311595703999]}, {"species": [{"element": "S", "occu": 1}], "abc": [0.0, 0.0, 0.750004], "properties": {"magmom": 1.097}, "label": "S", "xyz": [0.0, 0.0, 38.794762404295994]}, {"species": [{"element": "S", "occu": 1}], "abc": [0.242245, 0.990732, 0.0], "properties": {"magmom": -0.042}, "label": "S", "xyz": [5.617264430334999, 6.301524777279001, 0.0]}, {"species": [{"element": "S", "occu": 1}], "abc": [0.757755, 0.009268, 0.0], "properties": {"magmom": -0.042}, "label": "S", "xyz": [3.4944455696650003, -6.301524777279, 0.0]}, {"species": [{"element": "S", "occu": 1}], "abc": [0.990732, 0.242245, 0.0], "properties": {"magmom": -0.042}, "label": "S", "xyz": [5.617264430334999, -6.301524777279001, 0.0]}, {"species": [{"element": "S", "occu": 1}], "abc": [0.009268, 0.757755, 0.0], "properties": {"magmom": -0.042}, "label": "S", "xyz": [3.4944455696650003, 6.301524777279, 0.0]}]}, "task_ids": null, "uncorrected_energy_per_atom": null, "energy_per_atom": -4.30530738, "formation_energy_per_atom": 0.6849015407142861, "energy_above_hull": 1.341322543690476, "is_stable": false, "equilibrium_reaction_energy_per_atom": null, "decomposes_to": null, "xas": null, "grain_boundaries": null, "band_gap": 0.06329999999999901, "cbm": null, "vbm": null, "efermi": -5.47654606, "is_gap_direct": null, "is_metal": null, "es_source_calc_id": null, "bandstructure": null, "dos": null, "dos_energy_up": null, "dos_energy_down": null, "is_magnetic": null, "ordering": null, "total_magnetization": 4.9285446, "total_magnetization_normalized_vol": null, "total_magnetization_normalized_formula_units": null, "num_magnetic_sites": null, "num_unique_magnetic_sites": null, "types_of_magnetic_species": null, "bulk_modulus": null, "shear_modulus": null, "universal_anisotropy": null, "homogeneous_poisson": null, "e_total": null, "e_ionic": null, "e_electronic": null, "n": null, "e_ij_max": null, "weighted_surface_energy_EV_PER_ANG2": null, "weighted_surface_energy": null, "weighted_work_function": null, "surface_anisotropy": null, "shape_factor": null, "has_reconstructed": null, "possible_species": null, "has_props": null, "theoretical": null, "database_IDs": null, "fields_not_requested": ["builder_meta", "nsites", "elements", "nelements", "composition", "composition_reduced", "chemsys", "symmetry", "property_name", "deprecated", "deprecation_reasons", "last_updated", "origins", "warnings", "task_ids", "uncorrected_energy_per_atom", "equilibrium_reaction_energy_per_atom", "decomposes_to", "xas", "grain_boundaries", "cbm", "vbm", "is_gap_direct", "is_metal", "es_source_calc_id", "bandstructure", "dos", "dos_energy_up", "dos_energy_down", "is_magnetic", "ordering", "total_magnetization_normalized_vol", "total_magnetization_normalized_formula_units", "num_magnetic_sites", "num_unique_magnetic_sites", "types_of_magnetic_species", "bulk_modulus", "shear_modulus", "universal_anisotropy", "homogeneous_poisson", "e_total", "e_ionic", "e_electronic", "n", "e_ij_max", "weighted_surface_energy_EV_PER_ANG2", "weighted_surface_energy", "weighted_work_function", "surface_anisotropy", "shape_factor", "has_reconstructed", "possible_species", "has_props", "theoretical", "database_IDs"]}