{"builder_meta": null, "nsites": null, "elements": null, "nelements": null, "composition": null, "composition_reduced": null, "formula_pretty": "NbSb2", "formula_anonymous": "AB2", "chemsys": null, "volume": 137.98981957965026, "density": 8.096961771913243, "density_atomic": 22.998303263275044, "symmetry": null, "property_name": null, "material_id": "mp-1969", "deprecated": null, "deprecation_reasons": null, "last_updated": null, "origins": null, "warnings": null, "structure": {"@module": "pymatgen.core.structure", "@class": "Structure", "charge": 0, "lattice": {"matrix": [[3.57319505, 0.00210043, 0.89219959], [1.6280351400000002, 5.1065193, 1.09185264], [0.00545986, -0.011833699999999002, 7.56369117]], "pbc": [true, true, true], "a": 3.6828993178672227, "b": 5.469842773409697, "c": 7.563702397745622, "alpha": 78.55851202940275, "beta": 75.93905964530168, "gamma": 70.2654968301987, "volume": 137.9898195796503}, "properties": {}, "sites": [{"species": [{"element": "Nb", "occu": 1}], "abc": [0.8477120100000001, 0.11339675, 0.19069606], "properties": {"magmom": 0.0}, "label": "Nb", "xyz": [3.214695425509497, 0.5785866122042175, 2.3225069537907865]}, {"species": [{"element": "Nb", "occu": 1}], "abc": [0.15228799, 0.8866032500000001, 0.80930394], "properties": {"magmom": 0.0}, "label": "Nb", "xyz": [1.991994624490503, 4.518199417795784, 7.225236446209214]}, {"species": [{"element": "Sb", "occu": 1}], "abc": [0.59488133, 0.69975771, 0.10992569], "properties": {"magmom": 0.0}, "label": "Sb", "xyz": [3.2654573439371495, 3.5732749303930222, 2.1262291525576664]}, {"species": [{"element": "Sb", "occu": 1}], "abc": [0.40511867, 0.30024229, 0.89007431], "properties": {"magmom": 0.0}, "label": "Sb", "xyz": [1.9412327060628507, 1.5235110996069792, 7.421514247442334]}, {"species": [{"element": "Sb", "occu": 1}], "abc": [0.14819921, 0.23791407, 0.46427491], "properties": {"magmom": 0.0}, "label": "Sb", "xyz": [0.9194120258564429, 1.2097299822607448, 3.903622417042514]}, {"species": [{"element": "Sb", "occu": 1}], "abc": [0.85180079, 0.76208593, 0.53572509], "properties": {"magmom": 0.0}, "label": "Sb", "xyz": [4.287278024143557, 3.887056047739257, 5.644120982957487]}]}, "task_ids": null, "uncorrected_energy_per_atom": null, "energy_per_atom": -25.697218913333334, "formation_energy_per_atom": -0.314983543333336, "energy_above_hull": 0.0, "is_stable": true, "equilibrium_reaction_energy_per_atom": null, "decomposes_to": null, "xas": null, "grain_boundaries": null, "band_gap": 0.0047, "cbm": null, "vbm": null, "efermi": 7.91779994, "is_gap_direct": null, "is_metal": null, "es_source_calc_id": null, "bandstructure": null, "dos": null, "dos_energy_up": null, "dos_energy_down": null, "is_magnetic": null, "ordering": null, "total_magnetization": 0.0, "total_magnetization_normalized_vol": null, "total_magnetization_normalized_formula_units": null, "num_magnetic_sites": null, "num_unique_magnetic_sites": null, "types_of_magnetic_species": null, "bulk_modulus": null, "shear_modulus": null, "universal_anisotropy": null, "homogeneous_poisson": null, "e_total": null, "e_ionic": null, "e_electronic": null, "n": null, "e_ij_max": null, "weighted_surface_energy_EV_PER_ANG2": null, "weighted_surface_energy": null, "weighted_work_function": null, "surface_anisotropy": null, "shape_factor": null, "has_reconstructed": null, "possible_species": null, "has_props": null, "theoretical": null, "database_IDs": null, "fields_not_requested": ["builder_meta", "nsites", "elements", "nelements", "composition", "composition_reduced", "chemsys", "symmetry", "property_name", "deprecated", "deprecation_reasons", "last_updated", "origins", "warnings", "task_ids", "uncorrected_energy_per_atom", "equilibrium_reaction_energy_per_atom", "decomposes_to", "xas", "grain_boundaries", "cbm", "vbm", "is_gap_direct", "is_metal", "es_source_calc_id", "bandstructure", "dos", "dos_energy_up", "dos_energy_down", "is_magnetic", "ordering", "total_magnetization_normalized_vol", "total_magnetization_normalized_formula_units", "num_magnetic_sites", "num_unique_magnetic_sites", "types_of_magnetic_species", "bulk_modulus", "shear_modulus", "universal_anisotropy", "homogeneous_poisson", "e_total", "e_ionic", "e_electronic", "n", "e_ij_max", "weighted_surface_energy_EV_PER_ANG2", "weighted_surface_energy", "weighted_work_function", "surface_anisotropy", "shape_factor", "has_reconstructed", "possible_species", "has_props", "theoretical", "database_IDs"]}