{
  "builder_meta": null,
  "nsites": null,
  "elements": null,
  "nelements": null,
  "composition": null,
  "composition_reduced": null,
  "formula_pretty": "NbSe4",
  "formula_anonymous": "AB4",
  "chemsys": null,
  "volume": 1420.2828312820463,
  "density": 5.734683126813422,
  "density_atomic": 23.67138052136744,
  "symmetry": null,
  "property_name": null,
  "material_id": "mp-1210280",
  "deprecated": null,
  "deprecation_reasons": null,
  "last_updated": null,
  "origins": null,
  "warnings": null,
  "structure": {
    "@module": "pymatgen.core.structure",
    "@class": "Structure",
    "charge": 0,
    "lattice": {
      "matrix": [
        [8.499407, 0.0, 0.0],
        [0.0, 8.499407, 0.0],
        [0.0, 0.0, 19.660637]
      ],
      "pbc": [true, true, true],
      "a": 8.499407,
      "b": 8.499407,
      "c": 19.660637,
      "alpha": 90.0,
      "beta": 90.0,
      "gamma": 90.0,
      "volume": 1420.2828312820463
    },
    "properties": {},
    "sites": [
      {
        "species": [{ "element": "Nb", "occu": 1 }],
        "abc": [0.5, 0.0, 0.759880999999999],
        "properties": { "magmom": 0.001 },
        "label": "Nb",
        "xyz": [4.2497035, 0.0, 14.939744504196982]
      },
      {
        "species": [{ "element": "Nb", "occu": 1 }],
        "abc": [0.5, 0.0, 0.415714],
        "properties": { "magmom": -0.001 },
        "label": "Nb",
        "xyz": [4.2497035, 0.0, 8.173202049818]
      },
      {
        "species": [{ "element": "Nb", "occu": 1 }],
        "abc": [0.0, 0.5, 0.927933999999999],
        "properties": { "magmom": -0.0 },
        "label": "Nb",
        "xyz": [0.0, 4.2497035, 18.24377353395798]
      },
      {
        "species": [{ "element": "Nb", "occu": 1 }],
        "abc": [0.5, 0.0, 0.072065999999999],
        "properties": { "magmom": -0.0 },
        "label": "Nb",
        "xyz": [4.2497035, 0.0, 1.4168634660419805]
      },
      {
        "species": [{ "element": "Nb", "occu": 1 }],
        "abc": [0.5, 0.0, 0.259881],
        "properties": { "magmom": 0.001 },
        "label": "Nb",
        "xyz": [4.2497035, 0.0, 5.109426004197]
      },
      {
        "species": [{ "element": "Nb", "occu": 1 }],
        "abc": [0.0, 0.5, 0.240119],
        "properties": { "magmom": 0.001 },
        "label": "Nb",
        "xyz": [0.0, 4.2497035, 4.7208924958030005]
      },
      {
        "species": [{ "element": "Nb", "occu": 1 }],
        "abc": [0.0, 0.5, 0.584286],
        "properties": { "magmom": -0.001 },
        "label": "Nb",
        "xyz": [0.0, 4.2497035, 11.487434950182001]
      },
      {
        "species": [{ "element": "Nb", "occu": 1 }],
        "abc": [0.5, 0.0, 0.572066],
        "properties": { "magmom": -0.0 },
        "label": "Nb",
        "xyz": [4.2497035, 0.0, 11.247181966042]
      },
      {
        "species": [{ "element": "Nb", "occu": 1 }],
        "abc": [0.0, 0.5, 0.427934],
        "properties": { "magmom": -0.0 },
        "label": "Nb",
        "xyz": [0.0, 4.2497035, 8.413455033958]
      },
      {
        "species": [{ "element": "Nb", "occu": 1 }],
        "abc": [0.0, 0.5, 0.084286],
        "properties": { "magmom": -0.001 },
        "label": "Nb",
        "xyz": [0.0, 4.2497035, 1.6571164501820002]
      },
      {
        "species": [{ "element": "Nb", "occu": 1 }],
        "abc": [0.0, 0.5, 0.740119],
        "properties": { "magmom": 0.001 },
        "label": "Nb",
        "xyz": [0.0, 4.2497035, 14.551210995803]
      },
      {
        "species": [{ "element": "Nb", "occu": 1 }],
        "abc": [0.5, 0.0, 0.915713999999999],
        "properties": { "magmom": -0.001 },
        "label": "Nb",
        "xyz": [4.2497035, 0.0, 18.00352054981798]
      },
      {
        "species": [{ "element": "Se", "occu": 1 }],
        "abc": [0.76312, 0.398171, 0.002382999999999],
        "properties": { "magmom": -0.0 },
        "label": "Se",
        "xyz": [6.48606746984, 3.384217384597, 0.046851297970980345]
      },
      {
        "species": [{ "element": "Se", "occu": 1 }],
        "abc": [0.23688, 0.601829, 0.002382999999999],
        "properties": { "magmom": -0.0 },
        "label": "Se",
        "xyz": [2.01333953016, 5.115189615403, 0.046851297970980345]
      },
      {
        "species": [{ "element": "Se", "occu": 1 }],
        "abc": [0.101828999999999, 0.26312, 0.002382999999999],
        "properties": { "magmom": -0.0 },
        "label": "Se",
        "xyz": [0.8654861154029915, 2.23636396984, 0.046851297970980345]
      },
      {
        "species": [{ "element": "Se", "occu": 1 }],
        "abc": [0.898170999999999, 0.7368800000000001, 0.002382999999999],
        "properties": { "magmom": -0.0 },
        "label": "Se",
        "xyz": [7.633920884596992, 6.26304303016, 0.046851297970980345]
      },
      {
        "species": [{ "element": "Se", "occu": 1 }],
        "abc": [0.780679, 0.396873, 0.333808999999999],
        "properties": { "magmom": -0.0 },
        "label": "Se",
        "xyz": [6.6353085573529995, 3.373185154311, 6.562897576332981]
      },
      {
        "species": [{ "element": "Se", "occu": 1 }],
        "abc": [0.219321, 0.603127, 0.333808999999999],
        "properties": { "magmom": -0.0 },
        "label": "Se",
        "xyz": [1.8640984426469998, 5.126221845689, 6.562897576332981]
      },
      {
        "species": [{ "element": "Se", "occu": 1 }],
        "abc": [0.103127, 0.280679, 0.333808999999999],
        "properties": { "magmom": -0.0 },
        "label": "Se",
        "xyz": [0.8765183456889999, 2.385605057353, 6.562897576332981]
      },
      {
        "species": [{ "element": "Se", "occu": 1 }],
        "abc": [0.896872999999999, 0.719321, 0.333808999999999],
        "properties": { "magmom": -0.0 },
        "label": "Se",
        "xyz": [7.622888654310992, 6.113801942647, 6.562897576332981]
      },
      {
        "species": [{ "element": "Se", "occu": 1 }],
        "abc": [0.719321, 0.103127, 0.666191],
        "properties": { "magmom": -0.0 },
        "label": "Se",
        "xyz": [6.113801942647, 0.8765183456889999, 13.097739423667]
      },
      {
        "species": [{ "element": "Se", "occu": 1 }],
        "abc": [0.280679, 0.896872999999999, 0.666191],
        "properties": { "magmom": -0.0 },
        "label": "Se",
        "xyz": [2.385605057353, 7.622888654310992, 13.097739423667]
      },
      {
        "species": [{ "element": "Se", "occu": 1 }],
        "abc": [0.396873, 0.219321, 0.666191],
        "properties": { "magmom": -0.0 },
        "label": "Se",
        "xyz": [3.373185154311, 1.8640984426469998, 13.097739423667]
      },
      {
        "species": [{ "element": "Se", "occu": 1 }],
        "abc": [0.603127, 0.780679, 0.666191],
        "properties": { "magmom": -0.0 },
        "label": "Se",
        "xyz": [5.126221845689, 6.6353085573529995, 13.097739423667]
      },
      {
        "species": [{ "element": "Se", "occu": 1 }],
        "abc": [0.758312, 0.406045999999999, 0.665709],
        "properties": { "magmom": -0.0 },
        "label": "Se",
        "xyz": [6.4452023209839995, 3.4511502147219915, 13.088262996633]
      },
      {
        "species": [{ "element": "Se", "occu": 1 }],
        "abc": [0.241688, 0.593954, 0.665709],
        "properties": { "magmom": -0.0 },
        "label": "Se",
        "xyz": [2.054204679016, 5.048256785277999, 13.088262996633]
      },
      {
        "species": [{ "element": "Se", "occu": 1 }],
        "abc": [0.093954, 0.258312, 0.665709],
        "properties": { "magmom": -0.0 },
        "label": "Se",
        "xyz": [0.798553285278, 2.1954988209839996, 13.088262996633]
      },
      {
        "species": [{ "element": "Se", "occu": 1 }],
        "abc": [0.906045999999999, 0.741688, 0.665709],
        "properties": { "magmom": -0.0 },
        "label": "Se",
        "xyz": [7.700853714721991, 6.303908179016, 13.088262996633]
      },
      {
        "species": [{ "element": "Se", "occu": 1 }],
        "abc": [0.593954, 0.241688, 0.834291],
        "properties": { "magmom": -0.0 },
        "label": "Se",
        "xyz": [5.048256785277999, 2.054204679016, 16.402692503367]
      },
      {
        "species": [{ "element": "Se", "occu": 1 }],
        "abc": [0.406045999999999, 0.758312, 0.834291],
        "properties": { "magmom": -0.0 },
        "label": "Se",
        "xyz": [3.4511502147219915, 6.4452023209839995, 16.402692503367]
      },
      {
        "species": [{ "element": "Se", "occu": 1 }],
        "abc": [0.258312, 0.093954, 0.834291],
        "properties": { "magmom": -0.0 },
        "label": "Se",
        "xyz": [2.1954988209839996, 0.798553285278, 16.402692503367]
      },
      {
        "species": [{ "element": "Se", "occu": 1 }],
        "abc": [0.741688, 0.906045999999999, 0.834291],
        "properties": { "magmom": -0.0 },
        "label": "Se",
        "xyz": [6.303908179016, 7.700853714721991, 16.402692503367]
      },
      {
        "species": [{ "element": "Se", "occu": 1 }],
        "abc": [0.601829, 0.23688, 0.497617],
        "properties": { "magmom": -0.0 },
        "label": "Se",
        "xyz": [5.115189615403, 2.01333953016, 9.783467202029]
      },
      {
        "species": [{ "element": "Se", "occu": 1 }],
        "abc": [0.398171, 0.76312, 0.497617],
        "properties": { "magmom": -0.0 },
        "label": "Se",
        "xyz": [3.384217384597, 6.48606746984, 9.783467202029]
      },
      {
        "species": [{ "element": "Se", "occu": 1 }],
        "abc": [0.26312, 0.101828999999999, 0.497617],
        "properties": { "magmom": -0.0 },
        "label": "Se",
        "xyz": [2.23636396984, 0.8654861154029915, 9.783467202029]
      },
      {
        "species": [{ "element": "Se", "occu": 1 }],
        "abc": [0.7368800000000001, 0.898170999999999, 0.497617],
        "properties": { "magmom": -0.0 },
        "label": "Se",
        "xyz": [6.26304303016, 7.633920884596992, 9.783467202029]
      },
      {
        "species": [{ "element": "Se", "occu": 1 }],
        "abc": [0.906045999999999, 0.258312, 0.165709],
        "properties": { "magmom": -0.0 },
        "label": "Se",
        "xyz": [7.700853714721991, 2.1954988209839996, 3.2579444966330002]
      },
      {
        "species": [{ "element": "Se", "occu": 1 }],
        "abc": [0.093954, 0.741688, 0.165709],
        "properties": { "magmom": -0.0 },
        "label": "Se",
        "xyz": [0.798553285278, 6.303908179016, 3.2579444966330002]
      },
      {
        "species": [{ "element": "Se", "occu": 1 }],
        "abc": [0.241688, 0.406045999999999, 0.165709],
        "properties": { "magmom": -0.0 },
        "label": "Se",
        "xyz": [2.054204679016, 3.4511502147219915, 3.2579444966330002]
      },
      {
        "species": [{ "element": "Se", "occu": 1 }],
        "abc": [0.758312, 0.593954, 0.165709],
        "properties": { "magmom": -0.0 },
        "label": "Se",
        "xyz": [6.4452023209839995, 5.048256785277999, 3.2579444966330002]
      },
      {
        "species": [{ "element": "Se", "occu": 1 }],
        "abc": [0.7368800000000001, 0.101828999999999, 0.997617],
        "properties": { "magmom": -0.0 },
        "label": "Se",
        "xyz": [6.26304303016, 0.8654861154029915, 19.613785702029002]
      },
      {
        "species": [{ "element": "Se", "occu": 1 }],
        "abc": [0.26312, 0.898170999999999, 0.997617],
        "properties": { "magmom": -0.0 },
        "label": "Se",
        "xyz": [2.23636396984, 7.633920884596992, 19.613785702029002]
      },
      {
        "species": [{ "element": "Se", "occu": 1 }],
        "abc": [0.398171, 0.23688, 0.997617],
        "properties": { "magmom": -0.0 },
        "label": "Se",
        "xyz": [3.384217384597, 2.01333953016, 19.613785702029002]
      },
      {
        "species": [{ "element": "Se", "occu": 1 }],
        "abc": [0.601829, 0.76312, 0.997617],
        "properties": { "magmom": -0.0 },
        "label": "Se",
        "xyz": [5.115189615403, 6.48606746984, 19.613785702029002]
      },
      {
        "species": [{ "element": "Se", "occu": 1 }],
        "abc": [0.896872999999999, 0.280679, 0.833808999999999],
        "properties": { "magmom": -0.0 },
        "label": "Se",
        "xyz": [7.622888654310992, 2.385605057353, 16.393216076332983]
      },
      {
        "species": [{ "element": "Se", "occu": 1 }],
        "abc": [0.103127, 0.719321, 0.833808999999999],
        "properties": { "magmom": -0.0 },
        "label": "Se",
        "xyz": [0.8765183456889999, 6.113801942647, 16.393216076332983]
      },
      {
        "species": [{ "element": "Se", "occu": 1 }],
        "abc": [0.219321, 0.396873, 0.833808999999999],
        "properties": { "magmom": -0.0 },
        "label": "Se",
        "xyz": [1.8640984426469998, 3.373185154311, 16.393216076332983]
      },
      {
        "species": [{ "element": "Se", "occu": 1 }],
        "abc": [0.780679, 0.603127, 0.833808999999999],
        "properties": { "magmom": -0.0 },
        "label": "Se",
        "xyz": [6.6353085573529995, 5.126221845689, 16.393216076332983]
      },
      {
        "species": [{ "element": "Se", "occu": 1 }],
        "abc": [0.741688, 0.093954, 0.334291],
        "properties": { "magmom": -0.0 },
        "label": "Se",
        "xyz": [6.303908179016, 0.798553285278, 6.572374003367001]
      },
      {
        "species": [{ "element": "Se", "occu": 1 }],
        "abc": [0.258312, 0.906045999999999, 0.334291],
        "properties": { "magmom": -0.0 },
        "label": "Se",
        "xyz": [2.1954988209839996, 7.700853714721991, 6.572374003367001]
      },
      {
        "species": [{ "element": "Se", "occu": 1 }],
        "abc": [0.406045999999999, 0.241688, 0.334291],
        "properties": { "magmom": -0.0 },
        "label": "Se",
        "xyz": [3.4511502147219915, 2.054204679016, 6.572374003367001]
      },
      {
        "species": [{ "element": "Se", "occu": 1 }],
        "abc": [0.593954, 0.758312, 0.334291],
        "properties": { "magmom": -0.0 },
        "label": "Se",
        "xyz": [5.048256785277999, 6.4452023209839995, 6.572374003367001]
      },
      {
        "species": [{ "element": "Se", "occu": 1 }],
        "abc": [0.898170999999999, 0.26312, 0.502383],
        "properties": { "magmom": -0.0 },
        "label": "Se",
        "xyz": [7.633920884596992, 2.23636396984, 9.877169797971002]
      },
      {
        "species": [{ "element": "Se", "occu": 1 }],
        "abc": [0.101828999999999, 0.7368800000000001, 0.502383],
        "properties": { "magmom": -0.0 },
        "label": "Se",
        "xyz": [0.8654861154029915, 6.26304303016, 9.877169797971002]
      },
      {
        "species": [{ "element": "Se", "occu": 1 }],
        "abc": [0.23688, 0.398171, 0.502383],
        "properties": { "magmom": -0.0 },
        "label": "Se",
        "xyz": [2.01333953016, 3.384217384597, 9.877169797971002]
      },
      {
        "species": [{ "element": "Se", "occu": 1 }],
        "abc": [0.76312, 0.601829, 0.502383],
        "properties": { "magmom": -0.0 },
        "label": "Se",
        "xyz": [6.48606746984, 5.115189615403, 9.877169797971002]
      },
      {
        "species": [{ "element": "Se", "occu": 1 }],
        "abc": [0.603127, 0.219321, 0.166191],
        "properties": { "magmom": -0.0 },
        "label": "Se",
        "xyz": [5.126221845689, 1.8640984426469998, 3.267420923667]
      },
      {
        "species": [{ "element": "Se", "occu": 1 }],
        "abc": [0.396873, 0.780679, 0.166191],
        "properties": { "magmom": -0.0 },
        "label": "Se",
        "xyz": [3.373185154311, 6.6353085573529995, 3.267420923667]
      },
      {
        "species": [{ "element": "Se", "occu": 1 }],
        "abc": [0.280679, 0.103127, 0.166191],
        "properties": { "magmom": -0.0 },
        "label": "Se",
        "xyz": [2.385605057353, 0.8765183456889999, 3.267420923667]
      },
      {
        "species": [{ "element": "Se", "occu": 1 }],
        "abc": [0.719321, 0.896872999999999, 0.166191],
        "properties": { "magmom": -0.0 },
        "label": "Se",
        "xyz": [6.113801942647, 7.622888654310992, 3.267420923667]
      }
    ]
  },
  "task_ids": null,
  "uncorrected_energy_per_atom": null,
  "energy_per_atom": -17.001214952288883,
  "formation_energy_per_atom": -0.605151837538884,
  "energy_above_hull": 0.024749203600002,
  "is_stable": false,
  "equilibrium_reaction_energy_per_atom": null,
  "decomposes_to": null,
  "xas": null,
  "grain_boundaries": null,
  "band_gap": 0.0,
  "cbm": null,
  "vbm": null,
  "efermi": 3.67824477,
  "is_gap_direct": null,
  "is_metal": null,
  "es_source_calc_id": null,
  "bandstructure": null,
  "dos": null,
  "dos_energy_up": null,
  "dos_energy_down": null,
  "is_magnetic": null,
  "ordering": null,
  "total_magnetization": 0.010423,
  "total_magnetization_normalized_vol": null,
  "total_magnetization_normalized_formula_units": null,
  "num_magnetic_sites": null,
  "num_unique_magnetic_sites": null,
  "types_of_magnetic_species": null,
  "bulk_modulus": null,
  "shear_modulus": null,
  "universal_anisotropy": null,
  "homogeneous_poisson": null,
  "e_total": null,
  "e_ionic": null,
  "e_electronic": null,
  "n": null,
  "e_ij_max": null,
  "weighted_surface_energy_EV_PER_ANG2": null,
  "weighted_surface_energy": null,
  "weighted_work_function": null,
  "surface_anisotropy": null,
  "shape_factor": null,
  "has_reconstructed": null,
  "possible_species": null,
  "has_props": null,
  "theoretical": null,
  "database_IDs": null,
  "fields_not_requested": [
    "builder_meta",
    "nsites",
    "elements",
    "nelements",
    "composition",
    "composition_reduced",
    "chemsys",
    "symmetry",
    "property_name",
    "deprecated",
    "deprecation_reasons",
    "last_updated",
    "origins",
    "warnings",
    "task_ids",
    "uncorrected_energy_per_atom",
    "equilibrium_reaction_energy_per_atom",
    "decomposes_to",
    "xas",
    "grain_boundaries",
    "cbm",
    "vbm",
    "is_gap_direct",
    "is_metal",
    "es_source_calc_id",
    "bandstructure",
    "dos",
    "dos_energy_up",
    "dos_energy_down",
    "is_magnetic",
    "ordering",
    "total_magnetization_normalized_vol",
    "total_magnetization_normalized_formula_units",
    "num_magnetic_sites",
    "num_unique_magnetic_sites",
    "types_of_magnetic_species",
    "bulk_modulus",
    "shear_modulus",
    "universal_anisotropy",
    "homogeneous_poisson",
    "e_total",
    "e_ionic",
    "e_electronic",
    "n",
    "e_ij_max",
    "weighted_surface_energy_EV_PER_ANG2",
    "weighted_surface_energy",
    "weighted_work_function",
    "surface_anisotropy",
    "shape_factor",
    "has_reconstructed",
    "possible_species",
    "has_props",
    "theoretical",
    "database_IDs"
  ]
}
