{
  "builder_meta": null,
  "nsites": null,
  "elements": null,
  "nelements": null,
  "composition": null,
  "composition_reduced": null,
  "formula_pretty": "NbSe3",
  "formula_anonymous": "AB3",
  "chemsys": null,
  "volume": 545.0726270999688,
  "density": 6.02807560382763,
  "density_atomic": 22.711359462498702,
  "symmetry": null,
  "property_name": null,
  "material_id": "mp-525",
  "deprecated": null,
  "deprecation_reasons": null,
  "last_updated": null,
  "origins": null,
  "warnings": null,
  "structure": {
    "@module": "pymatgen.core.structure",
    "@class": "Structure",
    "charge": 0,
    "lattice": {
      "matrix": [
        [3.520975909999999, 0.0, 0.0],
        [0.0, 9.79123603, -3.2697451],
        [0.0, -0.14031803, 15.85765699]
      ],
      "pbc": [true, true, true],
      "a": 3.520975909999999,
      "b": 10.322767846568293,
      "c": 15.858277786759789,
      "alpha": 108.97351521486338,
      "beta": 90.0,
      "gamma": 90.0,
      "volume": 545.0726270999686
    },
    "properties": {},
    "sites": [
      {
        "species": [{ "element": "Nb", "occu": 1 }],
        "abc": [0.75, 0.83809466, 0.53903132],
        "properties": { "magmom": -0.0 },
        "label": "Nb",
        "xyz": [2.640731932499999, 8.130346818611901, 5.80741787155576]
      },
      {
        "species": [{ "element": "Nb", "occu": 1 }],
        "abc": [0.25, 0.16190534, 0.46096868],
        "properties": { "magmom": -0.0 },
        "label": "Nb",
        "xyz": [0.8802439774999997, 1.5205711813881, 6.78049401844424]
      },
      {
        "species": [{ "element": "Nb", "occu": 1 }],
        "abc": [0.75, 0.8837398, 0.20840822],
        "properties": { "magmom": 0.0 },
        "label": "Nb",
        "xyz": [2.640731932499999, 8.623661540038787, 0.415262185931478]
      },
      {
        "species": [{ "element": "Nb", "occu": 1 }],
        "abc": [0.25, 0.1162602, 0.79159178],
        "properties": { "magmom": 0.0 },
        "label": "Nb",
        "xyz": [0.8802439774999997, 1.0272564599612126, 12.172649704068522]
      },
      {
        "species": [{ "element": "Nb", "occu": 1 }],
        "abc": [0.75, 0.53440877, 0.88396493],
        "properties": { "magmom": 0.0 },
        "label": "Nb",
        "xyz": [2.640731932499999, 5.108486186005296, 12.270232194024835]
      },
      {
        "species": [{ "element": "Nb", "occu": 1 }],
        "abc": [0.25, 0.46559123, 0.11603507],
        "properties": { "magmom": 0.0 },
        "label": "Nb",
        "xyz": [0.8802439774999997, 4.542431813994705, 0.3176796959751662]
      },
      {
        "species": [{ "element": "Se", "occu": 1 }],
        "abc": [0.75, 0.325316699999999, 0.5736512],
        "properties": { "magmom": -0.0 },
        "label": "Se",
        "xyz": [2.640731932499999, 3.1047589879095554, 8.033061275728722]
      },
      {
        "species": [{ "element": "Se", "occu": 1 }],
        "abc": [0.25, 0.6746833, 0.42634879999999903],
        "properties": { "magmom": -0.0 },
        "label": "Se",
        "xyz": [0.8802439774999997, 6.546159012090436, 4.554850614271267]
      },
      {
        "species": [{ "element": "Se", "occu": 1 }],
        "abc": [0.75, 0.96036592, 0.40673073],
        "properties": { "magmom": -0.0 },
        "label": "Se",
        "xyz": [2.640731932499999, 9.346097743114036, 3.3096446425053108]
      },
      {
        "species": [{ "element": "Se", "occu": 1 }],
        "abc": [0.25, 0.03963408, 0.59326927],
        "properties": { "magmom": -0.0 },
        "label": "Se",
        "xyz": [0.8802439774999997, 0.30482025688596437, 9.27826724749469]
      },
      {
        "species": [{ "element": "Se", "occu": 1 }],
        "abc": [0.75, 0.331324299999999, 0.42555737],
        "properties": { "magmom": 0.0 },
        "label": "Se",
        "xyz": [2.640731932499999, 3.1843610519641383, 5.664996796590589]
      },
      {
        "species": [{ "element": "Se", "occu": 1 }],
        "abc": [0.25, 0.6686757, 0.5744426300000001],
        "properties": { "magmom": 0.0 },
        "label": "Se",
        "xyz": [0.8802439774999997, 6.466556948035852, 6.922915093409415]
      },
      {
        "species": [{ "element": "Se", "occu": 1 }],
        "abc": [0.25, 0.37890909, 0.93224974],
        "properties": { "magmom": 0.0 },
        "label": "Se",
        "xyz": [0.8802439774999997, 3.5791768871177005, 13.544360465563726]
      },
      {
        "species": [{ "element": "Se", "occu": 1 }],
        "abc": [0.75, 0.62109091, 0.06775026],
        "properties": { "magmom": 0.0 },
        "label": "Se",
        "xyz": [2.640731932499999, 6.0717411128823, -0.9564485755637238]
      },
      {
        "species": [{ "element": "Se", "occu": 1 }],
        "abc": [0.25, 0.74074911, 0.91693142],
        "properties": { "magmom": -0.0 },
        "label": "Se",
        "xyz": [0.8802439774999997, 7.12418736452293, 12.118323168961766]
      },
      {
        "species": [{ "element": "Se", "occu": 1 }],
        "abc": [0.75, 0.25925089, 0.08306858],
        "properties": { "magmom": -0.0 },
        "label": "Se",
        "xyz": [2.640731932499999, 2.5267306354770693, 0.46958872103823524]
      },
      {
        "species": [{ "element": "Se", "occu": 1 }],
        "abc": [0.25, 0.56773366, 0.767115099999999],
        "properties": { "magmom": -0.0 },
        "label": "Se",
        "xyz": [0.8802439774999997, 5.451174187620517, 10.30830377475947]
      },
      {
        "species": [{ "element": "Se", "occu": 1 }],
        "abc": [0.75, 0.43226634, 0.232884899999999],
        "properties": { "magmom": -0.0 },
        "label": "Se",
        "xyz": [2.640731932499999, 4.199743812379484, 2.279608115240501]
      },
      {
        "species": [{ "element": "Se", "occu": 1 }],
        "abc": [0.25, 0.91252667, 0.09149556],
        "properties": { "magmom": 0.0 },
        "label": "Se",
        "xyz": [0.8802439774999997, 8.921925532906974, -1.5328244012638528]
      },
      {
        "species": [{ "element": "Se", "occu": 1 }],
        "abc": [0.75, 0.08747333, 0.90850444],
        "properties": { "magmom": 0.0 },
        "label": "Se",
        "xyz": [2.640731932499999, 0.7289924670930268, 14.120736291263853]
      },
      {
        "species": [{ "element": "Se", "occu": 1 }],
        "abc": [0.25, 0.08650363, 0.27785027],
        "properties": { "magmom": -0.0 },
        "label": "Se",
        "xyz": [0.8802439774999997, 0.8079900562604208, 4.123209455914175]
      },
      {
        "species": [{ "element": "Se", "occu": 1 }],
        "abc": [0.75, 0.9134963700000001, 0.72214973],
        "properties": { "magmom": -0.0 },
        "label": "Se",
        "xyz": [2.640731932499999, 8.84292794373958, 8.464702434085826]
      },
      {
        "species": [{ "element": "Se", "occu": 1 }],
        "abc": [0.25, 0.71907183, 0.24843778],
        "properties": { "magmom": -0.0 },
        "label": "Se",
        "xyz": [0.8802439774999997, 7.005741710186862, 1.5884595059065494]
      },
      {
        "species": [{ "element": "Se", "occu": 1 }],
        "abc": [0.75, 0.28092817000000003, 0.7515622200000001],
        "properties": { "magmom": -0.0 },
        "label": "Se",
        "xyz": [2.640731932499999, 2.645176289813139, 10.999452384093452]
      }
    ]
  },
  "task_ids": null,
  "uncorrected_energy_per_atom": null,
  "energy_per_atom": -17.681153715833332,
  "formation_energy_per_atom": -0.763964880130207,
  "energy_above_hull": 0.0,
  "is_stable": true,
  "equilibrium_reaction_energy_per_atom": null,
  "decomposes_to": null,
  "xas": null,
  "grain_boundaries": null,
  "band_gap": 0.0,
  "cbm": null,
  "vbm": null,
  "efermi": 3.86952926,
  "is_gap_direct": null,
  "is_metal": null,
  "es_source_calc_id": null,
  "bandstructure": null,
  "dos": null,
  "dos_energy_up": null,
  "dos_energy_down": null,
  "is_magnetic": null,
  "ordering": null,
  "total_magnetization": 3e-7,
  "total_magnetization_normalized_vol": null,
  "total_magnetization_normalized_formula_units": null,
  "num_magnetic_sites": null,
  "num_unique_magnetic_sites": null,
  "types_of_magnetic_species": null,
  "bulk_modulus": null,
  "shear_modulus": null,
  "universal_anisotropy": null,
  "homogeneous_poisson": null,
  "e_total": null,
  "e_ionic": null,
  "e_electronic": null,
  "n": null,
  "e_ij_max": null,
  "weighted_surface_energy_EV_PER_ANG2": null,
  "weighted_surface_energy": null,
  "weighted_work_function": null,
  "surface_anisotropy": null,
  "shape_factor": null,
  "has_reconstructed": null,
  "possible_species": null,
  "has_props": null,
  "theoretical": null,
  "database_IDs": null,
  "fields_not_requested": [
    "builder_meta",
    "nsites",
    "elements",
    "nelements",
    "composition",
    "composition_reduced",
    "chemsys",
    "symmetry",
    "property_name",
    "deprecated",
    "deprecation_reasons",
    "last_updated",
    "origins",
    "warnings",
    "task_ids",
    "uncorrected_energy_per_atom",
    "equilibrium_reaction_energy_per_atom",
    "decomposes_to",
    "xas",
    "grain_boundaries",
    "cbm",
    "vbm",
    "is_gap_direct",
    "is_metal",
    "es_source_calc_id",
    "bandstructure",
    "dos",
    "dos_energy_up",
    "dos_energy_down",
    "is_magnetic",
    "ordering",
    "total_magnetization_normalized_vol",
    "total_magnetization_normalized_formula_units",
    "num_magnetic_sites",
    "num_unique_magnetic_sites",
    "types_of_magnetic_species",
    "bulk_modulus",
    "shear_modulus",
    "universal_anisotropy",
    "homogeneous_poisson",
    "e_total",
    "e_ionic",
    "e_electronic",
    "n",
    "e_ij_max",
    "weighted_surface_energy_EV_PER_ANG2",
    "weighted_surface_energy",
    "weighted_work_function",
    "surface_anisotropy",
    "shape_factor",
    "has_reconstructed",
    "possible_species",
    "has_props",
    "theoretical",
    "database_IDs"
  ]
}
