{
  "builder_meta": null,
  "nsites": null,
  "elements": null,
  "nelements": null,
  "composition": null,
  "composition_reduced": null,
  "formula_pretty": "NbSe2",
  "formula_anonymous": "AB2",
  "chemsys": null,
  "volume": 142.2264160845346,
  "density": 5.856957018115384,
  "density_atomic": 23.704402680755766,
  "symmetry": null,
  "property_name": null,
  "material_id": "mp-2207",
  "deprecated": null,
  "deprecation_reasons": null,
  "last_updated": null,
  "origins": null,
  "warnings": null,
  "structure": {
    "@module": "pymatgen.core.structure",
    "@class": "Structure",
    "charge": 0,
    "lattice": {
      "matrix": [
        [3.49904842, 0.0, -0.0],
        [-1.7495242100000001, 3.03026393, 0.0],
        [0.0, 0.0, 13.41373919]
      ],
      "pbc": [true, true, true],
      "a": 3.49904842,
      "b": 3.499047648551698,
      "c": 13.41373919,
      "alpha": 90.0,
      "beta": 90.0,
      "gamma": 120.0000072932146,
      "volume": 142.2264160845346
    },
    "properties": {},
    "sites": [
      {
        "species": [{ "element": "Nb", "occu": 1 }],
        "abc": [0.0, -0.0, 0.75],
        "properties": { "magmom": 0.754 },
        "label": "Nb",
        "xyz": [0.0, 0.0, 10.060304392499999]
      },
      {
        "species": [{ "element": "Nb", "occu": 1 }],
        "abc": [-0.0, -0.0, 0.25],
        "properties": { "magmom": 0.754 },
        "label": "Nb",
        "xyz": [0.0, 0.0, 3.3534347975]
      },
      {
        "species": [{ "element": "Se", "occu": 1 }],
        "abc": [0.333333, 0.666667, 0.12540658],
        "properties": { "magmom": -0.009000000000000001 },
        "label": "Se",
        "xyz": [-1.7495242101706054e-6, 2.02017696342131, 1.68217115682987]
      },
      {
        "species": [{ "element": "Se", "occu": 1 }],
        "abc": [0.666667, 0.333333, 0.62540658],
        "properties": { "magmom": -0.009000000000000001 },
        "label": "Se",
        "xyz": [1.74952595952421, 1.01008696657869, 8.38904075182987]
      },
      {
        "species": [{ "element": "Se", "occu": 1 }],
        "abc": [0.333333, 0.666667, 0.37459342],
        "properties": { "magmom": -0.009000000000000001 },
        "label": "Se",
        "xyz": [-1.7495242101706054e-6, 2.02017696342131, 5.024698438170129]
      },
      {
        "species": [{ "element": "Se", "occu": 1 }],
        "abc": [0.666667, 0.333333, 0.8745934200000001],
        "properties": { "magmom": -0.009000000000000001 },
        "label": "Se",
        "xyz": [1.74952595952421, 1.01008696657869, 11.73156803317013]
      }
    ]
  },
  "task_ids": null,
  "uncorrected_energy_per_atom": null,
  "energy_per_atom": -18.769175161666666,
  "formation_energy_per_atom": -0.9834434577083321,
  "energy_above_hull": 0.0,
  "is_stable": true,
  "equilibrium_reaction_energy_per_atom": null,
  "decomposes_to": null,
  "xas": null,
  "grain_boundaries": null,
  "band_gap": 0.0,
  "cbm": null,
  "vbm": null,
  "efermi": 2.93153839,
  "is_gap_direct": null,
  "is_metal": null,
  "es_source_calc_id": null,
  "bandstructure": null,
  "dos": null,
  "dos_energy_up": null,
  "dos_energy_down": null,
  "is_magnetic": null,
  "ordering": null,
  "total_magnetization": 1.812060499999999,
  "total_magnetization_normalized_vol": null,
  "total_magnetization_normalized_formula_units": null,
  "num_magnetic_sites": null,
  "num_unique_magnetic_sites": null,
  "types_of_magnetic_species": null,
  "bulk_modulus": null,
  "shear_modulus": null,
  "universal_anisotropy": null,
  "homogeneous_poisson": null,
  "e_total": null,
  "e_ionic": null,
  "e_electronic": null,
  "n": null,
  "e_ij_max": null,
  "weighted_surface_energy_EV_PER_ANG2": null,
  "weighted_surface_energy": null,
  "weighted_work_function": null,
  "surface_anisotropy": null,
  "shape_factor": null,
  "has_reconstructed": null,
  "possible_species": null,
  "has_props": null,
  "theoretical": null,
  "database_IDs": null,
  "fields_not_requested": [
    "builder_meta",
    "nsites",
    "elements",
    "nelements",
    "composition",
    "composition_reduced",
    "chemsys",
    "symmetry",
    "property_name",
    "deprecated",
    "deprecation_reasons",
    "last_updated",
    "origins",
    "warnings",
    "task_ids",
    "uncorrected_energy_per_atom",
    "equilibrium_reaction_energy_per_atom",
    "decomposes_to",
    "xas",
    "grain_boundaries",
    "cbm",
    "vbm",
    "is_gap_direct",
    "is_metal",
    "es_source_calc_id",
    "bandstructure",
    "dos",
    "dos_energy_up",
    "dos_energy_down",
    "is_magnetic",
    "ordering",
    "total_magnetization_normalized_vol",
    "total_magnetization_normalized_formula_units",
    "num_magnetic_sites",
    "num_unique_magnetic_sites",
    "types_of_magnetic_species",
    "bulk_modulus",
    "shear_modulus",
    "universal_anisotropy",
    "homogeneous_poisson",
    "e_total",
    "e_ionic",
    "e_electronic",
    "n",
    "e_ij_max",
    "weighted_surface_energy_EV_PER_ANG2",
    "weighted_surface_energy",
    "weighted_work_function",
    "surface_anisotropy",
    "shape_factor",
    "has_reconstructed",
    "possible_species",
    "has_props",
    "theoretical",
    "database_IDs"
  ]
}
