{
  "builder_meta": null,
  "nsites": null,
  "elements": null,
  "nelements": null,
  "composition": null,
  "composition_reduced": null,
  "formula_pretty": "NbSi2",
  "formula_anonymous": "AB2",
  "chemsys": null,
  "volume": 131.77453203734268,
  "density": 5.635735743676683,
  "density_atomic": 14.641614670815853,
  "symmetry": null,
  "property_name": null,
  "material_id": "mp-12104",
  "deprecated": null,
  "deprecation_reasons": null,
  "last_updated": null,
  "origins": null,
  "warnings": null,
  "structure": {
    "@module": "pymatgen.core.structure",
    "@class": "Structure",
    "charge": 0,
    "lattice": {
      "matrix": [
        [2.40297947, -4.16208314, -1.3e-7],
        [2.40278677, 4.16197206, 1.1e-7],
        [-3.0000000000000004e-8, 1.899999999999999e-7, 6.5881561600000005]
      ],
      "pbc": [true, true, true],
      "a": 4.805959466902916,
      "b": 4.805766920097945,
      "c": 6.588156160000003,
      "alpha": 89.99999738796367,
      "beta": 90.00000311129934,
      "gamma": 120.00133471898737,
      "volume": 131.77453203734268
    },
    "properties": {},
    "sites": [
      {
        "species": [{ "element": "Nb", "occu": 1 }],
        "abc": [2e-8, 0.49999999, 0.33322956],
        "properties": { "magmom": 0.0 },
        "label": "Nb",
        "xyz": [1.2013933990348349, 2.080985968452233, 2.1953684334080856]
      },
      {
        "species": [{ "element": "Nb", "occu": 1 }],
        "abc": [0.50000024, 0.49999996, 0.66676952],
        "properties": { "magmom": 0.0 },
        "label": "Nb",
        "xyz": [2.4028835806005167, -5.657869262681977e-5, 4.392781710488208]
      },
      {
        "species": [{ "element": "Nb", "occu": 1 }],
        "abc": [0.49999954, 1e-7, 2.029999999999998e-6],
        "properties": { "magmom": -0.0 },
        "label": "Nb",
        "xyz": [1.20148886990806, -2.0810392392441637, 1.3308957075599988e-5]
      },
      {
        "species": [{ "element": "Si", "occu": 1 }],
        "abc": [0.8419181, 0.6838351500000001, 1.8e-7],
        "properties": { "magmom": 0.0 },
        "label": "Si",
        "xyz": [3.6662219610023676, -0.6580303413248907, 1.1516406223e-6]
      },
      {
        "species": [{ "element": "Si", "occu": 1 }],
        "abc": [0.15805863, 0.84189613, 0.6666582600000001],
        "properties": { "magmom": 0.0 },
        "label": "Si",
        "xyz": [2.4027085058247786, 2.846095138092699, 4.392048794294835]
      },
      {
        "species": [{ "element": "Si", "occu": 1 }],
        "abc": [0.68383677, 0.84189616, 0.33334196],
        "properties": { "magmom": -0.0 },
        "label": "Si",
        "xyz": [3.666142664102656, 0.6577628677472043, 2.196108890870271]
      },
      {
        "species": [{ "element": "Si", "occu": 1 }],
        "abc": [0.15808206, 0.31616508, 1.6e-7],
        "properties": { "magmom": 0.0 },
        "label": "Si",
        "xyz": [1.139545216115295, 0.6579195526452267, 1.0683324766e-6]
      },
      {
        "species": [{ "element": "Si", "occu": 1 }],
        "abc": [0.84194148, 0.15810378, 0.6666583500000001],
        "properties": { "magmom": -0.0 },
        "label": "Si",
        "xyz": [2.4030577422526562, -2.8462067971691742, 4.3920492231069606]
      },
      {
        "species": [{ "element": "Si", "occu": 1 }],
        "abc": [0.31616317, 0.15810366, 0.33334199000000003],
        "properties": { "magmom": -0.0 },
        "label": "Si",
        "xyz": [1.1396229792164383, -0.6578743205072359, 2.196109061095349]
      }
    ]
  },
  "task_ids": null,
  "uncorrected_energy_per_atom": null,
  "energy_per_atom": -14.612552814444443,
  "formation_energy_per_atom": -0.518684867777775,
  "energy_above_hull": 0.0,
  "is_stable": true,
  "equilibrium_reaction_energy_per_atom": null,
  "decomposes_to": null,
  "xas": null,
  "grain_boundaries": null,
  "band_gap": 0.0,
  "cbm": null,
  "vbm": null,
  "efermi": 8.7813181,
  "is_gap_direct": null,
  "is_metal": null,
  "es_source_calc_id": null,
  "bandstructure": null,
  "dos": null,
  "dos_energy_up": null,
  "dos_energy_down": null,
  "is_magnetic": null,
  "ordering": null,
  "total_magnetization": 2e-7,
  "total_magnetization_normalized_vol": null,
  "total_magnetization_normalized_formula_units": null,
  "num_magnetic_sites": null,
  "num_unique_magnetic_sites": null,
  "types_of_magnetic_species": null,
  "bulk_modulus": null,
  "shear_modulus": null,
  "universal_anisotropy": null,
  "homogeneous_poisson": null,
  "e_total": null,
  "e_ionic": null,
  "e_electronic": null,
  "n": null,
  "e_ij_max": null,
  "weighted_surface_energy_EV_PER_ANG2": null,
  "weighted_surface_energy": null,
  "weighted_work_function": null,
  "surface_anisotropy": null,
  "shape_factor": null,
  "has_reconstructed": null,
  "possible_species": null,
  "has_props": null,
  "theoretical": null,
  "database_IDs": null,
  "fields_not_requested": [
    "builder_meta",
    "nsites",
    "elements",
    "nelements",
    "composition",
    "composition_reduced",
    "chemsys",
    "symmetry",
    "property_name",
    "deprecated",
    "deprecation_reasons",
    "last_updated",
    "origins",
    "warnings",
    "task_ids",
    "uncorrected_energy_per_atom",
    "equilibrium_reaction_energy_per_atom",
    "decomposes_to",
    "xas",
    "grain_boundaries",
    "cbm",
    "vbm",
    "is_gap_direct",
    "is_metal",
    "es_source_calc_id",
    "bandstructure",
    "dos",
    "dos_energy_up",
    "dos_energy_down",
    "is_magnetic",
    "ordering",
    "total_magnetization_normalized_vol",
    "total_magnetization_normalized_formula_units",
    "num_magnetic_sites",
    "num_unique_magnetic_sites",
    "types_of_magnetic_species",
    "bulk_modulus",
    "shear_modulus",
    "universal_anisotropy",
    "homogeneous_poisson",
    "e_total",
    "e_ionic",
    "e_electronic",
    "n",
    "e_ij_max",
    "weighted_surface_energy_EV_PER_ANG2",
    "weighted_surface_energy",
    "weighted_work_function",
    "surface_anisotropy",
    "shape_factor",
    "has_reconstructed",
    "possible_species",
    "has_props",
    "theoretical",
    "database_IDs"
  ]
}
