{
  "builder_meta": null,
  "nsites": null,
  "elements": null,
  "nelements": null,
  "composition": null,
  "composition_reduced": null,
  "formula_pretty": "NbSn3",
  "formula_anonymous": "AB3",
  "chemsys": null,
  "volume": 186.49313907942891,
  "density": 7.996459869733521,
  "density_atomic": 23.311642384928614,
  "symmetry": null,
  "property_name": null,
  "material_id": "mp-1186237",
  "deprecated": null,
  "deprecation_reasons": null,
  "last_updated": null,
  "origins": null,
  "warnings": null,
  "structure": {
    "@module": "pymatgen.core.structure",
    "@class": "Structure",
    "charge": 0,
    "lattice": {
      "matrix": [
        [3.132578, -5.425784, 0.0],
        [3.132578, 5.425784, 0.0],
        [0.0, 0.0, 5.48616]
      ],
      "pbc": [true, true, true],
      "a": 6.265155779447148,
      "b": 6.265155779447148,
      "c": 5.48616,
      "alpha": 90.0,
      "beta": 90.0,
      "gamma": 119.99999767098221,
      "volume": 186.49313907942891
    },
    "properties": {},
    "sites": [
      {
        "species": [{ "element": "Nb", "occu": 1 }],
        "abc": [0.666667, 0.333333, 0.25],
        "properties": { "magmom": -0.016 },
        "label": "Nb",
        "xyz": [3.132578, -1.808598283856, 1.37154]
      },
      {
        "species": [{ "element": "Nb", "occu": 1 }],
        "abc": [0.333333, 0.666667, 0.75],
        "properties": { "magmom": -0.016 },
        "label": "Nb",
        "xyz": [3.132578, 1.808598283856, 4.11462]
      },
      {
        "species": [{ "element": "Sn", "occu": 1 }],
        "abc": [0.826874, 0.173126, 0.75],
        "properties": { "magmom": 0.001 },
        "label": "Sn",
        "xyz": [3.132578, -3.5470954384320006, 4.11462]
      },
      {
        "species": [{ "element": "Sn", "occu": 1 }],
        "abc": [0.346252, 0.173126, 0.75],
        "properties": { "magmom": 0.002 },
        "label": "Sn",
        "xyz": [1.626992096484, -0.939344280784, 4.11462]
      },
      {
        "species": [{ "element": "Sn", "occu": 1 }],
        "abc": [0.826874, 0.653748, 0.75],
        "properties": { "magmom": 0.002 },
        "label": "Sn",
        "xyz": [4.638163903516, -0.9393442807840002, 4.11462]
      },
      {
        "species": [{ "element": "Sn", "occu": 1 }],
        "abc": [0.173126, 0.826874, 0.25],
        "properties": { "magmom": 0.001 },
        "label": "Sn",
        "xyz": [3.132578, 3.5470954384320006, 1.37154]
      },
      {
        "species": [{ "element": "Sn", "occu": 1 }],
        "abc": [0.653748, 0.826874, 0.25],
        "properties": { "magmom": 0.002 },
        "label": "Sn",
        "xyz": [4.638163903516, 0.9393442807840002, 1.37154]
      },
      {
        "species": [{ "element": "Sn", "occu": 1 }],
        "abc": [0.173126, 0.346252, 0.25],
        "properties": { "magmom": 0.002 },
        "label": "Sn",
        "xyz": [1.626992096484, 0.939344280784, 1.37154]
      }
    ]
  },
  "task_ids": null,
  "uncorrected_energy_per_atom": null,
  "energy_per_atom": -24.4166845975,
  "formation_energy_per_atom": 0.32647189999999704,
  "energy_above_hull": 0.41433971624999805,
  "is_stable": false,
  "equilibrium_reaction_energy_per_atom": null,
  "decomposes_to": null,
  "xas": null,
  "grain_boundaries": null,
  "band_gap": 0.0,
  "cbm": null,
  "vbm": null,
  "efermi": 8.68536681,
  "is_gap_direct": null,
  "is_metal": null,
  "es_source_calc_id": null,
  "bandstructure": null,
  "dos": null,
  "dos_energy_up": null,
  "dos_energy_down": null,
  "is_magnetic": null,
  "ordering": null,
  "total_magnetization": 0.0235872,
  "total_magnetization_normalized_vol": null,
  "total_magnetization_normalized_formula_units": null,
  "num_magnetic_sites": null,
  "num_unique_magnetic_sites": null,
  "types_of_magnetic_species": null,
  "bulk_modulus": null,
  "shear_modulus": null,
  "universal_anisotropy": null,
  "homogeneous_poisson": null,
  "e_total": null,
  "e_ionic": null,
  "e_electronic": null,
  "n": null,
  "e_ij_max": null,
  "weighted_surface_energy_EV_PER_ANG2": null,
  "weighted_surface_energy": null,
  "weighted_work_function": null,
  "surface_anisotropy": null,
  "shape_factor": null,
  "has_reconstructed": null,
  "possible_species": null,
  "has_props": null,
  "theoretical": null,
  "database_IDs": null,
  "fields_not_requested": [
    "builder_meta",
    "nsites",
    "elements",
    "nelements",
    "composition",
    "composition_reduced",
    "chemsys",
    "symmetry",
    "property_name",
    "deprecated",
    "deprecation_reasons",
    "last_updated",
    "origins",
    "warnings",
    "task_ids",
    "uncorrected_energy_per_atom",
    "equilibrium_reaction_energy_per_atom",
    "decomposes_to",
    "xas",
    "grain_boundaries",
    "cbm",
    "vbm",
    "is_gap_direct",
    "is_metal",
    "es_source_calc_id",
    "bandstructure",
    "dos",
    "dos_energy_up",
    "dos_energy_down",
    "is_magnetic",
    "ordering",
    "total_magnetization_normalized_vol",
    "total_magnetization_normalized_formula_units",
    "num_magnetic_sites",
    "num_unique_magnetic_sites",
    "types_of_magnetic_species",
    "bulk_modulus",
    "shear_modulus",
    "universal_anisotropy",
    "homogeneous_poisson",
    "e_total",
    "e_ionic",
    "e_electronic",
    "n",
    "e_ij_max",
    "weighted_surface_energy_EV_PER_ANG2",
    "weighted_surface_energy",
    "weighted_work_function",
    "surface_anisotropy",
    "shape_factor",
    "has_reconstructed",
    "possible_species",
    "has_props",
    "theoretical",
    "database_IDs"
  ]
}
