{
  "builder_meta": null,
  "nsites": null,
  "elements": null,
  "nelements": null,
  "composition": null,
  "composition_reduced": null,
  "formula_pretty": "NbSn2",
  "formula_anonymous": "AB2",
  "chemsys": null,
  "volume": 271.8116328862548,
  "density": 8.07205862227532,
  "density_atomic": 22.6509694071879,
  "symmetry": null,
  "property_name": null,
  "material_id": "mp-1046",
  "deprecated": null,
  "deprecation_reasons": null,
  "last_updated": null,
  "origins": null,
  "warnings": null,
  "structure": {
    "@module": "pymatgen.core.structure",
    "@class": "Structure",
    "charge": 0,
    "lattice": {
      "matrix": [
        [5.46664222, -1e-8, 1.60887927],
        [2.7333206, 4.96522737, 0.80443862],
        [0.02104162, -2e-8, 10.02020795]
      ],
      "pbc": [true, true, true],
      "a": 5.698479592568728,
      "b": 5.72465246382075,
      "c": 10.020230042819147,
      "alpha": 81.86394815514575,
      "beta": 73.48007947157352,
      "gamma": 60.15113331704517,
      "volume": 271.8116328862548
    },
    "properties": {},
    "sites": [
      {
        "species": [{ "element": "Nb", "occu": 1 }],
        "abc": [0.00190591, 0.25, 0.99618819],
        "properties": { "magmom": -0.0 },
        "label": "Nb",
        "xyz": [0.714710491415988, 1.241306822557177, 10.186188855223596]
      },
      {
        "species": [{ "element": "Nb", "occu": 1 }],
        "abc": [0.74809409, 0.25, 0.50381181],
        "properties": { "magmom": -0.0 },
        "label": "Nb",
        "xyz": [4.783493903584012, 1.2413068249428227, 6.453001832276404]
      },
      {
        "species": [{ "element": "Nb", "occu": 1 }],
        "abc": [0.99809409, 0.75, 0.00381181],
        "properties": { "magmom": -0.0 },
        "label": "Nb",
        "xyz": [7.5062939485840126, 3.7239205174428225, 2.247336984776404]
      },
      {
        "species": [{ "element": "Nb", "occu": 1 }],
        "abc": [0.25190591, 0.75, 0.49618819000000003],
        "properties": { "magmom": -0.0 },
        "label": "Nb",
        "xyz": [3.437510536415988, 3.723920515057177, 5.980524007723596]
      },
      {
        "species": [{ "element": "Sn", "occu": 1 }],
        "abc": [0.04316711, 0.91366678, 0.25],
        "properties": { "magmom": 0.0 },
        "label": "Sn",
        "xyz": [2.738583782351052, 4.536563297684098, 3.3094914995678533]
      },
      {
        "species": [{ "element": "Sn", "occu": 1 }],
        "abc": [0.70683289, 0.58633322, 0.25],
        "properties": { "magmom": 0.0 },
        "label": "Sn",
        "xyz": [5.471899592648947, 2.9112777398159024, 4.113929857932146]
      },
      {
        "species": [{ "element": "Sn", "occu": 1 }],
        "abc": [0.95683289, 0.08633322, 0.75],
        "properties": { "magmom": 0.0 },
        "label": "Sn",
        "xyz": [5.482420657648947, 0.4286640423159025, 9.124034340432146]
      },
      {
        "species": [{ "element": "Sn", "occu": 1 }],
        "abc": [0.29316711, 0.41366678, 0.75],
        "properties": { "magmom": 0.0 },
        "label": "Sn",
        "xyz": [2.749104847351052, 2.053949600184098, 8.319595982067852]
      },
      {
        "species": [{ "element": "Sn", "occu": 1 }],
        "abc": [0.29207511, 0.25, 0.41585078000000003],
        "properties": { "magmom": -0.0 },
        "label": "Sn",
        "xyz": [2.288750451826608, 1.2413068312622333, 4.837934536531671]
      },
      {
        "species": [{ "element": "Sn", "occu": 1 }],
        "abc": [0.45792489000000003, 0.25, 0.08414922],
        "properties": { "magmom": -0.0 },
        "label": "Sn",
        "xyz": [3.1884123231733925, 1.2413068362377666, 1.7810482009683293]
      },
      {
        "species": [{ "element": "Sn", "occu": 1 }],
        "abc": [0.70792489, 0.75, 0.58414922],
        "properties": { "magmom": -0.0 },
        "label": "Sn",
        "xyz": [5.932253988173392, 3.7239205087377667, 7.595591303468329]
      },
      {
        "species": [{ "element": "Sn", "occu": 1 }],
        "abc": [0.54207511, 0.75, 0.91585078],
        "properties": { "magmom": -0.0 },
        "label": "Sn",
        "xyz": [5.032592116826607, 3.7239205037622334, 10.65247763903167]
      }
    ]
  },
  "task_ids": null,
  "uncorrected_energy_per_atom": null,
  "energy_per_atom": -24.859304491666666,
  "formation_energy_per_atom": -0.117157088333333,
  "energy_above_hull": 0.0,
  "is_stable": true,
  "equilibrium_reaction_energy_per_atom": null,
  "decomposes_to": null,
  "xas": null,
  "grain_boundaries": null,
  "band_gap": 0.0,
  "cbm": null,
  "vbm": null,
  "efermi": 7.72272406,
  "is_gap_direct": null,
  "is_metal": null,
  "es_source_calc_id": null,
  "bandstructure": null,
  "dos": null,
  "dos_energy_up": null,
  "dos_energy_down": null,
  "is_magnetic": null,
  "ordering": null,
  "total_magnetization": 6.390000000000001e-5,
  "total_magnetization_normalized_vol": null,
  "total_magnetization_normalized_formula_units": null,
  "num_magnetic_sites": null,
  "num_unique_magnetic_sites": null,
  "types_of_magnetic_species": null,
  "bulk_modulus": null,
  "shear_modulus": null,
  "universal_anisotropy": null,
  "homogeneous_poisson": null,
  "e_total": null,
  "e_ionic": null,
  "e_electronic": null,
  "n": null,
  "e_ij_max": null,
  "weighted_surface_energy_EV_PER_ANG2": null,
  "weighted_surface_energy": null,
  "weighted_work_function": null,
  "surface_anisotropy": null,
  "shape_factor": null,
  "has_reconstructed": null,
  "possible_species": null,
  "has_props": null,
  "theoretical": null,
  "database_IDs": null,
  "fields_not_requested": [
    "builder_meta",
    "nsites",
    "elements",
    "nelements",
    "composition",
    "composition_reduced",
    "chemsys",
    "symmetry",
    "property_name",
    "deprecated",
    "deprecation_reasons",
    "last_updated",
    "origins",
    "warnings",
    "task_ids",
    "uncorrected_energy_per_atom",
    "equilibrium_reaction_energy_per_atom",
    "decomposes_to",
    "xas",
    "grain_boundaries",
    "cbm",
    "vbm",
    "is_gap_direct",
    "is_metal",
    "es_source_calc_id",
    "bandstructure",
    "dos",
    "dos_energy_up",
    "dos_energy_down",
    "is_magnetic",
    "ordering",
    "total_magnetization_normalized_vol",
    "total_magnetization_normalized_formula_units",
    "num_magnetic_sites",
    "num_unique_magnetic_sites",
    "types_of_magnetic_species",
    "bulk_modulus",
    "shear_modulus",
    "universal_anisotropy",
    "homogeneous_poisson",
    "e_total",
    "e_ionic",
    "e_electronic",
    "n",
    "e_ij_max",
    "weighted_surface_energy_EV_PER_ANG2",
    "weighted_surface_energy",
    "weighted_work_function",
    "surface_anisotropy",
    "shape_factor",
    "has_reconstructed",
    "possible_species",
    "has_props",
    "theoretical",
    "database_IDs"
  ]
}
