{"builder_meta": null, "nsites": null, "elements": null, "nelements": null, "composition": null, "composition_reduced": null, "formula_pretty": "NbTe4", "formula_anonymous": "AB4", "chemsys": null, "volume": 3684.188432279101, "density": 6.526140548132295, "density_atomic": 30.70157026899251, "symmetry": null, "property_name": null, "material_id": "mp-568220", "deprecated": null, "deprecation_reasons": null, "last_updated": null, "origins": null, "warnings": null, "structure": {"@module": "pymatgen.core.structure", "@class": "Structure", "charge": 0, "lattice": {"matrix": [[13.251043, 0.0, 0.0], [0.0, 13.251043, 0.0], [0.0, 0.0, 20.98175]], "pbc": [true, true, true], "a": 13.251043, "b": 13.251043, "c": 20.98175, "alpha": 90.0, "beta": 90.0, "gamma": 90.0, "volume": 3684.188432279101}, "properties": {}, "sites": [{"species": [{"element": "Nb", "occu": 1}], "abc": [0.0, 0.5, 0.929898], "properties": {"magmom": -0.0}, "label": "Nb", "xyz": [0.0, 6.6255215, 19.5108873615]}, {"species": [{"element": "Nb", "occu": 1}], "abc": [0.0, 0.0, 0.25], "properties": {"magmom": -0.002}, "label": "Nb", "xyz": [0.0, 0.0, 5.2454375]}, {"species": [{"element": "Nb", "occu": 1}], "abc": [0.5, 0.5, 0.402931999999999], "properties": {"magmom": -0.0}, "label": "Nb", "xyz": [6.6255215, 6.6255215, 8.45421849099998]}, {"species": [{"element": "Nb", "occu": 1}], "abc": [0.0, 0.5, 0.236059], "properties": {"magmom": -0.0}, "label": "Nb", "xyz": [0.0, 6.6255215, 4.95293092325]}, {"species": [{"element": "Nb", "occu": 1}], "abc": [0.5, 0.0, 0.41828000000000004], "properties": {"magmom": -0.001}, "label": "Nb", "xyz": [6.6255215, 0.0, 8.77624639]}, {"species": [{"element": "Nb", "occu": 1}], "abc": [0.5, 0.0, 0.263941], "properties": {"magmom": -0.0}, "label": "Nb", "xyz": [6.6255215, 0.0, 5.53794407675]}, {"species": [{"element": "Nb", "occu": 1}], "abc": [0.5, 0.5, 0.902932], "properties": {"magmom": -0.0}, "label": "Nb", "xyz": [6.6255215, 6.6255215, 18.945093491]}, {"species": [{"element": "Nb", "occu": 1}], "abc": [0.0, 0.5, 0.58172], "properties": {"magmom": -0.001}, "label": "Nb", "xyz": [0.0, 6.6255215, 12.205503610000001]}, {"species": [{"element": "Nb", "occu": 1}], "abc": [0.0, 0.0, 0.402931999999999], "properties": {"magmom": -0.0}, "label": "Nb", "xyz": [0.0, 0.0, 8.45421849099998]}, {"species": [{"element": "Nb", "occu": 1}], "abc": [0.0, 0.0, 0.902932], "properties": {"magmom": -0.0}, "label": "Nb", "xyz": [0.0, 0.0, 18.945093491]}, {"species": [{"element": "Nb", "occu": 1}], "abc": [0.5, 0.0, 0.070102], "properties": {"magmom": -0.0}, "label": "Nb", "xyz": [6.6255215, 0.0, 1.4708626385]}, {"species": [{"element": "Nb", "occu": 1}], "abc": [0.5, 0.0, 0.570102], "properties": {"magmom": -0.0}, "label": "Nb", "xyz": [6.6255215, 0.0, 11.9617376385]}, {"species": [{"element": "Nb", "occu": 1}], "abc": [0.5, 0.5, 0.597067999999999], "properties": {"magmom": -0.0}, "label": "Nb", "xyz": [6.6255215, 6.6255215, 12.527531508999981]}, {"species": [{"element": "Nb", "occu": 1}], "abc": [0.0, 0.5, 0.429898], "properties": {"magmom": -0.0}, "label": "Nb", "xyz": [0.0, 6.6255215, 9.020012361500001]}, {"species": [{"element": "Nb", "occu": 1}], "abc": [0.5, 0.0, 0.763941], "properties": {"magmom": -0.0}, "label": "Nb", "xyz": [6.6255215, 0.0, 16.02881907675]}, {"species": [{"element": "Nb", "occu": 1}], "abc": [0.5, 0.5, 0.25], "properties": {"magmom": -0.002}, "label": "Nb", "xyz": [6.6255215, 6.6255215, 5.2454375]}, {"species": [{"element": "Nb", "occu": 1}], "abc": [0.5, 0.5, 0.75], "properties": {"magmom": -0.002}, "label": "Nb", "xyz": [6.6255215, 6.6255215, 15.7363125]}, {"species": [{"element": "Nb", "occu": 1}], "abc": [0.0, 0.0, 0.597067999999999], "properties": {"magmom": -0.0}, "label": "Nb", "xyz": [0.0, 0.0, 12.527531508999981]}, {"species": [{"element": "Nb", "occu": 1}], "abc": [0.0, 0.5, 0.08172], "properties": {"magmom": -0.001}, "label": "Nb", "xyz": [0.0, 6.6255215, 1.71462861]}, {"species": [{"element": "Nb", "occu": 1}], "abc": [0.5, 0.0, 0.9182800000000001], "properties": {"magmom": -0.001}, "label": "Nb", "xyz": [6.6255215, 0.0, 19.267121390000003]}, {"species": [{"element": "Nb", "occu": 1}], "abc": [0.0, 0.0, 0.75], "properties": {"magmom": -0.002}, "label": "Nb", "xyz": [0.0, 0.0, 15.7363125]}, {"species": [{"element": "Nb", "occu": 1}], "abc": [0.5, 0.5, 0.097068], "properties": {"magmom": -0.0}, "label": "Nb", "xyz": [6.6255215, 6.6255215, 2.036656509]}, {"species": [{"element": "Nb", "occu": 1}], "abc": [0.0, 0.0, 0.097068], "properties": {"magmom": -0.0}, "label": "Nb", "xyz": [0.0, 0.0, 2.036656509]}, {"species": [{"element": "Nb", "occu": 1}], "abc": [0.0, 0.5, 0.736059], "properties": {"magmom": -0.0}, "label": "Nb", "xyz": [0.0, 6.6255215, 15.443805923250002]}, {"species": [{"element": "Te", "occu": 1}], "abc": [0.437814999999999, 0.152994, 0.167668999999999], "properties": {"magmom": 0.0}, "label": "Te", "xyz": [5.801505391044986, 2.0273300727419996, 3.5179890407499794]}, {"species": [{"element": "Te", "occu": 1}], "abc": [0.059320000000000005, 0.844681, 0.500468], "properties": {"magmom": 0.0}, "label": "Te", "xyz": [0.78605187076, 11.192904252283, 10.500694459000002]}, {"species": [{"element": "Te", "occu": 1}], "abc": [0.344680999999999, 0.44068, 0.500468], "properties": {"magmom": 0.0}, "label": "Te", "xyz": [4.567382752282986, 5.83946962924, 10.500694459000002]}, {"species": [{"element": "Te", "occu": 1}], "abc": [0.844681, 0.059320000000000005, 0.999532], "properties": {"magmom": 0.0}, "label": "Te", "xyz": [11.192904252283, 0.78605187076, 20.971930541000003]}, {"species": [{"element": "Te", "occu": 1}], "abc": [0.576275, 0.336379, 0.8301400000000001], "properties": {"magmom": 0.0}, "label": "Te", "xyz": [7.636244804824999, 4.457372593296999, 17.417789945000003]}, {"species": [{"element": "Te", "occu": 1}], "abc": [0.152994, 0.562184999999999, 0.832330999999999], "properties": {"magmom": 0.0}, "label": "Te", "xyz": [2.0273300727419996, 7.449537608954987, 17.46376095924998]}, {"species": [{"element": "Te", "occu": 1}], "abc": [0.923724999999999, 0.836379, 0.66986], "properties": {"magmom": 0.0}, "label": "Te", "xyz": [12.240319695174986, 11.082894093297, 14.054835055000002]}, {"species": [{"element": "Te", "occu": 1}], "abc": [0.078183, 0.337217999999999, 0.502884], "properties": {"magmom": 0.0}, "label": "Te", "xyz": [1.0360062948689999, 4.4684902183739865, 10.551386367000001]}, {"species": [{"element": "Te", "occu": 1}], "abc": [0.423724999999999, 0.336379, 0.33014000000000004], "properties": {"magmom": 0.0}, "label": "Te", "xyz": [5.614798195174987, 4.457372593296999, 6.926914945000002]}, {"species": [{"element": "Te", "occu": 1}], "abc": [0.573417, 0.336163999999999, 0.169194999999999], "properties": {"magmom": 0.0}, "label": "Te", "xyz": [7.598373323930999, 4.454523619051987, 3.5500071912499798]}, {"species": [{"element": "Te", "occu": 1}], "abc": [0.655319, 0.55932, 0.500468], "properties": {"magmom": 0.0}, "label": "Te", "xyz": [8.683660247716999, 7.41157337076, 10.500694459000002]}, {"species": [{"element": "Te", "occu": 1}], "abc": [0.652994, 0.062185, 0.167668999999999], "properties": {"magmom": 0.0}, "label": "Te", "xyz": [8.652851572742, 0.8240161089549999, 3.5179890407499794]}, {"species": [{"element": "Te", "occu": 1}], "abc": [0.423724999999999, 0.663621, 0.8301400000000001], "properties": {"magmom": 0.0}, "label": "Te", "xyz": [5.614798195174987, 8.793670406702999, 17.417789945000003]}, {"species": [{"element": "Te", "occu": 1}], "abc": [0.437814999999999, 0.847005999999999, 0.667669], "properties": {"magmom": 0.0}, "label": "Te", "xyz": [5.801505391044986, 11.223712927257987, 14.00886404075]}, {"species": [{"element": "Te", "occu": 1}], "abc": [0.078183, 0.662782, 0.002884], "properties": {"magmom": 0.0}, "label": "Te", "xyz": [1.0360062948689999, 8.782552781625999, 0.060511367]}, {"species": [{"element": "Te", "occu": 1}], "abc": [0.336163999999999, 0.573417, 0.330804999999999], "properties": {"magmom": 0.0}, "label": "Te", "xyz": [4.454523619051987, 7.598373323930999, 6.94086780874998]}, {"species": [{"element": "Te", "occu": 1}], "abc": [0.836163999999999, 0.073417, 0.669195], "properties": {"magmom": 0.0}, "label": "Te", "xyz": [11.080045119051986, 0.9728518239309999, 14.04088219125]}, {"species": [{"element": "Te", "occu": 1}], "abc": [0.059320000000000005, 0.155318999999999, 0.000468], "properties": {"magmom": 0.0}, "label": "Te", "xyz": [0.78605187076, 2.058138747716987, 0.009819459]}, {"species": [{"element": "Te", "occu": 1}], "abc": [0.067868, 0.666854, 0.663515], "properties": {"magmom": 0.0}, "label": "Te", "xyz": [0.899321786324, 8.836511028721999, 13.92170585125]}, {"species": [{"element": "Te", "occu": 1}], "abc": [0.333146, 0.932132, 0.836484999999999], "properties": {"magmom": 0.0}, "label": "Te", "xyz": [4.414531971278, 12.351721213675999, 17.55091914874998]}, {"species": [{"element": "Te", "occu": 1}], "abc": [0.152994, 0.437814999999999, 0.332331], "properties": {"magmom": 0.0}, "label": "Te", "xyz": [2.0273300727419996, 5.801505391044986, 6.97288595925]}, {"species": [{"element": "Te", "occu": 1}], "abc": [0.663621, 0.576275, 0.16986], "properties": {"magmom": 0.0}, "label": "Te", "xyz": [8.793670406702999, 7.636244804824999, 3.5639600550000003]}, {"species": [{"element": "Te", "occu": 1}], "abc": [0.347006, 0.062185, 0.667669], "properties": {"magmom": 0.0}, "label": "Te", "xyz": [4.598191427258, 0.8240161089549999, 14.00886404075]}, {"species": [{"element": "Te", "occu": 1}], "abc": [0.837217999999999, 0.578183, 0.002884], "properties": {"magmom": 0.0}, "label": "Te", "xyz": [11.094011718373986, 7.6615277948689995, 0.060511367]}, {"species": [{"element": "Te", "occu": 1}], "abc": [0.562184999999999, 0.152994, 0.667669], "properties": {"magmom": 0.0}, "label": "Te", "xyz": [7.449537608954987, 2.0273300727419996, 14.00886404075]}, {"species": [{"element": "Te", "occu": 1}], "abc": [0.073417, 0.836163999999999, 0.830805], "properties": {"magmom": 0.0}, "label": "Te", "xyz": [0.9728518239309999, 11.080045119051986, 17.431742808750002]}, {"species": [{"element": "Te", "occu": 1}], "abc": [0.062185, 0.347006, 0.832330999999999], "properties": {"magmom": 0.0}, "label": "Te", "xyz": [0.8240161089549999, 4.598191427258, 17.46376095924998]}, {"species": [{"element": "Te", "occu": 1}], "abc": [0.347006, 0.937815, 0.167668999999999], "properties": {"magmom": 0.0}, "label": "Te", "xyz": [4.598191427258, 12.427026891045, 3.5179890407499794]}, {"species": [{"element": "Te", "occu": 1}], "abc": [0.336379, 0.423724999999999, 0.16986], "properties": {"magmom": 0.0}, "label": "Te", "xyz": [4.457372593296999, 5.614798195174987, 3.5639600550000003]}, {"species": [{"element": "Te", "occu": 1}], "abc": [0.836379, 0.076275, 0.33014000000000004], "properties": {"magmom": 0.0}, "label": "Te", "xyz": [11.082894093297, 1.010723304825, 6.926914945000002]}, {"species": [{"element": "Te", "occu": 1}], "abc": [0.421817, 0.837217999999999, 0.997116], "properties": {"magmom": 0.0}, "label": "Te", "xyz": [5.589515205131, 11.094011718373986, 20.921238633]}, {"species": [{"element": "Te", "occu": 1}], "abc": [0.937815, 0.652994, 0.832330999999999], "properties": {"magmom": 0.0}, "label": "Te", "xyz": [12.427026891045, 8.652851572742, 17.46376095924998]}, {"species": [{"element": "Te", "occu": 1}], "abc": [0.663836, 0.426583, 0.330804999999999], "properties": {"magmom": 0.0}, "label": "Te", "xyz": [8.796519380947998, 5.652669676068999, 6.94086780874998]}, {"species": [{"element": "Te", "occu": 1}], "abc": [0.44068, 0.655319, 0.499532], "properties": {"magmom": 0.0}, "label": "Te", "xyz": [5.83946962924, 8.683660247716999, 10.481055541]}, {"species": [{"element": "Te", "occu": 1}], "abc": [0.926582999999999, 0.163835999999999, 0.830805], "properties": {"magmom": 0.0}, "label": "Te", "xyz": [12.278191176068987, 2.170997880947987, 17.431742808750002]}, {"species": [{"element": "Te", "occu": 1}], "abc": [0.432131999999999, 0.166854, 0.836484999999999], "properties": {"magmom": 0.0}, "label": "Te", "xyz": [5.726199713675987, 2.210989528722, 17.55091914874998]}, {"species": [{"element": "Te", "occu": 1}], "abc": [0.166854, 0.432131999999999, 0.663515], "properties": {"magmom": 0.0}, "label": "Te", "xyz": [2.210989528722, 5.726199713675987, 13.92170585125]}, {"species": [{"element": "Te", "occu": 1}], "abc": [0.163835999999999, 0.926582999999999, 0.669195], "properties": {"magmom": 0.0}, "label": "Te", "xyz": [2.170997880947987, 12.278191176068987, 14.04088219125]}, {"species": [{"element": "Te", "occu": 1}], "abc": [0.163621, 0.076275, 0.8301400000000001], "properties": {"magmom": 0.0}, "label": "Te", "xyz": [2.1681489067029998, 1.010723304825, 17.417789945000003]}, {"species": [{"element": "Te", "occu": 1}], "abc": [0.062185, 0.652994, 0.332331], "properties": {"magmom": 0.0}, "label": "Te", "xyz": [0.8240161089549999, 8.652851572742, 6.97288595925]}, {"species": [{"element": "Te", "occu": 1}], "abc": [0.844681, 0.9406800000000001, 0.499532], "properties": {"magmom": 0.0}, "label": "Te", "xyz": [11.192904252283, 12.46499112924, 10.481055541]}, {"species": [{"element": "Te", "occu": 1}], "abc": [0.937815, 0.347006, 0.332331], "properties": {"magmom": 0.0}, "label": "Te", "xyz": [12.427026891045, 4.598191427258, 6.97288595925]}, {"species": [{"element": "Te", "occu": 1}], "abc": [0.923724999999999, 0.163621, 0.16986], "properties": {"magmom": 0.0}, "label": "Te", "xyz": [12.240319695174986, 2.1681489067029998, 3.5639600550000003]}, {"species": [{"element": "Te", "occu": 1}], "abc": [0.847005999999999, 0.437814999999999, 0.832330999999999], "properties": {"magmom": 0.0}, "label": "Te", "xyz": [11.223712927257987, 5.801505391044986, 17.46376095924998]}, {"species": [{"element": "Te", "occu": 1}], "abc": [0.336163999999999, 0.426583, 0.830805], "properties": {"magmom": 0.0}, "label": "Te", "xyz": [4.454523619051987, 5.652669676068999, 17.431742808750002]}, {"species": [{"element": "Te", "occu": 1}], "abc": [0.9406800000000001, 0.155318999999999, 0.500468], "properties": {"magmom": 0.0}, "label": "Te", "xyz": [12.46499112924, 2.058138747716987, 10.500694459000002]}, {"species": [{"element": "Te", "occu": 1}], "abc": [0.067868, 0.333146, 0.163515], "properties": {"magmom": 0.0}, "label": "Te", "xyz": [0.899321786324, 4.414531971278, 3.43083085125]}, {"species": [{"element": "Te", "occu": 1}], "abc": [0.836379, 0.923724999999999, 0.8301400000000001], "properties": {"magmom": 0.0}, "label": "Te", "xyz": [11.082894093297, 12.240319695174986, 17.417789945000003]}, {"species": [{"element": "Te", "occu": 1}], "abc": [0.155318999999999, 0.9406800000000001, 0.999532], "properties": {"magmom": 0.0}, "label": "Te", "xyz": [2.058138747716987, 12.46499112924, 20.971930541000003]}, {"species": [{"element": "Te", "occu": 1}], "abc": [0.163621, 0.923724999999999, 0.33014000000000004], "properties": {"magmom": 0.0}, "label": "Te", "xyz": [2.1681489067029998, 12.240319695174986, 6.926914945000002]}, {"species": [{"element": "Te", "occu": 1}], "abc": [0.426583, 0.336163999999999, 0.669195], "properties": {"magmom": 0.0}, "label": "Te", "xyz": [5.652669676068999, 4.454523619051987, 14.04088219125]}, {"species": [{"element": "Te", "occu": 1}], "abc": [0.432131999999999, 0.833145999999999, 0.336485], "properties": {"magmom": 0.0}, "label": "Te", "xyz": [5.726199713675987, 11.040053471277988, 7.06004414875]}, {"species": [{"element": "Te", "occu": 1}], "abc": [0.336379, 0.576275, 0.66986], "properties": {"magmom": 0.0}, "label": "Te", "xyz": [4.457372593296999, 7.636244804824999, 14.054835055000002]}, {"species": [{"element": "Te", "occu": 1}], "abc": [0.44068, 0.344680999999999, 0.999532], "properties": {"magmom": 0.0}, "label": "Te", "xyz": [5.83946962924, 4.567382752282986, 20.971930541000003]}, {"species": [{"element": "Te", "occu": 1}], "abc": [0.652994, 0.937815, 0.667669], "properties": {"magmom": 0.0}, "label": "Te", "xyz": [8.652851572742, 12.427026891045, 14.00886404075]}, {"species": [{"element": "Te", "occu": 1}], "abc": [0.333146, 0.067868, 0.336485], "properties": {"magmom": 0.0}, "label": "Te", "xyz": [4.414531971278, 0.899321786324, 7.06004414875]}, {"species": [{"element": "Te", "occu": 1}], "abc": [0.833145999999999, 0.567867999999999, 0.663515], "properties": {"magmom": 0.0}, "label": "Te", "xyz": [11.040053471277988, 7.5248432863239865, 13.92170585125]}, {"species": [{"element": "Te", "occu": 1}], "abc": [0.662782, 0.078183, 0.497116], "properties": {"magmom": 0.0}, "label": "Te", "xyz": [8.782552781625999, 1.0360062948689999, 10.430363633]}, {"species": [{"element": "Te", "occu": 1}], "abc": [0.337217999999999, 0.921817, 0.497116], "properties": {"magmom": 0.0}, "label": "Te", "xyz": [4.4684902183739865, 12.215036705130998, 10.430363633]}, {"species": [{"element": "Te", "occu": 1}], "abc": [0.567867999999999, 0.833145999999999, 0.836484999999999], "properties": {"magmom": 0.0}, "label": "Te", "xyz": [7.5248432863239865, 11.040053471277988, 17.55091914874998]}, {"species": [{"element": "Te", "occu": 1}], "abc": [0.662782, 0.921817, 0.997116], "properties": {"magmom": 0.0}, "label": "Te", "xyz": [8.782552781625999, 12.215036705130998, 20.921238633]}, {"species": [{"element": "Te", "occu": 1}], "abc": [0.663836, 0.573417, 0.830805], "properties": {"magmom": 0.0}, "label": "Te", "xyz": [8.796519380947998, 7.598373323930999, 17.431742808750002]}, {"species": [{"element": "Te", "occu": 1}], "abc": [0.162781999999999, 0.578183, 0.502884], "properties": {"magmom": 0.0}, "label": "Te", "xyz": [2.157031281625987, 7.6615277948689995, 10.551386367000001]}, {"species": [{"element": "Te", "occu": 1}], "abc": [0.166854, 0.567867999999999, 0.163515], "properties": {"magmom": 0.0}, "label": "Te", "xyz": [2.210989528722, 7.5248432863239865, 3.43083085125]}, {"species": [{"element": "Te", "occu": 1}], "abc": [0.666854, 0.932132, 0.336485], "properties": {"magmom": 0.0}, "label": "Te", "xyz": [8.836511028721999, 12.351721213675999, 7.06004414875]}, {"species": [{"element": "Te", "occu": 1}], "abc": [0.847005999999999, 0.562184999999999, 0.332331], "properties": {"magmom": 0.0}, "label": "Te", "xyz": [11.223712927257987, 7.449537608954987, 6.97288595925]}, {"species": [{"element": "Te", "occu": 1}], "abc": [0.663621, 0.423724999999999, 0.66986], "properties": {"magmom": 0.0}, "label": "Te", "xyz": [8.793670406702999, 5.614798195174987, 14.054835055000002]}, {"species": [{"element": "Te", "occu": 1}], "abc": [0.921817, 0.662782, 0.502884], "properties": {"magmom": 0.0}, "label": "Te", "xyz": [12.215036705130998, 8.782552781625999, 10.551386367000001]}, {"species": [{"element": "Te", "occu": 1}], "abc": [0.567867999999999, 0.166854, 0.336485], "properties": {"magmom": 0.0}, "label": "Te", "xyz": [7.5248432863239865, 2.210989528722, 7.06004414875]}, {"species": [{"element": "Te", "occu": 1}], "abc": [0.576275, 0.663621, 0.33014000000000004], "properties": {"magmom": 0.0}, "label": "Te", "xyz": [7.636244804824999, 8.793670406702999, 6.926914945000002]}, {"species": [{"element": "Te", "occu": 1}], "abc": [0.578183, 0.837217999999999, 0.497116], "properties": {"magmom": 0.0}, "label": "Te", "xyz": [7.6615277948689995, 11.094011718373986, 10.430363633]}, {"species": [{"element": "Te", "occu": 1}], "abc": [0.932132, 0.333146, 0.663515], "properties": {"magmom": 0.0}, "label": "Te", "xyz": [12.351721213675999, 4.414531971278, 13.92170585125]}, {"species": [{"element": "Te", "occu": 1}], "abc": [0.55932, 0.344680999999999, 0.499532], "properties": {"magmom": 0.0}, "label": "Te", "xyz": [7.41157337076, 4.567382752282986, 10.481055541]}, {"species": [{"element": "Te", "occu": 1}], "abc": [0.55932, 0.655319, 0.999532], "properties": {"magmom": 0.0}, "label": "Te", "xyz": [7.41157337076, 8.683660247716999, 20.971930541000003]}, {"species": [{"element": "Te", "occu": 1}], "abc": [0.833145999999999, 0.432131999999999, 0.163515], "properties": {"magmom": 0.0}, "label": "Te", "xyz": [11.040053471277988, 5.726199713675987, 3.43083085125]}, {"species": [{"element": "Te", "occu": 1}], "abc": [0.836163999999999, 0.926582999999999, 0.169194999999999], "properties": {"magmom": 0.0}, "label": "Te", "xyz": [11.080045119051986, 12.278191176068987, 3.5500071912499798]}, {"species": [{"element": "Te", "occu": 1}], "abc": [0.421817, 0.162781999999999, 0.497116], "properties": {"magmom": 0.0}, "label": "Te", "xyz": [5.589515205131, 2.157031281625987, 10.430363633]}, {"species": [{"element": "Te", "occu": 1}], "abc": [0.573417, 0.663836, 0.669195], "properties": {"magmom": 0.0}, "label": "Te", "xyz": [7.598373323930999, 8.796519380947998, 14.04088219125]}, {"species": [{"element": "Te", "occu": 1}], "abc": [0.666854, 0.067868, 0.836484999999999], "properties": {"magmom": 0.0}, "label": "Te", "xyz": [8.836511028721999, 0.899321786324, 17.55091914874998]}, {"species": [{"element": "Te", "occu": 1}], "abc": [0.076275, 0.163621, 0.66986], "properties": {"magmom": 0.0}, "label": "Te", "xyz": [1.010723304825, 2.1681489067029998, 14.054835055000002]}, {"species": [{"element": "Te", "occu": 1}], "abc": [0.155318999999999, 0.059320000000000005, 0.499532], "properties": {"magmom": 0.0}, "label": "Te", "xyz": [2.058138747716987, 0.78605187076, 10.481055541]}, {"species": [{"element": "Te", "occu": 1}], "abc": [0.426583, 0.663836, 0.169194999999999], "properties": {"magmom": 0.0}, "label": "Te", "xyz": [5.652669676068999, 8.796519380947998, 3.5500071912499798]}, {"species": [{"element": "Te", "occu": 1}], "abc": [0.562184999999999, 0.847005999999999, 0.167668999999999], "properties": {"magmom": 0.0}, "label": "Te", "xyz": [7.449537608954987, 11.223712927257987, 3.5179890407499794]}, {"species": [{"element": "Te", "occu": 1}], "abc": [0.926582999999999, 0.836163999999999, 0.330804999999999], "properties": {"magmom": 0.0}, "label": "Te", "xyz": [12.278191176068987, 11.080045119051986, 6.94086780874998]}, {"species": [{"element": "Te", "occu": 1}], "abc": [0.932132, 0.666854, 0.163515], "properties": {"magmom": 0.0}, "label": "Te", "xyz": [12.351721213675999, 8.836511028721999, 3.43083085125]}, {"species": [{"element": "Te", "occu": 1}], "abc": [0.655319, 0.44068, 0.000468], "properties": {"magmom": 0.0}, "label": "Te", "xyz": [8.683660247716999, 5.83946962924, 0.009819459]}, {"species": [{"element": "Te", "occu": 1}], "abc": [0.162781999999999, 0.421817, 0.002884], "properties": {"magmom": 0.0}, "label": "Te", "xyz": [2.157031281625987, 5.589515205131, 0.060511367]}, {"species": [{"element": "Te", "occu": 1}], "abc": [0.073417, 0.163835999999999, 0.330804999999999], "properties": {"magmom": 0.0}, "label": "Te", "xyz": [0.9728518239309999, 2.170997880947987, 6.94086780874998]}, {"species": [{"element": "Te", "occu": 1}], "abc": [0.837217999999999, 0.421817, 0.502884], "properties": {"magmom": 0.0}, "label": "Te", "xyz": [11.094011718373986, 5.589515205131, 10.551386367000001]}, {"species": [{"element": "Te", "occu": 1}], "abc": [0.578183, 0.162781999999999, 0.997116], "properties": {"magmom": 0.0}, "label": "Te", "xyz": [7.6615277948689995, 2.157031281625987, 20.921238633]}, {"species": [{"element": "Te", "occu": 1}], "abc": [0.337217999999999, 0.078183, 0.997116], "properties": {"magmom": 0.0}, "label": "Te", "xyz": [4.4684902183739865, 1.0360062948689999, 20.921238633]}, {"species": [{"element": "Te", "occu": 1}], "abc": [0.9406800000000001, 0.844681, 0.000468], "properties": {"magmom": 0.0}, "label": "Te", "xyz": [12.46499112924, 11.192904252283, 0.009819459]}, {"species": [{"element": "Te", "occu": 1}], "abc": [0.076275, 0.836379, 0.16986], "properties": {"magmom": 0.0}, "label": "Te", "xyz": [1.010723304825, 11.082894093297, 3.5639600550000003]}, {"species": [{"element": "Te", "occu": 1}], "abc": [0.163835999999999, 0.073417, 0.169194999999999], "properties": {"magmom": 0.0}, "label": "Te", "xyz": [2.170997880947987, 0.9728518239309999, 3.5500071912499798]}, {"species": [{"element": "Te", "occu": 1}], "abc": [0.344680999999999, 0.55932, 0.000468], "properties": {"magmom": 0.0}, "label": "Te", "xyz": [4.567382752282986, 7.41157337076, 0.009819459]}, {"species": [{"element": "Te", "occu": 1}], "abc": [0.921817, 0.337217999999999, 0.002884], "properties": {"magmom": 0.0}, "label": "Te", "xyz": [12.215036705130998, 4.4684902183739865, 0.060511367]}]}, "task_ids": null, "uncorrected_energy_per_atom": null, "energy_per_atom": -5.207174065749999, "formation_energy_per_atom": -0.672268343083332, "energy_above_hull": 0.0, "is_stable": true, "equilibrium_reaction_energy_per_atom": null, "decomposes_to": null, "xas": null, "grain_boundaries": null, "band_gap": 0.0, "cbm": null, "vbm": null, "efermi": 5.91152411, "is_gap_direct": null, "is_metal": null, "es_source_calc_id": null, "bandstructure": null, "dos": null, "dos_energy_up": null, "dos_energy_down": null, "is_magnetic": null, "ordering": null, "total_magnetization": 0.148179, "total_magnetization_normalized_vol": null, "total_magnetization_normalized_formula_units": null, "num_magnetic_sites": null, "num_unique_magnetic_sites": null, "types_of_magnetic_species": null, "bulk_modulus": null, "shear_modulus": null, "universal_anisotropy": null, "homogeneous_poisson": null, "e_total": null, "e_ionic": null, "e_electronic": null, "n": null, "e_ij_max": null, "weighted_surface_energy_EV_PER_ANG2": null, "weighted_surface_energy": null, "weighted_work_function": null, "surface_anisotropy": null, "shape_factor": null, "has_reconstructed": null, "possible_species": null, "has_props": null, "theoretical": null, "database_IDs": null, "fields_not_requested": ["builder_meta", "nsites", "elements", "nelements", "composition", "composition_reduced", "chemsys", "symmetry", "property_name", "deprecated", "deprecation_reasons", "last_updated", "origins", "warnings", "task_ids", "uncorrected_energy_per_atom", "equilibrium_reaction_energy_per_atom", "decomposes_to", "xas", "grain_boundaries", "cbm", "vbm", "is_gap_direct", "is_metal", "es_source_calc_id", "bandstructure", "dos", "dos_energy_up", "dos_energy_down", "is_magnetic", "ordering", "total_magnetization_normalized_vol", "total_magnetization_normalized_formula_units", "num_magnetic_sites", "num_unique_magnetic_sites", "types_of_magnetic_species", "bulk_modulus", "shear_modulus", "universal_anisotropy", "homogeneous_poisson", "e_total", "e_ionic", "e_electronic", "n", "e_ij_max", "weighted_surface_energy_EV_PER_ANG2", "weighted_surface_energy", "weighted_work_function", "surface_anisotropy", "shape_factor", "has_reconstructed", "possible_species", "has_props", "theoretical", "database_IDs"]}