{"builder_meta": null, "nsites": null, "elements": null, "nelements": null, "composition": null, "composition_reduced": null, "formula_pretty": "NbTe2", "formula_anonymous": "AB2", "chemsys": null, "volume": 249.294547555818, "density": 6.956159879829843, "density_atomic": 27.69939417286867, "symmetry": null, "property_name": null, "material_id": "mp-11675", "deprecated": null, "deprecation_reasons": null, "last_updated": null, "origins": null, "warnings": null, "structure": {"@module": "pymatgen.core.structure", "@class": "Structure", "charge": 0, "lattice": {"matrix": [[3.70055245, 1e-08, -0.0], [-1.8502757, 7.03580755, -2.69384038], [-1e-08, -0.08392931000000001, 9.60699078]], "pbc": [true, true, true], "a": 3.70055245, "b": 7.757762824395062, "c": 9.60735738775664, "alpha": 110.80289472668063, "beta": 90.00000006098999, "gamma": 103.79840058054764, "volume": 249.29454755581799}, "properties": {}, "sites": [{"species": [{"element": "Nb", "occu": 1}], "abc": [-0.0, -0.0, -0.0], "properties": {"magmom": 0.0}, "label": "Nb", "xyz": [0.0, 0.0, 0.0]}, {"species": [{"element": "Nb", "occu": 1}], "abc": [0.36170151, 0.72340202, 0.71038504], "properties": {"magmom": 0.0}, "label": "Nb", "xyz": [2.2229584351020436e-06, 5.030095271376744, 4.875932957080364]}, {"species": [{"element": "Nb", "occu": 1}], "abc": [0.63829849, 0.27659798, 0.28961496000000003], "properties": {"magmom": 0.0}, "label": "Nb", "xyz": [1.8502745170415649, 1.9217829786232565, 2.037217442919637]}, {"species": [{"element": "Te", "occu": 1}], "abc": [0.35358591, 0.70717182, 0.98457795], "properties": {"magmom": -0.0}, "label": "Te", "xyz": [3.614194259677079e-07, 4.892889885854386, 7.553823283527209]}, {"species": [{"element": "Te", "occu": 1}], "abc": [0.64641409, 0.29282818, 0.01542205], "properties": {"magmom": -0.0}, "label": "Te", "xyz": [1.850276378580574, 2.0589883641456144, -0.6406728835272095]}, {"species": [{"element": "Te", "occu": 1}], "abc": [0.70617095, 0.412342899999999, 0.617611], "properties": {"magmom": 0.0}, "label": "Te", "xyz": [1.850274585027689, 2.8493296309921874, 4.822597228200281]}, {"species": [{"element": "Te", "occu": 1}], "abc": [0.29382905, 0.587657099999999, 0.382389], "properties": {"magmom": 0.0}, "label": "Te", "xyz": [2.1549723142435294e-06, 4.102548619007799, 2.090553171799724]}, {"species": [{"element": "Te", "occu": 1}], "abc": [0.00614751, 0.012294020000000001, 0.30406779], "properties": {"magmom": -0.0}, "label": "Te", "xyz": [1.8536899075963468e-06, 0.06097815898940122, 2.8880583275164486]}, {"species": [{"element": "Te", "occu": 1}], "abc": [0.99385249, 0.98770598, 0.69593221], "properties": {"magmom": -0.0}, "label": "Te", "xyz": [1.8502748863100924, 6.890900091010598, 4.025092072483552]}]}, "task_ids": null, "uncorrected_energy_per_atom": null, "energy_per_atom": -6.205078186666668, "formation_energy_per_atom": -0.7424392444444451, "energy_above_hull": 0.0, "is_stable": true, "equilibrium_reaction_energy_per_atom": null, "decomposes_to": null, "xas": null, "grain_boundaries": null, "band_gap": 0.0, "cbm": null, "vbm": null, "efermi": 6.23010781, "is_gap_direct": null, "is_metal": null, "es_source_calc_id": null, "bandstructure": null, "dos": null, "dos_energy_up": null, "dos_energy_down": null, "is_magnetic": null, "ordering": null, "total_magnetization": 1e-07, "total_magnetization_normalized_vol": null, "total_magnetization_normalized_formula_units": null, "num_magnetic_sites": null, "num_unique_magnetic_sites": null, "types_of_magnetic_species": null, "bulk_modulus": null, "shear_modulus": null, "universal_anisotropy": null, "homogeneous_poisson": null, "e_total": null, "e_ionic": null, "e_electronic": null, "n": null, "e_ij_max": null, "weighted_surface_energy_EV_PER_ANG2": null, "weighted_surface_energy": null, "weighted_work_function": null, "surface_anisotropy": null, "shape_factor": null, "has_reconstructed": null, "possible_species": null, "has_props": null, "theoretical": null, "database_IDs": null, "fields_not_requested": ["builder_meta", "nsites", "elements", "nelements", "composition", "composition_reduced", "chemsys", "symmetry", "property_name", "deprecated", "deprecation_reasons", "last_updated", "origins", "warnings", "task_ids", "uncorrected_energy_per_atom", "equilibrium_reaction_energy_per_atom", "decomposes_to", "xas", "grain_boundaries", "cbm", "vbm", "is_gap_direct", "is_metal", "es_source_calc_id", "bandstructure", "dos", "dos_energy_up", "dos_energy_down", "is_magnetic", "ordering", "total_magnetization_normalized_vol", "total_magnetization_normalized_formula_units", "num_magnetic_sites", "num_unique_magnetic_sites", "types_of_magnetic_species", "bulk_modulus", "shear_modulus", "universal_anisotropy", "homogeneous_poisson", "e_total", "e_ionic", "e_electronic", "n", "e_ij_max", "weighted_surface_energy_EV_PER_ANG2", "weighted_surface_energy", "weighted_work_function", "surface_anisotropy", "shape_factor", "has_reconstructed", "possible_species", "has_props", "theoretical", "database_IDs"]}