{
  "builder_meta": null,
  "nsites": null,
  "elements": null,
  "nelements": null,
  "composition": null,
  "composition_reduced": null,
  "formula_pretty": "NbZn2",
  "formula_anonymous": "AB2",
  "chemsys": null,
  "volume": 356.0607926260727,
  "density": 8.346958291046846,
  "density_atomic": 14.835866359419697,
  "symmetry": null,
  "property_name": null,
  "material_id": "mp-30798",
  "deprecated": null,
  "deprecation_reasons": null,
  "last_updated": null,
  "origins": null,
  "warnings": null,
  "structure": {
    "@module": "pymatgen.core.structure",
    "@class": "Structure",
    "charge": 0,
    "lattice": {
      "matrix": [
        [5.02844772, -1e-8, 0.0],
        [-2.51422487, 4.35476248, -0.0],
        [-0.0, 0.0, 16.26019476]
      ],
      "pbc": [true, true, true],
      "a": 5.02844772,
      "b": 5.02844737012751,
      "c": 16.26019476,
      "alpha": 90.0,
      "beta": 90.0,
      "gamma": 120.00001570419437,
      "volume": 356.0607926260727
    },
    "properties": {},
    "sites": [
      {
        "species": [{ "element": "Nb", "occu": 1 }],
        "abc": [0.333333, 0.666667, 0.65684751],
        "properties": { "magmom": 0.0 },
        "label": "Nb",
        "xyz": [-3.1875575301487657e-6, 2.9031764349208298, 10.680468440221048]
      },
      {
        "species": [{ "element": "Nb", "occu": 1 }],
        "abc": [0.666667, 0.333333, 0.15684751],
        "properties": { "magmom": 0.0 },
        "label": "Nb",
        "xyz": [2.51422603755753, 1.4515860350791698, 2.550371060221048]
      },
      {
        "species": [{ "element": "Nb", "occu": 1 }],
        "abc": [0.666667, 0.333333, 0.34315249000000003],
        "properties": { "magmom": 0.0 },
        "label": "Nb",
        "xyz": [2.51422603755753, 1.4515860350791698, 5.5797263197789535]
      },
      {
        "species": [{ "element": "Nb", "occu": 1 }],
        "abc": [0.333333, 0.666667, 0.84315249],
        "properties": { "magmom": 0.0 },
        "label": "Nb",
        "xyz": [-3.1875575301487657e-6, 2.9031764349208298, 13.709823699778953]
      },
      {
        "species": [{ "element": "Nb", "occu": 1 }],
        "abc": [0.0, -0.0, 0.4091397],
        "properties": { "magmom": -0.0 },
        "label": "Nb",
        "xyz": [0.0, 0.0, 6.652691206047972]
      },
      {
        "species": [{ "element": "Nb", "occu": 1 }],
        "abc": [0.0, -0.0, 0.9091397],
        "properties": { "magmom": -0.0 },
        "label": "Nb",
        "xyz": [0.0, 0.0, 14.782788586047973]
      },
      {
        "species": [{ "element": "Nb", "occu": 1 }],
        "abc": [0.0, -0.0, 0.5908603],
        "properties": { "magmom": -0.0 },
        "label": "Nb",
        "xyz": [0.0, 0.0, 9.607503553952029]
      },
      {
        "species": [{ "element": "Nb", "occu": 1 }],
        "abc": [0.0, -0.0, 0.090860299999999],
        "properties": { "magmom": -0.0 },
        "label": "Nb",
        "xyz": [0.0, 0.0, 1.477406173952012]
      },
      {
        "species": [{ "element": "Zn", "occu": 1 }],
        "abc": [0.8392204400000001, 0.67844088, 0.75],
        "properties": { "magmom": -0.0 },
        "label": "Zn",
        "xyz": [2.5142231747747115, 2.954448880729978, 12.19514607]
      },
      {
        "species": [{ "element": "Zn", "occu": 1 }],
        "abc": [0.16077956000000002, 0.8392204400000001, 0.25],
        "properties": { "magmom": -0.0 },
        "label": "Zn",
        "xyz": [-1.3015172897557394, 3.654605682953296, 4.06504869]
      },
      {
        "species": [{ "element": "Zn", "occu": 1 }],
        "abc": [0.67844088, 0.8392204400000001, 0.25],
        "properties": { "magmom": -0.0 },
        "label": "Zn",
        "xyz": [1.3015155945304508, 3.654605677776683, 4.06504869]
      },
      {
        "species": [{ "element": "Zn", "occu": 1 }],
        "abc": [0.32155912000000003, 0.16077956000000002, 0.75],
        "properties": { "magmom": -0.0 },
        "label": "Zn",
        "xyz": [1.2127072554695493, 0.7001567922233176, 12.19514607]
      },
      {
        "species": [{ "element": "Zn", "occu": 1 }],
        "abc": [0.8392204400000001, 0.16077956000000002, 0.75],
        "properties": { "magmom": -0.0 },
        "label": "Zn",
        "xyz": [3.8157401397557402, 0.7001567870467045, 12.19514607]
      },
      {
        "species": [{ "element": "Zn", "occu": 1 }],
        "abc": [0.16077956000000002, 0.32155912000000003, 0.25],
        "properties": { "magmom": -0.0 },
        "label": "Zn",
        "xyz": [-3.247747112355981e-7, 1.400313589270022, 4.06504869]
      },
      {
        "species": [{ "element": "Zn", "occu": 1 }],
        "abc": [0.5, -0.0, 0.5],
        "properties": { "magmom": -0.0 },
        "label": "Zn",
        "xyz": [2.51422386, -5e-9, 8.13009738]
      },
      {
        "species": [{ "element": "Zn", "occu": 1 }],
        "abc": [0.5, 0.5, -0.0],
        "properties": { "magmom": -0.0 },
        "label": "Zn",
        "xyz": [1.257111425, 2.177381235, 0.0]
      },
      {
        "species": [{ "element": "Zn", "occu": 1 }],
        "abc": [0.333333, 0.666667, 0.12685254],
        "properties": { "magmom": -0.0 },
        "label": "Zn",
        "xyz": [-3.1875575301487657e-6, 2.9031764349208298, 2.0626470062006907]
      },
      {
        "species": [{ "element": "Zn", "occu": 1 }],
        "abc": [0.666667, 0.333333, 0.62685254],
        "properties": { "magmom": -0.0 },
        "label": "Zn",
        "xyz": [2.51422603755753, 1.4515860350791698, 10.19274438620069]
      },
      {
        "species": [{ "element": "Zn", "occu": 1 }],
        "abc": [0.666667, 0.333333, 0.87314746],
        "properties": { "magmom": -0.0 },
        "label": "Zn",
        "xyz": [2.51422603755753, 1.4515860350791698, 14.197547753799311]
      },
      {
        "species": [{ "element": "Zn", "occu": 1 }],
        "abc": [0.333333, 0.666667, 0.37314746],
        "properties": { "magmom": -0.0 },
        "label": "Zn",
        "xyz": [-3.1875575301487657e-6, 2.9031764349208298, 6.06745037379931]
      },
      {
        "species": [{ "element": "Zn", "occu": 1 }],
        "abc": [0.5, -0.0, -0.0],
        "properties": { "magmom": -0.0 },
        "label": "Zn",
        "xyz": [2.51422386, -5e-9, 0.0]
      },
      {
        "species": [{ "element": "Zn", "occu": 1 }],
        "abc": [0.5, 0.5, 0.5],
        "properties": { "magmom": -0.0 },
        "label": "Zn",
        "xyz": [1.257111425, 2.177381235, 8.13009738]
      },
      {
        "species": [{ "element": "Zn", "occu": 1 }],
        "abc": [0.0, 0.5, 0.5],
        "properties": { "magmom": -0.0 },
        "label": "Zn",
        "xyz": [-1.257112435, 2.17738124, 8.13009738]
      },
      {
        "species": [{ "element": "Zn", "occu": 1 }],
        "abc": [0.0, 0.5, -0.0],
        "properties": { "magmom": -0.0 },
        "label": "Zn",
        "xyz": [-1.257112435, 2.17738124, 0.0]
      }
    ]
  },
  "task_ids": null,
  "uncorrected_energy_per_atom": null,
  "energy_per_atom": -4.368722320833332,
  "formation_energy_per_atom": -0.161791567499999,
  "energy_above_hull": 0.0,
  "is_stable": true,
  "equilibrium_reaction_energy_per_atom": null,
  "decomposes_to": null,
  "xas": null,
  "grain_boundaries": null,
  "band_gap": 0.0,
  "cbm": null,
  "vbm": null,
  "efermi": 3.72058642,
  "is_gap_direct": null,
  "is_metal": null,
  "es_source_calc_id": null,
  "bandstructure": null,
  "dos": null,
  "dos_energy_up": null,
  "dos_energy_down": null,
  "is_magnetic": null,
  "ordering": null,
  "total_magnetization": 1.9200000000000003e-5,
  "total_magnetization_normalized_vol": null,
  "total_magnetization_normalized_formula_units": null,
  "num_magnetic_sites": null,
  "num_unique_magnetic_sites": null,
  "types_of_magnetic_species": null,
  "bulk_modulus": null,
  "shear_modulus": null,
  "universal_anisotropy": null,
  "homogeneous_poisson": null,
  "e_total": null,
  "e_ionic": null,
  "e_electronic": null,
  "n": null,
  "e_ij_max": null,
  "weighted_surface_energy_EV_PER_ANG2": null,
  "weighted_surface_energy": null,
  "weighted_work_function": null,
  "surface_anisotropy": null,
  "shape_factor": null,
  "has_reconstructed": null,
  "possible_species": null,
  "has_props": null,
  "theoretical": null,
  "database_IDs": null,
  "fields_not_requested": [
    "builder_meta",
    "nsites",
    "elements",
    "nelements",
    "composition",
    "composition_reduced",
    "chemsys",
    "symmetry",
    "property_name",
    "deprecated",
    "deprecation_reasons",
    "last_updated",
    "origins",
    "warnings",
    "task_ids",
    "uncorrected_energy_per_atom",
    "equilibrium_reaction_energy_per_atom",
    "decomposes_to",
    "xas",
    "grain_boundaries",
    "cbm",
    "vbm",
    "is_gap_direct",
    "is_metal",
    "es_source_calc_id",
    "bandstructure",
    "dos",
    "dos_energy_up",
    "dos_energy_down",
    "is_magnetic",
    "ordering",
    "total_magnetization_normalized_vol",
    "total_magnetization_normalized_formula_units",
    "num_magnetic_sites",
    "num_unique_magnetic_sites",
    "types_of_magnetic_species",
    "bulk_modulus",
    "shear_modulus",
    "universal_anisotropy",
    "homogeneous_poisson",
    "e_total",
    "e_ionic",
    "e_electronic",
    "n",
    "e_ij_max",
    "weighted_surface_energy_EV_PER_ANG2",
    "weighted_surface_energy",
    "weighted_work_function",
    "surface_anisotropy",
    "shape_factor",
    "has_reconstructed",
    "possible_species",
    "has_props",
    "theoretical",
    "database_IDs"
  ]
}
