{
  "builder_meta": null,
  "nsites": null,
  "elements": null,
  "nelements": null,
  "composition": null,
  "composition_reduced": null,
  "formula_pretty": "NCl3",
  "formula_anonymous": "AB3",
  "chemsys": null,
  "volume": 1188.4119337371756,
  "density": 2.01820875191102,
  "density_atomic": 24.758581952857824,
  "symmetry": null,
  "property_name": null,
  "material_id": "mp-540572",
  "deprecated": null,
  "deprecation_reasons": null,
  "last_updated": null,
  "origins": null,
  "warnings": null,
  "structure": {
    "@module": "pymatgen.core.structure",
    "@class": "Structure",
    "charge": 0,
    "lattice": {
      "matrix": [
        [7.60202458, 0.0, 0.0],
        [0.0, 9.39897316, 0.0],
        [0.0, 0.0, 16.63249208]
      ],
      "pbc": [true, true, true],
      "a": 7.60202458,
      "b": 9.39897316,
      "c": 16.63249208,
      "alpha": 90.0,
      "beta": 90.0,
      "gamma": 90.0,
      "volume": 1188.4119337371756
    },
    "properties": {},
    "sites": [
      {
        "species": [{ "element": "N", "occu": 1 }],
        "abc": [0.89462695, 0.25, 0.050956499999999],
        "properties": { "magmom": -0.0 },
        "label": "N",
        "xyz": [6.800976063830431, 2.34974329, 0.8475335826745033]
      },
      {
        "species": [{ "element": "N", "occu": 1 }],
        "abc": [0.39462695000000003, 0.25, 0.4490435],
        "properties": { "magmom": -0.0 },
        "label": "N",
        "xyz": [2.9999637738304314, 2.34974329, 7.468712457325479]
      },
      {
        "species": [{ "element": "N", "occu": 1 }],
        "abc": [0.10537305, 0.75, 0.949043499999999],
        "properties": { "magmom": -0.0 },
        "label": "N",
        "xyz": [0.801048516169569, 7.0492298700000005, 15.784958497325462]
      },
      {
        "species": [{ "element": "N", "occu": 1 }],
        "abc": [0.60537305, 0.75, 0.5509565],
        "properties": { "magmom": -0.0 },
        "label": "N",
        "xyz": [4.602060806169569, 7.0492298700000005, 9.163779622674518]
      },
      {
        "species": [{ "element": "N", "occu": 1 }],
        "abc": [0.8071598, 0.25, 0.3500894],
        "properties": { "magmom": -0.0 },
        "label": "N",
        "xyz": [6.136048639587884, 2.34974329, 5.822859172791952]
      },
      {
        "species": [{ "element": "N", "occu": 1 }],
        "abc": [0.3071598, 0.25, 0.1499106],
        "properties": { "magmom": -0.0 },
        "label": "N",
        "xyz": [2.335036349587884, 2.34974329, 2.4933868672080477]
      },
      {
        "species": [{ "element": "N", "occu": 1 }],
        "abc": [0.1928402, 0.75, 0.6499106],
        "properties": { "magmom": -0.0 },
        "label": "N",
        "xyz": [1.465975940412116, 7.0492298700000005, 10.809632907208048]
      },
      {
        "species": [{ "element": "N", "occu": 1 }],
        "abc": [0.6928402, 0.75, 0.8500894],
        "properties": { "magmom": -0.0 },
        "label": "N",
        "xyz": [5.2669882304121165, 7.0492298700000005, 14.13910521279195]
      },
      {
        "species": [{ "element": "N", "occu": 1 }],
        "abc": [0.04082252, 0.25, 0.695670599999999],
        "properties": { "magmom": -0.0 },
        "label": "N",
        "xyz": [0.3103338004575416, 2.34974329, 11.57073574478883]
      },
      {
        "species": [{ "element": "N", "occu": 1 }],
        "abc": [0.54082252, 0.25, 0.8043294],
        "properties": { "magmom": -0.0 },
        "label": "N",
        "xyz": [4.111346090457541, 2.34974329, 13.37800237521115]
      },
      {
        "species": [{ "element": "N", "occu": 1 }],
        "abc": [0.95917748, 0.75, 0.30432939999999903],
        "properties": { "magmom": -0.0 },
        "label": "N",
        "xyz": [7.291690779542459, 7.0492298700000005, 5.061756335211135]
      },
      {
        "species": [{ "element": "N", "occu": 1 }],
        "abc": [0.45917748, 0.75, 0.1956706],
        "properties": { "magmom": -0.0 },
        "label": "N",
        "xyz": [3.4906784895424585, 7.0492298700000005, 3.2544897047888477]
      },
      {
        "species": [{ "element": "Cl", "occu": 1 }],
        "abc": [0.77039781, 0.09783323000000001, 0.07758833],
        "properties": { "magmom": 0.0 },
        "label": "Cl",
        "xyz": [5.856583087998169, 0.919531902926107, 1.2904872842254262]
      },
      {
        "species": [{ "element": "Cl", "occu": 1 }],
        "abc": [0.27039781, 0.40216677, 0.42241167],
        "properties": { "magmom": 0.0 },
        "label": "Cl",
        "xyz": [2.05557079799817, 3.7799546770738934, 7.025758755774573]
      },
      {
        "species": [{ "element": "Cl", "occu": 1 }],
        "abc": [0.22960219, 0.59783323, 0.92241167],
        "properties": { "magmom": 0.0 },
        "label": "Cl",
        "xyz": [1.7454414920018304, 5.619018482926107, 15.342004795774573]
      },
      {
        "species": [{ "element": "Cl", "occu": 1 }],
        "abc": [0.72960219, 0.90216677, 0.57758833],
        "properties": { "magmom": 0.0 },
        "label": "Cl",
        "xyz": [5.546453782001831, 8.479441257073894, 9.606733324225425]
      },
      {
        "species": [{ "element": "Cl", "occu": 1 }],
        "abc": [0.22960219, 0.90216677, 0.92241167],
        "properties": { "magmom": 0.0 },
        "label": "Cl",
        "xyz": [1.7454414920018304, 8.479441257073894, 15.342004795774573]
      },
      {
        "species": [{ "element": "Cl", "occu": 1 }],
        "abc": [0.72960219, 0.59783323, 0.57758833],
        "properties": { "magmom": 0.0 },
        "label": "Cl",
        "xyz": [5.546453782001831, 5.619018482926107, 9.606733324225425]
      },
      {
        "species": [{ "element": "Cl", "occu": 1 }],
        "abc": [0.77039781, 0.40216677, 0.07758833],
        "properties": { "magmom": 0.0 },
        "label": "Cl",
        "xyz": [5.856583087998169, 3.7799546770738934, 1.2904872842254262]
      },
      {
        "species": [{ "element": "Cl", "occu": 1 }],
        "abc": [0.27039781, 0.09783323000000001, 0.42241167],
        "properties": { "magmom": 0.0 },
        "label": "Cl",
        "xyz": [2.05557079799817, 0.919531902926107, 7.025758755774573]
      },
      {
        "species": [{ "element": "Cl", "occu": 1 }],
        "abc": [0.91867403, 0.25, 0.94539639],
        "properties": { "magmom": 0.0 },
        "label": "Cl",
        "xyz": [6.9837825570676575, 2.34974329, 15.72429796913559]
      },
      {
        "species": [{ "element": "Cl", "occu": 1 }],
        "abc": [0.41867403000000003, 0.25, 0.55460361],
        "properties": { "magmom": 0.0 },
        "label": "Cl",
        "xyz": [3.182770267067658, 2.34974329, 9.224440150864408]
      },
      {
        "species": [{ "element": "Cl", "occu": 1 }],
        "abc": [0.08132597, 0.75, 0.05460461],
        "properties": { "magmom": 0.0 },
        "label": "Cl",
        "xyz": [0.6182420229323425, 7.0492298700000005, 0.9082107433564887]
      },
      {
        "species": [{ "element": "Cl", "occu": 1 }],
        "abc": [0.58132597, 0.75, 0.44539639000000003],
        "properties": { "magmom": 0.0 },
        "label": "Cl",
        "xyz": [4.419254312932343, 7.0492298700000005, 7.408051929135591]
      },
      {
        "species": [{ "element": "Cl", "occu": 1 }],
        "abc": [0.77867687, 0.09871356, 0.41169428],
        "properties": { "magmom": 0.0 },
        "label": "Cl",
        "xyz": [5.919520705617464, 0.9278061009680497, 6.847501851481303]
      },
      {
        "species": [{ "element": "Cl", "occu": 1 }],
        "abc": [0.27867687, 0.40128644, 0.08830572],
        "properties": { "magmom": 0.0 },
        "label": "Cl",
        "xyz": [2.1185084156174647, 3.771680479031951, 1.4687441885186976]
      },
      {
        "species": [{ "element": "Cl", "occu": 1 }],
        "abc": [0.22132313, 0.59871356, 0.58830572],
        "properties": { "magmom": 0.0 },
        "label": "Cl",
        "xyz": [1.6825038743825356, 5.62729268096805, 9.784990228518698]
      },
      {
        "species": [{ "element": "Cl", "occu": 1 }],
        "abc": [0.72132313, 0.90128644, 0.91169428],
        "properties": { "magmom": 0.0 },
        "label": "Cl",
        "xyz": [5.483516164382536, 8.47116705903195, 15.1637478914813]
      },
      {
        "species": [{ "element": "Cl", "occu": 1 }],
        "abc": [0.22132313, 0.90128644, 0.58830572],
        "properties": { "magmom": 0.0 },
        "label": "Cl",
        "xyz": [1.6825038743825356, 8.47116705903195, 9.784990228518698]
      },
      {
        "species": [{ "element": "Cl", "occu": 1 }],
        "abc": [0.72132313, 0.59871356, 0.91169428],
        "properties": { "magmom": 0.0 },
        "label": "Cl",
        "xyz": [5.483516164382536, 5.62729268096805, 15.1637478914813]
      },
      {
        "species": [{ "element": "Cl", "occu": 1 }],
        "abc": [0.77867687, 0.40128644, 0.41169428],
        "properties": { "magmom": 0.0 },
        "label": "Cl",
        "xyz": [5.919520705617464, 3.771680479031951, 6.847501851481303]
      },
      {
        "species": [{ "element": "Cl", "occu": 1 }],
        "abc": [0.27867687, 0.09871356, 0.08830572],
        "properties": { "magmom": 0.0 },
        "label": "Cl",
        "xyz": [2.1185084156174647, 0.9278061009680497, 1.4687441885186976]
      },
      {
        "species": [{ "element": "Cl", "occu": 1 }],
        "abc": [0.6358134400000001, 0.25, 0.27775027],
        "properties": { "magmom": 0.0 },
        "label": "Cl",
        "xyz": [4.833469399174356, 2.34974329, 4.619679165992862]
      },
      {
        "species": [{ "element": "Cl", "occu": 1 }],
        "abc": [0.13581344, 0.25, 0.22224973],
        "properties": { "magmom": 0.0 },
        "label": "Cl",
        "xyz": [1.0324571091743553, 2.34974329, 3.696566874007138]
      },
      {
        "species": [{ "element": "Cl", "occu": 1 }],
        "abc": [0.36418656, 0.75, 0.72224973],
        "properties": { "magmom": 0.0 },
        "label": "Cl",
        "xyz": [2.768555180825645, 7.0492298700000005, 12.012812914007139]
      },
      {
        "species": [{ "element": "Cl", "occu": 1 }],
        "abc": [0.86418656, 0.75, 0.77775027],
        "properties": { "magmom": 0.0 },
        "label": "Cl",
        "xyz": [6.569567470825645, 7.0492298700000005, 12.93592520599286]
      },
      {
        "species": [{ "element": "Cl", "occu": 1 }],
        "abc": [0.97670296, 0.09825886, 0.75093167],
        "properties": { "magmom": 0.0 },
        "label": "Cl",
        "xyz": [7.424919909278757, 0.9235323878721977, 12.489865053896173]
      },
      {
        "species": [{ "element": "Cl", "occu": 1 }],
        "abc": [0.47670296, 0.40174114, 0.7490683300000001],
        "properties": { "magmom": 0.0 },
        "label": "Cl",
        "xyz": [3.623907619278757, 3.7759541921278026, 12.458873066103827]
      },
      {
        "species": [{ "element": "Cl", "occu": 1 }],
        "abc": [0.02329704, 0.5982588600000001, 0.24906833],
        "properties": { "magmom": 0.0 },
        "label": "Cl",
        "xyz": [0.17710467072124322, 5.6230189678721985, 4.142627026103826]
      },
      {
        "species": [{ "element": "Cl", "occu": 1 }],
        "abc": [0.52329704, 0.90174114, 0.25093167],
        "properties": { "magmom": 0.0 },
        "label": "Cl",
        "xyz": [3.978116960721243, 8.475440772127804, 4.1736190138961735]
      },
      {
        "species": [{ "element": "Cl", "occu": 1 }],
        "abc": [0.02329704, 0.90174114, 0.24906833],
        "properties": { "magmom": 0.0 },
        "label": "Cl",
        "xyz": [0.17710467072124322, 8.475440772127804, 4.142627026103826]
      },
      {
        "species": [{ "element": "Cl", "occu": 1 }],
        "abc": [0.52329704, 0.5982588600000001, 0.25093167],
        "properties": { "magmom": 0.0 },
        "label": "Cl",
        "xyz": [3.978116960721243, 5.6230189678721985, 4.1736190138961735]
      },
      {
        "species": [{ "element": "Cl", "occu": 1 }],
        "abc": [0.97670296, 0.40174114, 0.75093167],
        "properties": { "magmom": 0.0 },
        "label": "Cl",
        "xyz": [7.424919909278757, 3.7759541921278026, 12.489865053896173]
      },
      {
        "species": [{ "element": "Cl", "occu": 1 }],
        "abc": [0.47670296, 0.09825886, 0.7490683300000001],
        "properties": { "magmom": 0.0 },
        "label": "Cl",
        "xyz": [3.623907619278757, 0.9235323878721977, 12.458873066103827]
      },
      {
        "species": [{ "element": "Cl", "occu": 1 }],
        "abc": [0.91844284, 0.25, 0.60452965],
        "properties": { "magmom": 0.0 },
        "label": "Cl",
        "xyz": [6.982025045005007, 2.34974329, 10.054834615750172]
      },
      {
        "species": [{ "element": "Cl", "occu": 1 }],
        "abc": [0.41844284, 0.25, 0.89547035],
        "properties": { "magmom": 0.0 },
        "label": "Cl",
        "xyz": [3.181012755005007, 2.34974329, 14.893903504249826]
      },
      {
        "species": [{ "element": "Cl", "occu": 1 }],
        "abc": [0.08155716, 0.75, 0.39547035],
        "properties": { "magmom": 0.0 },
        "label": "Cl",
        "xyz": [0.6199995349949928, 7.0492298700000005, 6.577657464249828]
      },
      {
        "species": [{ "element": "Cl", "occu": 1 }],
        "abc": [0.58155716, 0.75, 0.10452965],
        "properties": { "magmom": 0.0 },
        "label": "Cl",
        "xyz": [4.421011824994993, 7.0492298700000005, 1.7385885757501718]
      }
    ]
  },
  "task_ids": null,
  "uncorrected_energy_per_atom": null,
  "energy_per_atom": -6.388993420416667,
  "formation_energy_per_atom": 0.507523420520833,
  "energy_above_hull": 0.507523420520833,
  "is_stable": false,
  "equilibrium_reaction_energy_per_atom": null,
  "decomposes_to": null,
  "xas": null,
  "grain_boundaries": null,
  "band_gap": 2.1844,
  "cbm": null,
  "vbm": null,
  "efermi": -1.52607325,
  "is_gap_direct": null,
  "is_metal": null,
  "es_source_calc_id": null,
  "bandstructure": null,
  "dos": null,
  "dos_energy_up": null,
  "dos_energy_down": null,
  "is_magnetic": null,
  "ordering": null,
  "total_magnetization": 0.0,
  "total_magnetization_normalized_vol": null,
  "total_magnetization_normalized_formula_units": null,
  "num_magnetic_sites": null,
  "num_unique_magnetic_sites": null,
  "types_of_magnetic_species": null,
  "bulk_modulus": null,
  "shear_modulus": null,
  "universal_anisotropy": null,
  "homogeneous_poisson": null,
  "e_total": null,
  "e_ionic": null,
  "e_electronic": null,
  "n": null,
  "e_ij_max": null,
  "weighted_surface_energy_EV_PER_ANG2": null,
  "weighted_surface_energy": null,
  "weighted_work_function": null,
  "surface_anisotropy": null,
  "shape_factor": null,
  "has_reconstructed": null,
  "possible_species": null,
  "has_props": null,
  "theoretical": null,
  "database_IDs": null,
  "fields_not_requested": [
    "builder_meta",
    "nsites",
    "elements",
    "nelements",
    "composition",
    "composition_reduced",
    "chemsys",
    "symmetry",
    "property_name",
    "deprecated",
    "deprecation_reasons",
    "last_updated",
    "origins",
    "warnings",
    "task_ids",
    "uncorrected_energy_per_atom",
    "equilibrium_reaction_energy_per_atom",
    "decomposes_to",
    "xas",
    "grain_boundaries",
    "cbm",
    "vbm",
    "is_gap_direct",
    "is_metal",
    "es_source_calc_id",
    "bandstructure",
    "dos",
    "dos_energy_up",
    "dos_energy_down",
    "is_magnetic",
    "ordering",
    "total_magnetization_normalized_vol",
    "total_magnetization_normalized_formula_units",
    "num_magnetic_sites",
    "num_unique_magnetic_sites",
    "types_of_magnetic_species",
    "bulk_modulus",
    "shear_modulus",
    "universal_anisotropy",
    "homogeneous_poisson",
    "e_total",
    "e_ionic",
    "e_electronic",
    "n",
    "e_ij_max",
    "weighted_surface_energy_EV_PER_ANG2",
    "weighted_surface_energy",
    "weighted_work_function",
    "surface_anisotropy",
    "shape_factor",
    "has_reconstructed",
    "possible_species",
    "has_props",
    "theoretical",
    "database_IDs"
  ]
}
