{
  "builder_meta": null,
  "nsites": null,
  "elements": null,
  "nelements": null,
  "composition": null,
  "composition_reduced": null,
  "formula_pretty": "Nd2Al",
  "formula_anonymous": "AB2",
  "chemsys": null,
  "volume": 349.6755915259277,
  "density": 5.992329618722826,
  "density_atomic": 29.13963262716064,
  "symmetry": null,
  "property_name": null,
  "material_id": "mp-1101848",
  "deprecated": null,
  "deprecation_reasons": null,
  "last_updated": null,
  "origins": null,
  "warnings": null,
  "structure": {
    "@module": "pymatgen.core.structure",
    "@class": "Structure",
    "charge": 0,
    "lattice": {
      "matrix": [
        [5.25959768, 0.0, 0.0],
        [0.0, 6.74524681, -0.00010052],
        [0.0, -0.00014416, 9.85632347]
      ],
      "pbc": [true, true, true],
      "a": 5.25959768,
      "b": 6.745246810748992,
      "c": 9.856323471054251,
      "alpha": 90.00169185779971,
      "beta": 90.0,
      "gamma": 90.0,
      "volume": 349.6755915259277
    },
    "properties": {},
    "sites": [
      {
        "species": [{ "element": "Nd", "occu": 1 }],
        "abc": [0.25, 0.8054576, 0.92195115],
        "properties": { "magmom": -0.0 },
        "label": "Nd",
        "xyz": [1.31489942, 5.432877398512471, 9.086967793340538]
      },
      {
        "species": [{ "element": "Nd", "occu": 1 }],
        "abc": [0.25, 0.3054445, 0.57810585],
        "properties": { "magmom": 0.0 },
        "label": "Nd",
        "xyz": [1.31489942, 2.0602151995177094, 5.69796755421816]
      },
      {
        "species": [{ "element": "Nd", "occu": 1 }],
        "abc": [0.75, 0.19458646000000002, 0.07788206],
        "properties": { "magmom": -0.0 },
        "label": "Nd",
        "xyz": [3.94469826, 1.3125224711064232, 0.767611216038989]
      },
      {
        "species": [{ "element": "Nd", "occu": 1 }],
        "abc": [0.75, 0.69457047, 0.42206069],
        "properties": { "magmom": 0.0 },
        "label": "Nd",
        "xyz": [3.94469826, 4.6849884028186315, 4.15989686638775]
      },
      {
        "species": [{ "element": "Nd", "occu": 1 }],
        "abc": [0.25, 0.97677178, 0.29773027],
        "properties": { "magmom": -0.0 },
        "label": "Nd",
        "xyz": [1.31489942, 6.588523812347299, 2.9344276628311112]
      },
      {
        "species": [{ "element": "Nd", "occu": 1 }],
        "abc": [0.25, 0.47666685000000003, 0.20234857],
        "properties": { "magmom": -0.0 },
        "label": "Nd",
        "xyz": [1.31489942, 3.2152063788253975, 1.9943650450601758]
      },
      {
        "species": [{ "element": "Nd", "occu": 1 }],
        "abc": [0.75, 0.02320222, 0.7023062800000001],
        "properties": { "magmom": 0.0 },
        "label": "Nd",
        "xyz": [3.94469826, 0.1564034559665934, 6.922155538405238]
      },
      {
        "species": [{ "element": "Nd", "occu": 1 }],
        "abc": [0.75, 0.5233228, 0.7976051200000001],
        "properties": { "magmom": -0.0 },
        "label": "Nd",
        "xyz": [3.94469826, 3.5298264645461686, 7.861401459640311]
      },
      {
        "species": [{ "element": "Al", "occu": 1 }],
        "abc": [0.25, 0.28679458, 0.8980728],
        "properties": { "magmom": 0.0 },
        "label": "Al",
        "xyz": [1.31489942, 1.9343707596954418, 8.851667187817434]
      },
      {
        "species": [{ "element": "Al", "occu": 1 }],
        "abc": [0.25, 0.7866511900000001, 0.60199527],
        "properties": { "magmom": -0.0 },
        "label": "Al",
        "xyz": [1.31489942, 5.306069646292082, 5.933381034352367]
      },
      {
        "species": [{ "element": "Al", "occu": 1 }],
        "abc": [0.75, 0.71321652, 0.10188356],
        "properties": { "magmom": 0.0 },
        "label": "Al",
        "xyz": [3.94469826, 4.810806768835292, 1.0041256311105626]
      },
      {
        "species": [{ "element": "Al", "occu": 1 }],
        "abc": [0.75, 0.21331605, 0.39805738],
        "properties": { "magmom": -0.0 },
        "label": "Al",
        "xyz": [3.94469826, 1.4388120218323999, 3.9233608543713627]
      }
    ]
  },
  "task_ids": null,
  "uncorrected_energy_per_atom": null,
  "energy_per_atom": -22.15136755083333,
  "formation_energy_per_atom": -0.295328785833329,
  "energy_above_hull": 0.009160500416669,
  "is_stable": false,
  "equilibrium_reaction_energy_per_atom": null,
  "decomposes_to": null,
  "xas": null,
  "grain_boundaries": null,
  "band_gap": 0.0,
  "cbm": null,
  "vbm": null,
  "efermi": 4.11101481,
  "is_gap_direct": null,
  "is_metal": null,
  "es_source_calc_id": null,
  "bandstructure": null,
  "dos": null,
  "dos_energy_up": null,
  "dos_energy_down": null,
  "is_magnetic": null,
  "ordering": null,
  "total_magnetization": 3e-7,
  "total_magnetization_normalized_vol": null,
  "total_magnetization_normalized_formula_units": null,
  "num_magnetic_sites": null,
  "num_unique_magnetic_sites": null,
  "types_of_magnetic_species": null,
  "bulk_modulus": null,
  "shear_modulus": null,
  "universal_anisotropy": null,
  "homogeneous_poisson": null,
  "e_total": null,
  "e_ionic": null,
  "e_electronic": null,
  "n": null,
  "e_ij_max": null,
  "weighted_surface_energy_EV_PER_ANG2": null,
  "weighted_surface_energy": null,
  "weighted_work_function": null,
  "surface_anisotropy": null,
  "shape_factor": null,
  "has_reconstructed": null,
  "possible_species": null,
  "has_props": null,
  "theoretical": null,
  "database_IDs": null,
  "fields_not_requested": [
    "builder_meta",
    "nsites",
    "elements",
    "nelements",
    "composition",
    "composition_reduced",
    "chemsys",
    "symmetry",
    "property_name",
    "deprecated",
    "deprecation_reasons",
    "last_updated",
    "origins",
    "warnings",
    "task_ids",
    "uncorrected_energy_per_atom",
    "equilibrium_reaction_energy_per_atom",
    "decomposes_to",
    "xas",
    "grain_boundaries",
    "cbm",
    "vbm",
    "is_gap_direct",
    "is_metal",
    "es_source_calc_id",
    "bandstructure",
    "dos",
    "dos_energy_up",
    "dos_energy_down",
    "is_magnetic",
    "ordering",
    "total_magnetization_normalized_vol",
    "total_magnetization_normalized_formula_units",
    "num_magnetic_sites",
    "num_unique_magnetic_sites",
    "types_of_magnetic_species",
    "bulk_modulus",
    "shear_modulus",
    "universal_anisotropy",
    "homogeneous_poisson",
    "e_total",
    "e_ionic",
    "e_electronic",
    "n",
    "e_ij_max",
    "weighted_surface_energy_EV_PER_ANG2",
    "weighted_surface_energy",
    "weighted_work_function",
    "surface_anisotropy",
    "shape_factor",
    "has_reconstructed",
    "possible_species",
    "has_props",
    "theoretical",
    "database_IDs"
  ]
}
