{
  "builder_meta": null,
  "nsites": null,
  "elements": null,
  "nelements": null,
  "composition": null,
  "composition_reduced": null,
  "formula_pretty": "Nd2B5",
  "formula_anonymous": "A2B5",
  "chemsys": null,
  "volume": 382.9281533279336,
  "density": 5.941578193097612,
  "density_atomic": 13.676005475997629,
  "symmetry": null,
  "property_name": null,
  "material_id": "mp-567415",
  "deprecated": null,
  "deprecation_reasons": null,
  "last_updated": null,
  "origins": null,
  "warnings": null,
  "structure": {
    "@module": "pymatgen.core.structure",
    "@class": "Structure",
    "charge": 0,
    "lattice": {
      "matrix": [
        [6.5746522800000005, -7.291e-5, -3.16173371],
        [-1.03991693, 6.92369059, -2.16236243],
        [-0.00150037, -0.00236243, 8.41379107]
      ],
      "pbc": [true, true, true],
      "a": 7.295382968780696,
      "b": 7.3276687893238375,
      "c": 8.413791535437362,
      "alpha": 107.1776579970285,
      "beta": 115.69299980135919,
      "gamma": 90.00083903060403,
      "volume": 382.92815332793367
    },
    "properties": {},
    "sites": [
      {
        "species": [{ "element": "Nd", "occu": 1 }],
        "abc": [0.45133202, 0.4008582, 0.76235318],
        "properties": { "magmom": 0.0 },
        "label": "Nd",
        "xyz": [2.5493480537800033, 2.773584234623732, 4.120488004596282]
      },
      {
        "species": [{ "element": "Nd", "occu": 1 }],
        "abc": [0.54866798, 0.5991418, 0.23764682],
        "properties": { "magmom": 0.0 },
        "label": "Nd",
        "xyz": [2.9838869262199976, 4.147671015376266, -1.0307930745962823]
      },
      {
        "species": [{ "element": "Nd", "occu": 1 }],
        "abc": [0.9435840400000001, 0.27716462000000003, 0.763264899999999],
        "properties": { "magmom": 0.0 },
        "label": "Nd",
        "xyz": [5.914363599464583, 1.9171301147648623, 2.8392595709652197]
      },
      {
        "species": [{ "element": "Nd", "occu": 1 }],
        "abc": [0.18030773, 0.22281499000000002, 0.23673218000000001],
        "properties": { "magmom": 0.0 },
        "label": "Nd",
        "xyz": [0.9533963619264372, 1.5421296401333524, 0.9399233107342286]
      },
      {
        "species": [{ "element": "Nd", "occu": 1 }],
        "abc": [0.81969227, 0.7771850100000001, 0.76326782],
        "properties": { "magmom": 0.0 },
        "label": "Nd",
        "xyz": [4.5798386180735635, 5.379125609866648, 2.1497716192657714]
      },
      {
        "species": [{ "element": "Nd", "occu": 1 }],
        "abc": [0.68896921, 0.09913482, 0.23764691000000002],
        "properties": { "magmom": 0.0 },
        "label": "Nd",
        "xyz": [4.42628445141144, 0.6857671634406514, -0.3931911375107877]
      },
      {
        "species": [{ "element": "Nd", "occu": 1 }],
        "abc": [0.05641596, 0.72283538, 0.236735099999999],
        "properties": { "magmom": 0.0 },
        "label": "Nd",
        "xyz": [-0.3811286194645816, 5.004125135235137, 0.2504353590347639]
      },
      {
        "species": [{ "element": "Nd", "occu": 1 }],
        "abc": [0.31103079, 0.90086518, 0.7623530900000001],
        "properties": { "magmom": 0.0 },
        "label": "Nd",
        "xyz": [1.1069505285885608, 6.235488086559349, 3.4828860675107887]
      },
      {
        "species": [{ "element": "B", "occu": 1 }],
        "abc": [0.82861043, 0.46034032, 0.49970442000000004],
        "properties": { "magmom": 0.0 },
        "label": "B",
        "xyz": [4.968360018981028, 3.186013011082197, 0.5891404446647566]
      },
      {
        "species": [{ "element": "B", "occu": 1 }],
        "abc": [0.32890961, 0.03966471, 0.50029776],
        "properties": { "magmom": 0.0 },
        "label": "B",
        "xyz": [2.1204676820976993, 0.273420280145257, 3.083706745248205]
      },
      {
        "species": [{ "element": "B", "occu": 1 }],
        "abc": [0.08948081000000001, 0.56081188, 0.68030126],
        "properties": { "magmom": -0.0 },
        "label": "B",
        "xyz": [0.004086739324152288, 3.8812742481646905, 4.228319633312975]
      },
      {
        "species": [{ "element": "B", "occu": 1 }],
        "abc": [0.91051919, 0.43918812, 0.31969874],
        "properties": { "magmom": -0.0 },
        "label": "B",
        "xyz": [5.529148240675847, 3.0399810018353097, -1.1386247033129746]
      },
      {
        "species": [{ "element": "B", "occu": 1 }],
        "abc": [0.90682436, 0.90720343, 0.49831593],
        "properties": { "magmom": -0.0 },
        "label": "B",
        "xyz": [5.017890981950577, 6.279952498440125, -0.6361136395875651]
      },
      {
        "species": [{ "element": "B", "occu": 1 }],
        "abc": [0.5915007, 0.40721207, 0.49833209],
        "properties": { "magmom": -0.0 },
        "label": "B",
        "xyz": [3.4646970176653773, 2.8181899761980054, 1.4421543048473096]
      },
      {
        "species": [{ "element": "B", "occu": 1 }],
        "abc": [0.17138957, 0.53965968, 0.50029558],
        "properties": { "magmom": 0.0 },
        "label": "B",
        "xyz": [0.5648749610189727, 3.735242238917803, 2.500554485335244]
      },
      {
        "species": [{ "element": "B", "occu": 1 }],
        "abc": [0.67109039, 0.9603352900000001, 0.49970224],
        "properties": { "magmom": 0.0 },
        "label": "B",
        "xyz": [3.412767297902301, 6.647834969854743, 0.005988184751795522]
      },
      {
        "species": [{ "element": "B", "occu": 1 }],
        "abc": [0.79716005, 0.35241699, 0.08462778],
        "properties": { "magmom": -0.0 },
        "label": "B",
        "xyz": [4.874438772954495, 2.439768149273573, -2.5704206015820463]
      },
      {
        "species": [{ "element": "B", "occu": 1 }],
        "abc": [0.408499299999999, 0.59278793, 0.50166791],
        "properties": { "magmom": -0.0 },
        "label": "B",
        "xyz": [2.0685379623346165, 4.1030652738019935, 1.6475406251526938]
      },
      {
        "species": [{ "element": "B", "occu": 1 }],
        "abc": [0.40916635, 0.93919156, 0.31970067],
        "properties": { "magmom": -0.0 },
        "label": "B",
        "xyz": [1.7129656028754194, 6.5018866634070145, -0.6346529433907322]
      },
      {
        "species": [{ "element": "B", "occu": 1 }],
        "abc": [0.71253286, 0.14757769, 0.91536962],
        "properties": { "magmom": -0.0 },
        "label": "B",
        "xyz": [4.52981386113587, 1.019567816124738, 5.129773119198395]
      },
      {
        "species": [{ "element": "B", "occu": 1 }],
        "abc": [0.95941703, 0.67013853, 0.49758524],
        "properties": { "magmom": -0.0 },
        "label": "B",
        "xyz": [5.610198399001478, 4.638586372763243, -0.2959252969907018]
      },
      {
        "species": [{ "element": "B", "occu": 1 }],
        "abc": [0.04058297, 0.32986147, 0.50241476],
        "properties": { "magmom": -0.0 },
        "label": "B",
        "xyz": [-0.07696341900147663, 2.2826688772367576, 3.3856202269907025]
      },
      {
        "species": [{ "element": "B", "occu": 1 }],
        "abc": [0.59083365, 0.06080844, 0.68029933],
        "properties": { "magmom": -0.0 },
        "label": "B",
        "xyz": [3.820269377124581, 0.4193685865929862, 3.724347873390732]
      },
      {
        "species": [{ "element": "B", "occu": 1 }],
        "abc": [0.53818214, 0.17014053, 0.49759062],
        "properties": { "magmom": -0.0 },
        "label": "B",
        "xyz": [3.3606818461415773, 1.176785624670379, 2.1171294110215357]
      },
      {
        "species": [{ "element": "B", "occu": 1 }],
        "abc": [0.28746714, 0.85242231, 0.08463038],
        "properties": { "magmom": -0.0 },
        "label": "B",
        "xyz": [1.0034211188641307, 5.901687433875262, -2.0400781891983963]
      },
      {
        "species": [{ "element": "B", "occu": 1 }],
        "abc": [0.46181786, 0.82985947, 0.50240938],
        "properties": { "magmom": -0.0 },
        "label": "B",
        "xyz": [2.1725531338584236, 5.744469625329621, 0.9725655189784641]
      },
      {
        "species": [{ "element": "B", "occu": 1 }],
        "abc": [0.09317564, 0.09279657000000001, 0.50168407],
        "properties": { "magmom": -0.0 },
        "label": "B",
        "xyz": [0.5153439980494233, 0.6413027515598738, 3.7258085695875653]
      },
      {
        "species": [{ "element": "B", "occu": 1 }],
        "abc": [0.20283995, 0.64758301, 0.9153722200000001],
        "properties": { "magmom": -0.0 },
        "label": "B",
        "xyz": [0.6587962070455055, 4.481487100726426, 5.660115531582047]
      }
    ]
  },
  "task_ids": null,
  "uncorrected_energy_per_atom": null,
  "energy_per_atom": -14.231692686071428,
  "formation_energy_per_atom": -0.5791514071428571,
  "energy_above_hull": 0.0,
  "is_stable": true,
  "equilibrium_reaction_energy_per_atom": null,
  "decomposes_to": null,
  "xas": null,
  "grain_boundaries": null,
  "band_gap": 0.0,
  "cbm": null,
  "vbm": null,
  "efermi": 5.00297794,
  "is_gap_direct": null,
  "is_metal": null,
  "es_source_calc_id": null,
  "bandstructure": null,
  "dos": null,
  "dos_energy_up": null,
  "dos_energy_down": null,
  "is_magnetic": null,
  "ordering": null,
  "total_magnetization": 3.6800000000000014e-5,
  "total_magnetization_normalized_vol": null,
  "total_magnetization_normalized_formula_units": null,
  "num_magnetic_sites": null,
  "num_unique_magnetic_sites": null,
  "types_of_magnetic_species": null,
  "bulk_modulus": null,
  "shear_modulus": null,
  "universal_anisotropy": null,
  "homogeneous_poisson": null,
  "e_total": null,
  "e_ionic": null,
  "e_electronic": null,
  "n": null,
  "e_ij_max": null,
  "weighted_surface_energy_EV_PER_ANG2": null,
  "weighted_surface_energy": null,
  "weighted_work_function": null,
  "surface_anisotropy": null,
  "shape_factor": null,
  "has_reconstructed": null,
  "possible_species": null,
  "has_props": null,
  "theoretical": null,
  "database_IDs": null,
  "fields_not_requested": [
    "builder_meta",
    "nsites",
    "elements",
    "nelements",
    "composition",
    "composition_reduced",
    "chemsys",
    "symmetry",
    "property_name",
    "deprecated",
    "deprecation_reasons",
    "last_updated",
    "origins",
    "warnings",
    "task_ids",
    "uncorrected_energy_per_atom",
    "equilibrium_reaction_energy_per_atom",
    "decomposes_to",
    "xas",
    "grain_boundaries",
    "cbm",
    "vbm",
    "is_gap_direct",
    "is_metal",
    "es_source_calc_id",
    "bandstructure",
    "dos",
    "dos_energy_up",
    "dos_energy_down",
    "is_magnetic",
    "ordering",
    "total_magnetization_normalized_vol",
    "total_magnetization_normalized_formula_units",
    "num_magnetic_sites",
    "num_unique_magnetic_sites",
    "types_of_magnetic_species",
    "bulk_modulus",
    "shear_modulus",
    "universal_anisotropy",
    "homogeneous_poisson",
    "e_total",
    "e_ionic",
    "e_electronic",
    "n",
    "e_ij_max",
    "weighted_surface_energy_EV_PER_ANG2",
    "weighted_surface_energy",
    "weighted_work_function",
    "surface_anisotropy",
    "shape_factor",
    "has_reconstructed",
    "possible_species",
    "has_props",
    "theoretical",
    "database_IDs"
  ]
}
