{
  "builder_meta": null,
  "nsites": null,
  "elements": null,
  "nelements": null,
  "composition": null,
  "composition_reduced": null,
  "formula_pretty": "Nd2C3",
  "formula_anonymous": "A2B3",
  "chemsys": null,
  "volume": 318.9505763399932,
  "density": 6.7580584800856265,
  "density_atomic": 15.94752881699966,
  "symmetry": null,
  "property_name": null,
  "material_id": "mp-1800",
  "deprecated": null,
  "deprecation_reasons": null,
  "last_updated": null,
  "origins": null,
  "warnings": null,
  "structure": {
    "@module": "pymatgen.core.structure",
    "@class": "Structure",
    "charge": 0,
    "lattice": {
      "matrix": [
        [7.02865456, 0.0, -2.48500407],
        [-3.5143267700000003, 6.08699174, -2.48500407],
        [1e-8, 2e-8, 7.4550142600000004]
      ],
      "pbc": [true, true, true],
      "a": 7.455013759325019,
      "b": 7.455012160760265,
      "c": 7.4550142600000004,
      "alpha": 109.47122067359756,
      "beta": 109.47121634773593,
      "gamma": 109.4712252684631,
      "volume": 318.95057633999323
    },
    "properties": {},
    "sites": [
      {
        "species": [{ "element": "Nd", "occu": 1 }],
        "abc": [0.60294309, 0.60294309, 0.60294309],
        "properties": { "magmom": 0.0 },
        "label": "Nd",
        "xyz": [2.1189396630049018, 3.6701096205789385, 1.4983172686617108]
      },
      {
        "species": [{ "element": "Nd", "occu": 1 }],
        "abc": [0.39705691, 0.5, 0.0],
        "properties": { "magmom": 0.0 },
        "label": "Nd",
        "xyz": [1.033612476051009, 3.04349587, -2.229190072371624]
      },
      {
        "species": [{ "element": "Nd", "occu": 1 }],
        "abc": [0.5, 0.0, 0.39705691],
        "properties": { "magmom": 0.0 },
        "label": "Nd",
        "xyz": [3.514327283970569, 7.941138199999999e-9, 1.7175628910815368]
      },
      {
        "species": [{ "element": "Nd", "occu": 1 }],
        "abc": [-0.0, 0.39705691, 0.5],
        "properties": { "magmom": 0.0 },
        "label": "Nd",
        "xyz": [-1.3953877230264808, 2.4168821414799235, 2.7408190926283766]
      },
      {
        "species": [{ "element": "Nd", "occu": 1 }],
        "abc": [0.5, 0.0, 0.89705691],
        "properties": { "magmom": 0.0 },
        "label": "Nd",
        "xyz": [3.514327288970569, 1.79411382e-8, 5.445070021081537]
      },
      {
        "species": [{ "element": "Nd", "occu": 1 }],
        "abc": [-0.0, 0.89705691, 0.5],
        "properties": { "magmom": 0.0 },
        "label": "Nd",
        "xyz": [-3.152551108026481, 5.460378011479923, 1.4983170576283764]
      },
      {
        "species": [{ "element": "Nd", "occu": 1 }],
        "abc": [0.89705691, 0.5, 0.0],
        "properties": { "magmom": 0.0 },
        "label": "Nd",
        "xyz": [4.547939756051009, 3.04349587, -3.4716921073716236]
      },
      {
        "species": [{ "element": "Nd", "occu": 1 }],
        "abc": [0.10294309, 0.10294309, 0.10294309],
        "properties": { "magmom": 0.0 },
        "label": "Nd",
        "xyz": [0.3617757630049019, 0.6266137405789384, 0.2558142086617108]
      },
      {
        "species": [{ "element": "C", "occu": 1 }],
        "abc": [0.75, 0.79817521, 0.04817521],
        "properties": { "magmom": -0.0 },
        "label": "C",
        "xyz": [2.4664424128283797, 4.8584859113062695, -3.4880748203946097]
      },
      {
        "species": [{ "element": "C", "occu": 1 }],
        "abc": [0.75, 0.95182479, 0.20182479],
        "properties": { "magmom": -0.0 },
        "label": "C",
        "xyz": [1.926467582171619, 5.79374963869373, -2.7244348421053894]
      },
      {
        "species": [{ "element": "C", "occu": 1 }],
        "abc": [0.29817521, 0.25, 0.54817521],
        "properties": { "magmom": -0.0 },
        "label": "C",
        "xyz": [1.2171888624272096, 1.5217479459635042, 2.7244363796053905]
      },
      {
        "species": [{ "element": "C", "occu": 1 }],
        "abc": [0.54817521, 0.29817521, 0.25],
        "properties": { "magmom": -0.0 },
        "label": "C",
        "xyz": [2.8050490692920858, 1.8149900453427656, -0.2394306733462095]
      },
      {
        "species": [{ "element": "C", "occu": 1 }],
        "abc": [0.20182479, 0.75, 0.95182479],
        "properties": { "magmom": -0.0 },
        "label": "C",
        "xyz": [-1.2171883374272099, 4.565243824036496, 4.73057890539461]
      },
      {
        "species": [{ "element": "C", "occu": 1 }],
        "abc": [0.95182479, 0.20182479, 0.75],
        "properties": { "magmom": -0.0 },
        "label": "C",
        "xyz": [5.980769395707913, 1.2285058446572346, 2.72443679334621]
      },
      {
        "species": [{ "element": "C", "occu": 1 }],
        "abc": [0.25, 0.70182479, 0.45182479000000003],
        "properties": { "magmom": -0.0 },
        "label": "C",
        "xyz": [-0.7092780028283806, 4.272001708693731, 1.0030717753946106]
      },
      {
        "species": [{ "element": "C", "occu": 1 }],
        "abc": [0.70182479, 0.45182479000000003, 0.25],
        "properties": { "magmom": -0.0 },
        "label": "C",
        "xyz": [3.3450240582079136, 2.7502537696572347, -1.0030703366537908]
      },
      {
        "species": [{ "element": "C", "occu": 1 }],
        "abc": [0.25, 0.54817521, 0.29817521],
        "properties": { "magmom": -0.0 },
        "label": "C",
        "xyz": [-0.16930317217161991, 3.33673798130627, 0.23943179710538987]
      },
      {
        "species": [{ "element": "C", "occu": 1 }],
        "abc": [0.45182479000000003, 0.25, 0.70182479],
        "properties": { "magmom": -0.0 },
        "label": "C",
        "xyz": [2.29713868507279, 1.5217479490364958, 3.4880763578946103]
      },
      {
        "species": [{ "element": "C", "occu": 1 }],
        "abc": [0.04817521, 0.75, 0.79817521],
        "properties": { "magmom": -0.0 },
        "label": "C",
        "xyz": [-2.2971381600727905, 4.565243820963504, 3.9669389271053905]
      },
      {
        "species": [{ "element": "C", "occu": 1 }],
        "abc": [0.79817521, 0.04817521, 0.75],
        "properties": { "magmom": -0.0 },
        "label": "C",
        "xyz": [5.440794406792086, 0.2932421203427654, 3.488076456653791]
      }
    ]
  },
  "task_ids": null,
  "uncorrected_energy_per_atom": null,
  "energy_per_atom": -7.6106834039999995,
  "formation_energy_per_atom": -0.166225135499999,
  "energy_above_hull": 0.0,
  "is_stable": true,
  "equilibrium_reaction_energy_per_atom": null,
  "decomposes_to": null,
  "xas": null,
  "grain_boundaries": null,
  "band_gap": 0.0,
  "cbm": null,
  "vbm": null,
  "efermi": 5.16620061,
  "is_gap_direct": null,
  "is_metal": null,
  "es_source_calc_id": null,
  "bandstructure": null,
  "dos": null,
  "dos_energy_up": null,
  "dos_energy_down": null,
  "is_magnetic": null,
  "ordering": null,
  "total_magnetization": 1e-7,
  "total_magnetization_normalized_vol": null,
  "total_magnetization_normalized_formula_units": null,
  "num_magnetic_sites": null,
  "num_unique_magnetic_sites": null,
  "types_of_magnetic_species": null,
  "bulk_modulus": null,
  "shear_modulus": null,
  "universal_anisotropy": null,
  "homogeneous_poisson": null,
  "e_total": null,
  "e_ionic": null,
  "e_electronic": null,
  "n": null,
  "e_ij_max": null,
  "weighted_surface_energy_EV_PER_ANG2": null,
  "weighted_surface_energy": null,
  "weighted_work_function": null,
  "surface_anisotropy": null,
  "shape_factor": null,
  "has_reconstructed": null,
  "possible_species": null,
  "has_props": null,
  "theoretical": null,
  "database_IDs": null,
  "fields_not_requested": [
    "builder_meta",
    "nsites",
    "elements",
    "nelements",
    "composition",
    "composition_reduced",
    "chemsys",
    "symmetry",
    "property_name",
    "deprecated",
    "deprecation_reasons",
    "last_updated",
    "origins",
    "warnings",
    "task_ids",
    "uncorrected_energy_per_atom",
    "equilibrium_reaction_energy_per_atom",
    "decomposes_to",
    "xas",
    "grain_boundaries",
    "cbm",
    "vbm",
    "is_gap_direct",
    "is_metal",
    "es_source_calc_id",
    "bandstructure",
    "dos",
    "dos_energy_up",
    "dos_energy_down",
    "is_magnetic",
    "ordering",
    "total_magnetization_normalized_vol",
    "total_magnetization_normalized_formula_units",
    "num_magnetic_sites",
    "num_unique_magnetic_sites",
    "types_of_magnetic_species",
    "bulk_modulus",
    "shear_modulus",
    "universal_anisotropy",
    "homogeneous_poisson",
    "e_total",
    "e_ionic",
    "e_electronic",
    "n",
    "e_ij_max",
    "weighted_surface_energy_EV_PER_ANG2",
    "weighted_surface_energy",
    "weighted_work_function",
    "surface_anisotropy",
    "shape_factor",
    "has_reconstructed",
    "possible_species",
    "has_props",
    "theoretical",
    "database_IDs"
  ]
}
