{
  "builder_meta": null,
  "nsites": null,
  "elements": null,
  "nelements": null,
  "composition": null,
  "composition_reduced": null,
  "formula_pretty": "Nd2Co7",
  "formula_anonymous": "A2B7",
  "chemsys": null,
  "volume": 260.8245947081379,
  "density": 8.926037528868859,
  "density_atomic": 14.490255261563217,
  "symmetry": null,
  "property_name": null,
  "material_id": "mp-1105870",
  "deprecated": null,
  "deprecation_reasons": null,
  "last_updated": null,
  "origins": null,
  "warnings": null,
  "structure": {
    "@module": "pymatgen.core.structure",
    "@class": "Structure",
    "charge": 0,
    "lattice": {
      "matrix": [
        [-2.489508, -4.311954, 0.0],
        [-4.979015, 0.0, 0.0],
        [-2.489508, -1.437317999999999, -12.148733]
      ],
      "pbc": [true, true, true],
      "a": 4.979015703949929,
      "b": 4.979015,
      "c": 12.484199879066217,
      "alpha": 78.49738258777083,
      "beta": 78.49738281886401,
      "gamma": 59.99999803309365,
      "volume": 260.8245947081379
    },
    "properties": {},
    "sites": [
      {
        "species": [{ "element": "Nd", "occu": 1 }],
        "abc": [0.948473999999999, 0.948473999999999, 0.154578],
        "properties": { "magmom": -0.20800000000000002 },
        "label": "Nd",
        "xyz": [-7.468523051525993, -4.311953999999996, -1.8779268496739998]
      },
      {
        "species": [{ "element": "Nd", "occu": 1 }],
        "abc": [0.051525999999999, 0.051525999999999, 0.845422],
        "properties": { "magmom": -0.20800000000000002 },
        "label": "Nd",
        "xyz": [-2.4895079484739924, -1.4373179999999948, -10.270806150326]
      },
      {
        "species": [{ "element": "Nd", "occu": 1 }],
        "abc": [0.851695, 0.851695, 0.444914],
        "properties": { "magmom": -0.164 },
        "label": "Nd",
        "xyz": [-7.468520658797, -4.3119525626819994, -5.405141393961999]
      },
      {
        "species": [{ "element": "Nd", "occu": 1 }],
        "abc": [0.148305, 0.148305, 0.555086],
        "properties": { "magmom": -0.164 },
        "label": "Nd",
        "xyz": [-2.4895103412029997, -1.4373194373179992, -6.743591606038]
      },
      {
        "species": [{ "element": "Co", "occu": 1 }],
        "abc": [0.5, 0.5, 0.5],
        "properties": { "magmom": -0.262 },
        "label": "Co",
        "xyz": [-4.9790155, -2.8746359999999997, -6.0743665]
      },
      {
        "species": [{ "element": "Co", "occu": 1 }],
        "abc": [0.721372, 0.721372, 0.835885],
        "properties": { "magmom": 1.444 },
        "label": "Co",
        "xyz": [-7.468525768136001, -4.311955437317999, -10.154943683705]
      },
      {
        "species": [{ "element": "Co", "occu": 1 }],
        "abc": [0.278628, 0.278628, 0.164114999999999],
        "properties": { "magmom": 1.444 },
        "label": "Co",
        "xyz": [-2.4895052318639976, -1.4373165626819984, -1.993789316294988]
      },
      {
        "species": [{ "element": "Co", "occu": 1 }],
        "abc": [0.612348999999999, 0.612348999999999, 0.162953],
        "properties": { "magmom": 1.48 },
        "label": "Co",
        "xyz": [-4.979015387650993, -2.8746359999999958, -1.9796724885489998]
      },
      {
        "species": [{ "element": "Co", "occu": 1 }],
        "abc": [0.387650999999999, 0.387650999999999, 0.837047],
        "properties": { "magmom": 1.48 },
        "label": "Co",
        "xyz": [-4.979015612348992, -2.874635999999995, -10.169060511451]
      },
      {
        "species": [{ "element": "Co", "occu": 1 }],
        "abc": [0.0, 0.5, 0.0],
        "properties": { "magmom": 1.416 },
        "label": "Co",
        "xyz": [-2.4895075, 0.0, 0.0]
      },
      {
        "species": [{ "element": "Co", "occu": 1 }],
        "abc": [0.5, 0.0, 0.0],
        "properties": { "magmom": 1.416 },
        "label": "Co",
        "xyz": [-1.244754, -2.155977, 0.0]
      },
      {
        "species": [{ "element": "Co", "occu": 1 }],
        "abc": [0.5, 0.5, 0.0],
        "properties": { "magmom": 1.416 },
        "label": "Co",
        "xyz": [-3.7342615, -2.155977, 0.0]
      },
      {
        "species": [{ "element": "Co", "occu": 1 }],
        "abc": [0.394045, 0.394045, 0.323295],
        "properties": { "magmom": 1.109 },
        "label": "Co",
        "xyz": [-3.747779634395, -2.1637816367399996, -3.927624635235]
      },
      {
        "species": [{ "element": "Co", "occu": 1 }],
        "abc": [0.888614, 0.394045, 0.323295],
        "properties": { "magmom": 1.109 },
        "label": "Co",
        "xyz": [-4.979013116447, -4.296340414566, -3.927624635235]
      },
      {
        "species": [{ "element": "Co", "occu": 1 }],
        "abc": [0.394045, 0.888614, 0.323295],
        "properties": { "magmom": 1.109 },
        "label": "Co",
        "xyz": [-6.21024610393, -2.1637816367399996, -3.927624635235]
      },
      {
        "species": [{ "element": "Co", "occu": 1 }],
        "abc": [0.605955, 0.605955, 0.676705],
        "properties": { "magmom": 1.109 },
        "label": "Co",
        "xyz": [-6.210251365605, -3.585490363259999, -8.221108364765]
      },
      {
        "species": [{ "element": "Co", "occu": 1 }],
        "abc": [0.111386, 0.605955, 0.676705],
        "properties": { "magmom": 1.109 },
        "label": "Co",
        "xyz": [-4.979017883553, -1.4529315854339995, -8.221108364765]
      },
      {
        "species": [{ "element": "Co", "occu": 1 }],
        "abc": [0.605955, 0.111386, 0.676705],
        "properties": { "magmom": 1.109 },
        "label": "Co",
        "xyz": [-3.7477848960699998, -3.585490363259999, -8.221108364765]
      }
    ]
  },
  "task_ids": null,
  "uncorrected_energy_per_atom": null,
  "energy_per_atom": -16.816588514444447,
  "formation_energy_per_atom": 0.014037693888885,
  "energy_above_hull": 0.032920246825394,
  "is_stable": false,
  "equilibrium_reaction_energy_per_atom": null,
  "decomposes_to": null,
  "xas": null,
  "grain_boundaries": null,
  "band_gap": 0.0,
  "cbm": null,
  "vbm": null,
  "efermi": 4.96425584,
  "is_gap_direct": null,
  "is_metal": null,
  "es_source_calc_id": null,
  "bandstructure": null,
  "dos": null,
  "dos_energy_up": null,
  "dos_energy_down": null,
  "is_magnetic": null,
  "ordering": null,
  "total_magnetization": 14.5668467,
  "total_magnetization_normalized_vol": null,
  "total_magnetization_normalized_formula_units": null,
  "num_magnetic_sites": null,
  "num_unique_magnetic_sites": null,
  "types_of_magnetic_species": null,
  "bulk_modulus": null,
  "shear_modulus": null,
  "universal_anisotropy": null,
  "homogeneous_poisson": null,
  "e_total": null,
  "e_ionic": null,
  "e_electronic": null,
  "n": null,
  "e_ij_max": null,
  "weighted_surface_energy_EV_PER_ANG2": null,
  "weighted_surface_energy": null,
  "weighted_work_function": null,
  "surface_anisotropy": null,
  "shape_factor": null,
  "has_reconstructed": null,
  "possible_species": null,
  "has_props": null,
  "theoretical": null,
  "database_IDs": null,
  "fields_not_requested": [
    "builder_meta",
    "nsites",
    "elements",
    "nelements",
    "composition",
    "composition_reduced",
    "chemsys",
    "symmetry",
    "property_name",
    "deprecated",
    "deprecation_reasons",
    "last_updated",
    "origins",
    "warnings",
    "task_ids",
    "uncorrected_energy_per_atom",
    "equilibrium_reaction_energy_per_atom",
    "decomposes_to",
    "xas",
    "grain_boundaries",
    "cbm",
    "vbm",
    "is_gap_direct",
    "is_metal",
    "es_source_calc_id",
    "bandstructure",
    "dos",
    "dos_energy_up",
    "dos_energy_down",
    "is_magnetic",
    "ordering",
    "total_magnetization_normalized_vol",
    "total_magnetization_normalized_formula_units",
    "num_magnetic_sites",
    "num_unique_magnetic_sites",
    "types_of_magnetic_species",
    "bulk_modulus",
    "shear_modulus",
    "universal_anisotropy",
    "homogeneous_poisson",
    "e_total",
    "e_ionic",
    "e_electronic",
    "n",
    "e_ij_max",
    "weighted_surface_energy_EV_PER_ANG2",
    "weighted_surface_energy",
    "weighted_work_function",
    "surface_anisotropy",
    "shape_factor",
    "has_reconstructed",
    "possible_species",
    "has_props",
    "theoretical",
    "database_IDs"
  ]
}
