{
  "builder_meta": null,
  "nsites": null,
  "elements": null,
  "nelements": null,
  "composition": null,
  "composition_reduced": null,
  "formula_pretty": "Nd2Co3",
  "formula_anonymous": "A2B3",
  "chemsys": null,
  "volume": 193.73924633502276,
  "density": 7.975891148086218,
  "density_atomic": 19.373924633502277,
  "symmetry": null,
  "property_name": null,
  "material_id": "mp-1084826",
  "deprecated": null,
  "deprecation_reasons": null,
  "last_updated": null,
  "origins": null,
  "warnings": null,
  "structure": {
    "@module": "pymatgen.core.structure",
    "@class": "Structure",
    "charge": 0,
    "lattice": {
      "matrix": [
        [4.82755014, -0.00028828, 4.27e-5],
        [-2.41322437, 5.10534451, -0.00041584],
        [2.5220000000000006e-5, -0.00047982, 7.86100405]
      ],
      "pbc": [true, true, true],
      "a": 4.827550148796247,
      "b": 5.646963307714328,
      "c": 7.861004064684083,
      "alpha": 90.00745958201213,
      "beta": 89.9993091875062,
      "gamma": 115.30286255662283,
      "volume": 193.73924633502276
    },
    "properties": {},
    "sites": [
      {
        "species": [{ "element": "Nd", "occu": 1 }],
        "abc": [0.34224384, 0.68460506, 0.9091476700000001],
        "properties": { "magmom": -0.224 },
        "label": "Nd",
        "xyz": [0.00011661179306280256, 3.494609795300006, 7.146543443561881]
      },
      {
        "species": [{ "element": "Nd", "occu": 1 }],
        "abc": [0.65775778, 0.31534543, 0.09091562],
        "properties": { "magmom": -0.224 },
        "label": "Nd",
        "xyz": [2.414361679172896, 1.6097138182584823, 0.7145850100418558]
      },
      {
        "species": [{ "element": "Nd", "occu": 1 }],
        "abc": [0.15773413, 0.31531583, 0.40920318],
        "properties": { "magmom": -0.224 },
        "label": "Nd",
        "xyz": [0.0005518962657005673, 1.6095541261417694, 3.2166234695654827]
      },
      {
        "species": [{ "element": "Nd", "occu": 1 }],
        "abc": [0.84224278, 0.68465049, 0.59073906],
        "properties": { "magmom": -0.224 },
        "label": "Nd",
        "xyz": [2.4137689015416406, 3.494850370225923, 4.643553401860138]
      },
      {
        "species": [{ "element": "Co", "occu": 1 }],
        "abc": [0.50003754, 4.4410000000000003e-5, 0.50000346],
        "properties": { "magmom": 1.566 },
        "label": "Co",
        "xyz": [2.413861735025245, -0.00015733413251929997, 3.930550557209516]
      },
      {
        "species": [{ "element": "Co", "occu": 1 }],
        "abc": [5.6e-6, 3.7400000000000015e-5, -4.53e-6],
        "properties": { "magmom": 1.566 },
        "label": "Co",
        "xyz": [
          -6.322042490060004e-5, 0.00019094044389060007, -3.56256616425e-5
        ]
      },
      {
        "species": [{ "element": "Co", "occu": 1 }],
        "abc": [0.81980873, 0.13960109, 0.74995466],
        "properties": { "magmom": 1.5190000000000001 },
        "label": "Co",
        "xyz": [3.6207979106746837, 0.7121154807158704, 5.895373573691878]
      },
      {
        "species": [{ "element": "Co", "occu": 1 }],
        "abc": [0.68020148, 0.86038738, 0.24990748000000002],
        "properties": { "magmom": 1.518 },
        "label": "Co",
        "xyz": [1.207405259612402, 4.392257987866576, 1.964194973520391]
      },
      {
        "species": [{ "element": "Co", "occu": 1 }],
        "abc": [0.18017182, 0.8603975700000001, 0.25004326],
        "properties": { "magmom": 1.518 },
        "label": "Co",
        "xyz": [-1.2065375828567089, 4.392454094727557, 1.965240985146408]
      },
      {
        "species": [{ "element": "Co", "occu": 1 }],
        "abc": [0.31979731, 0.13961333, 0.75009213],
        "properties": { "magmom": 1.5190000000000001 },
        "label": "Co",
        "xyz": [1.2069381756527895, 0.712322047463975, 5.896432870341116]
      }
    ]
  },
  "task_ids": null,
  "uncorrected_energy_per_atom": null,
  "energy_per_atom": -19.725525768,
  "formation_energy_per_atom": -0.017783496999999003,
  "energy_above_hull": 0.0,
  "is_stable": true,
  "equilibrium_reaction_energy_per_atom": null,
  "decomposes_to": null,
  "xas": null,
  "grain_boundaries": null,
  "band_gap": 0.0,
  "cbm": null,
  "vbm": null,
  "efermi": 4.5637498,
  "is_gap_direct": null,
  "is_metal": null,
  "es_source_calc_id": null,
  "bandstructure": null,
  "dos": null,
  "dos_energy_up": null,
  "dos_energy_down": null,
  "is_magnetic": null,
  "ordering": null,
  "total_magnetization": 7.0532825,
  "total_magnetization_normalized_vol": null,
  "total_magnetization_normalized_formula_units": null,
  "num_magnetic_sites": null,
  "num_unique_magnetic_sites": null,
  "types_of_magnetic_species": null,
  "bulk_modulus": null,
  "shear_modulus": null,
  "universal_anisotropy": null,
  "homogeneous_poisson": null,
  "e_total": null,
  "e_ionic": null,
  "e_electronic": null,
  "n": null,
  "e_ij_max": null,
  "weighted_surface_energy_EV_PER_ANG2": null,
  "weighted_surface_energy": null,
  "weighted_work_function": null,
  "surface_anisotropy": null,
  "shape_factor": null,
  "has_reconstructed": null,
  "possible_species": null,
  "has_props": null,
  "theoretical": null,
  "database_IDs": null,
  "fields_not_requested": [
    "builder_meta",
    "nsites",
    "elements",
    "nelements",
    "composition",
    "composition_reduced",
    "chemsys",
    "symmetry",
    "property_name",
    "deprecated",
    "deprecation_reasons",
    "last_updated",
    "origins",
    "warnings",
    "task_ids",
    "uncorrected_energy_per_atom",
    "equilibrium_reaction_energy_per_atom",
    "decomposes_to",
    "xas",
    "grain_boundaries",
    "cbm",
    "vbm",
    "is_gap_direct",
    "is_metal",
    "es_source_calc_id",
    "bandstructure",
    "dos",
    "dos_energy_up",
    "dos_energy_down",
    "is_magnetic",
    "ordering",
    "total_magnetization_normalized_vol",
    "total_magnetization_normalized_formula_units",
    "num_magnetic_sites",
    "num_unique_magnetic_sites",
    "types_of_magnetic_species",
    "bulk_modulus",
    "shear_modulus",
    "universal_anisotropy",
    "homogeneous_poisson",
    "e_total",
    "e_ionic",
    "e_electronic",
    "n",
    "e_ij_max",
    "weighted_surface_energy_EV_PER_ANG2",
    "weighted_surface_energy",
    "weighted_work_function",
    "surface_anisotropy",
    "shape_factor",
    "has_reconstructed",
    "possible_species",
    "has_props",
    "theoretical",
    "database_IDs"
  ]
}
