{
  "builder_meta": null,
  "nsites": null,
  "elements": null,
  "nelements": null,
  "composition": null,
  "composition_reduced": null,
  "formula_pretty": "Nd2Fe",
  "formula_anonymous": "AB2",
  "chemsys": null,
  "volume": 159.40747119342515,
  "density": 7.173713402297474,
  "density_atomic": 26.56791186557086,
  "symmetry": null,
  "property_name": null,
  "material_id": "mp-1072880",
  "deprecated": null,
  "deprecation_reasons": null,
  "last_updated": null,
  "origins": null,
  "warnings": null,
  "structure": {
    "@module": "pymatgen.core.structure",
    "@class": "Structure",
    "charge": 0,
    "lattice": {
      "matrix": [
        [6.867589, -2.62096, 0.0],
        [6.867589, 2.62096, 0.0],
        [5.8673210000000005, 0.0, 4.428065]
      ],
      "pbc": [true, true, true],
      "a": 7.350728534949512,
      "b": 7.350728534949512,
      "c": 7.350728899998013,
      "alpha": 41.77790424065366,
      "beta": 41.77790424065366,
      "gamma": 41.77790393295174,
      "volume": 159.40747119342515
    },
    "properties": {},
    "sites": [
      {
        "species": [{ "element": "Nd", "occu": 1 }],
        "abc": [0.0, 0.0, 0.0],
        "properties": { "magmom": -0.194 },
        "label": "Nd",
        "xyz": [0.0, 0.0, 0.0]
      },
      {
        "species": [{ "element": "Nd", "occu": 1 }],
        "abc": [0.5, 0.5, 0.5],
        "properties": { "magmom": -0.273 },
        "label": "Nd",
        "xyz": [9.8012495, 0.0, 2.2140325]
      },
      {
        "species": [{ "element": "Nd", "occu": 1 }],
        "abc": [0.243773, 0.243773, 0.243773],
        "properties": { "magmom": -0.263 },
        "label": "Nd",
        "xyz": [4.778559988727, 0.0, 1.079442689245]
      },
      {
        "species": [{ "element": "Nd", "occu": 1 }],
        "abc": [0.756227, 0.756227, 0.756227],
        "properties": { "magmom": -0.263 },
        "label": "Nd",
        "xyz": [14.823939011273, 0.0, 3.348622310755]
      },
      {
        "species": [{ "element": "Fe", "occu": 1 }],
        "abc": [0.36774, 0.36774, 0.36774],
        "properties": { "magmom": 1.577999999999999 },
        "label": "Fe",
        "xyz": [7.2086229822600005, 0.0, 1.6283766231]
      },
      {
        "species": [{ "element": "Fe", "occu": 1 }],
        "abc": [0.63226, 0.63226, 0.63226],
        "properties": { "magmom": 1.577999999999999 },
        "label": "Fe",
        "xyz": [12.39387601774, 0.0, 2.7996883769000003]
      }
    ]
  },
  "task_ids": null,
  "uncorrected_energy_per_atom": null,
  "energy_per_atom": -5.644396021666666,
  "formation_energy_per_atom": 0.35770933666666704,
  "energy_above_hull": 0.35770933666666804,
  "is_stable": false,
  "equilibrium_reaction_energy_per_atom": null,
  "decomposes_to": null,
  "xas": null,
  "grain_boundaries": null,
  "band_gap": 0.0,
  "cbm": null,
  "vbm": null,
  "efermi": 3.56932231,
  "is_gap_direct": null,
  "is_metal": null,
  "es_source_calc_id": null,
  "bandstructure": null,
  "dos": null,
  "dos_energy_up": null,
  "dos_energy_down": null,
  "is_magnetic": null,
  "ordering": null,
  "total_magnetization": 1.507298,
  "total_magnetization_normalized_vol": null,
  "total_magnetization_normalized_formula_units": null,
  "num_magnetic_sites": null,
  "num_unique_magnetic_sites": null,
  "types_of_magnetic_species": null,
  "bulk_modulus": null,
  "shear_modulus": null,
  "universal_anisotropy": null,
  "homogeneous_poisson": null,
  "e_total": null,
  "e_ionic": null,
  "e_electronic": null,
  "n": null,
  "e_ij_max": null,
  "weighted_surface_energy_EV_PER_ANG2": null,
  "weighted_surface_energy": null,
  "weighted_work_function": null,
  "surface_anisotropy": null,
  "shape_factor": null,
  "has_reconstructed": null,
  "possible_species": null,
  "has_props": null,
  "theoretical": null,
  "database_IDs": null,
  "fields_not_requested": [
    "builder_meta",
    "nsites",
    "elements",
    "nelements",
    "composition",
    "composition_reduced",
    "chemsys",
    "symmetry",
    "property_name",
    "deprecated",
    "deprecation_reasons",
    "last_updated",
    "origins",
    "warnings",
    "task_ids",
    "uncorrected_energy_per_atom",
    "equilibrium_reaction_energy_per_atom",
    "decomposes_to",
    "xas",
    "grain_boundaries",
    "cbm",
    "vbm",
    "is_gap_direct",
    "is_metal",
    "es_source_calc_id",
    "bandstructure",
    "dos",
    "dos_energy_up",
    "dos_energy_down",
    "is_magnetic",
    "ordering",
    "total_magnetization_normalized_vol",
    "total_magnetization_normalized_formula_units",
    "num_magnetic_sites",
    "num_unique_magnetic_sites",
    "types_of_magnetic_species",
    "bulk_modulus",
    "shear_modulus",
    "universal_anisotropy",
    "homogeneous_poisson",
    "e_total",
    "e_ionic",
    "e_electronic",
    "n",
    "e_ij_max",
    "weighted_surface_energy_EV_PER_ANG2",
    "weighted_surface_energy",
    "weighted_work_function",
    "surface_anisotropy",
    "shape_factor",
    "has_reconstructed",
    "possible_species",
    "has_props",
    "theoretical",
    "database_IDs"
  ]
}
