{
  "builder_meta": null,
  "nsites": null,
  "elements": null,
  "nelements": null,
  "composition": null,
  "composition_reduced": null,
  "formula_pretty": "Nd2H5",
  "formula_anonymous": "A2B5",
  "chemsys": null,
  "volume": 161.79688975516774,
  "density": 6.024931277239347,
  "density_atomic": 11.556920696797695,
  "symmetry": null,
  "property_name": null,
  "material_id": "mp-1104060",
  "deprecated": null,
  "deprecation_reasons": null,
  "last_updated": null,
  "origins": null,
  "warnings": null,
  "structure": {
    "@module": "pymatgen.core.structure",
    "@class": "Structure",
    "charge": 0,
    "lattice": {
      "matrix": [
        [5.42915294, 0.0, 2e-8],
        [0.0, 5.42915294, 1e-8],
        [-2.71457443, -2.71457545, 5.48916159]
      ],
      "pbc": [true, true, true],
      "a": 5.42915294,
      "b": 5.42915294,
      "c": 6.698412436606442,
      "alpha": 113.90720418247729,
      "beta": 113.90719454436653,
      "gamma": 90.0,
      "volume": 161.79688975516774
    },
    "properties": {},
    "sites": [
      {
        "species": [{ "element": "Nd", "occu": 1 }],
        "abc": [0.25424022, 0.75424022, 0.5084814400000001],
        "properties": { "magmom": -0.0 },
        "label": "Nd",
        "xyz": [-1.6772743325343953e-6, 2.7145742740745984, 2.7911368023030962]
      },
      {
        "species": [{ "element": "Nd", "occu": 1 }],
        "abc": [0.00424022, 0.00424022, 0.00848144],
        "properties": { "magmom": -0.0 },
        "label": "Nd",
        "xyz": [
          -2.6972743323964987e-6, -2.7059254011987943e-6, 0.0465559948030962
        ]
      },
      {
        "species": [{ "element": "Nd", "occu": 1 }],
        "abc": [0.76148297, 0.26148297, 0.52296493],
        "properties": { "magmom": -0.0 },
        "label": "Nd",
        "xyz": [2.7145802785706916, 3.2751464631441962e-6, 2.8706390245175277]
      },
      {
        "species": [{ "element": "Nd", "occu": 1 }],
        "abc": [0.51148297, 0.51148297, 0.02296493],
        "properties": { "magmom": -0.0 },
        "label": "Nd",
        "xyz": [2.714579258570692, 2.7145792351464633, 0.1260582270175278]
      },
      {
        "species": [{ "element": "H", "occu": 1 }],
        "abc": [0.61345713, 0.6329057, 0.765627],
        "properties": { "magmom": -0.0 },
        "label": "H",
        "xyz": [1.2522011037858523, 1.3577895838406082, 4.202650339265129]
      },
      {
        "species": [{ "element": "H", "occu": 1 }],
        "abc": [0.15216787, 0.132719299999999, 0.765627],
        "properties": { "magmom": -0.0 },
        "label": "H",
        "xyz": [-1.252208838333572, -1.357798880267413, 4.20265032503748]
      },
      {
        "species": [{ "element": "H", "occu": 1 }],
        "abc": [0.3827193, 0.90216787, 0.265627],
        "properties": { "magmom": -0.0 },
        "label": "H",
        "xyz": [1.356777350672132, 4.176942810726888, 1.4580695423429948]
      },
      {
        "species": [{ "element": "H", "occu": 1 }],
        "abc": [0.8829057, 0.36345713, 0.265627],
        "properties": { "magmom": -0.0 },
        "label": "H",
        "xyz": [4.072365814780149, 1.252199812846312, 1.4580695469596154]
      },
      {
        "species": [{ "element": "H", "occu": 1 }],
        "abc": [0.15216787, 0.6329057, 0.765627],
        "properties": { "magmom": -0.0 },
        "label": "H",
        "xyz": [-1.252208838333572, 1.3577895838406082, 4.202650330039344]
      },
      {
        "species": [{ "element": "H", "occu": 1 }],
        "abc": [0.61345713, 0.132719299999999, 0.765627],
        "properties": { "magmom": -0.0 },
        "label": "H",
        "xyz": [1.2522011037858523, -1.357798880267413, 4.202650334263265]
      },
      {
        "species": [{ "element": "H", "occu": 1 }],
        "abc": [0.8829057, 0.90216787, 0.265627],
        "properties": { "magmom": -0.0 },
        "label": "H",
        "xyz": [4.072365814780149, 4.176942810726888, 1.4580695523467226]
      },
      {
        "species": [{ "element": "H", "occu": 1 }],
        "abc": [0.3827193, 0.36345713, 0.265627],
        "properties": { "magmom": -0.0 },
        "label": "H",
        "xyz": [1.356777350672132, 1.252199812846312, 1.4580695369558874]
      },
      {
        "species": [{ "element": "H", "occu": 1 }],
        "abc": [0.00702482, 0.50702482, 0.01405063],
        "properties": { "magmom": -0.0 },
        "label": "H",
        "xyz": [-2.6587674200953537e-6, 2.7145737969009374, 0.0771261837220463]
      },
      {
        "species": [{ "element": "H", "occu": 1 }],
        "abc": [0.75702482, 0.75702482, 0.5140506300000001],
        "properties": { "magmom": -0.0 },
        "label": "H",
        "xyz": [2.7145748312325804, 2.7145743069009374, 2.8217069962220465]
      }
    ]
  },
  "task_ids": null,
  "uncorrected_energy_per_atom": null,
  "energy_per_atom": -11.565450597857142,
  "formation_energy_per_atom": -0.692367744821429,
  "energy_above_hull": 0.003805979523809,
  "is_stable": false,
  "equilibrium_reaction_energy_per_atom": null,
  "decomposes_to": null,
  "xas": null,
  "grain_boundaries": null,
  "band_gap": 0.0,
  "cbm": null,
  "vbm": null,
  "efermi": 3.68881433,
  "is_gap_direct": null,
  "is_metal": null,
  "es_source_calc_id": null,
  "bandstructure": null,
  "dos": null,
  "dos_energy_up": null,
  "dos_energy_down": null,
  "is_magnetic": null,
  "ordering": null,
  "total_magnetization": 2e-7,
  "total_magnetization_normalized_vol": null,
  "total_magnetization_normalized_formula_units": null,
  "num_magnetic_sites": null,
  "num_unique_magnetic_sites": null,
  "types_of_magnetic_species": null,
  "bulk_modulus": null,
  "shear_modulus": null,
  "universal_anisotropy": null,
  "homogeneous_poisson": null,
  "e_total": null,
  "e_ionic": null,
  "e_electronic": null,
  "n": null,
  "e_ij_max": null,
  "weighted_surface_energy_EV_PER_ANG2": null,
  "weighted_surface_energy": null,
  "weighted_work_function": null,
  "surface_anisotropy": null,
  "shape_factor": null,
  "has_reconstructed": null,
  "possible_species": null,
  "has_props": null,
  "theoretical": null,
  "database_IDs": null,
  "fields_not_requested": [
    "builder_meta",
    "nsites",
    "elements",
    "nelements",
    "composition",
    "composition_reduced",
    "chemsys",
    "symmetry",
    "property_name",
    "deprecated",
    "deprecation_reasons",
    "last_updated",
    "origins",
    "warnings",
    "task_ids",
    "uncorrected_energy_per_atom",
    "equilibrium_reaction_energy_per_atom",
    "decomposes_to",
    "xas",
    "grain_boundaries",
    "cbm",
    "vbm",
    "is_gap_direct",
    "is_metal",
    "es_source_calc_id",
    "bandstructure",
    "dos",
    "dos_energy_up",
    "dos_energy_down",
    "is_magnetic",
    "ordering",
    "total_magnetization_normalized_vol",
    "total_magnetization_normalized_formula_units",
    "num_magnetic_sites",
    "num_unique_magnetic_sites",
    "types_of_magnetic_species",
    "bulk_modulus",
    "shear_modulus",
    "universal_anisotropy",
    "homogeneous_poisson",
    "e_total",
    "e_ionic",
    "e_electronic",
    "n",
    "e_ij_max",
    "weighted_surface_energy_EV_PER_ANG2",
    "weighted_surface_energy",
    "weighted_work_function",
    "surface_anisotropy",
    "shape_factor",
    "has_reconstructed",
    "possible_species",
    "has_props",
    "theoretical",
    "database_IDs"
  ]
}
