{"builder_meta": null, "nsites": null, "elements": null, "nelements": null, "composition": null, "composition_reduced": null, "formula_pretty": "Nd2In", "formula_anonymous": "AB2", "chemsys": null, "volume": 186.68641568190088, "density": 7.174584440884307, "density_atomic": 31.114402613650146, "symmetry": null, "property_name": null, "material_id": "mp-21295", "deprecated": null, "deprecation_reasons": null, "last_updated": null, "origins": null, "warnings": null, "structure": {"@module": "pymatgen.core.structure", "@class": "Structure", "charge": 0, "lattice": {"matrix": [[2.7867096, -4.82672221, 1.42e-06], [2.7867096, 4.82672221, -1.42e-06], [0.0, -2.04e-06, 6.93966815]], "pbc": [true, true, true], "a": 5.573418850870753, "b": 5.573418850870753, "c": 6.9396681500003, "alpha": 90.0000291841492, "beta": 89.99997081585082, "gamma": 119.99999585564878, "volume": 186.68641568190088}, "properties": {}, "sites": [{"species": [{"element": "Nd", "occu": 1}], "abc": [0.0, 0.0, 0.0], "properties": {"magmom": -0.34400000000000003}, "label": "Nd", "xyz": [0.0, 0.0, 0.0]}, {"species": [{"element": "Nd", "occu": 1}], "abc": [0.66666685, 0.33333315, 0.25004694], "properties": {"magmom": -0.186}, "label": "Nd", "xyz": [2.7867096, -1.6089096832272345, 1.735243258856815]}, {"species": [{"element": "Nd", "occu": 1}], "abc": [0.33333315, 0.66666685, 0.7499530600000001], "properties": {"magmom": -0.186}, "label": "Nd", "xyz": [2.7867096, 1.6089076432272345, 5.204424891143185]}, {"species": [{"element": "Nd", "occu": 1}], "abc": [0.0, 0.0, 0.5], "properties": {"magmom": -0.34500000000000003}, "label": "Nd", "xyz": [0.0, -1.02e-06, 3.469834075]}, {"species": [{"element": "In", "occu": 1}], "abc": [0.33333305, 0.66666695, 0.25002851], "properties": {"magmom": 0.046}, "label": "In", "xyz": [2.7867096, 1.6089096284177582, 1.7351144141048183]}, {"species": [{"element": "In", "occu": 1}], "abc": [0.66666695, 0.33333305, 0.74997149], "properties": {"magmom": 0.046}, "label": "In", "xyz": [2.7867096, -1.6089116684177582, 5.204553735895182]}]}, "task_ids": null, "uncorrected_energy_per_atom": null, "energy_per_atom": -27.611469406666668, "formation_energy_per_atom": -0.47326662499999805, "energy_above_hull": 0.0, "is_stable": true, "equilibrium_reaction_energy_per_atom": null, "decomposes_to": null, "xas": null, "grain_boundaries": null, "band_gap": 0.0, "cbm": null, "vbm": null, "efermi": 4.6440398, "is_gap_direct": null, "is_metal": null, "es_source_calc_id": null, "bandstructure": null, "dos": null, "dos_energy_up": null, "dos_energy_down": null, "is_magnetic": null, "ordering": null, "total_magnetization": 1.9945821, "total_magnetization_normalized_vol": null, "total_magnetization_normalized_formula_units": null, "num_magnetic_sites": null, "num_unique_magnetic_sites": null, "types_of_magnetic_species": null, "bulk_modulus": null, "shear_modulus": null, "universal_anisotropy": null, "homogeneous_poisson": null, "e_total": null, "e_ionic": null, "e_electronic": null, "n": null, "e_ij_max": null, "weighted_surface_energy_EV_PER_ANG2": null, "weighted_surface_energy": null, "weighted_work_function": null, "surface_anisotropy": null, "shape_factor": null, "has_reconstructed": null, "possible_species": null, "has_props": null, "theoretical": null, "database_IDs": null, "fields_not_requested": ["builder_meta", "nsites", "elements", "nelements", "composition", "composition_reduced", "chemsys", "symmetry", "property_name", "deprecated", "deprecation_reasons", "last_updated", "origins", "warnings", "task_ids", "uncorrected_energy_per_atom", "equilibrium_reaction_energy_per_atom", "decomposes_to", "xas", "grain_boundaries", "cbm", "vbm", "is_gap_direct", "is_metal", "es_source_calc_id", "bandstructure", "dos", "dos_energy_up", "dos_energy_down", "is_magnetic", "ordering", "total_magnetization_normalized_vol", "total_magnetization_normalized_formula_units", "num_magnetic_sites", "num_unique_magnetic_sites", "types_of_magnetic_species", "bulk_modulus", "shear_modulus", "universal_anisotropy", "homogeneous_poisson", "e_total", "e_ionic", "e_electronic", "n", "e_ij_max", "weighted_surface_energy_EV_PER_ANG2", "weighted_surface_energy", "weighted_work_function", "surface_anisotropy", "shape_factor", "has_reconstructed", "possible_species", "has_props", "theoretical", "database_IDs"]}