{
  "builder_meta": null,
  "nsites": null,
  "elements": null,
  "nelements": null,
  "composition": null,
  "composition_reduced": null,
  "formula_pretty": "Nd2Ir7",
  "formula_anonymous": "A2B7",
  "chemsys": null,
  "volume": 324.4991427527999,
  "density": 16.723161691114747,
  "density_atomic": 18.02773015293333,
  "symmetry": null,
  "property_name": null,
  "material_id": "mp-1188750",
  "deprecated": null,
  "deprecation_reasons": null,
  "last_updated": null,
  "origins": null,
  "warnings": null,
  "structure": {
    "@module": "pymatgen.core.structure",
    "@class": "Structure",
    "charge": 0,
    "lattice": {
      "matrix": [
        [13.22950702, -2.67007802, 0.00486008],
        [13.22950702, 2.67007802, 0.00486008],
        [12.6889243, 0.0, 4.59786772]
      ],
      "pbc": [true, true, true],
      "a": 13.49626601121562,
      "b": 13.49626601121562,
      "c": 13.496265685801703,
      "alpha": 22.82115140190995,
      "beta": 22.82115140190995,
      "gamma": 22.821151544975418,
      "volume": 324.4991427527999
    },
    "properties": {},
    "sites": [
      {
        "species": [{ "element": "Nd", "occu": 1 }],
        "abc": [0.94994637, 0.94994637, 0.94994637],
        "properties": { "magmom": -0.0 },
        "label": "Nd",
        "xyz": [37.188441919066825, 0.0, 4.376961381061996]
      },
      {
        "species": [{ "element": "Nd", "occu": 1 }],
        "abc": [0.05005363, 0.05005363, 0.05005363],
        "properties": { "magmom": -0.0 },
        "label": "Nd",
        "xyz": [1.9594964209331742, 0.0, 0.2306264989380044]
      },
      {
        "species": [{ "element": "Nd", "occu": 1 }],
        "abc": [0.85255897, 0.85255897, 0.85255897],
        "properties": { "magmom": 0.0 },
        "label": "Nd",
        "xyz": [33.37592598877391, 0.0, 3.928240377157284]
      },
      {
        "species": [{ "element": "Nd", "occu": 1 }],
        "abc": [0.14744103, 0.14744103, 0.14744103],
        "properties": { "magmom": 0.0 },
        "label": "Nd",
        "xyz": [5.77201235122609, 0.0, 0.6793475028427165]
      },
      {
        "species": [{ "element": "Ir", "occu": 1 }],
        "abc": [0.5, 0.5, 0.5],
        "properties": { "magmom": 0.0 },
        "label": "Ir",
        "xyz": [19.573969169999998, 0.0, 2.30379394]
      },
      {
        "species": [{ "element": "Ir", "occu": 1 }],
        "abc": [0.72223352, 0.72223352, 0.72223352],
        "properties": { "magmom": -0.0 },
        "label": "Ir",
        "xyz": [28.273953308041158, 0.0, 3.3277544132817374]
      },
      {
        "species": [{ "element": "Ir", "occu": 1 }],
        "abc": [0.27776648, 0.27776648, 0.27776648],
        "properties": { "magmom": -0.0 },
        "label": "Ir",
        "xyz": [10.873985031958842, 0.0, 1.2798334667182623]
      },
      {
        "species": [{ "element": "Ir", "occu": 1 }],
        "abc": [0.61151246, 0.61151246, 0.61151246],
        "properties": { "magmom": 0.0 },
        "label": "Ir",
        "xyz": [23.93945207822172, 0.0, 2.817597399164985]
      },
      {
        "species": [{ "element": "Ir", "occu": 1 }],
        "abc": [0.38848754, 0.38848754, 0.38848754],
        "properties": { "magmom": 0.0 },
        "label": "Ir",
        "xyz": [15.208486261778285, 0.0, 1.7899904808350153]
      },
      {
        "species": [{ "element": "Ir", "occu": 1 }],
        "abc": [0.5, 0.5, 0.0],
        "properties": { "magmom": 0.0 },
        "label": "Ir",
        "xyz": [13.22950702, 0.0, 0.00486008]
      },
      {
        "species": [{ "element": "Ir", "occu": 1 }],
        "abc": [-0.0, 0.5, 0.5],
        "properties": { "magmom": 0.0 },
        "label": "Ir",
        "xyz": [12.95921566, 1.33503901, 2.3013639]
      },
      {
        "species": [{ "element": "Ir", "occu": 1 }],
        "abc": [0.5, -0.0, 0.5],
        "properties": { "magmom": 0.0 },
        "label": "Ir",
        "xyz": [12.95921566, -1.33503901, 2.3013639]
      },
      {
        "species": [{ "element": "Ir", "occu": 1 }],
        "abc": [0.39172503000000003, 0.88930359, 0.39172503000000003],
        "properties": { "magmom": -0.0 },
        "label": "Ir",
        "xyz": [21.917946373196145, 1.3285735762792512, 1.8073257721285212]
      },
      {
        "species": [{ "element": "Ir", "occu": 1 }],
        "abc": [0.39172503000000003, 0.39172503000000003, 0.88930359],
        "properties": { "magmom": -0.0 },
        "label": "Ir",
        "xyz": [21.64896400181766, 0.0, 4.092707899708719]
      },
      {
        "species": [{ "element": "Ir", "occu": 1 }],
        "abc": [0.88930359, 0.39172503000000003, 0.39172503000000003],
        "properties": { "magmom": -0.0 },
        "label": "Ir",
        "xyz": [21.917946373196145, -1.3285735762792512, 1.8073257721285212]
      },
      {
        "species": [{ "element": "Ir", "occu": 1 }],
        "abc": [0.60827497, 0.11069641000000001, 0.60827497],
        "properties": { "magmom": -0.0 },
        "label": "Ir",
        "xyz": [17.22999196680386, -1.328573576279251, 2.800262107871479]
      },
      {
        "species": [{ "element": "Ir", "occu": 1 }],
        "abc": [0.60827497, 0.60827497, 0.11069641000000001],
        "properties": { "magmom": -0.0 },
        "label": "Ir",
        "xyz": [17.498974338182343, 0.0, 0.5148799802912805]
      },
      {
        "species": [{ "element": "Ir", "occu": 1 }],
        "abc": [0.11069641000000001, 0.60827497, 0.60827497],
        "properties": { "magmom": -0.0 },
        "label": "Ir",
        "xyz": [17.22999196680386, 1.328573576279251, 2.800262107871479]
      }
    ]
  },
  "task_ids": null,
  "uncorrected_energy_per_atom": null,
  "energy_per_atom": -47.77956300722222,
  "formation_energy_per_atom": -0.5182861055555591,
  "energy_above_hull": 0.017483919074074,
  "is_stable": false,
  "equilibrium_reaction_energy_per_atom": null,
  "decomposes_to": null,
  "xas": null,
  "grain_boundaries": null,
  "band_gap": 0.0,
  "cbm": null,
  "vbm": null,
  "efermi": 7.04013421,
  "is_gap_direct": null,
  "is_metal": null,
  "es_source_calc_id": null,
  "bandstructure": null,
  "dos": null,
  "dos_energy_up": null,
  "dos_energy_down": null,
  "is_magnetic": null,
  "ordering": null,
  "total_magnetization": 1e-7,
  "total_magnetization_normalized_vol": null,
  "total_magnetization_normalized_formula_units": null,
  "num_magnetic_sites": null,
  "num_unique_magnetic_sites": null,
  "types_of_magnetic_species": null,
  "bulk_modulus": null,
  "shear_modulus": null,
  "universal_anisotropy": null,
  "homogeneous_poisson": null,
  "e_total": null,
  "e_ionic": null,
  "e_electronic": null,
  "n": null,
  "e_ij_max": null,
  "weighted_surface_energy_EV_PER_ANG2": null,
  "weighted_surface_energy": null,
  "weighted_work_function": null,
  "surface_anisotropy": null,
  "shape_factor": null,
  "has_reconstructed": null,
  "possible_species": null,
  "has_props": null,
  "theoretical": null,
  "database_IDs": null,
  "fields_not_requested": [
    "builder_meta",
    "nsites",
    "elements",
    "nelements",
    "composition",
    "composition_reduced",
    "chemsys",
    "symmetry",
    "property_name",
    "deprecated",
    "deprecation_reasons",
    "last_updated",
    "origins",
    "warnings",
    "task_ids",
    "uncorrected_energy_per_atom",
    "equilibrium_reaction_energy_per_atom",
    "decomposes_to",
    "xas",
    "grain_boundaries",
    "cbm",
    "vbm",
    "is_gap_direct",
    "is_metal",
    "es_source_calc_id",
    "bandstructure",
    "dos",
    "dos_energy_up",
    "dos_energy_down",
    "is_magnetic",
    "ordering",
    "total_magnetization_normalized_vol",
    "total_magnetization_normalized_formula_units",
    "num_magnetic_sites",
    "num_unique_magnetic_sites",
    "types_of_magnetic_species",
    "bulk_modulus",
    "shear_modulus",
    "universal_anisotropy",
    "homogeneous_poisson",
    "e_total",
    "e_ionic",
    "e_electronic",
    "n",
    "e_ij_max",
    "weighted_surface_energy_EV_PER_ANG2",
    "weighted_surface_energy",
    "weighted_work_function",
    "surface_anisotropy",
    "shape_factor",
    "has_reconstructed",
    "possible_species",
    "has_props",
    "theoretical",
    "database_IDs"
  ]
}
