{
  "builder_meta": null,
  "nsites": null,
  "elements": null,
  "nelements": null,
  "composition": null,
  "composition_reduced": null,
  "formula_pretty": "Nd2Mg",
  "formula_anonymous": "AB2",
  "chemsys": null,
  "volume": 190.8827099550676,
  "density": 5.442068107949745,
  "density_atomic": 31.81378499251127,
  "symmetry": null,
  "property_name": null,
  "material_id": "mp-976425",
  "deprecated": null,
  "deprecation_reasons": null,
  "last_updated": null,
  "origins": null,
  "warnings": null,
  "structure": {
    "@module": "pymatgen.core.structure",
    "@class": "Structure",
    "charge": 0,
    "lattice": {
      "matrix": [
        [3.86383431, 0.0, 0.0],
        [1.93191768, 8.7966076, 0.0],
        [0.0, 0.0, 5.61607473]
      ],
      "pbc": [true, true, true],
      "a": 3.86383431,
      "b": 9.006254004339114,
      "c": 5.61607473,
      "alpha": 90.0,
      "beta": 90.0,
      "gamma": 77.61330863952425,
      "volume": 190.8827099550676
    },
    "properties": {},
    "sites": [
      {
        "species": [{ "element": "Nd", "occu": 1 }],
        "abc": [0.97672311, 0.046552790000000004, -0.0],
        "properties": { "magmom": -0.081 },
        "label": "Nd",
        "xyz": [3.8638324218422313, 0.409506626315204, 0.0]
      },
      {
        "species": [{ "element": "Nd", "occu": 1 }],
        "abc": [0.6617813, 0.6764374, 0.0],
        "properties": { "magmom": -0.022 },
        "label": "Nd",
        "xyz": [3.8638346651296347, 5.95035437376424, 0.0]
      },
      {
        "species": [{ "element": "Nd", "occu": 1 }],
        "abc": [0.80105589, 0.39789221, 0.5],
        "properties": { "magmom": -0.081 },
        "label": "Nd",
        "xyz": [3.8638422272428588, 3.5001016384667962, 2.808037365]
      },
      {
        "species": [{ "element": "Nd", "occu": 1 }],
        "abc": [0.1159957, 0.768008599999999, 0.5],
        "properties": { "magmom": -0.022 },
        "label": "Nd",
        "xyz": [1.9319175582045132, 6.755870287625352, 2.808037365]
      },
      {
        "species": [{ "element": "Mg", "occu": 1 }],
        "abc": [0.32051837, 0.35896025, 0.0],
        "properties": { "magmom": 0.0 },
        "label": "Mg",
        "xyz": [1.9319115283834947, 3.1576324632478996, 0.0]
      },
      {
        "species": [{ "element": "Mg", "occu": 1 }],
        "abc": [0.45725763, 0.08548375, 0.5],
        "properties": { "magmom": 0.0 },
        "label": "Mg",
        "xyz": [1.9319152872809853, 0.7519670049264999, 2.808037365]
      }
    ]
  },
  "task_ids": null,
  "uncorrected_energy_per_atom": null,
  "energy_per_atom": -3.770831631666667,
  "formation_energy_per_atom": -0.048576671666666,
  "energy_above_hull": 0.013947642499999002,
  "is_stable": false,
  "equilibrium_reaction_energy_per_atom": null,
  "decomposes_to": null,
  "xas": null,
  "grain_boundaries": null,
  "band_gap": 0.0,
  "cbm": null,
  "vbm": null,
  "efermi": 3.20647138,
  "is_gap_direct": null,
  "is_metal": null,
  "es_source_calc_id": null,
  "bandstructure": null,
  "dos": null,
  "dos_energy_up": null,
  "dos_energy_down": null,
  "is_magnetic": null,
  "ordering": null,
  "total_magnetization": 0.4849501,
  "total_magnetization_normalized_vol": null,
  "total_magnetization_normalized_formula_units": null,
  "num_magnetic_sites": null,
  "num_unique_magnetic_sites": null,
  "types_of_magnetic_species": null,
  "bulk_modulus": null,
  "shear_modulus": null,
  "universal_anisotropy": null,
  "homogeneous_poisson": null,
  "e_total": null,
  "e_ionic": null,
  "e_electronic": null,
  "n": null,
  "e_ij_max": null,
  "weighted_surface_energy_EV_PER_ANG2": null,
  "weighted_surface_energy": null,
  "weighted_work_function": null,
  "surface_anisotropy": null,
  "shape_factor": null,
  "has_reconstructed": null,
  "possible_species": null,
  "has_props": null,
  "theoretical": null,
  "database_IDs": null,
  "fields_not_requested": [
    "builder_meta",
    "nsites",
    "elements",
    "nelements",
    "composition",
    "composition_reduced",
    "chemsys",
    "symmetry",
    "property_name",
    "deprecated",
    "deprecation_reasons",
    "last_updated",
    "origins",
    "warnings",
    "task_ids",
    "uncorrected_energy_per_atom",
    "equilibrium_reaction_energy_per_atom",
    "decomposes_to",
    "xas",
    "grain_boundaries",
    "cbm",
    "vbm",
    "is_gap_direct",
    "is_metal",
    "es_source_calc_id",
    "bandstructure",
    "dos",
    "dos_energy_up",
    "dos_energy_down",
    "is_magnetic",
    "ordering",
    "total_magnetization_normalized_vol",
    "total_magnetization_normalized_formula_units",
    "num_magnetic_sites",
    "num_unique_magnetic_sites",
    "types_of_magnetic_species",
    "bulk_modulus",
    "shear_modulus",
    "universal_anisotropy",
    "homogeneous_poisson",
    "e_total",
    "e_ionic",
    "e_electronic",
    "n",
    "e_ij_max",
    "weighted_surface_energy_EV_PER_ANG2",
    "weighted_surface_energy",
    "weighted_work_function",
    "surface_anisotropy",
    "shape_factor",
    "has_reconstructed",
    "possible_species",
    "has_props",
    "theoretical",
    "database_IDs"
  ]
}
