{
  "builder_meta": null,
  "nsites": null,
  "elements": null,
  "nelements": null,
  "composition": null,
  "composition_reduced": null,
  "formula_pretty": "Nd2Ni7",
  "formula_anonymous": "A2B7",
  "chemsys": null,
  "volume": 267.909073440364,
  "density": 8.669193041784718,
  "density_atomic": 14.883837413353556,
  "symmetry": null,
  "property_name": null,
  "material_id": "mp-1190187",
  "deprecated": null,
  "deprecation_reasons": null,
  "last_updated": null,
  "origins": null,
  "warnings": null,
  "structure": {
    "@module": "pymatgen.core.structure",
    "@class": "Structure",
    "charge": 0,
    "lattice": {
      "matrix": [
        [-2.517375, -4.360221, 0.0],
        [-5.034749, 0.0, 0.0],
        [-2.517375, -1.453407, -12.203969]
      ],
      "pbc": [true, true, true],
      "a": 5.034749652114393,
      "b": 5.034749,
      "c": 12.545374771254744,
      "alpha": 78.42434962203359,
      "beta": 78.42434989233513,
      "gamma": 59.99999771429283,
      "volume": 267.909073440364
    },
    "properties": {},
    "sites": [
      {
        "species": [{ "element": "Nd", "occu": 1 }],
        "abc": [0.949523999999999, 0.949523999999999, 0.151428999999999],
        "properties": { "magmom": 0.036000000000000004 },
        "label": "Nd",
        "xyz": [-7.552126567850991, -4.360222453406994, -1.848034821700988]
      },
      {
        "species": [{ "element": "Nd", "occu": 1 }],
        "abc": [0.050476, 0.050476, 0.848571],
        "properties": { "magmom": 0.036000000000000004 },
        "label": "Nd",
        "xyz": [-2.5173724321489996, -1.453405546593, -10.355934178299]
      },
      {
        "species": [{ "element": "Nd", "occu": 1 }],
        "abc": [0.852522999999999, 0.852522999999999, 0.442432],
        "properties": { "magmom": 0.024 },
        "label": "Nd",
        "xyz": [-7.5521266648519925, -4.360222453406996, -5.399426412608]
      },
      {
        "species": [{ "element": "Nd", "occu": 1 }],
        "abc": [0.147477, 0.147477, 0.557568],
        "properties": { "magmom": 0.024 },
        "label": "Nd",
        "xyz": [-2.517372335148, -1.4534055465929998, -6.804542587392]
      },
      {
        "species": [{ "element": "Ni", "occu": 1 }],
        "abc": [0.5, 0.5, 0.5],
        "properties": { "magmom": -0.059000000000000004 },
        "label": "Ni",
        "xyz": [-5.034749499999999, -2.906814, -6.1019845]
      },
      {
        "species": [{ "element": "Ni", "occu": 1 }],
        "abc": [0.721573999999999, 0.721573999999999, 0.835279],
        "properties": { "magmom": -0.223 },
        "label": "Ni",
        "xyz": [-7.5521267958009926, -4.360222453406996, -10.193719022351]
      },
      {
        "species": [{ "element": "Ni", "occu": 1 }],
        "abc": [0.278426, 0.278426, 0.164721],
        "properties": { "magmom": -0.223 },
        "label": "Ni",
        "xyz": [-2.517372204199, -1.453405546593, -2.0102499776490004]
      },
      {
        "species": [{ "element": "Ni", "occu": 1 }],
        "abc": [0.611958, 0.611958, 0.164126],
        "properties": { "magmom": -0.23800000000000002 },
        "label": "Ni",
        "xyz": [-5.034749388041999, -2.9068140000000002, -2.002988616094]
      },
      {
        "species": [{ "element": "Ni", "occu": 1 }],
        "abc": [0.388042, 0.388042, 0.835874],
        "properties": { "magmom": -0.23800000000000002 },
        "label": "Ni",
        "xyz": [-5.0347496119579995, -2.906814, -10.200980383906]
      },
      {
        "species": [{ "element": "Ni", "occu": 1 }],
        "abc": [0.0, 0.5, 0.0],
        "properties": { "magmom": -0.34400000000000003 },
        "label": "Ni",
        "xyz": [-2.5173745, 0.0, 0.0]
      },
      {
        "species": [{ "element": "Ni", "occu": 1 }],
        "abc": [0.5, 0.0, 0.0],
        "properties": { "magmom": -0.34400000000000003 },
        "label": "Ni",
        "xyz": [-1.2586875, -2.1801105, 0.0]
      },
      {
        "species": [{ "element": "Ni", "occu": 1 }],
        "abc": [0.5, 0.5, 0.0],
        "properties": { "magmom": -0.34400000000000003 },
        "label": "Ni",
        "xyz": [-3.7760619999999996, -2.1801105, 0.0]
      },
      {
        "species": [{ "element": "Ni", "occu": 1 }],
        "abc": [0.391455, 0.391455, 0.325771],
        "properties": { "magmom": -0.149 },
        "label": "Ni",
        "xyz": [-3.776404471545, -2.180308163352, -3.9756991850989998]
      },
      {
        "species": [{ "element": "Ni", "occu": 1 }],
        "abc": [0.891317999999999, 0.391455, 0.325771],
        "properties": { "magmom": -0.149 },
        "label": "Ni",
        "xyz": [-5.034747091169997, -4.359821313074995, -3.9756991850989998]
      },
      {
        "species": [{ "element": "Ni", "occu": 1 }],
        "abc": [0.391455, 0.891317999999999, 0.325771],
        "properties": { "magmom": -0.149 },
        "label": "Ni",
        "xyz": [-6.293089210931994, -2.180308163352, -3.9756991850989998]
      },
      {
        "species": [{ "element": "Ni", "occu": 1 }],
        "abc": [0.608545, 0.608545, 0.674229],
        "properties": { "magmom": -0.149 },
        "label": "Ni",
        "xyz": [-6.293094528455, -3.633319836648, -8.228269814901001]
      },
      {
        "species": [{ "element": "Ni", "occu": 1 }],
        "abc": [0.108682, 0.608545, 0.674229],
        "properties": { "magmom": -0.149 },
        "label": "Ni",
        "xyz": [-5.03475190883, -1.453806686925, -8.228269814901001]
      },
      {
        "species": [{ "element": "Ni", "occu": 1 }],
        "abc": [0.608545, 0.108682, 0.674229],
        "properties": { "magmom": -0.149 },
        "label": "Ni",
        "xyz": [-3.7764097890679995, -3.633319836648, -8.228269814901001]
      }
    ]
  },
  "task_ids": null,
  "uncorrected_energy_per_atom": null,
  "energy_per_atom": -5.8623511072222225,
  "formation_energy_per_atom": -0.307100926666665,
  "energy_above_hull": 0.0,
  "is_stable": true,
  "equilibrium_reaction_energy_per_atom": null,
  "decomposes_to": null,
  "xas": null,
  "grain_boundaries": null,
  "band_gap": 0.0,
  "cbm": null,
  "vbm": null,
  "efermi": 6.20410299,
  "is_gap_direct": null,
  "is_metal": null,
  "es_source_calc_id": null,
  "bandstructure": null,
  "dos": null,
  "dos_energy_up": null,
  "dos_energy_down": null,
  "is_magnetic": null,
  "ordering": null,
  "total_magnetization": 2.5137085,
  "total_magnetization_normalized_vol": null,
  "total_magnetization_normalized_formula_units": null,
  "num_magnetic_sites": null,
  "num_unique_magnetic_sites": null,
  "types_of_magnetic_species": null,
  "bulk_modulus": null,
  "shear_modulus": null,
  "universal_anisotropy": null,
  "homogeneous_poisson": null,
  "e_total": null,
  "e_ionic": null,
  "e_electronic": null,
  "n": null,
  "e_ij_max": null,
  "weighted_surface_energy_EV_PER_ANG2": null,
  "weighted_surface_energy": null,
  "weighted_work_function": null,
  "surface_anisotropy": null,
  "shape_factor": null,
  "has_reconstructed": null,
  "possible_species": null,
  "has_props": null,
  "theoretical": null,
  "database_IDs": null,
  "fields_not_requested": [
    "builder_meta",
    "nsites",
    "elements",
    "nelements",
    "composition",
    "composition_reduced",
    "chemsys",
    "symmetry",
    "property_name",
    "deprecated",
    "deprecation_reasons",
    "last_updated",
    "origins",
    "warnings",
    "task_ids",
    "uncorrected_energy_per_atom",
    "equilibrium_reaction_energy_per_atom",
    "decomposes_to",
    "xas",
    "grain_boundaries",
    "cbm",
    "vbm",
    "is_gap_direct",
    "is_metal",
    "es_source_calc_id",
    "bandstructure",
    "dos",
    "dos_energy_up",
    "dos_energy_down",
    "is_magnetic",
    "ordering",
    "total_magnetization_normalized_vol",
    "total_magnetization_normalized_formula_units",
    "num_magnetic_sites",
    "num_unique_magnetic_sites",
    "types_of_magnetic_species",
    "bulk_modulus",
    "shear_modulus",
    "universal_anisotropy",
    "homogeneous_poisson",
    "e_total",
    "e_ionic",
    "e_electronic",
    "n",
    "e_ij_max",
    "weighted_surface_energy_EV_PER_ANG2",
    "weighted_surface_energy",
    "weighted_work_function",
    "surface_anisotropy",
    "shape_factor",
    "has_reconstructed",
    "possible_species",
    "has_props",
    "theoretical",
    "database_IDs"
  ]
}
