{
  "builder_meta": null,
  "nsites": null,
  "elements": null,
  "nelements": null,
  "composition": null,
  "composition_reduced": null,
  "formula_pretty": "Nd2O5",
  "formula_anonymous": "A2B5",
  "chemsys": null,
  "volume": 197.67614917962504,
  "density": 6.190702301103933,
  "density_atomic": 14.119724941401788,
  "symmetry": null,
  "property_name": null,
  "material_id": "mp-985608",
  "deprecated": null,
  "deprecation_reasons": null,
  "last_updated": null,
  "origins": null,
  "warnings": null,
  "structure": {
    "@module": "pymatgen.core.structure",
    "@class": "Structure",
    "charge": 0,
    "lattice": {
      "matrix": [
        [5.23882078, -0.0, -2.00794134],
        [-0.84468052, 5.52419092, -2.20381628],
        [-0.20151725, -0.88439384, 7.31238083]
      ],
      "pbc": [true, true, true],
      "a": 5.610443083201255,
      "b": 6.007243685540894,
      "c": 7.3684241917270885,
      "alpha": 118.07308369282296,
      "beta": 112.377587244541,
      "gamma": 89.9999932786222,
      "volume": 197.67614917962504
    },
    "properties": {},
    "sites": [
      {
        "species": [{ "element": "Nd", "occu": 1 }],
        "abc": [0.67990387, 0.83888308, 0.78098022],
        "properties": { "magmom": -0.0 },
        "label": "Nd",
        "xyz": [2.695925340086022, 3.9434561977477887, 2.496873512817655]
      },
      {
        "species": [{ "element": "Nd", "occu": 1 }],
        "abc": [0.89892465, 0.66111692, 0.21901978],
        "properties": { "magmom": -0.0 },
        "label": "Nd",
        "xyz": [4.106736288546624, 3.458436342252211, -1.6604121568966708]
      },
      {
        "species": [{ "element": "Nd", "occu": 1 }],
        "abc": [0.32009613000000003, 0.16111692, 0.21901978],
        "properties": { "magmom": -0.0 },
        "label": "Nd",
        "xyz": [1.4966976699139782, 0.6963408822522112, 0.6037496971823457]
      },
      {
        "species": [{ "element": "Nd", "occu": 1 }],
        "abc": [0.10107535000000001, 0.33888308, 0.78098022],
        "properties": { "magmom": -0.0 },
        "label": "Nd",
        "xyz": [0.08588672145337647, 1.1813607377477888, 4.761035366896672]
      },
      {
        "species": [{ "element": "O", "occu": 1 }],
        "abc": [0.38274673000000003, 0.6525319900000001, 0.37720294],
        "properties": { "magmom": 0.0 },
        "label": "O",
        "xyz": [1.3779475628104998, 3.2711153376016413, 0.5516579427760249]
      },
      {
        "species": [{ "element": "O", "occu": 1 }],
        "abc": [0.00554279, 0.84746801, 0.62279706],
        "properties": { "magmom": 0.0 },
        "label": "O",
        "xyz": [-0.8123063867782742, 4.1307772023983595, 2.6753358881272185]
      },
      {
        "species": [{ "element": "O", "occu": 1 }],
        "abc": [0.61725327, 0.34746801, 0.62279706],
        "properties": { "magmom": 0.0 },
        "label": "O",
        "xyz": [2.8146754471895004, 1.3686817423983588, 2.5489652672239758]
      },
      {
        "species": [{ "element": "O", "occu": 1 }],
        "abc": [0.99445721, 0.15253199, 0.37720294],
        "properties": { "magmom": 0.0 },
        "label": "O",
        "xyz": [5.004929396778274, 0.5090198776016412, 0.42528732187278173]
      },
      {
        "species": [{ "element": "O", "occu": 1 }],
        "abc": [0.94385885, 0.25, 0.0],
        "properties": { "magmom": 0.0 },
        "label": "O",
        "xyz": [4.733537226766903, 1.38104773, -2.4461672740398592]
      },
      {
        "species": [{ "element": "O", "occu": 1 }],
        "abc": [0.05614115, 0.75, -0.0],
        "properties": { "magmom": 0.0 },
        "label": "O",
        "xyz": [-0.33939696676690306, 4.14314319, -1.765590345960141]
      },
      {
        "species": [{ "element": "O", "occu": 1 }],
        "abc": [0.47503741, 0.51857484, 0.19623061],
        "properties": { "magmom": 0.0 },
        "label": "O",
        "xyz": [2.0110619363822404, 2.6911612797650104, -0.6617779775527179]
      },
      {
        "species": [{ "element": "O", "occu": 1 }],
        "abc": [0.2788058, 0.98142516, 0.80376939],
        "properties": { "magmom": 0.0 },
        "label": "O",
        "xyz": [0.4696495070276632, 4.710731260234989, 3.1547614423154173]
      },
      {
        "species": [{ "element": "O", "occu": 1 }],
        "abc": [0.52496259, 0.48142516, 0.80376939],
        "properties": { "magmom": 0.0 },
        "label": "O",
        "xyz": [2.1815610736177597, 1.9486358002349893, 3.762401187552719]
      },
      {
        "species": [{ "element": "O", "occu": 1 }],
        "abc": [0.7211942, 0.01857484, 0.19623061],
        "properties": { "magmom": 0.0 },
        "label": "O",
        "xyz": [3.7229735029723368, -0.07093418023498961, -0.05413823231541692]
      }
    ]
  },
  "task_ids": null,
  "uncorrected_energy_per_atom": null,
  "energy_per_atom": -7.576620302857143,
  "formation_energy_per_atom": -2.680034604285715,
  "energy_above_hull": 0.028243616428567,
  "is_stable": false,
  "equilibrium_reaction_energy_per_atom": null,
  "decomposes_to": null,
  "xas": null,
  "grain_boundaries": null,
  "band_gap": 2.8438,
  "cbm": null,
  "vbm": null,
  "efermi": 2.31228188,
  "is_gap_direct": null,
  "is_metal": null,
  "es_source_calc_id": null,
  "bandstructure": null,
  "dos": null,
  "dos_energy_up": null,
  "dos_energy_down": null,
  "is_magnetic": null,
  "ordering": null,
  "total_magnetization": 0.0,
  "total_magnetization_normalized_vol": null,
  "total_magnetization_normalized_formula_units": null,
  "num_magnetic_sites": null,
  "num_unique_magnetic_sites": null,
  "types_of_magnetic_species": null,
  "bulk_modulus": null,
  "shear_modulus": null,
  "universal_anisotropy": null,
  "homogeneous_poisson": null,
  "e_total": null,
  "e_ionic": null,
  "e_electronic": null,
  "n": null,
  "e_ij_max": null,
  "weighted_surface_energy_EV_PER_ANG2": null,
  "weighted_surface_energy": null,
  "weighted_work_function": null,
  "surface_anisotropy": null,
  "shape_factor": null,
  "has_reconstructed": null,
  "possible_species": null,
  "has_props": null,
  "theoretical": null,
  "database_IDs": null,
  "fields_not_requested": [
    "builder_meta",
    "nsites",
    "elements",
    "nelements",
    "composition",
    "composition_reduced",
    "chemsys",
    "symmetry",
    "property_name",
    "deprecated",
    "deprecation_reasons",
    "last_updated",
    "origins",
    "warnings",
    "task_ids",
    "uncorrected_energy_per_atom",
    "equilibrium_reaction_energy_per_atom",
    "decomposes_to",
    "xas",
    "grain_boundaries",
    "cbm",
    "vbm",
    "is_gap_direct",
    "is_metal",
    "es_source_calc_id",
    "bandstructure",
    "dos",
    "dos_energy_up",
    "dos_energy_down",
    "is_magnetic",
    "ordering",
    "total_magnetization_normalized_vol",
    "total_magnetization_normalized_formula_units",
    "num_magnetic_sites",
    "num_unique_magnetic_sites",
    "types_of_magnetic_species",
    "bulk_modulus",
    "shear_modulus",
    "universal_anisotropy",
    "homogeneous_poisson",
    "e_total",
    "e_ionic",
    "e_electronic",
    "n",
    "e_ij_max",
    "weighted_surface_energy_EV_PER_ANG2",
    "weighted_surface_energy",
    "weighted_work_function",
    "surface_anisotropy",
    "shape_factor",
    "has_reconstructed",
    "possible_species",
    "has_props",
    "theoretical",
    "database_IDs"
  ]
}
