{
  "builder_meta": null,
  "nsites": null,
  "elements": null,
  "nelements": null,
  "composition": null,
  "composition_reduced": null,
  "formula_pretty": "Nd2O3",
  "formula_anonymous": "A2B3",
  "chemsys": null,
  "volume": 689.0489404160858,
  "density": 6.4871077282622664,
  "density_atomic": 17.226223510402143,
  "symmetry": null,
  "property_name": null,
  "material_id": "mp-1045",
  "deprecated": null,
  "deprecation_reasons": null,
  "last_updated": null,
  "origins": null,
  "warnings": null,
  "structure": {
    "@module": "pymatgen.core.structure",
    "@class": "Structure",
    "charge": 0,
    "lattice": {
      "matrix": [
        [9.08617441, -0.0, -3.21244625],
        [-4.5430867, 7.8688576999999995, -3.21244625],
        [1e-8, 2e-8, 9.63734282]
      ],
      "pbc": [true, true, true],
      "a": 9.637342803806343,
      "b": 9.63734243324918,
      "c": 9.63734282,
      "alpha": 109.4712128192738,
      "beta": 109.47121205418104,
      "gamma": 109.471226931918,
      "volume": 689.0489404160857
    },
    "properties": {},
    "sites": [
      {
        "species": [{ "element": "Nd", "occu": 1 }],
        "abc": [0.25, 0.7195384300000001, 0.46953843],
        "properties": { "magmom": -0.0 },
        "label": "Nd",
        "xyz": [-0.9973818642764971, 5.66194552474218, 1.4105127233901849]
      },
      {
        "species": [{ "element": "Nd", "occu": 1 }],
        "abc": [0.03046157, 0.75, 0.78046157],
        "properties": { "magmom": -0.0 },
        "label": "Nd",
        "xyz": [-3.1305358793729607, 5.901643290609231, 5.0143848641098145]
      },
      {
        "species": [{ "element": "Nd", "occu": 1 }],
        "abc": [0.78046157, 0.03046157, 0.75],
        "properties": { "magmom": -0.0 },
        "label": "Nd",
        "xyz": [6.953020399294306, 0.239697774648589, 4.622960114868775]
      },
      {
        "species": [{ "element": "Nd", "occu": 1 }],
        "abc": [0.46953843, 0.25, 0.7195384300000001],
        "properties": { "magmom": -0.0 },
        "label": "Nd",
        "xyz": [3.1305363993729602, 1.9672144393907685, 4.622959990890186]
      },
      {
        "species": [{ "element": "Nd", "occu": 1 }],
        "abc": [0.7195384300000001, 0.46953843, 0.25],
        "properties": { "magmom": -0.0 },
        "label": "Nd",
        "xyz": [4.404697875705697, 3.6947310953514108, -1.4105097948687755]
      },
      {
        "species": [{ "element": "Nd", "occu": 1 }],
        "abc": [0.75, 0.78046157, 0.03046157],
        "properties": { "magmom": -0.0 },
        "label": "Nd",
        "xyz": [3.268926229276497, 6.14134103525782, -4.622956938390186]
      },
      {
        "species": [{ "element": "Nd", "occu": 1 }],
        "abc": [0.75, 0.28046157, 0.53046157],
        "properties": { "magmom": -0.0 },
        "label": "Nd",
        "xyz": [5.540469584276497, 2.20691219525782, 1.801937596609815]
      },
      {
        "species": [{ "element": "Nd", "occu": 1 }],
        "abc": [0.9695384300000001, 0.25, 0.21953843],
        "properties": { "magmom": -0.0 },
        "label": "Nd",
        "xyz": [7.673623599372961, 1.9672144293907685, -1.8019345441098151]
      },
      {
        "species": [{ "element": "Nd", "occu": 1 }],
        "abc": [0.21953843, 0.9695384300000001, 0.25],
        "properties": { "magmom": -0.0 },
        "label": "Nd",
        "xyz": [-2.4099326792943048, 7.629159945351412, -1.4105097948687755]
      },
      {
        "species": [{ "element": "Nd", "occu": 1 }],
        "abc": [0.53046157, 0.75, 0.28046157],
        "properties": { "magmom": -0.0 },
        "label": "Nd",
        "xyz": [1.4125513206270397, 5.901643280609231, -1.4105096708901854]
      },
      {
        "species": [{ "element": "Nd", "occu": 1 }],
        "abc": [0.28046157, 0.53046157, 0.75],
        "properties": { "magmom": -0.0 },
        "label": "Nd",
        "xyz": [0.13838984429430418, 4.174126624648589, 4.622960114868775]
      },
      {
        "species": [{ "element": "Nd", "occu": 1 }],
        "abc": [0.25, 0.21953843, 0.9695384300000001],
        "properties": { "magmom": -0.0 },
        "label": "Nd",
        "xyz": [1.2741614907235033, 1.7275166847421795, 7.835407258390187]
      },
      {
        "species": [{ "element": "Nd", "occu": 1 }],
        "abc": [-0.0, 0.5, -0.0],
        "properties": { "magmom": -0.0 },
        "label": "Nd",
        "xyz": [-2.27154335, 3.9344288499999998, -1.606223125]
      },
      {
        "species": [{ "element": "Nd", "occu": 1 }],
        "abc": [0.5, -0.0, -0.0],
        "properties": { "magmom": -0.0 },
        "label": "Nd",
        "xyz": [4.543087205, 0.0, -1.606223125]
      },
      {
        "species": [{ "element": "Nd", "occu": 1 }],
        "abc": [-0.0, -0.0, 0.5],
        "properties": { "magmom": -0.0 },
        "label": "Nd",
        "xyz": [5e-9, 1e-8, 4.81867141]
      },
      {
        "species": [{ "element": "Nd", "occu": 1 }],
        "abc": [0.5, 0.5, 0.5],
        "properties": { "magmom": -0.0 },
        "label": "Nd",
        "xyz": [2.27154386, 3.9344288599999997, 1.6062251600000002]
      },
      {
        "species": [{ "element": "O", "occu": 1 }],
        "abc": [0.027904599999999002, 0.4876971, 0.75874703],
        "properties": { "magmom": 0.0 },
        "label": "O",
        "xyz": [-1.962104138609823, 3.83761909577761, 5.655962494108203]
      },
      {
        "species": [{ "element": "O", "occu": 1 }],
        "abc": [0.22895007, 0.26915757, 0.74125297],
        "properties": { "magmom": 0.0 },
        "label": "O",
        "xyz": [0.8574740981429196, 2.117962632032848, 5.543564968018826]
      },
      {
        "species": [{ "element": "O", "occu": 1 }],
        "abc": [0.27104993, 0.0123029, 0.0402075],
        "properties": { "magmom": 0.0 },
        "label": "O",
        "xyz": [2.406913796838936, 0.09680977020147999, -0.5227622747252374]
      },
      {
        "species": [{ "element": "O", "occu": 1 }],
        "abc": [0.23084243000000002, 0.4597925, 0.4720954],
        "properties": { "magmom": 0.0 },
        "label": "O",
        "xyz": [0.008597393419420268, 3.618041763469158, 2.3311176225475156]
      },
      {
        "species": [{ "element": "O", "occu": 1 }],
        "abc": [0.4597925, 0.4720954, 0.23084243000000002],
        "properties": { "magmom": 0.0 },
        "label": "O",
        "xyz": [2.032984516847169, 3.7148515280414283, -0.7689321544635219]
      },
      {
        "species": [{ "element": "O", "occu": 1 }],
        "abc": [0.75874703, 0.027904599999999002, 0.4876971],
        "properties": { "magmom": 0.0 },
        "label": "O",
        "xyz": [6.767334835397658, 0.2195773363293541, 2.173028066169938]
      },
      {
        "species": [{ "element": "O", "occu": 1 }],
        "abc": [0.26915757, 0.74125297, 0.22895007],
        "properties": { "magmom": 0.0 },
        "label": "O",
        "xyz": [-0.9219638822612145, 5.83281414521137, -1.0394192369304776]
      },
      {
        "species": [{ "element": "O", "occu": 1 }],
        "abc": [0.0402075, 0.27104993, 0.0123029],
        "properties": { "magmom": 0.0 },
        "label": "O",
        "xyz": [-0.866070974305827, 2.1328533290110188, -0.8813304988079596]
      },
      {
        "species": [{ "element": "O", "occu": 1 }],
        "abc": [0.4876971, 0.75874703, 0.027904599999999002],
        "properties": { "magmom": 0.0 },
        "label": "O",
        "xyz": [0.9842473694727557, 5.970472409925723, -3.7352085747980506]
      },
      {
        "species": [{ "element": "O", "occu": 1 }],
        "abc": [0.74125297, 0.22895007, 0.26915757],
        "properties": { "magmom": 0.0 },
        "label": "O",
        "xyz": [5.695013752061004, 1.8015755266181903, -0.5227613428984523]
      },
      {
        "species": [{ "element": "O", "occu": 1 }],
        "abc": [0.0123029, 0.0402075, 0.27104993],
        "properties": { "magmom": 0.0 },
        "label": "O",
        "xyz": [-0.0708798606309617, 0.3163871013937486, 2.4435142591810024]
      },
      {
        "species": [{ "element": "O", "occu": 1 }],
        "abc": [0.4720954, 0.23084243000000002, 0.4597925],
        "properties": { "magmom": 0.0 },
        "label": "O",
        "xyz": [3.240803973627958, 1.816466241988061, 2.173027952598213]
      },
      {
        "species": [{ "element": "O", "occu": 1 }],
        "abc": [0.972095399999999, 0.5123029, 0.24125297],
        "properties": { "magmom": 0.0 },
        "label": "O",
        "xyz": [6.5051918586098045, 4.031238624222389, -2.443512174108197]
      },
      {
        "species": [{ "element": "O", "occu": 1 }],
        "abc": [0.77104993, 0.73084243, 0.25874703],
        "properties": { "magmom": 0.0 },
        "label": "O",
        "xyz": [3.68561362185708, 5.750895087967152, -2.331114648018826]
      },
      {
        "species": [{ "element": "O", "occu": 1 }],
        "abc": [0.72895007, 0.9876971, 0.959792499999999],
        "properties": { "magmom": 0.0 },
        "label": "O",
        "xyz": [2.1361739231610644, 7.7720479497985195, 3.735212594725228]
      },
      {
        "species": [{ "element": "O", "occu": 1 }],
        "abc": [0.7691575700000001, 0.5402075, 0.5279046],
        "properties": { "magmom": 0.0 },
        "label": "O",
        "xyz": [4.53449032658058, 4.250815956530841, 0.8813326974524847]
      },
      {
        "species": [{ "element": "O", "occu": 1 }],
        "abc": [0.5279046, 0.7691575700000001, 0.5402075],
        "properties": { "magmom": 0.0 },
        "label": "O",
        "xyz": [1.302283746372041, 6.0523914780119386, 1.0394223674017873]
      },
      {
        "species": [{ "element": "O", "occu": 1 }],
        "abc": [0.9876971, 0.959792499999999, 0.72895007],
        "properties": { "magmom": 0.0 },
        "label": "O",
        "xyz": [4.613967580630965, 7.552470618606243, 0.7689360608190006]
      },
      {
        "species": [{ "element": "O", "occu": 1 }],
        "abc": [0.25874703, 0.77104993, 0.73084243],
        "properties": { "magmom": 0.0 },
        "label": "O",
        "xyz": [-1.1519260320610043, 6.067282193381809, 3.7352116628984535]
      },
      {
        "species": [{ "element": "O", "occu": 1 }],
        "abc": [0.5123029, 0.24125297, 0.972095399999999],
        "properties": { "magmom": 0.0 },
        "label": "O",
        "xyz": [3.558840350527244, 1.8983853100742771, 6.947658894798032]
      },
      {
        "species": [{ "element": "O", "occu": 1 }],
        "abc": [0.959792499999999, 0.72895007, 0.9876971],
        "properties": { "magmom": 0.0 },
        "label": "O",
        "xyz": [5.409158694305818, 5.73600439098898, 4.0937808188079625]
      },
      {
        "species": [{ "element": "O", "occu": 1 }],
        "abc": [0.73084243, 0.25874703, 0.77104993],
        "properties": { "magmom": 0.0 },
        "label": "O",
        "xyz": [5.465051602261214, 2.0360435747886294, 4.251869556930478]
      },
      {
        "species": [{ "element": "O", "occu": 1 }],
        "abc": [0.24125297, 0.972095399999999, 0.5123029],
        "properties": { "magmom": 0.0 },
        "label": "O",
        "xyz": [-2.2242471153976484, 7.6492803836706305, 1.0394222538300686]
      },
      {
        "species": [{ "element": "O", "occu": 1 }],
        "abc": [0.5402075, 0.5279046, 0.7691575700000001],
        "properties": { "magmom": 0.0 },
        "label": "O",
        "xyz": [2.5101032031528305, 4.154006191958571, 3.9813824744635236]
      }
    ]
  },
  "task_ids": null,
  "uncorrected_energy_per_atom": null,
  "energy_per_atom": -8.657582917499997,
  "formation_energy_per_atom": -3.781547341499998,
  "energy_above_hull": 0.0,
  "is_stable": true,
  "equilibrium_reaction_energy_per_atom": null,
  "decomposes_to": null,
  "xas": null,
  "grain_boundaries": null,
  "band_gap": 3.708,
  "cbm": null,
  "vbm": null,
  "efermi": 1.33797915,
  "is_gap_direct": null,
  "is_metal": null,
  "es_source_calc_id": null,
  "bandstructure": null,
  "dos": null,
  "dos_energy_up": null,
  "dos_energy_down": null,
  "is_magnetic": null,
  "ordering": null,
  "total_magnetization": 0.0,
  "total_magnetization_normalized_vol": null,
  "total_magnetization_normalized_formula_units": null,
  "num_magnetic_sites": null,
  "num_unique_magnetic_sites": null,
  "types_of_magnetic_species": null,
  "bulk_modulus": null,
  "shear_modulus": null,
  "universal_anisotropy": null,
  "homogeneous_poisson": null,
  "e_total": null,
  "e_ionic": null,
  "e_electronic": null,
  "n": null,
  "e_ij_max": null,
  "weighted_surface_energy_EV_PER_ANG2": null,
  "weighted_surface_energy": null,
  "weighted_work_function": null,
  "surface_anisotropy": null,
  "shape_factor": null,
  "has_reconstructed": null,
  "possible_species": null,
  "has_props": null,
  "theoretical": null,
  "database_IDs": null,
  "fields_not_requested": [
    "builder_meta",
    "nsites",
    "elements",
    "nelements",
    "composition",
    "composition_reduced",
    "chemsys",
    "symmetry",
    "property_name",
    "deprecated",
    "deprecation_reasons",
    "last_updated",
    "origins",
    "warnings",
    "task_ids",
    "uncorrected_energy_per_atom",
    "equilibrium_reaction_energy_per_atom",
    "decomposes_to",
    "xas",
    "grain_boundaries",
    "cbm",
    "vbm",
    "is_gap_direct",
    "is_metal",
    "es_source_calc_id",
    "bandstructure",
    "dos",
    "dos_energy_up",
    "dos_energy_down",
    "is_magnetic",
    "ordering",
    "total_magnetization_normalized_vol",
    "total_magnetization_normalized_formula_units",
    "num_magnetic_sites",
    "num_unique_magnetic_sites",
    "types_of_magnetic_species",
    "bulk_modulus",
    "shear_modulus",
    "universal_anisotropy",
    "homogeneous_poisson",
    "e_total",
    "e_ionic",
    "e_electronic",
    "n",
    "e_ij_max",
    "weighted_surface_energy_EV_PER_ANG2",
    "weighted_surface_energy",
    "weighted_work_function",
    "surface_anisotropy",
    "shape_factor",
    "has_reconstructed",
    "possible_species",
    "has_props",
    "theoretical",
    "database_IDs"
  ]
}
