{"builder_meta": null, "nsites": null, "elements": null, "nelements": null, "composition": null, "composition_reduced": null, "formula_pretty": "Nd2Sn5", "formula_anonymous": "A2B5", "chemsys": null, "volume": 383.3685943776162, "density": 7.640959309393972, "density_atomic": 27.383471026972586, "symmetry": null, "property_name": null, "material_id": "mp-1209854", "deprecated": null, "deprecation_reasons": null, "last_updated": null, "origins": null, "warnings": null, "structure": {"@module": "pymatgen.core.structure", "@class": "Structure", "charge": 0, "lattice": {"matrix": [[4.60169702, 0.0, 0.0], [0.0, 0.0, 4.6707589], [-2.30084903, -17.83655846, 0.0]], "pbc": [true, true, true], "a": 4.60169702, "b": 4.6707589, "c": 17.984346636890912, "alpha": 90.0, "beta": 97.35034963477547, "gamma": 90.0, "volume": 383.3685943776162}, "properties": {}, "sites": [{"species": [{"element": "Nd", "occu": 1}], "abc": [0.93140674, 0.5, 0.86281547], "properties": {"magmom": 0.0}, "label": "Nd", "xyz": [2.3008434826474202, -15.389658570847375, 2.33537945]}, {"species": [{"element": "Nd", "occu": 1}], "abc": [0.06859326, 0.5, 0.13718453], "properties": {"magmom": 0.0}, "label": "Nd", "xyz": [4.507352579286028e-06, -2.4468998891526237, 2.33537945]}, {"species": [{"element": "Nd", "occu": 1}], "abc": [0.79756041, 0.5, 0.59512181], "properties": {"magmom": 0.0}, "label": "Nd", "xyz": [2.3008459226966336, -10.614924954886012, 2.33537945]}, {"species": [{"element": "Nd", "occu": 1}], "abc": [0.20243959, 0.5, 0.40487819], "properties": {"magmom": 0.0}, "label": "Nd", "xyz": [2.0673033658269446e-06, -7.221633505113988, 2.33537945]}, {"species": [{"element": "Sn", "occu": 1}], "abc": [0.6371878, 0.5, 0.274374599999999], "properties": {"magmom": -0.0}, "label": "Sn", "xyz": [2.30085066817372, -4.893898592839099, 2.33537945]}, {"species": [{"element": "Sn", "occu": 1}], "abc": [0.3628122, 0.5, 0.7256254], "properties": {"magmom": -0.0}, "label": "Sn", "xyz": [-2.6781737183512178e-06, -12.942659867160883, 2.33537945]}, {"species": [{"element": "Sn", "occu": 1}], "abc": [0.722186999999999, 0.0, 0.444372999999999], "properties": {"magmom": -0.0}, "label": "Sn", "xyz": [2.3008505797745475, -7.9260849925455625, 0.0]}, {"species": [{"element": "Sn", "occu": 1}], "abc": [0.277813, -0.0, 0.555627], "properties": {"magmom": -0.0}, "label": "Sn", "xyz": [-2.589774550143531e-06, -9.91047346745442, 0.0]}, {"species": [{"element": "Sn", "occu": 1}], "abc": [0.5, 0.5, -0.0], "properties": {"magmom": 0.0}, "label": "Sn", "xyz": [2.30084851, 0.0, 2.33537945]}, {"species": [{"element": "Sn", "occu": 1}], "abc": [0.5720466200000001, 0.0, 0.14409224], "properties": {"magmom": -0.0}, "label": "Sn", "xyz": [2.300850735920545, -2.5701096623923503, 0.0]}, {"species": [{"element": "Sn", "occu": 1}], "abc": [0.42795338, -0.0, 0.85590776], "properties": {"magmom": -0.0}, "label": "Sn", "xyz": [-2.745920545610403e-06, -15.26644879760765, 0.0]}, {"species": [{"element": "Sn", "occu": 1}], "abc": [0.86243286, 0.0, 0.72486573], "properties": {"magmom": -0.0}, "label": "Sn", "xyz": [2.3008481100613345, -12.929109968795576, 0.0]}, {"species": [{"element": "Sn", "occu": 1}], "abc": [0.13756714, 0.0, 0.27513427], "properties": {"magmom": -0.0}, "label": "Sn", "xyz": [-1.2006133542907804e-07, -4.907448491204424, 0.0]}, {"species": [{"element": "Sn", "occu": 1}], "abc": [-0.0, 0.0, -0.0], "properties": {"magmom": -0.0}, "label": "Sn", "xyz": [0.0, 0.0, 0.0]}]}, "task_ids": null, "uncorrected_energy_per_atom": null, "energy_per_atom": -4.762767688571431, "formation_energy_per_atom": -0.536459954285716, "energy_above_hull": 0.030724798571426, "is_stable": false, "equilibrium_reaction_energy_per_atom": null, "decomposes_to": null, "xas": null, "grain_boundaries": null, "band_gap": 0.0, "cbm": null, "vbm": null, "efermi": 7.14194193, "is_gap_direct": null, "is_metal": null, "es_source_calc_id": null, "bandstructure": null, "dos": null, "dos_energy_up": null, "dos_energy_down": null, "is_magnetic": null, "ordering": null, "total_magnetization": 1e-07, "total_magnetization_normalized_vol": null, "total_magnetization_normalized_formula_units": null, "num_magnetic_sites": null, "num_unique_magnetic_sites": null, "types_of_magnetic_species": null, "bulk_modulus": null, "shear_modulus": null, "universal_anisotropy": null, "homogeneous_poisson": null, "e_total": null, "e_ionic": null, "e_electronic": null, "n": null, "e_ij_max": null, "weighted_surface_energy_EV_PER_ANG2": null, "weighted_surface_energy": null, "weighted_work_function": null, "surface_anisotropy": null, "shape_factor": null, "has_reconstructed": null, "possible_species": null, "has_props": null, "theoretical": null, "database_IDs": null, "fields_not_requested": ["builder_meta", "nsites", "elements", "nelements", "composition", "composition_reduced", "chemsys", "symmetry", "property_name", "deprecated", "deprecation_reasons", "last_updated", "origins", "warnings", "task_ids", "uncorrected_energy_per_atom", "equilibrium_reaction_energy_per_atom", "decomposes_to", "xas", "grain_boundaries", "cbm", "vbm", "is_gap_direct", "is_metal", "es_source_calc_id", "bandstructure", "dos", "dos_energy_up", "dos_energy_down", "is_magnetic", "ordering", "total_magnetization_normalized_vol", "total_magnetization_normalized_formula_units", "num_magnetic_sites", "num_unique_magnetic_sites", "types_of_magnetic_species", "bulk_modulus", "shear_modulus", "universal_anisotropy", "homogeneous_poisson", "e_total", "e_ionic", "e_electronic", "n", "e_ij_max", "weighted_surface_energy_EV_PER_ANG2", "weighted_surface_energy", "weighted_work_function", "surface_anisotropy", "shape_factor", "has_reconstructed", "possible_species", "has_props", "theoretical", "database_IDs"]}