{
  "builder_meta": null,
  "nsites": null,
  "elements": null,
  "nelements": null,
  "composition": null,
  "composition_reduced": null,
  "formula_pretty": "Nd2Si3",
  "formula_anonymous": "A2B3",
  "chemsys": null,
  "volume": 118.15108917165746,
  "density": 5.238632722672297,
  "density_atomic": 23.630217834331493,
  "symmetry": null,
  "property_name": null,
  "material_id": "mp-1220308",
  "deprecated": null,
  "deprecation_reasons": null,
  "last_updated": null,
  "origins": null,
  "warnings": null,
  "structure": {
    "@module": "pymatgen.core.structure",
    "@class": "Structure",
    "charge": 0,
    "lattice": {
      "matrix": [
        [-1.97166308, 2.11002215, 7.09999462],
        [1.97166308, -2.11002215, 7.09999462],
        [1.97166308, 2.11002215, -7.09999462]
      ],
      "pbc": [true, true, true],
      "a": 7.664826963379842,
      "b": 7.664826963379842,
      "c": 7.664826963379842,
      "alpha": 150.18785992005894,
      "beta": 148.04184242103307,
      "gamma": 44.26698988337996,
      "volume": 118.15108917165746
    },
    "properties": {},
    "sites": [
      {
        "species": [{ "element": "Nd", "occu": 1 }],
        "abc": [0.12653676, 0.62653676, 0.5],
        "properties": { "magmom": -0.0 },
        "label": "Nd",
        "xyz": [1.97166308, 0.0, 1.7968206304644632]
      },
      {
        "species": [{ "element": "Nd", "occu": 1 }],
        "abc": [0.37384886, 0.37384886, -0.0],
        "properties": { "magmom": 0.0 },
        "label": "Nd",
        "xyz": [0.0, 0.0, 5.3086497893862665]
      },
      {
        "species": [{ "element": "Si", "occu": 1 }],
        "abc": [0.96208417, 0.96208417, 0.0],
        "properties": { "magmom": -0.0 },
        "label": "Si",
        "xyz": [0.0, 0.0, 13.661584861974331]
      },
      {
        "species": [{ "element": "Si", "occu": 1 }],
        "abc": [0.70351492, 0.20351492000000002, 0.5],
        "properties": { "magmom": 0.0 },
        "label": "Si",
        "xyz": [-2.220446049250313e-16, 2.11002215, 2.889909674179462]
      },
      {
        "species": [{ "element": "Si", "occu": 1 }],
        "abc": [0.79801628, 0.79801628, -0.0],
        "properties": { "magmom": -0.0 },
        "label": "Si",
        "xyz": [0.0, 0.0, 11.331822589344828]
      }
    ]
  },
  "task_ids": null,
  "uncorrected_energy_per_atom": null,
  "energy_per_atom": -17.711029602,
  "formation_energy_per_atom": -0.679567251999998,
  "energy_above_hull": 0.034265729000001,
  "is_stable": false,
  "equilibrium_reaction_energy_per_atom": null,
  "decomposes_to": null,
  "xas": null,
  "grain_boundaries": null,
  "band_gap": 0.0,
  "cbm": null,
  "vbm": null,
  "efermi": 5.16395317,
  "is_gap_direct": null,
  "is_metal": null,
  "es_source_calc_id": null,
  "bandstructure": null,
  "dos": null,
  "dos_energy_up": null,
  "dos_energy_down": null,
  "is_magnetic": null,
  "ordering": null,
  "total_magnetization": 0.0,
  "total_magnetization_normalized_vol": null,
  "total_magnetization_normalized_formula_units": null,
  "num_magnetic_sites": null,
  "num_unique_magnetic_sites": null,
  "types_of_magnetic_species": null,
  "bulk_modulus": null,
  "shear_modulus": null,
  "universal_anisotropy": null,
  "homogeneous_poisson": null,
  "e_total": null,
  "e_ionic": null,
  "e_electronic": null,
  "n": null,
  "e_ij_max": null,
  "weighted_surface_energy_EV_PER_ANG2": null,
  "weighted_surface_energy": null,
  "weighted_work_function": null,
  "surface_anisotropy": null,
  "shape_factor": null,
  "has_reconstructed": null,
  "possible_species": null,
  "has_props": null,
  "theoretical": null,
  "database_IDs": null,
  "fields_not_requested": [
    "builder_meta",
    "nsites",
    "elements",
    "nelements",
    "composition",
    "composition_reduced",
    "chemsys",
    "symmetry",
    "property_name",
    "deprecated",
    "deprecation_reasons",
    "last_updated",
    "origins",
    "warnings",
    "task_ids",
    "uncorrected_energy_per_atom",
    "equilibrium_reaction_energy_per_atom",
    "decomposes_to",
    "xas",
    "grain_boundaries",
    "cbm",
    "vbm",
    "is_gap_direct",
    "is_metal",
    "es_source_calc_id",
    "bandstructure",
    "dos",
    "dos_energy_up",
    "dos_energy_down",
    "is_magnetic",
    "ordering",
    "total_magnetization_normalized_vol",
    "total_magnetization_normalized_formula_units",
    "num_magnetic_sites",
    "num_unique_magnetic_sites",
    "types_of_magnetic_species",
    "bulk_modulus",
    "shear_modulus",
    "universal_anisotropy",
    "homogeneous_poisson",
    "e_total",
    "e_ionic",
    "e_electronic",
    "n",
    "e_ij_max",
    "weighted_surface_energy_EV_PER_ANG2",
    "weighted_surface_energy",
    "weighted_work_function",
    "surface_anisotropy",
    "shape_factor",
    "has_reconstructed",
    "possible_species",
    "has_props",
    "theoretical",
    "database_IDs"
  ]
}
