{
  "builder_meta": null,
  "nsites": null,
  "elements": null,
  "nelements": null,
  "composition": null,
  "composition_reduced": null,
  "formula_pretty": "Nd2Sn3",
  "formula_anonymous": "A2B3",
  "chemsys": null,
  "volume": 569.8738765458955,
  "density": 7.51328863407611,
  "density_atomic": 28.493693827294777,
  "symmetry": null,
  "property_name": null,
  "material_id": "mp-30290",
  "deprecated": null,
  "deprecation_reasons": null,
  "last_updated": null,
  "origins": null,
  "warnings": null,
  "structure": {
    "@module": "pymatgen.core.structure",
    "@class": "Structure",
    "charge": 0,
    "lattice": {
      "matrix": [
        [6.40552354, -0.00922016, -0.76565803],
        [-1.807506029999999, 7.95641917, -2.55306802],
        [-0.008936920000000001, -0.02554985, 11.19529011]
      ],
      "pbc": [true, true, true],
      "a": 6.451127734880782,
      "b": 8.549259638821162,
      "c": 11.19532283189895,
      "alpha": 107.4927185349595,
      "beta": 96.86180089996951,
      "gamma": 100.12608071583841,
      "volume": 569.8738765458957
    },
    "properties": {},
    "sites": [
      {
        "species": [{ "element": "Nd", "occu": 1 }],
        "abc": [0.04068994, 0.74624336, 0.94468409],
        "properties": { "magmom": -0.0 },
        "label": "Nd",
        "xyz": [-1.0966415706738755, 5.912913270435134, 8.639647812996785]
      },
      {
        "species": [{ "element": "Nd", "occu": 1 }],
        "abc": [0.9593100600000001, 0.25375664, 0.05531591],
        "properties": { "magmom": -0.0 },
        "label": "Nd",
        "xyz": [5.685722160673877, 2.0087358895648655, -0.7630837529967845]
      },
      {
        "species": [{ "element": "Nd", "occu": 1 }],
        "abc": [0.44421422, 0.56931751, 0.66401745],
        "properties": { "magmom": 0.0 },
        "label": "Nd",
        "xyz": [1.8104455398739, 4.508667477953109, 5.640245478262203]
      },
      {
        "species": [{ "element": "Nd", "occu": 1 }],
        "abc": [0.55578578, 0.43068249000000003, 0.33598355],
        "properties": { "magmom": 0.0 },
        "label": "Nd",
        "xyz": [2.778635041189181, 3.4129816564970414, 2.2363297770279074]
      },
      {
        "species": [{ "element": "Nd", "occu": 1 }],
        "abc": [0.66854997, 0.96554832, 0.25457224],
        "properties": { "magmom": 0.0 },
        "label": "Nd",
        "xyz": [2.534903068101825, 7.669638742571736, -0.1269811097909388]
      },
      {
        "species": [{ "element": "Nd", "occu": 1 }],
        "abc": [0.33145003, 0.03445168, 0.74542776],
        "properties": { "magmom": 0.0 },
        "label": "Nd",
        "xyz": [2.0541775218981764, 0.2520104174282648, 8.00354516979094]
      },
      {
        "species": [{ "element": "Nd", "occu": 1 }],
        "abc": [0.8723483, 0.24893617, 0.61854895],
        "properties": { "magmom": -0.0 },
        "label": "Nd",
        "xyz": [5.132366019886642, 1.9567934913024936, 5.621363486985752]
      },
      {
        "species": [{ "element": "Nd", "occu": 1 }],
        "abc": [0.1276507, 0.75106383, 0.38145105],
        "properties": { "magmom": -0.0 },
        "label": "Nd",
        "xyz": [-0.5432918354101821, 5.964855677917667, 2.2552013386722782]
      },
      {
        "species": [{ "element": "Sn", "occu": 1 }],
        "abc": [0.56165547, 0.83334767, 0.94689064],
        "properties": { "magmom": -0.0 },
        "label": "Sn",
        "xyz": [2.082954109944886, 6.601091909746154, 8.043086110726133]
      },
      {
        "species": [{ "element": "Sn", "occu": 1 }],
        "abc": [0.43834453, 0.16665233000000002, 0.05310936],
        "properties": { "magmom": -0.0 },
        "label": "Sn",
        "xyz": [2.5061264800551153, 1.3205572502538454, -0.1665220507261329]
      },
      {
        "species": [{ "element": "Sn", "occu": 1 }],
        "abc": [0.64602156, 0.83542198, 0.50197504],
        "properties": { "magmom": 0.0 },
        "label": "Sn",
        "xyz": [2.623589932708507, 6.628185647588963, 2.9922354654686485]
      },
      {
        "species": [{ "element": "Sn", "occu": 1 }],
        "abc": [0.35397844, 0.16457802, 0.49802496],
        "properties": { "magmom": 0.0 },
        "label": "Sn",
        "xyz": [1.965490657291494, 1.293463512411037, 4.884328594531352]
      },
      {
        "species": [{ "element": "Sn", "occu": 1 }],
        "abc": [0.67340615, 0.39912984, 0.86252512],
        "properties": { "magmom": -0.0 },
        "label": "Sn",
        "xyz": [3.5843810352574055, 3.147398010409817, 8.121614489031963]
      },
      {
        "species": [{ "element": "Sn", "occu": 1 }],
        "abc": [0.32659385, 0.60087116, 0.13747488],
        "properties": { "magmom": -0.0 },
        "label": "Sn",
        "xyz": [1.0046977472365655, 4.774259106009352, -0.24505298209998183]
      },
      {
        "species": [{ "element": "Sn", "occu": 1 }],
        "abc": [0.7762765500000001, 0.5935967, 0.13569918],
        "properties": { "magmom": 0.0 },
        "label": "Sn",
        "xyz": [3.898315367221161, 4.712279675439367, -0.5906634377666209]
      },
      {
        "species": [{ "element": "Sn", "occu": 1 }],
        "abc": [0.22372345000000002, 0.406403299999999, 0.86430082],
        "properties": { "magmom": 0.0 },
        "label": "Sn",
        "xyz": [0.6907652227788419, 3.209369484560624, 8.467227497766622]
      },
      {
        "species": [{ "element": "Sn", "occu": 1 }],
        "abc": [0.04663615, 0.35220707, 0.38146471],
        "properties": { "magmom": -0.0 },
        "label": "Sn",
        "xyz": [-0.3412965657897539, 2.7921307246719542, 3.3356921456063318]
      },
      {
        "species": [{ "element": "Sn", "occu": 1 }],
        "abc": [0.95336385, 0.64779293, 0.61853529],
        "properties": { "magmom": -0.0 },
        "label": "Sn",
        "xyz": [4.930377155789754, 5.129518435328046, 4.5408719143936676]
      },
      {
        "species": [{ "element": "Sn", "occu": 1 }],
        "abc": [0.17739965, 0.04040278, 0.22329509],
        "properties": { "magmom": -0.0 },
        "label": "Sn",
        "xyz": [1.0613137952282747, 0.3141206441011121, 2.2608748006097747]
      },
      {
        "species": [{ "element": "Sn", "occu": 1 }],
        "abc": [0.82260135, 0.95959722, 0.77670591],
        "properties": { "magmom": -0.0 },
        "label": "Sn",
        "xyz": [3.5277731913583468, 7.607528481128879, 5.615699689022305]
      }
    ]
  },
  "task_ids": null,
  "uncorrected_energy_per_atom": null,
  "energy_per_atom": -5.012875432000004,
  "formation_energy_per_atom": -0.6998733460000031,
  "energy_above_hull": 0.0,
  "is_stable": true,
  "equilibrium_reaction_energy_per_atom": null,
  "decomposes_to": null,
  "xas": null,
  "grain_boundaries": null,
  "band_gap": 0.0,
  "cbm": null,
  "vbm": null,
  "efermi": 6.34707192,
  "is_gap_direct": null,
  "is_metal": null,
  "es_source_calc_id": null,
  "bandstructure": null,
  "dos": null,
  "dos_energy_up": null,
  "dos_energy_down": null,
  "is_magnetic": null,
  "ordering": null,
  "total_magnetization": 4e-7,
  "total_magnetization_normalized_vol": null,
  "total_magnetization_normalized_formula_units": null,
  "num_magnetic_sites": null,
  "num_unique_magnetic_sites": null,
  "types_of_magnetic_species": null,
  "bulk_modulus": null,
  "shear_modulus": null,
  "universal_anisotropy": null,
  "homogeneous_poisson": null,
  "e_total": null,
  "e_ionic": null,
  "e_electronic": null,
  "n": null,
  "e_ij_max": null,
  "weighted_surface_energy_EV_PER_ANG2": null,
  "weighted_surface_energy": null,
  "weighted_work_function": null,
  "surface_anisotropy": null,
  "shape_factor": null,
  "has_reconstructed": null,
  "possible_species": null,
  "has_props": null,
  "theoretical": null,
  "database_IDs": null,
  "fields_not_requested": [
    "builder_meta",
    "nsites",
    "elements",
    "nelements",
    "composition",
    "composition_reduced",
    "chemsys",
    "symmetry",
    "property_name",
    "deprecated",
    "deprecation_reasons",
    "last_updated",
    "origins",
    "warnings",
    "task_ids",
    "uncorrected_energy_per_atom",
    "equilibrium_reaction_energy_per_atom",
    "decomposes_to",
    "xas",
    "grain_boundaries",
    "cbm",
    "vbm",
    "is_gap_direct",
    "is_metal",
    "es_source_calc_id",
    "bandstructure",
    "dos",
    "dos_energy_up",
    "dos_energy_down",
    "is_magnetic",
    "ordering",
    "total_magnetization_normalized_vol",
    "total_magnetization_normalized_formula_units",
    "num_magnetic_sites",
    "num_unique_magnetic_sites",
    "types_of_magnetic_species",
    "bulk_modulus",
    "shear_modulus",
    "universal_anisotropy",
    "homogeneous_poisson",
    "e_total",
    "e_ionic",
    "e_electronic",
    "n",
    "e_ij_max",
    "weighted_surface_energy_EV_PER_ANG2",
    "weighted_surface_energy",
    "weighted_work_function",
    "surface_anisotropy",
    "shape_factor",
    "has_reconstructed",
    "possible_species",
    "has_props",
    "theoretical",
    "database_IDs"
  ]
}
