{
  "builder_meta": null,
  "nsites": null,
  "elements": null,
  "nelements": null,
  "composition": null,
  "composition_reduced": null,
  "formula_pretty": "Nd2Sb",
  "formula_anonymous": "AB2",
  "chemsys": null,
  "volume": 185.9891804624308,
  "density": 7.325438900741387,
  "density_atomic": 30.998196743738465,
  "symmetry": null,
  "property_name": null,
  "material_id": "mp-12049",
  "deprecated": null,
  "deprecation_reasons": null,
  "last_updated": null,
  "origins": null,
  "warnings": null,
  "structure": {
    "@module": "pymatgen.core.structure",
    "@class": "Structure",
    "charge": 0,
    "lattice": {
      "matrix": [
        [4.42981951, -0.000247, -1.10133306],
        [-0.27410575, 4.42133096, -1.10133232],
        [0.008400699999999001, 0.00893581, 9.49175366]
      ],
      "pbc": [true, true, true],
      "a": 4.564672546988952,
      "b": 4.5646724196939,
      "c": 9.491761583741146,
      "alpha": 103.91098244567888,
      "beta": 103.91098360237741,
      "gamma": 90.00659233320772,
      "volume": 185.9891804624308
    },
    "properties": {},
    "sites": [
      {
        "species": [{ "element": "Nd", "occu": 1 }],
        "abc": [0.1799144, 0.17991439, 0.359817699999999],
        "properties": { "magmom": 0.17400000000000002 },
        "label": "Nd",
        "xyz": [0.7506954709955911, 0.7986318864015514, 3.019009761677624]
      },
      {
        "species": [{ "element": "Nd", "occu": 1 }],
        "abc": [0.82006046, 0.82006048, 0.64013443],
        "properties": { "magmom": 0.17400000000000002 },
        "label": "Nd",
        "xyz": [3.413314109477915, 3.6312763540037785, 4.269679512068993]
      },
      {
        "species": [{ "element": "Nd", "occu": 1 }],
        "abc": [1.9e-5, 0.50001925, 1.00003258],
        "properties": { "magmom": 0.257 },
        "label": "Nd",
        "xyz": [-0.12857301127019252, 2.2196866870566696, 8.941354615358943]
      },
      {
        "species": [{ "element": "Nd", "occu": 1 }],
        "abc": [0.50001925, 1.000019, 1.00003257],
        "properties": { "magmom": 0.257 },
        "label": "Nd",
        "xyz": [1.9492850446271153, 4.4302275615728215, 7.840021830441222]
      },
      {
        "species": [{ "element": "Sb", "occu": 1 }],
        "abc": [0.6379376800000001, 0.6379376800000001, 0.27611502],
        "properties": { "magmom": -0.025 },
        "label": "Sb",
        "xyz": [2.6534059542469906, 2.822843355884479, 1.2156525093324548]
      },
      {
        "species": [{ "element": "Sb", "occu": 1 }],
        "abc": [0.362049199999999, 0.362049199999999, 0.7238677],
        "properties": { "magmom": -0.025 },
        "label": "Sb",
        "xyz": [1.510653837624377, 1.6071182550831644, 6.073300652134089]
      }
    ]
  },
  "task_ids": null,
  "uncorrected_energy_per_atom": null,
  "energy_per_atom": -29.194036645,
  "formation_energy_per_atom": -1.013258746666669,
  "energy_above_hull": 0.0,
  "is_stable": true,
  "equilibrium_reaction_energy_per_atom": null,
  "decomposes_to": null,
  "xas": null,
  "grain_boundaries": null,
  "band_gap": 0.0,
  "cbm": null,
  "vbm": null,
  "efermi": 4.9589581,
  "is_gap_direct": null,
  "is_metal": null,
  "es_source_calc_id": null,
  "bandstructure": null,
  "dos": null,
  "dos_energy_up": null,
  "dos_energy_down": null,
  "is_magnetic": null,
  "ordering": null,
  "total_magnetization": 1.6713662,
  "total_magnetization_normalized_vol": null,
  "total_magnetization_normalized_formula_units": null,
  "num_magnetic_sites": null,
  "num_unique_magnetic_sites": null,
  "types_of_magnetic_species": null,
  "bulk_modulus": null,
  "shear_modulus": null,
  "universal_anisotropy": null,
  "homogeneous_poisson": null,
  "e_total": null,
  "e_ionic": null,
  "e_electronic": null,
  "n": null,
  "e_ij_max": null,
  "weighted_surface_energy_EV_PER_ANG2": null,
  "weighted_surface_energy": null,
  "weighted_work_function": null,
  "surface_anisotropy": null,
  "shape_factor": null,
  "has_reconstructed": null,
  "possible_species": null,
  "has_props": null,
  "theoretical": null,
  "database_IDs": null,
  "fields_not_requested": [
    "builder_meta",
    "nsites",
    "elements",
    "nelements",
    "composition",
    "composition_reduced",
    "chemsys",
    "symmetry",
    "property_name",
    "deprecated",
    "deprecation_reasons",
    "last_updated",
    "origins",
    "warnings",
    "task_ids",
    "uncorrected_energy_per_atom",
    "equilibrium_reaction_energy_per_atom",
    "decomposes_to",
    "xas",
    "grain_boundaries",
    "cbm",
    "vbm",
    "is_gap_direct",
    "is_metal",
    "es_source_calc_id",
    "bandstructure",
    "dos",
    "dos_energy_up",
    "dos_energy_down",
    "is_magnetic",
    "ordering",
    "total_magnetization_normalized_vol",
    "total_magnetization_normalized_formula_units",
    "num_magnetic_sites",
    "num_unique_magnetic_sites",
    "types_of_magnetic_species",
    "bulk_modulus",
    "shear_modulus",
    "universal_anisotropy",
    "homogeneous_poisson",
    "e_total",
    "e_ionic",
    "e_electronic",
    "n",
    "e_ij_max",
    "weighted_surface_energy_EV_PER_ANG2",
    "weighted_surface_energy",
    "weighted_work_function",
    "surface_anisotropy",
    "shape_factor",
    "has_reconstructed",
    "possible_species",
    "has_props",
    "theoretical",
    "database_IDs"
  ]
}
