{
  "builder_meta": null,
  "nsites": null,
  "elements": null,
  "nelements": null,
  "composition": null,
  "composition_reduced": null,
  "formula_pretty": "Nd2S3",
  "formula_anonymous": "A2B3",
  "chemsys": null,
  "volume": 477.1530517042118,
  "density": 5.354881460522223,
  "density_atomic": 23.85765258521059,
  "symmetry": null,
  "property_name": null,
  "material_id": "mp-438",
  "deprecated": null,
  "deprecation_reasons": null,
  "last_updated": null,
  "origins": null,
  "warnings": null,
  "structure": {
    "@module": "pymatgen.core.structure",
    "@class": "Structure",
    "charge": 0,
    "lattice": {
      "matrix": [
        [4.05422156, 0.0, 0.0],
        [-0.0, 7.51249909, 0.0],
        [0.0, 0.0, 15.66627676]
      ],
      "pbc": [true, true, true],
      "a": 4.05422156,
      "b": 7.51249909,
      "c": 15.66627676,
      "alpha": 90.0,
      "beta": 90.0,
      "gamma": 90.0,
      "volume": 477.1530517042118
    },
    "properties": {},
    "sites": [
      {
        "species": [{ "element": "Nd", "occu": 1 }],
        "abc": [0.75, 0.7351598500000001, 0.04415771],
        "properties": { "magmom": -0.0 },
        "label": "Nd",
        "xyz": [3.04066617, 5.522887704129537, 0.6917869059478197]
      },
      {
        "species": [{ "element": "Nd", "occu": 1 }],
        "abc": [0.25, 0.26484015, 0.95584229],
        "properties": { "magmom": -0.0 },
        "label": "Nd",
        "xyz": [1.01355539, 1.9896113858704636, 14.97448985405218]
      },
      {
        "species": [{ "element": "Nd", "occu": 1 }],
        "abc": [0.75, 0.23515985, 0.45584229],
        "properties": { "magmom": -0.0 },
        "label": "Nd",
        "xyz": [3.04066617, 1.7666381591295366, 7.14135147405218]
      },
      {
        "species": [{ "element": "Nd", "occu": 1 }],
        "abc": [0.25, 0.76484015, 0.54415771],
        "properties": { "magmom": -0.0 },
        "label": "Nd",
        "xyz": [1.01355539, 5.745860930870464, 8.52492528594782]
      },
      {
        "species": [{ "element": "Nd", "occu": 1 }],
        "abc": [0.25, 0.64485735, 0.29573608],
        "properties": { "magmom": 0.0 },
        "label": "Nd",
        "xyz": [1.01355539, 4.8444902550548115, 4.6330832771975015]
      },
      {
        "species": [{ "element": "Nd", "occu": 1 }],
        "abc": [0.75, 0.35514265, 0.70426392],
        "properties": { "magmom": 0.0 },
        "label": "Nd",
        "xyz": [3.04066617, 2.6680088349451885, 11.033193482802501]
      },
      {
        "species": [{ "element": "Nd", "occu": 1 }],
        "abc": [0.25, 0.14485735, 0.20426392000000002],
        "properties": { "magmom": 0.0 },
        "label": "Nd",
        "xyz": [1.01355539, 1.0882407100548115, 3.2000551028024997]
      },
      {
        "species": [{ "element": "Nd", "occu": 1 }],
        "abc": [0.75, 0.85514265, 0.7957360800000001],
        "properties": { "magmom": 0.0 },
        "label": "Nd",
        "xyz": [3.04066617, 6.424258379945189, 12.466221657197503]
      },
      {
        "species": [{ "element": "S", "occu": 1 }],
        "abc": [0.25, 0.50979264, 0.10908145],
        "properties": { "magmom": 0.0 },
        "label": "S",
        "xyz": [1.01355539, 3.829816744088698, 1.708900185082102]
      },
      {
        "species": [{ "element": "S", "occu": 1 }],
        "abc": [0.75, 0.49020736000000004, 0.89091855],
        "properties": { "magmom": 0.0 },
        "label": "S",
        "xyz": [3.04066617, 3.682682345911303, 13.957376574917898]
      },
      {
        "species": [{ "element": "S", "occu": 1 }],
        "abc": [0.25, 0.00979264, 0.39091855000000003],
        "properties": { "magmom": 0.0 },
        "label": "S",
        "xyz": [1.01355539, 0.0735671990886976, 6.124238194917899]
      },
      {
        "species": [{ "element": "S", "occu": 1 }],
        "abc": [0.75, 0.99020736, 0.60908145],
        "properties": { "magmom": 0.0 },
        "label": "S",
        "xyz": [3.04066617, 7.438931890911302, 9.542038565082104]
      },
      {
        "species": [{ "element": "S", "occu": 1 }],
        "abc": [0.75, 0.85390063, 0.21889337],
        "properties": { "magmom": -0.0 },
        "label": "S",
        "xyz": [3.04066617, 6.414927705825427, 3.4292441153490816]
      },
      {
        "species": [{ "element": "S", "occu": 1 }],
        "abc": [0.25, 0.14609937, 0.78110663],
        "properties": { "magmom": -0.0 },
        "label": "S",
        "xyz": [1.01355539, 1.0975713841745733, 12.23703264465092]
      },
      {
        "species": [{ "element": "S", "occu": 1 }],
        "abc": [0.75, 0.35390063, 0.28110663],
        "properties": { "magmom": -0.0 },
        "label": "S",
        "xyz": [3.04066617, 2.658678160825427, 4.403894264650919]
      },
      {
        "species": [{ "element": "S", "occu": 1 }],
        "abc": [0.25, 0.6460993700000001, 0.71889337],
        "properties": { "magmom": -0.0 },
        "label": "S",
        "xyz": [1.01355539, 4.853820929174574, 11.262382495349081]
      },
      {
        "species": [{ "element": "S", "occu": 1 }],
        "abc": [0.25, 0.87361945, 0.93275149],
        "properties": { "magmom": 0.0 },
        "label": "S",
        "xyz": [1.01355539, 6.5630653231313, 14.612742990642372]
      },
      {
        "species": [{ "element": "S", "occu": 1 }],
        "abc": [0.75, 0.12638055, 0.06724851],
        "properties": { "magmom": 0.0 },
        "label": "S",
        "xyz": [3.04066617, 0.9494337668686996, 1.0535337693576277]
      },
      {
        "species": [{ "element": "S", "occu": 1 }],
        "abc": [0.25, 0.37361945, 0.56724851],
        "properties": { "magmom": 0.0 },
        "label": "S",
        "xyz": [1.01355539, 2.806815778131301, 8.886672149357628]
      },
      {
        "species": [{ "element": "S", "occu": 1 }],
        "abc": [0.75, 0.62638055, 0.43275149],
        "properties": { "magmom": 0.0 },
        "label": "S",
        "xyz": [3.04066617, 4.7056833118687, 6.779604610642373]
      }
    ]
  },
  "task_ids": null,
  "uncorrected_energy_per_atom": null,
  "energy_per_atom": -18.964208261,
  "formation_energy_per_atom": -2.376005218687498,
  "energy_above_hull": 0.0,
  "is_stable": true,
  "equilibrium_reaction_energy_per_atom": null,
  "decomposes_to": null,
  "xas": null,
  "grain_boundaries": null,
  "band_gap": 0.759599999999999,
  "cbm": null,
  "vbm": null,
  "efermi": 3.84391457,
  "is_gap_direct": null,
  "is_metal": null,
  "es_source_calc_id": null,
  "bandstructure": null,
  "dos": null,
  "dos_energy_up": null,
  "dos_energy_down": null,
  "is_magnetic": null,
  "ordering": null,
  "total_magnetization": 0.0,
  "total_magnetization_normalized_vol": null,
  "total_magnetization_normalized_formula_units": null,
  "num_magnetic_sites": null,
  "num_unique_magnetic_sites": null,
  "types_of_magnetic_species": null,
  "bulk_modulus": null,
  "shear_modulus": null,
  "universal_anisotropy": null,
  "homogeneous_poisson": null,
  "e_total": null,
  "e_ionic": null,
  "e_electronic": null,
  "n": null,
  "e_ij_max": null,
  "weighted_surface_energy_EV_PER_ANG2": null,
  "weighted_surface_energy": null,
  "weighted_work_function": null,
  "surface_anisotropy": null,
  "shape_factor": null,
  "has_reconstructed": null,
  "possible_species": null,
  "has_props": null,
  "theoretical": null,
  "database_IDs": null,
  "fields_not_requested": [
    "builder_meta",
    "nsites",
    "elements",
    "nelements",
    "composition",
    "composition_reduced",
    "chemsys",
    "symmetry",
    "property_name",
    "deprecated",
    "deprecation_reasons",
    "last_updated",
    "origins",
    "warnings",
    "task_ids",
    "uncorrected_energy_per_atom",
    "equilibrium_reaction_energy_per_atom",
    "decomposes_to",
    "xas",
    "grain_boundaries",
    "cbm",
    "vbm",
    "is_gap_direct",
    "is_metal",
    "es_source_calc_id",
    "bandstructure",
    "dos",
    "dos_energy_up",
    "dos_energy_down",
    "is_magnetic",
    "ordering",
    "total_magnetization_normalized_vol",
    "total_magnetization_normalized_formula_units",
    "num_magnetic_sites",
    "num_unique_magnetic_sites",
    "types_of_magnetic_species",
    "bulk_modulus",
    "shear_modulus",
    "universal_anisotropy",
    "homogeneous_poisson",
    "e_total",
    "e_ionic",
    "e_electronic",
    "n",
    "e_ij_max",
    "weighted_surface_energy_EV_PER_ANG2",
    "weighted_surface_energy",
    "weighted_work_function",
    "surface_anisotropy",
    "shape_factor",
    "has_reconstructed",
    "possible_species",
    "has_props",
    "theoretical",
    "database_IDs"
  ]
}
