{
  "builder_meta": null,
  "nsites": null,
  "elements": null,
  "nelements": null,
  "composition": null,
  "composition_reduced": null,
  "formula_pretty": "Nd2Te3",
  "formula_anonymous": "A2B3",
  "chemsys": null,
  "volume": 662.2318971364537,
  "density": 6.7329484526706835,
  "density_atomic": 33.111594856822684,
  "symmetry": null,
  "property_name": null,
  "material_id": "mp-16380",
  "deprecated": null,
  "deprecation_reasons": null,
  "last_updated": null,
  "origins": null,
  "warnings": null,
  "structure": {
    "@module": "pymatgen.core.structure",
    "@class": "Structure",
    "charge": 0,
    "lattice": {
      "matrix": [
        [4.43785769, -0.0, 0.0],
        [-0.0, 12.07679838, 0.0],
        [0.0, 0.0, 12.35619939]
      ],
      "pbc": [true, true, true],
      "a": 4.43785769,
      "b": 12.07679838,
      "c": 12.35619939,
      "alpha": 90.0,
      "beta": 90.0,
      "gamma": 90.0,
      "volume": 662.2318971364537
    },
    "properties": {},
    "sites": [
      {
        "species": [{ "element": "Nd", "occu": 1 }],
        "abc": [0.25, 0.49831779, 0.6960545],
        "properties": { "magmom": 0.0 },
        "label": "Nd",
        "xyz": [1.1094644225, 6.0180834789971795, 8.600588188306755]
      },
      {
        "species": [{ "element": "Nd", "occu": 1 }],
        "abc": [0.75, 0.50168221, 0.3039455],
        "properties": { "magmom": 0.0 },
        "label": "Nd",
        "xyz": [3.3283932675, 6.05871490100282, 3.755611201693245]
      },
      {
        "species": [{ "element": "Nd", "occu": 1 }],
        "abc": [0.75, 0.99831779, 0.8039455],
        "properties": { "magmom": 0.0 },
        "label": "Nd",
        "xyz": [3.3283932675, 12.05648266899718, 9.933710896693245]
      },
      {
        "species": [{ "element": "Nd", "occu": 1 }],
        "abc": [0.25, 0.00168221, 0.1960545],
        "properties": { "magmom": 0.0 },
        "label": "Nd",
        "xyz": [1.1094644225, 0.0203157110028198, 2.422488493306755]
      },
      {
        "species": [{ "element": "Nd", "occu": 1 }],
        "abc": [0.25, 0.18755665, 0.51616751],
        "properties": { "magmom": -0.0 },
        "label": "Nd",
        "xyz": [1.1094644225, 2.265083846878227, 6.37786867219982]
      },
      {
        "species": [{ "element": "Nd", "occu": 1 }],
        "abc": [0.75, 0.81244335, 0.48383249],
        "properties": { "magmom": -0.0 },
        "label": "Nd",
        "xyz": [3.3283932675, 9.811714533121773, 5.978330717800182]
      },
      {
        "species": [{ "element": "Nd", "occu": 1 }],
        "abc": [0.75, 0.68755665, 0.9838324900000001],
        "properties": { "magmom": -0.0 },
        "label": "Nd",
        "xyz": [3.3283932675, 8.303483036878227, 12.156430412800182]
      },
      {
        "species": [{ "element": "Nd", "occu": 1 }],
        "abc": [0.25, 0.31244335, 0.01616751],
        "properties": { "magmom": -0.0 },
        "label": "Nd",
        "xyz": [1.1094644225, 3.773315343121773, 0.1997689771998189]
      },
      {
        "species": [{ "element": "Te", "occu": 1 }],
        "abc": [0.25, 0.87642475, 0.95731846],
        "properties": { "magmom": 0.0 },
        "label": "Te",
        "xyz": [1.1094644225, 10.584405000991904, 11.82881777148774]
      },
      {
        "species": [{ "element": "Te", "occu": 1 }],
        "abc": [0.75, 0.12357525, 0.042681540000000004],
        "properties": { "magmom": 0.0 },
        "label": "Te",
        "xyz": [3.3283932675, 1.492393379008095, 0.5273816185122606]
      },
      {
        "species": [{ "element": "Te", "occu": 1 }],
        "abc": [0.75, 0.37642475000000003, 0.54268154],
        "properties": { "magmom": 0.0 },
        "label": "Te",
        "xyz": [3.3283932675, 4.546005810991905, 6.705481313512261]
      },
      {
        "species": [{ "element": "Te", "occu": 1 }],
        "abc": [0.25, 0.62357525, 0.45731846],
        "properties": { "magmom": 0.0 },
        "label": "Te",
        "xyz": [1.1094644225, 7.530792569008095, 5.650718076487739]
      },
      {
        "species": [{ "element": "Te", "occu": 1 }],
        "abc": [0.25, 0.19728067, 0.77442473],
        "properties": { "magmom": -0.0 },
        "label": "Te",
        "xyz": [1.1094644225, 2.3825188758613143, 9.568946376426915]
      },
      {
        "species": [{ "element": "Te", "occu": 1 }],
        "abc": [0.75, 0.8027193300000001, 0.22557527],
        "properties": { "magmom": -0.0 },
        "label": "Te",
        "xyz": [3.3283932675, 9.694279504138686, 2.7872530135730855]
      },
      {
        "species": [{ "element": "Te", "occu": 1 }],
        "abc": [0.75, 0.69728067, 0.72557527],
        "properties": { "magmom": -0.0 },
        "label": "Te",
        "xyz": [3.3283932675, 8.420918065861315, 8.965352708573086]
      },
      {
        "species": [{ "element": "Te", "occu": 1 }],
        "abc": [0.25, 0.30271933, 0.27442473],
        "properties": { "magmom": -0.0 },
        "label": "Te",
        "xyz": [1.1094644225, 3.6558803141386855, 3.3908466814269147]
      },
      {
        "species": [{ "element": "Te", "occu": 1 }],
        "abc": [0.25, 0.55691784, 0.11854629],
        "properties": { "magmom": -0.0 },
        "label": "Te",
        "xyz": [1.1094644225, 6.725784467905099, 1.4647815961847632]
      },
      {
        "species": [{ "element": "Te", "occu": 1 }],
        "abc": [0.75, 0.44308216, 0.8814537100000001],
        "properties": { "magmom": -0.0 },
        "label": "Te",
        "xyz": [3.3283932675, 5.351013912094901, 10.891417793815238]
      },
      {
        "species": [{ "element": "Te", "occu": 1 }],
        "abc": [0.75, 0.056917840000000004, 0.38145371],
        "properties": { "magmom": -0.0 },
        "label": "Te",
        "xyz": [3.3283932675, 0.6873852779050992, 4.713318098815237]
      },
      {
        "species": [{ "element": "Te", "occu": 1 }],
        "abc": [0.25, 0.94308216, 0.61854629],
        "properties": { "magmom": -0.0 },
        "label": "Te",
        "xyz": [1.1094644225, 11.3894131020949, 7.642881291184764]
      }
    ]
  },
  "task_ids": null,
  "uncorrected_energy_per_atom": null,
  "energy_per_atom": -28.750197366000002,
  "formation_energy_per_atom": -1.732659186999995,
  "energy_above_hull": 0.0,
  "is_stable": true,
  "equilibrium_reaction_energy_per_atom": null,
  "decomposes_to": null,
  "xas": null,
  "grain_boundaries": null,
  "band_gap": 0.0,
  "cbm": null,
  "vbm": null,
  "efermi": 4.98741235,
  "is_gap_direct": null,
  "is_metal": null,
  "es_source_calc_id": null,
  "bandstructure": null,
  "dos": null,
  "dos_energy_up": null,
  "dos_energy_down": null,
  "is_magnetic": null,
  "ordering": null,
  "total_magnetization": 0.0,
  "total_magnetization_normalized_vol": null,
  "total_magnetization_normalized_formula_units": null,
  "num_magnetic_sites": null,
  "num_unique_magnetic_sites": null,
  "types_of_magnetic_species": null,
  "bulk_modulus": null,
  "shear_modulus": null,
  "universal_anisotropy": null,
  "homogeneous_poisson": null,
  "e_total": null,
  "e_ionic": null,
  "e_electronic": null,
  "n": null,
  "e_ij_max": null,
  "weighted_surface_energy_EV_PER_ANG2": null,
  "weighted_surface_energy": null,
  "weighted_work_function": null,
  "surface_anisotropy": null,
  "shape_factor": null,
  "has_reconstructed": null,
  "possible_species": null,
  "has_props": null,
  "theoretical": null,
  "database_IDs": null,
  "fields_not_requested": [
    "builder_meta",
    "nsites",
    "elements",
    "nelements",
    "composition",
    "composition_reduced",
    "chemsys",
    "symmetry",
    "property_name",
    "deprecated",
    "deprecation_reasons",
    "last_updated",
    "origins",
    "warnings",
    "task_ids",
    "uncorrected_energy_per_atom",
    "equilibrium_reaction_energy_per_atom",
    "decomposes_to",
    "xas",
    "grain_boundaries",
    "cbm",
    "vbm",
    "is_gap_direct",
    "is_metal",
    "es_source_calc_id",
    "bandstructure",
    "dos",
    "dos_energy_up",
    "dos_energy_down",
    "is_magnetic",
    "ordering",
    "total_magnetization_normalized_vol",
    "total_magnetization_normalized_formula_units",
    "num_magnetic_sites",
    "num_unique_magnetic_sites",
    "types_of_magnetic_species",
    "bulk_modulus",
    "shear_modulus",
    "universal_anisotropy",
    "homogeneous_poisson",
    "e_total",
    "e_ionic",
    "e_electronic",
    "n",
    "e_ij_max",
    "weighted_surface_energy_EV_PER_ANG2",
    "weighted_surface_energy",
    "weighted_work_function",
    "surface_anisotropy",
    "shape_factor",
    "has_reconstructed",
    "possible_species",
    "has_props",
    "theoretical",
    "database_IDs"
  ]
}
