{"builder_meta": null, "nsites": null, "elements": null, "nelements": null, "composition": null, "composition_reduced": null, "formula_pretty": "Nd2Tl", "formula_anonymous": "AB2", "chemsys": null, "volume": 185.63576697527648, "density": 8.817540063910878, "density_atomic": 30.939294495879412, "symmetry": null, "property_name": null, "material_id": "mp-2816", "deprecated": null, "deprecation_reasons": null, "last_updated": null, "origins": null, "warnings": null, "structure": {"@module": "pymatgen.core.structure", "@class": "Structure", "charge": 0, "lattice": {"matrix": [[5.56792251, 1.06e-06, 0.0], [-2.7839597, 4.82196294, -0.0], [0.0, -0.0, 6.91424172]], "pbc": [true, true, true], "a": 5.5679225100001, "b": 5.567922252147342, "c": 6.91424172, "alpha": 90.0, "beta": 90.0, "gamma": 119.99997214727811, "volume": 185.63576697527648}, "properties": {}, "sites": [{"species": [{"element": "Nd", "occu": 1}], "abc": [-0.0, -0.0, -0.0], "properties": {"magmom": 0.36}, "label": "Nd", "xyz": [0.0, 0.0, 0.0]}, {"species": [{"element": "Nd", "occu": 1}], "abc": [-0.0, -0.0, 0.5], "properties": {"magmom": 0.36}, "label": "Nd", "xyz": [0.0, 0.0, 3.45712086]}, {"species": [{"element": "Nd", "occu": 1}], "abc": [0.333333, 0.666667, 0.74998571], "properties": {"magmom": 0.179}, "label": "Nd", "xyz": [-1.7472940700979933e-06, 3.21464392065396, 5.1855824854858215]}, {"species": [{"element": "Nd", "occu": 1}], "abc": [0.666667, 0.333333, 0.25001429000000003], "properties": {"magmom": 0.179}, "label": "Nd", "xyz": [2.78396455729407, 1.6073200793460398, 1.728659234514179]}, {"species": [{"element": "Tl", "occu": 1}], "abc": [0.333333, 0.666667, 0.25001605], "properties": {"magmom": -0.038}, "label": "Tl", "xyz": [-1.7472940700979933e-06, 3.21464392065396, 1.7286714035796058]}, {"species": [{"element": "Tl", "occu": 1}], "abc": [0.666667, 0.333333, 0.7499839500000001], "properties": {"magmom": -0.038}, "label": "Tl", "xyz": [2.78396455729407, 1.6073200793460398, 5.185570316420394]}]}, "task_ids": null, "uncorrected_energy_per_atom": null, "energy_per_atom": -4.233882038333334, "formation_energy_per_atom": -0.26462637777778003, "energy_above_hull": 0.015833839722221, "is_stable": false, "equilibrium_reaction_energy_per_atom": null, "decomposes_to": null, "xas": null, "grain_boundaries": null, "band_gap": 0.0, "cbm": null, "vbm": null, "efermi": 4.5984334, "is_gap_direct": null, "is_metal": null, "es_source_calc_id": null, "bandstructure": null, "dos": null, "dos_energy_up": null, "dos_energy_down": null, "is_magnetic": null, "ordering": null, "total_magnetization": 1.9120868, "total_magnetization_normalized_vol": null, "total_magnetization_normalized_formula_units": null, "num_magnetic_sites": null, "num_unique_magnetic_sites": null, "types_of_magnetic_species": null, "bulk_modulus": null, "shear_modulus": null, "universal_anisotropy": null, "homogeneous_poisson": null, "e_total": null, "e_ionic": null, "e_electronic": null, "n": null, "e_ij_max": null, "weighted_surface_energy_EV_PER_ANG2": null, "weighted_surface_energy": null, "weighted_work_function": null, "surface_anisotropy": null, "shape_factor": null, "has_reconstructed": null, "possible_species": null, "has_props": null, "theoretical": null, "database_IDs": null, "fields_not_requested": ["builder_meta", "nsites", "elements", "nelements", "composition", "composition_reduced", "chemsys", "symmetry", "property_name", "deprecated", "deprecation_reasons", "last_updated", "origins", "warnings", "task_ids", "uncorrected_energy_per_atom", "equilibrium_reaction_energy_per_atom", "decomposes_to", "xas", "grain_boundaries", "cbm", "vbm", "is_gap_direct", "is_metal", "es_source_calc_id", "bandstructure", "dos", "dos_energy_up", "dos_energy_down", "is_magnetic", "ordering", "total_magnetization_normalized_vol", "total_magnetization_normalized_formula_units", "num_magnetic_sites", "num_unique_magnetic_sites", "types_of_magnetic_species", "bulk_modulus", "shear_modulus", "universal_anisotropy", "homogeneous_poisson", "e_total", "e_ionic", "e_electronic", "n", "e_ij_max", "weighted_surface_energy_EV_PER_ANG2", "weighted_surface_energy", "weighted_work_function", "surface_anisotropy", "shape_factor", "has_reconstructed", "possible_species", "has_props", "theoretical", "database_IDs"]}